Membrane in water
40347
    1TMC1    C1    1   0.278   1.670  11.816 -0.1703 -0.2676  0.4547
    1TMC1    C2    2   0.316   1.607  11.705  0.2303  0.8675  0.2414
    1TMC1    C3    3   0.338   1.677  11.593 -0.3887 -0.7869 -0.8586
    1TMC1    C4    4   0.253   1.806  11.817 -0.4447 -0.6974  0.7073
    1TMC1    C5    5   0.263   1.871  11.696  0.0738  0.6551 -1.0198
    1TMC1    C6    6   0.305   1.808  11.580 -0.0694 -0.1681 -0.3207
    1TMC1     C    7   0.254   1.587  11.936 -0.0390  0.3279  0.5287
    1TMC1     O    8   0.167   1.626  12.014  0.1674  0.4562 -0.4907
    1TMC1     H    9   0.333   1.500  11.698 -3.6034  0.4159 -2.1186
    1TMC1    H1   10   0.211   1.850  11.907 -1.7434 -0.6734  0.1012
    1TMC1    H2   11   0.323   1.855  11.484 -0.6222 -2.0030 -1.3205
    1TMC1    C7   12   0.206   2.004  11.673 -0.1079  0.0422  0.0868
    1TMC1    C8   13   0.361   1.605  11.471  0.1942 -0.0853 -0.1058
    1TMC1    O1   14   0.229   2.066  11.569  0.1052  0.2534 -0.3251
    1TMC1    O2   15   0.440   1.511  11.464 -0.1374  0.6696 -0.0775
    1TMC1    O3   16   0.086   2.000  11.728  0.4674  0.7274  0.8262
    1TMC1    H3   17   0.057   1.928  11.788  0.7099 -0.4238 -0.4248
    1TMC1    O5   18   0.255   1.628  11.396  0.4919 -0.4088 -0.6010
    1TMC1    H5   19   0.199   1.708  11.412  0.3250 -0.9132  1.3280
    2MPD2     C   20   0.367   1.195  12.250  0.0555  0.2446  0.9224
    2MPD2    C1   21   0.246   1.261  12.233  0.5042  0.0936  0.5495
    2MPD2    C2   22   0.240   1.351  12.128 -0.0924  0.1980 -0.6605
    2MPD2    C3   23   0.346   1.375  12.044  0.4144 -0.0910  0.5315
    2MPD2    C4   24   0.459   1.303  12.054 -0.3179 -0.0033  0.3518
    2MPD2    C5   25   0.465   1.202  12.153 -0.3482  0.0627 -0.2280
    2MPD2     H   26   0.148   1.406  12.113 -0.2810  0.3522  1.0870
    2MPD2    H1   27   0.542   1.321  11.987 -1.1844 -1.0283 -0.9989
    2MPD2    H2   28   0.373   1.112  12.320  1.1873 -0.7614 -0.3660
    2MPD2    H3   29   0.557   1.145  12.156 -0.7451 -0.5283  0.7950
    2MPD2     N   30   0.346   1.486  11.948  0.4381 -0.2005 -0.3975
    2MPD2    H5   31   0.432   1.484  11.894  0.2297 -1.4942 -0.6826
    2MPD2    N1   32   0.136   1.252  12.320  0.5018 -0.5733 -0.3655
    2MPD2    H7   33   0.056   1.312  12.301  1.6446  1.1240  0.1893
    3TMC1    C1   34   4.236   2.039  11.405  0.5192 -0.4584 -0.9691
    3TMC1    C2   35   4.326   2.111  11.325  0.7540  0.4656  0.4633
    3TMC1    C3   36   4.454   2.058  11.310  0.0975  0.3068  0.3052
    3TMC1    C4   37   4.263   1.916  11.450  0.3828 -0.1191  0.0379
    3TMC1    C5   38   4.385   1.866  11.431 -0.1608 -0.3187  0.5206
    3TMC1    C6   39   4.480   1.939  11.364  0.1459 -0.1109  0.2209
    3TMC1     C   40   4.094   2.067  11.405  0.1512  0.2959  1.0811
    3TMC1     O   41   4.027   1.975  11.454 -0.0929  0.1707 -0.3434
    3TMC1     H   42   4.301   2.210  11.290  1.0658  1.0134  1.8180
    3TMC1    H1   43   4.194   1.848  11.499 -1.7550  1.5765 -0.6600
    3TMC1    H2   44   4.578   1.898  11.342 -0.2064 -0.6634 -0.3584
    3TMC1    C7   45   4.434   1.754  11.504 -0.5251  0.0157  0.1141
    3TMC1    C8   46   4.563   2.134  11.259 -0.2950 -0.1608 -0.2179
    3TMC1    O1   47   4.534   1.696  11.473  0.0728  0.2190 -0.2699
    3TMC1    O2   48   4.678   2.108  11.291  0.2647 -0.3279  0.1062
    3TMC1    O3   49   4.360   1.730  11.610 -0.2516 -0.5378 -0.0464
    3TMC1    H3   50   4.303   1.809  11.618  1.8147  1.1377 -1.8839
    3TMC1    O5   51   4.522   2.222  11.165 -0.7118 -0.0683  0.0380
    3TMC1    H5   52   4.440   2.195  11.119 -1.3776  0.4410  0.9307
    4MPD2     C   53   3.644   2.307  11.285  0.3487 -0.1584  0.7538
    4MPD2    C1   54   3.750   2.377  11.230 -0.0935 -0.9859 -0.1056
    4MPD2    C2   55   3.883   2.338  11.262  0.1589 -0.3701 -0.4839
    4MPD2    C3   56   3.909   2.223  11.332  0.0170  0.2282 -0.2073
    4MPD2    C4   57   3.801   2.157  11.386  0.3438 -1.1776  0.9515
    4MPD2    C5   58   3.673   2.196  11.364  0.0018  0.3856  0.0852
    4MPD2     H   59   3.966   2.394  11.221 -0.5060  0.6114 -0.4864
    4MPD2    H1   60   3.820   2.064  11.438  3.7403  0.4359  2.5268
    4MPD2    H2   61   3.541   2.332  11.265  1.3297  1.9579 -1.5686
    4MPD2    H3   62   3.591   2.143  11.410  1.3201 -2.8376 -1.2986
    4MPD2     N   63   4.050   2.183  11.348 -0.4799  0.2468  0.4686
    4MPD2    H5   64   4.119   2.248  11.312 -1.4776  0.4386 -1.0596
    4MPD2    N1   65   3.725   2.489  11.142 -0.0730 -0.1067 -0.6233
    4MPD2    H7   66   3.808   2.531  11.101  0.3637  0.1922  0.5496
    5TCq1    O1   67   0.124   4.225  12.349 -0.0831 -0.3247  0.3193
    5TCq1    C1   68   0.112   4.181  12.222 -0.1659 -0.3096  0.6457
    5TCq1    O2   69   0.133   4.069  12.175  0.4494 -0.1762 -0.5199
    5TCq1    C2   70   0.059   4.288  12.142 -0.7088 -0.0628  0.8316
    5TCq1    C3   71   0.071   4.415  12.182 -0.3604 -0.2497 -0.5622
    5TCq1    C4   72   4.735   4.514  12.124 -0.2376  0.4422 -0.6497
    5TCq1    C5   73   4.639   4.486  12.036  0.7321  0.3707 -0.1514
    5TCq1    C6   74   4.635   4.360  11.989 -0.2623  0.1553  0.6261
    5TCq1    C7   75   4.712   4.257  12.037  0.3163  0.6026 -0.5140
    5TCq1    C8   76   4.564   4.323  11.863  0.0335 -0.7616 -0.4124
    5TCq1    O4   77   4.589   4.217  11.806 -0.4176  0.2138  0.0036
    5TCq1    C9   78   0.026   4.649  12.163 -0.1810  0.7278  0.7428
    5TCq1    O5   79   4.684   4.735  12.122 -0.1373  0.1585  0.7417
    5TCq1    O6   80   0.109   4.665  12.251  1.0216 -0.3194  0.2295
    5TCq1    H1   81   0.064   4.300  12.367 -1.6761 -1.2304 -1.2487
    5TCq1    H2   82   0.152   4.448  12.247 -1.2332 -0.7631  0.7867
    5TCq1    H3   83   4.582   4.572  12.002  0.4054 -0.6006 -2.0928
    5TCq1    H4   84   4.698   4.153  12.013  0.2337  0.2902  0.9197
    6MPD2     C   85   4.331   4.525  11.666  0.4561  0.7694 -0.1675
    6MPD2    C1   86   4.421   4.427  11.693 -0.1315 -0.2749 -0.5862
    6MPD2    C2   87   4.443   4.339  11.589  0.9767 -0.3287 -0.0246
    6MPD2    C3   88   4.392   4.351  11.458  0.1817  0.4982 -0.1107
    6MPD2    C4   89   4.296   4.451  11.440  0.1478 -0.0337  0.6101
    6MPD2    C5   90   4.276   4.541  11.543  0.4646 -0.2137 -0.4239
    6MPD2     H   91   4.520   4.263  11.603  0.5767 -0.5948  0.7615
    6MPD2    H1   92   4.250   4.462  11.342 -0.5581 -1.0244  0.8213
    6MPD2    H2   93   4.316   4.588  11.754  1.5521  0.9892 -0.1354
    6MPD2    H3   94   4.213   4.629  11.544 -0.4071 -0.8406 -0.7074
    6MPD2     N   95   4.440   4.257  11.363 -0.3154 -0.1238 -0.1300
    6MPD2    H5   96   4.519   4.201  11.392 -0.0667  1.2511  1.8745
    6MPD2    N1   97   4.483   4.426  11.817 -0.0213 -0.0600  0.0848
    6MPD2    H7   98   4.468   4.500  11.885 -1.2401 -0.9871  0.8410
    7TCq1    O1   99   1.409   3.439  12.861  0.0770 -0.0058 -0.6343
    7TCq1    C1  100   1.523   3.511  12.885  0.0179 -0.0560  0.6449
    7TCq1    O2  101   1.549   3.558  12.994 -0.5406  0.2307  0.1503
    7TCq1    C2  102   1.614   3.414  12.828  0.0368  0.3288 -0.1800
    7TCq1    C3  103   1.600   3.375  12.698 -0.7670 -0.4988  0.1244
    7TCq1    C4  104   1.670   3.261  12.652  0.1257 -0.5783 -0.8403
    7TCq1    C5  105   1.734   3.175  12.730 -0.1558  0.6701  0.4421
    7TCq1    C6  106   1.746   3.221  12.859 -0.8501  0.6161  0.2230
    7TCq1    C7  107   1.685   3.335  12.916  0.0202 -0.6153  0.3367
    7TCq1    C8  108   1.842   3.149  12.945 -0.5731 -0.1242  0.2938
    7TCq1    O4  109   1.885   3.036  12.910  0.2004  0.4220  0.4019
    7TCq1    C9  110   1.687   3.252  12.507  0.4631 -0.5524 -0.6413
    7TCq1    O5  111   1.650   3.358  12.444  0.0062  0.4845 -0.1655
    7TCq1    O6  112   1.739   3.148  12.458 -0.1293  0.7843 -0.3000
    7TCq1    H1  113   1.405   3.404  12.770 -0.0737  0.8969 -0.9749
    7TCq1    H2  114   1.537   3.427  12.626  0.5444  2.5545  1.1556
    7TCq1    H3  115   1.800   3.099  12.690 -2.5154 -0.0451 -2.1303
    7TCq1    H4  116   1.698   3.372  13.017  2.1087  0.3394 -0.2846
    8MPD2     C  117   2.137   3.117  13.370  0.5770 -0.0730 -0.1187
    8MPD2    C1  118   2.088   3.020  13.286 -0.1270  0.3160 -0.4844
    8MPD2    C2  119   2.014   3.053  13.174 -0.7062  0.3340 -0.4661
    8MPD2    C3  120   1.967   3.180  13.159  0.1156  0.1270 -0.3838
    8MPD2    C4  121   1.986   3.268  13.262 -0.1468 -0.2952 -0.3314
    8MPD2    C5  122   2.074   3.241  13.362 -0.1905 -0.4049 -0.4686
    8MPD2     H  123   1.985   2.979  13.101  1.5847 -1.7054  0.6832
    8MPD2    H1  124   1.951   3.370  13.253  0.3805 -0.1802 -1.0674
    8MPD2    H2  125   2.192   3.092  13.460  0.6592 -3.0157 -1.0089
    8MPD2    H3  126   2.091   3.320  13.434 -0.1586 -2.7146  2.0372
    8MPD2     N  127   1.881   3.224  13.056 -0.2852  0.2616  0.1051
    8MPD2    H5  128   1.849   3.319  13.069 -0.6937 -0.1185  1.8881
    8MPD2    N1  129   2.122   2.883  13.320 -0.6894 -0.1616  0.4157
    8MPD2    H7  130   2.172   2.872  13.408  0.6872  2.1617 -0.0552
    9TMC1    C1  131   4.285   2.982  11.679  0.3259  0.5502 -0.1764
    9TMC1    C2  132   4.261   3.063  11.573 -0.2141  0.1401  0.0874
    9TMC1    C3  133   4.357   3.151  11.531  0.3564 -0.3306  0.6063
    9TMC1    C4  134   4.402   3.000  11.756 -0.0552 -0.4251 -0.3349
    9TMC1    C5  135   4.486   3.098  11.720  0.0084 -0.5119  0.2186
    9TMC1    C6  136   4.463   3.170  11.606 -0.3485  0.2967  0.2299
    9TMC1     C  137   4.177   2.889  11.716  0.5377  0.2029  0.8326
    9TMC1     O  138   4.068   2.915  11.671  0.2252  0.4354  0.1100
    9TMC1     H  139   4.171   3.052  11.513  0.1278 -0.9870 -0.2306
    9TMC1    H1  140   4.433   2.944  11.844 -0.3226 -1.0271 -0.6283
    9TMC1    H2  141   4.544   3.234  11.572  0.7026  1.2708  4.5892
    9TMC1    C7  142   4.619   3.102  11.771 -0.0477  0.0271  0.9929
    9TMC1    C8  143   4.330   3.209  11.402  0.9846  0.2790  0.0642
    9TMC1    O1  144   4.639   3.097  11.893 -0.2541  0.3474  0.2104
    9TMC1    O2  145   4.216   3.225  11.362  0.1237 -0.1326 -0.0856
    9TMC1    O3  146   4.713   3.069  11.679 -0.3734  0.5321  0.3428
    9TMC1    H3  147   4.682   3.081  11.586 -0.9858 -2.5043  0.1443
    9TMC1    O5  148   4.423   3.144  11.331 -0.4705  0.0053 -0.7186
    9TMC1    H5  149   4.501   3.116  11.383 -0.2796  0.8645 -0.5553
   10MPD2     C  150   4.007   2.693  11.859 -0.0639 -0.0723 -0.9316
   10MPD2    C1  151   4.141   2.690  11.858  0.6578 -0.0428 -0.2672
   10MPD2    C2  152   4.205   2.583  11.916  0.9690  0.8069 -1.0051
   10MPD2    C3  153   4.129   2.489  11.987  0.4419  0.7026 -0.5512
   10MPD2    C4  154   3.993   2.494  11.995  0.0030 -0.1830  0.1276
   10MPD2    C5  155   3.934   2.603  11.932  0.6350 -0.1532  0.1852
   10MPD2     H  156   4.313   2.589  11.918  0.7384  4.6285 -0.8524
   10MPD2    H1  157   3.947   2.415  12.053 -1.3064 -1.7909 -3.1400
   10MPD2    H2  158   3.953   2.771  11.806 -0.3269 -0.5122 -1.3155
   10MPD2    H3  159   3.827   2.620  11.925  1.0435  2.1487 -0.5342
   10MPD2     N  160   4.193   2.383  12.057 -0.2941 -0.0059  0.5628
   10MPD2    H5  161   4.132   2.309  12.092  0.6891  0.0796  2.4717
   10MPD2    N1  162   4.219   2.782  11.790  0.2836 -0.2174  0.0641
   10MPD2    H7  163   4.317   2.776  11.819 -0.0442 -2.2485  0.7898
   11TCq1    O1  164   0.072   2.307  14.553 -0.0250  0.1332 -0.2549
   11TCq1    C1  165   0.028   2.239  14.448  0.8819 -0.4335 -0.2794
   11TCq1    O2  166   4.669   2.256  14.383 -0.2332  0.0563 -0.2739
   11TCq1    C2  167   0.105   2.117  14.444  0.0871 -0.2090  0.4457
   11TCq1    C3  168   0.235   2.114  14.403  0.2124 -0.4069  0.5863
   11TCq1    C4  169   0.288   2.000  14.355 -0.5171  0.2074 -0.1190
   11TCq1    C5  170   0.210   1.894  14.343  0.2807  0.8068 -0.0589
   11TCq1    C6  171   0.079   1.891  14.375  0.3071  0.2967  0.0971
   11TCq1    C7  172   0.025   2.005  14.426  0.1501  0.1766  0.5283
   11TCq1    C8  173   0.002   1.781  14.323  0.5204  0.3151  0.3139
   11TCq1    O4  174   4.649   1.760  14.386  0.2583  0.3300  0.0678
   11TCq1    C9  175   0.425   2.001  14.306 -0.5316 -0.3605 -0.1013
   11TCq1    O5  176   0.462   1.890  14.262  0.1419  0.2790 -0.0665
   11TCq1    O6  177   0.488   2.107  14.307 -0.5931 -0.0763  0.4348
   11TCq1    H1  178   0.151   2.258  14.585 -1.0095  0.3339  2.4433
   11TCq1    H2  179   0.286   2.208  14.418  0.2254 -0.1656 -0.9283
   11TCq1    H3  180   0.259   1.801  14.318 -0.3319  0.6132 -0.5689
   11TCq1    H4  181   4.675   1.994  14.479  1.5064 -1.7966  2.5203
   12MPD2     C  182   4.639   1.550  14.154  0.0192  0.1371  0.1540
   12MPD2    C1  183   0.015   1.617  14.134 -0.1887  0.2797  0.0030
   12MPD2    C2  184   0.107   1.569  14.048 -0.0660  0.1031  0.4259
   12MPD2    C3  185   0.085   1.451  13.978  0.4103 -1.0754 -0.1007
   12MPD2    C4  186   4.717   1.380  14.002 -0.0654 -0.5033 -0.4202
   12MPD2    C5  187   4.624   1.429  14.088 -0.1705  0.6059  0.4817
   12MPD2     H  188   0.199   1.626  14.043 -0.5223  0.9371  1.7315
   12MPD2    H1  189   4.701   1.284  13.954 -0.1592 -0.1666 -1.0602
   12MPD2    H2  190   4.559   1.579  14.222 -1.7275 -1.2706 -1.3270
   12MPD2    H3  191   4.539   1.364  14.106 -0.0182  0.5089  0.8578
   12MPD2     N  192   0.173   1.392  13.885 -0.2714  0.3216  0.1417
   12MPD2    H5  193   0.147   1.302  13.848  2.7797 -0.3454 -0.3709
   12MPD2    N1  194   0.055   1.734  14.203  0.3085  0.0002 -0.2459
   12MPD2    H7  195   0.147   1.771  14.183 -0.5756  3.2518  1.7010
   13TCq1    O1  196   0.242   2.488  11.213 -0.1902  0.5650 -0.1444
   13TCq1    C1  197   0.230   2.624  11.196  1.0449  0.8179 -0.1806
   13TCq1    O2  198   0.324   2.699  11.186 -0.4706 -0.1889 -0.8497
   13TCq1    C2  199   0.115   2.669  11.270 -0.8601 -0.2745  0.7355
   13TCq1    C3  200   0.102   2.804  11.280  0.2738 -0.1652 -0.3792
   13TCq1    C4  201   0.007   2.857  11.353  0.5061  0.0179  0.2111
   13TCq1    C5  202   4.658   2.777  11.421 -0.7261 -0.9032  0.2959
   13TCq1    C6  203   4.679   2.638  11.420  1.3740 -0.2856 -0.4929
   13TCq1    C7  204   0.032   2.579  11.339  0.1717  0.4290 -0.2235
   13TCq1    C8  205   4.577   2.564  11.496 -0.1959  0.5116  0.3603
   13TCq1    O4  206   4.475   2.618  11.537 -0.0911  0.0459 -0.3446
   13TCq1    C9  207   4.733   3.001  11.355 -0.1437  0.3488 -0.2153
   13TCq1    O5  208   0.073   3.071  11.293 -0.4995  0.2875 -0.0173
   13TCq1    O6  209   4.644   3.051  11.432 -0.5203 -0.0383 -0.6317
   13TCq1    H1  210   0.152   2.456  11.191  0.1453  1.6438 -3.0848
   13TCq1    H2  211   0.158   2.877  11.223  0.8237 -0.4607 -0.2199
   13TCq1    H3  212   4.577   2.821  11.477 -1.2129 -0.3814 -0.8275
   13TCq1    H4  213   0.055   2.474  11.358 -1.1874 -0.1923 -2.0694
   14MPD2     C  214   4.590   2.219  11.638  0.5896 -0.3718  0.4660
   14MPD2    C1  215   4.533   2.338  11.586  0.1837 -0.0021 -0.6730
   14MPD2    C2  216   4.392   2.347  11.595  0.4409 -0.6243  0.5921
   14MPD2    C3  217   4.311   2.253  11.655 -0.3303  0.9460  0.0158
   14MPD2    C4  218   4.365   2.143  11.715  0.1129 -0.4535  0.3592
   14MPD2    C5  219   4.506   2.128  11.705 -0.4009 -0.6094  0.4867
   14MPD2     H  220   4.346   2.427  11.540  0.9352 -1.8120 -1.5712
   14MPD2    H1  221   4.304   2.069  11.765  0.1412 -0.2632  0.6754
   14MPD2    H2  222   4.694   2.192  11.623  0.5306 -0.1852 -0.3104
   14MPD2    H3  223   4.548   2.038  11.749 -0.5047 -1.2728 -0.7739
   14MPD2     N  224   4.175   2.287  11.661 -0.2595 -0.4510  0.4619
   14MPD2    H5  225   4.149   2.375  11.618 -0.5580 -1.0018 -0.4698
   14MPD2    N1  226   4.614   2.428  11.515 -0.5108  0.0851 -0.6865
   14MPD2    H7  227   4.711   2.396  11.513  0.6960  3.6074  0.2521
   15TCq1    O1  228   1.921   1.135   1.977  0.4454  0.1168  0.0822
   15TCq1    C1  229   1.976   1.096   2.090 -0.6397 -0.2284  0.4786
   15TCq1    O2  230   1.953   1.150   2.197 -0.3141  0.2213 -0.5659
   15TCq1    C2  231   2.092   1.006   2.071  0.3922 -0.0693  0.6856
   15TCq1    C3  232   2.156   0.974   2.186 -0.1600 -0.7131  0.1016
   15TCq1    C4  233   2.270   0.898   2.184  0.2508 -0.2898 -0.1298
   15TCq1    C5  234   2.315   0.852   2.064  0.0246  0.0836 -0.1459
   15TCq1    C6  235   2.243   0.880   1.948  0.4221 -0.1552  0.0165
   15TCq1    C7  236   2.130   0.961   1.948 -0.1975  0.3703  0.3637
   15TCq1    C8  237   2.303   0.836   1.822 -0.1310  0.7243 -0.3115
   15TCq1    O4  238   2.395   0.764   1.829 -0.0590  0.0564  0.3133
   15TCq1    C9  239   2.346   0.885   2.303  0.2519  0.0903  0.5618
   15TCq1    O5  240   2.306   0.944   2.404  0.2819 -0.2467 -0.3012
   15TCq1    O6  241   2.444   0.809   2.305 -0.0257 -0.6009 -0.3617
   15TCq1    H1  242   1.931   1.081   1.895  1.3353  1.8620 -0.9597
   15TCq1    H2  243   2.120   1.013   2.281 -1.4337  0.0630 -0.7069
   15TCq1    H3  244   2.413   0.806   2.055  0.1585 -0.1672  2.7489
   15TCq1    H4  245   2.084   0.997   1.857  0.2929 -1.5609 -0.6638
   16MPD2     C  246   2.137   0.839   1.503  0.4301  0.2796  0.9919
   16MPD2    C1  247   2.218   0.784   1.594  0.4550 -0.1912  0.3369
   16MPD2    C2  248   2.299   0.685   1.563  0.5193  0.4863  0.9886
   16MPD2    C3  249   2.291   0.624   1.438 -0.0972  0.2104 -1.2725
   16MPD2    C4  250   2.192   0.663   1.352  0.1456  0.6251 -0.3249
   16MPD2    C5  251   2.116   0.775   1.382  0.9699 -0.0045 -0.2657
   16MPD2     H  252   2.367   0.646   1.638  2.5302  1.9582 -0.0568
   16MPD2    H1  253   2.176   0.615   1.256 -0.4393 -0.7207  0.4445
   16MPD2    H2  254   2.082   0.931   1.515 -0.7918 -0.6131  2.3314
   16MPD2    H3  255   2.038   0.809   1.315 -0.9995 -3.1000  0.4502
   16MPD2     N  256   2.381   0.520   1.412 -0.3254 -1.0603  0.4181
   16MPD2    H5  257   2.455   0.505   1.481 -0.7898  1.5608  1.4799
   16MPD2    N1  258   2.208   0.849   1.723 -0.3293 -0.1571 -1.0127
   16MPD2    H7  259   2.132   0.916   1.729  0.0596  0.3044 -1.1551
   17TMC1    C1  260   3.707   0.826  11.142  0.3840 -0.0162 -0.3480
   17TMC1    C2  261   3.666   0.732  11.239 -0.6572 -0.2756 -0.0293
   17TMC1    C3  262   3.631   0.785  11.361 -0.3327 -1.0036 -0.2826
   17TMC1    C4  263   3.720   0.961  11.160 -0.5560 -0.1804 -0.0068
   17TMC1    C5  264   3.668   0.998  11.278  0.4141 -0.0923  0.2395
   17TMC1    C6  265   3.627   0.920  11.384  0.0153 -0.2006  0.5213
   17TMC1     C  266   3.776   0.759  11.034 -0.1798  0.0338 -0.2436
   17TMC1     O  267   3.746   0.644  11.013  0.6094 -0.1942  0.3808
   17TMC1     H  268   3.671   0.626  11.218 -1.2369 -0.9907  3.4748
   17TMC1    H1  269   3.736   1.029  11.077  0.5723 -0.9463 -0.4104
   17TMC1    H2  270   3.611   0.962  11.482  1.8761 -0.6093  0.9973
   17TMC1    C7  271   3.682   1.140  11.306 -0.0192  0.2191 -0.1585
   17TMC1    C8  272   3.582   0.706  11.474 -0.3380  0.7527 -0.1861
   17TMC1    O1  273   3.747   1.213  11.235  0.8859 -0.3015  0.0819
   17TMC1    O2  274   3.599   0.748  11.585 -0.0254 -1.2061 -0.0966
   17TMC1    O3  275   3.593   1.188  11.395 -0.2782 -0.0797 -0.0723
   17TMC1    H3  276   3.543   1.108  11.423 -2.4005  1.3405  0.1514
   17TMC1    O5  277   3.578   0.580  11.438  0.0031 -0.2033 -0.2045
   17TMC1    H5  278   3.552   0.570  11.344  0.9613 -1.1696 -0.3777
   18MPD2     C  279   3.980   0.676  10.831  0.1681 -0.2055 -0.3314
   18MPD2    C1  280   3.984   0.798  10.901  0.4439 -0.4704  0.8050
   18MPD2    C2  281   4.083   0.887  10.870  0.2443 -0.3088  0.3219
   18MPD2    C3  282   4.180   0.859  10.773  0.4169  0.1242  0.7307
   18MPD2    C4  283   4.187   0.735  10.716 -0.0831  0.1543  0.0117
   18MPD2    C5  284   4.090   0.646  10.749  0.5481 -0.3223 -0.1806
   18MPD2     H  285   4.097   0.978  10.927  0.6554  0.9054 -1.7047
   18MPD2    H1  286   4.272   0.712  10.653 -1.3295 -1.8123 -0.9625
   18MPD2    H2  287   3.906   0.599  10.848 -0.0172  0.3754  1.5142
   18MPD2    H3  288   4.098   0.544  10.713  2.7191  0.0707 -0.7777
   18MPD2     N  289   4.288   0.949  10.751 -0.0091 -0.4965  0.2065
   18MPD2    H5  290   4.376   0.926  10.706 -0.7076  1.0845 -1.9562
   18MPD2    N1  291   3.887   0.833  10.992 -0.0616  0.6113 -0.2314
   18MPD2    H7  292   3.901   0.927  11.027 -0.7648  0.7189 -0.2277
   19TMC2    C1  293   1.533   1.967  14.101 -0.2871  0.0386 -0.0287
   19TMC2    C2  294   1.465   2.035  14.004  0.1416 -0.0738  0.3610
   19TMC2    C3  295   1.332   2.017  13.993  0.2351  0.0693 -0.3752
   19TMC2    C4  296   1.476   1.884  14.194 -0.4598  0.3789  0.3281
   19TMC2    C5  297   1.338   1.869  14.179  0.9931  0.1114  0.5381
   19TMC2    C6  298   1.270   1.932  14.079 -0.4466  0.0298 -0.0103
   19TMC2     C  299   1.676   1.988  14.094 -0.1932  0.2652  0.5412
   19TMC2     O  300   1.721   2.090  14.040 -0.2164  0.4919  0.6204
   19TMC2     H  301   1.519   2.093  13.930 -2.0232  0.3523 -0.8954
   19TMC2    H1  302   1.525   1.815  14.262  0.9018 -0.8113 -1.8553
   19TMC2    H2  303   1.165   1.909  14.060 -0.5968  0.0937  0.7267
   19TMC2    C7  304   1.275   1.758  14.238  0.0836  0.1568 -0.4382
   19TMC2    C8  305   1.277   2.026  13.860  0.1762 -0.2622  0.1071
   19TMC2    O1  306   1.337   1.670  14.295  0.3674  0.2877 -0.5926
   19TMC2    O2  307   1.352   2.051  13.760 -0.1876 -0.2440  0.1012
   19TMC2    O5  308   1.139   2.023  13.862 -0.0771  0.3919  0.2626
   19TMC2    H5  309   1.100   2.042  13.950 -0.2495  0.1511  0.2387
   20MPD2     C  310   1.964   1.977  14.162  0.0203  0.9114  0.1553
   20MPD2    C1  311   1.871   1.880  14.199 -0.3760  1.2708 -0.8078
   20MPD2    C2  312   1.916   1.771  14.265 -0.6026  0.5732 -0.0586
   20MPD2    C3  313   2.046   1.765  14.302 -0.7601  0.1342  0.4092
   20MPD2    C4  314   2.139   1.866  14.273  0.8177 -0.1992 -0.0667
   20MPD2    C5  315   2.096   1.962  14.189  0.1045 -0.5051  0.4115
   20MPD2     H  316   1.848   1.689  14.286 -1.2408  1.3489  0.8970
   20MPD2    H1  317   2.244   1.868  14.303 -0.1451  1.1548  3.2553
   20MPD2    H2  318   1.938   2.059  14.097 -0.8071  0.1378 -0.4835
   20MPD2    H3  319   2.171   2.033  14.155 -2.1853  0.7570 -1.9223
   20MPD2     N  320   2.107   1.659  14.374 -0.4721  0.8681 -0.2510
   20MPD2    H5  321   2.197   1.671  14.420 -1.6030 -0.0374  2.1249
   20MPD2    N1  322   1.736   1.890  14.166  0.0231 -0.6165 -0.0055
   20MPD2    H7  323   1.677   1.812  14.193  2.0824 -2.0573  0.3988
   21TMC2    C1  324   3.659   1.859  15.163 -0.2264 -0.0358 -1.2328
   21TMC2    C2  325   3.717   1.788  15.258 -0.3165  0.2788 -0.3067
   21TMC2    C3  326   3.712   1.828  15.391 -0.1808 -0.2043  0.4468
   21TMC2    C4  327   3.606   1.979  15.184  0.0772 -0.1946 -0.4976
   21TMC2    C5  328   3.628   2.029  15.312 -0.3276  0.2527 -0.6768
   21TMC2    C6  329   3.665   1.954  15.423  0.3576  0.4948  0.1020
   21TMC2     C  330   3.691   1.822  15.025  0.4674  0.9917  0.7113
   21TMC2     O  331   3.801   1.780  14.997  0.9293  0.0120  0.2618
   21TMC2     H  332   3.776   1.699  15.239 -1.2330 -0.0601 -1.5979
   21TMC2    H1  333   3.559   2.029  15.100 -3.3455 -2.1162  0.2788
   21TMC2    H2  334   3.666   1.999  15.521  0.5203 -3.6663  1.9904
   21TMC2    C7  335   3.555   2.148  15.353  0.6634  0.0499  0.0221
   21TMC2    C8  336   3.754   1.748  15.499 -0.1541  0.6714 -0.8864
   21TMC2    O1  337   3.595   2.203  15.454  0.3176 -0.0929  0.5108
   21TMC2    O2  338   3.728   1.800  15.603  0.2887  0.0534 -0.0074
   21TMC2    O5  339   3.712   1.626  15.461  0.8325  0.2458  0.1259
   21TMC2    H5  340   3.756   1.604  15.377 -1.3059 -1.5600 -0.5220
   22MPD2     C  341   3.601   1.822  14.524 -0.0767  0.4882 -0.0329
   22MPD2    C1  342   3.716   1.861  14.591 -0.2371  0.5558  0.1808
   22MPD2    C2  343   3.720   1.866  14.731 -0.4552  0.0986  0.3185
   22MPD2    C3  344   3.603   1.853  14.798  0.1944  0.2991  0.7002
   22MPD2    C4  345   3.487   1.835  14.726 -0.0136 -0.3153 -0.8685
   22MPD2    C5  346   3.483   1.819  14.593  0.7076  0.3394  0.1553
   22MPD2     H  347   3.815   1.886  14.778  0.4417 -3.0646 -0.1251
   22MPD2    H1  348   3.387   1.836  14.768 -1.0345 -0.2501 -3.2884
   22MPD2    H2  349   3.592   1.811  14.417  0.5983  3.2333 -0.3626
   22MPD2    H3  350   3.387   1.790  14.552 -0.0279  1.5014  1.0699
   22MPD2     N  351   3.589   1.856  14.936  0.7699  0.1799 -0.2872
   22MPD2    H5  352   3.499   1.886  14.973  0.2938  0.0856 -1.3618
   22MPD2    N1  353   3.832   1.878  14.513  0.3364  0.1997 -0.1970
   22MPD2    H7  354   3.824   1.858  14.414 -1.2666  1.5553 -0.3329
   23TMC2    C1  355   0.264   3.094  14.653 -0.0613 -0.2107 -0.3167
   23TMC2    C2  356   0.191   3.196  14.709  0.0990 -0.1773 -1.0769
   23TMC2    C3  357   0.061   3.209  14.671 -0.1149 -0.2010  0.5049
   23TMC2    C4  358   0.205   2.987  14.586  0.3968 -0.0073 -0.0560
   23TMC2    C5  359   0.082   3.009  14.542 -0.8317  0.4322 -0.2159
   23TMC2    C6  360   0.007   3.116  14.581  0.2112  0.2689 -0.2363
   23TMC2     C  361   0.382   3.072  14.730 -0.0703 -0.1744 -0.9325
   23TMC2     O  362   0.397   3.111  14.848 -0.4514 -0.3634 -1.0494
   23TMC2     H  363   0.239   3.269  14.773 -2.9068 -0.9850  2.0606
   23TMC2    H1  364   0.265   2.907  14.543 -0.4208 -0.2641 -0.7166
   23TMC2    H2  365   4.645   3.129  14.561  0.2295  0.4752 -0.2050
   23TMC2    C7  366   0.029   2.914  14.441 -0.2804 -0.0315  0.2168
   23TMC2    C8  367   0.012   3.344  14.685  0.1419 -1.2578  0.6306
   23TMC2    O1  368   0.096   2.808  14.431  0.2752  0.2067  0.0966
   23TMC2    O2  369   0.028   3.407  14.785 -0.4304 -0.2874  0.4483
   23TMC2    O5  370   0.035   3.393  14.559 -0.0842 -0.5124  0.4702
   23TMC2    H5  371   0.010   3.330  14.488  0.9319  0.5104 -0.7729
   24MPD2     C  372   0.859   2.868  14.773 -0.3471 -0.5883  0.2725
   24MPD2    C1  373   0.760   2.889  14.872  0.2635  0.0817 -0.5757
   24MPD2    C2  374   0.640   2.936  14.837  0.0182  0.4657  0.2905
   24MPD2    C3  375   0.609   2.959  14.703  0.3549  0.3242 -1.1195
   24MPD2    C4  376   0.705   2.932  14.605 -0.8110  0.0756 -0.6399
   24MPD2    C5  377   0.829   2.893  14.641  0.1534 -0.1588  0.4275
   24MPD2     H  378   0.571   2.956  14.918 -1.4796 -1.2409 -0.5544
   24MPD2    H1  379   0.687   2.949  14.499 -4.3284 -1.5921 -0.3063
   24MPD2    H2  380   0.963   2.845  14.797 -0.2942  0.5386  1.0901
   24MPD2    H3  381   0.909   2.866  14.573  2.1331  0.5592  2.4779
   24MPD2     N  382   0.478   3.002  14.657  0.0423  0.2999  0.0960
   24MPD2    H5  383   0.461   2.990  14.557  2.6735 -0.5502 -0.2607
   24MPD2    N1  384   0.777   2.852  15.007  0.1992 -0.2975 -0.0339
   24MPD2    H7  385   0.707   2.876  15.075  1.1253 -0.9810  1.1538
   25TMC2    C1  386   3.790   1.019  11.825 -0.1741 -0.7834 -0.3811
   25TMC2    C2  387   3.675   1.091  11.828 -0.2012  0.8595  0.1194
   25TMC2    C3  388   3.591   1.089  11.938  0.0575  0.1029 -0.5071
   25TMC2    C4  389   3.829   0.943  11.926 -0.3931  0.6887 -0.3263
   25TMC2    C5  390   3.747   0.946  12.035 -0.6404 -0.2467  0.7742
   25TMC2    C6  391   3.632   1.021  12.050 -0.5382  0.5347  0.1604
   25TMC2     C  392   3.849   1.011  11.695 -0.7435 -0.3334 -0.3376
   25TMC2     O  393   3.848   1.108  11.621  0.1902 -0.4964 -0.1008
   25TMC2     H  394   3.638   1.140  11.739  2.1373 -0.2681 -1.4888
   25TMC2    H1  395   3.906   0.867  11.919 -0.6783  0.3695 -0.0198
   25TMC2    H2  396   3.565   1.004  12.133 -0.2414 -1.3789 -0.0034
   25TMC2    C7  397   3.805   0.880  12.154  0.9228  1.0277  0.5495
   25TMC2    C8  398   3.466   1.160  11.945 -0.2390 -0.3927  0.1072
   25TMC2    O1  399   3.860   0.773  12.136 -0.2810 -0.3217  0.2629
   25TMC2    O2  400   3.378   1.122  11.869  0.3557 -0.3701 -0.3388
   25TMC2    O5  401   3.441   1.199  12.073 -0.0100  0.0106 -0.1746
   25TMC2    H5  402   3.525   1.221  12.119 -0.1421  1.5419 -0.6819
   26MPD2     C  403   4.039   0.729  11.307  0.1278  0.2168 -0.8285
   26MPD2    C1  404   4.033   0.647  11.420  0.0450 -0.2942 -0.5863
   26MPD2    C2  405   3.996   0.698  11.544  0.6689  0.1612 -0.3066
   26MPD2    C3  406   3.967   0.832  11.553  0.0946  0.6587  0.6884
   26MPD2    C4  407   3.982   0.912  11.442  0.1730  0.4618 -0.1353
   26MPD2    C5  408   4.022   0.863  11.324 -0.5582  0.1317 -0.5331
   26MPD2     H  409   3.980   0.627  11.624 -1.4055  1.6014  0.5391
   26MPD2    H1  410   3.976   1.020  11.447  2.2577  0.6265 -0.9707
   26MPD2    H2  411   4.079   0.700  11.210  0.6003 -2.2540  0.0963
   26MPD2    H3  412   4.049   0.939  11.252 -2.3382 -2.4686 -3.9456
   26MPD2     N  413   3.895   0.876  11.673  0.1708 -0.0942  0.1384
   26MPD2    H5  414   3.874   0.804  11.741  0.7911 -1.0375 -0.6798
   26MPD2    N1  415   4.055   0.503  11.401 -0.4977 -0.2252  0.0490
   26MPD2    H7  416   4.063   0.475  11.304  0.1128  0.7091 -0.1660
   27TMC2    C1  417   2.504   2.823  12.254  0.2815 -0.5586  0.4043
   27TMC2    C2  418   2.433   2.928  12.217 -0.2862  0.3433  0.6008
   27TMC2    C3  419   2.457   3.047  12.277  0.0371  0.4178  0.4686
   27TMC2    C4  420   2.602   2.835  12.354 -0.1455 -0.1227 -0.6125
   27TMC2    C5  421   2.606   2.955  12.426  0.2048 -0.7004 -0.2260
   27TMC2    C6  422   2.537   3.065  12.384  0.1548  0.1869 -0.4785
   27TMC2     C  423   2.457   2.688  12.217 -0.0829  0.0626  0.3250
   27TMC2     O  424   2.379   2.677  12.124 -0.6824 -0.3532 -0.2528
   27TMC2     H  425   2.357   2.924  12.139 -0.7674  1.2936  1.0211
   27TMC2    H1  426   2.676   2.762  12.384 -0.4137 -0.2103 -0.1526
   27TMC2    H2  427   2.558   3.163  12.425 -0.5434 -0.2567  0.9147
   27TMC2    C7  428   2.605   2.931  12.565  0.5470 -0.0618  0.4231
   27TMC2    C8  429   2.406   3.161  12.211  0.0117  0.4055 -1.0234
   27TMC2    O1  430   2.575   2.818  12.599 -0.2423 -0.0984  0.2860
   27TMC2    O2  431   2.354   3.152  12.100  0.7308  0.0559 -0.3232
   27TMC2    O5  432   2.373   3.256  12.304  0.1066 -0.5887  0.1161
   27TMC2    H5  433   2.386   3.236  12.399  0.1927 -1.3624 -0.0550
   28MPD2     C  434   2.386   2.214  12.400 -0.1481 -0.1807  0.0239
   28MPD2    C1  435   2.422   2.298  12.500 -0.2459 -0.5188 -0.1403
   28MPD2    C2  436   2.458   2.425  12.467  0.1979  0.1346  0.0790
   28MPD2    C3  437   2.453   2.468  12.337 -0.2276 -0.1336  0.5041
   28MPD2    C4  438   2.412   2.384  12.238 -0.2660 -0.0531  0.4799
   28MPD2    C5  439   2.370   2.259  12.270 -0.1534 -0.0904  0.4644
   28MPD2     H  440   2.491   2.502  12.536  1.4147 -1.4323  1.2426
   28MPD2    H1  441   2.401   2.422  12.137  0.4790 -1.2990 -0.0763
   28MPD2    H2  442   2.361   2.110  12.418 -0.4081 -0.4630 -1.9323
   28MPD2    H3  443   2.345   2.191  12.190 -0.0247 -1.6407  1.7464
   28MPD2     N  444   2.494   2.600  12.314 -0.0871  0.5246  0.6713
   28MPD2    H5  445   2.535   2.649  12.392 -1.4150 -1.3562  2.5611
   28MPD2    N1  446   2.408   2.255  12.638  0.1396  0.7077  0.7776
   28MPD2    H7  447   2.357   2.169  12.659  1.0070 -0.4960 -2.1000
   29TMC2    C1  448   2.728   0.510  14.136 -0.1856  0.7320  0.8866
   29TMC2    C2  449   2.597   0.527  14.150 -0.2290  0.5204 -0.1689
   29TMC2    C3  450   2.551   0.626  14.234  0.4326  0.0956 -0.4167
   29TMC2    C4  451   2.824   0.590  14.195  0.1262  0.0280  0.0616
   29TMC2    C5  452   2.774   0.686  14.276 -0.2514  0.6714  0.7822
   29TMC2    C6  453   2.640   0.710  14.298  0.0479 -0.0352  0.1732
   29TMC2     C  454   2.763   0.397  14.054  0.4467 -0.8567 -0.1913
   29TMC2     O  455   2.675   0.309  14.035 -0.0572 -0.0899  0.9206
   29TMC2     H  456   2.526   0.471  14.091 -1.2947  1.8702 -0.1575
   29TMC2    H1  457   2.928   0.564  14.186  0.1645  0.1985  0.0192
   29TMC2    H2  458   2.596   0.796  14.348 -0.1362  0.4548 -0.8434
   29TMC2    C7  459   2.870   0.747  14.363 -0.5500 -0.1291 -0.8824
   29TMC2    C8  460   2.409   0.678  14.226  0.3832 -0.1427 -0.0994
   29TMC2    O1  461   2.992   0.731  14.345  0.0552 -0.0251  0.0079
   29TMC2    O2  462   2.378   0.792  14.269  0.7694 -0.2745 -0.1407
   29TMC2    O5  463   2.332   0.573  14.221  0.1905  0.1125  0.3291
   29TMC2    H5  464   2.372   0.490  14.189  0.5294  0.2622  0.3643
   30MPD2     C  465   3.089   0.128  13.760  0.0126 -0.1163 -0.6857
   30MPD2    C1  466   2.967   0.096  13.813  0.0512  0.4720  0.1415
   30MPD2    C2  467   2.894   0.192  13.885 -0.7771 -0.0359 -0.9173
   30MPD2    C3  468   2.955   0.310  13.925 -0.8119 -0.8671 -0.1823
   30MPD2    C4  469   3.082   0.337  13.879  0.0945  0.0289 -0.3657
   30MPD2    C5  470   3.143   0.250  13.799  0.5599 -0.1921 -0.8531
   30MPD2     H  471   2.791   0.172  13.912 -0.4881 -1.5180 -0.9351
   30MPD2    H1  472   3.123   0.435  13.899 -1.6399  0.6818  0.0136
   30MPD2    H2  473   3.157   0.062  13.707  0.3869  0.1685 -0.5632
   30MPD2    H3  474   3.241   0.281  13.763  0.4877  0.4417 -0.5055
   30MPD2     N  475   2.893   0.408  14.011  0.0762 -0.2857  0.0966
   30MPD2    H5  476   2.951   0.490  14.026  0.4081 -0.4149 -0.4706
   30MPD2    N1  477   2.907   4.713  13.801 -0.4930 -0.1642 -0.5668
   30MPD2    H7  478   2.826   4.694  13.859 -0.7806  3.5998  0.2570
   31TMC2    C1  479   0.652   3.536  15.598  0.7677  0.6202  0.5636
   31TMC2    C2  480   0.534   3.498  15.541  0.2878  0.3210  0.4596
   31TMC2    C3  481   0.426   3.487  15.632 -0.0452 -0.6070  0.5715
   31TMC2    C4  482   0.672   3.568  15.727 -0.1841  0.0611  0.2287
   31TMC2    C5  483   0.555   3.568  15.806  0.2078  0.1708  0.2474
   31TMC2    C6  484   0.435   3.522  15.761 -0.0682  0.0218  0.2573
   31TMC2     C  485   0.745   3.583  15.499  0.1240 -0.1488 -0.1215
   31TMC2     O  486   0.698   3.622  15.392 -0.5724 -0.3694 -0.5178
   31TMC2     H  487   0.520   3.464  15.440 -0.6430 -1.0208  1.0407
   31TMC2    H1  488   0.770   3.595  15.764  0.4029 -1.2404 -0.3549
   31TMC2    H2  489   0.363   3.503  15.840 -0.1875 -2.0800 -0.3591
   31TMC2    C7  490   0.580   3.563  15.944  0.1761  0.2474 -0.2913
   31TMC2    C8  491   0.319   3.396  15.602  0.0306  0.3717  0.4419
   31TMC2    O1  492   0.692   3.530  15.980 -0.1856 -0.0903  1.2213
   31TMC2    O2  493   0.219   3.401  15.671 -0.6314  0.6225 -0.0464
   31TMC2    O5  494   0.388   3.290  15.556  0.4741 -0.6577 -0.5145
   31TMC2    H5  495   0.463   3.308  15.495  1.2291  2.0457  1.2375
   32MPD2     C  496   1.195   3.808  15.366 -0.9923  0.3025 -0.3845
   32MPD2    C1  497   1.065   3.809  15.301 -0.0992 -0.1877  0.5337
   32MPD2    C2  498   0.963   3.734  15.356  0.5375  0.5266 -0.3776
   32MPD2    C3  499   0.986   3.656  15.472  0.0690  0.2140 -0.5911
   32MPD2    C4  500   1.114   3.653  15.535  0.6045 -0.1313 -0.7503
   32MPD2    C5  501   1.211   3.735  15.485 -0.0965  0.7669  0.3722
   32MPD2     H  502   0.864   3.739  15.312 -0.3823  2.7511  1.8692
   32MPD2    H1  503   1.131   3.593  15.623  0.4355 -0.2472 -0.7977
   32MPD2    H2  504   1.278   3.867  15.331  1.7353 -2.1272  1.9400
   32MPD2    H3  505   1.304   3.748  15.541 -0.4387  1.6981  0.7362
   32MPD2     N  506   0.884   3.585  15.537 -0.2319 -0.0626 -0.1691
   32MPD2    H5  507   0.915   3.525  15.613  1.9264  1.0450 -0.1804
   32MPD2    N1  508   1.047   3.905  15.195 -0.1656 -0.4914 -0.0174
   32MPD2    H7  509   1.125   3.967  15.178 -0.5751 -0.1797 -0.7532
   33TMC2    C1  510   4.674   2.015  10.438 -0.3723  0.4148  0.0071
   33TMC2    C2  511   4.552   2.049  10.388 -0.0005  0.6024  0.4824
   33TMC2    C3  512   4.541   2.135  10.290 -0.2712 -0.0599  0.1034
   33TMC2    C4  513   0.045   2.063  10.374  0.0681  0.0684 -0.2732
   33TMC2    C5  514   0.032   2.142  10.265 -0.7165 -0.6076 -0.2112
   33TMC2    C6  515   4.650   2.186  10.232  0.2035  0.2504  0.1262
   33TMC2     C  516   4.680   1.913  10.547  0.2638  0.1788 -0.4816
   33TMC2     O  517   4.573   1.858  10.569 -0.2711  0.1501  0.5840
   33TMC2     H  518   4.463   2.012  10.438 -0.5820 -0.8774 -1.6784
   33TMC2    H1  519   0.143   2.032  10.409  0.1840  2.0199  1.1490
   33TMC2    H2  520   4.636   2.264  10.158  1.6621 -1.6673 -2.1466
   33TMC2    C7  521   0.152   2.189  10.197 -0.2862  0.4814  0.3691
   33TMC2    C8  522   4.410   2.182  10.271  0.0206  0.2978  0.1980
   33TMC2    O1  523   0.258   2.175  10.260 -0.5277  0.3439 -0.2490
   33TMC2    O2  524   4.327   2.207  10.360 -0.1016 -0.1274 -0.2207
   33TMC2    O5  525   4.381   2.191  10.139 -0.5297  0.1804 -0.0518
   33TMC2    H5  526   4.453   2.151  10.086  0.6898  1.1460  0.8866
   34MPD2     C  527   0.192   1.605  10.882  0.0656 -0.7853 -0.2321
   34MPD2    C1  528   0.060   1.601  10.836 -0.6419  0.3299  0.1109
   34MPD2    C2  529   0.015   1.699  10.747  0.1050 -0.0339  0.0339
   34MPD2    C3  530   0.098   1.794  10.691 -1.2732  0.3440 -0.2221
   34MPD2    C4  531   0.230   1.799  10.743 -0.2655  1.4366  0.2517
   34MPD2    C5  532   0.277   1.704  10.833 -0.6938  0.3474 -0.6598
   34MPD2     H  533   4.661   1.689  10.702  0.2946  0.1614 -0.4301
   34MPD2    H1  534   0.307   1.868  10.709  1.3437 -0.6550 -0.3799
   34MPD2    H2  535   0.226   1.537  10.960 -0.1416  1.0344  1.4452
   34MPD2    H3  536   0.384   1.702  10.849 -0.3285  1.4777 -2.9186
   34MPD2     N  537   0.058   1.890  10.597  0.9269  0.1342  0.2392
   34MPD2    H5  538   0.136   1.944  10.561 -0.0720  0.8008 -0.8995
   34MPD2    N1  539   4.725   1.483  10.878  0.2159 -0.5432 -0.2061
   34MPD2    H7  540   0.029   1.420  10.940 -1.9475 -1.4276  0.5546
   35TMC2    C1  541   1.357   2.785  11.554  0.1046 -0.3360  0.2556
   35TMC2    C2  542   1.274   2.805  11.446 -1.0832  0.6100  0.3125
   35TMC2    C3  543   1.143   2.768  11.462  0.7766  0.1911 -0.3010
   35TMC2    C4  544   1.309   2.751  11.681 -0.0166  0.8112 -0.2161
   35TMC2    C5  545   1.172   2.718  11.687  0.2459 -0.8312  0.9319
   35TMC2    C6  546   1.090   2.719  11.575 -0.3911  0.2207  0.1476
   35TMC2     C  547   1.493   2.815  11.527 -0.6588  0.2538 -0.6190
   35TMC2     O  548   1.509   2.886  11.430 -0.0982 -0.2478  0.4683
   35TMC2     H  549   1.322   2.817  11.349 -0.4802  0.8312  0.6378
   35TMC2    H1  550   1.370   2.726  11.767 -1.2934  1.5235  0.8892
   35TMC2    H2  551   0.986   2.688  11.575 -0.9720  2.1846  1.4132
   35TMC2    C7  552   1.122   2.635  11.795 -0.2731  0.1136 -0.4198
   35TMC2    C8  553   1.059   2.759  11.347 -1.1089 -0.4498  0.0914
   35TMC2    O1  554   1.039   2.550  11.774 -0.4510 -0.3807  0.2655
   35TMC2    O2  555   0.946   2.719  11.349 -0.4353  0.4812  0.3393
   35TMC2    O5  556   1.096   2.867  11.275  0.1620  0.4569 -0.0286
   35TMC2    H5  557   1.031   2.876  11.203  0.6633 -0.3070 -0.5765
   36MPD2     C  558   2.003   2.823  11.643  0.1934 -0.2377 -0.3800
   36MPD2    C1  559   1.941   2.738  11.731  0.7324 -0.4177  0.1362
   36MPD2    C2  560   1.804   2.713  11.714 -0.9195  0.2749 -0.0629
   36MPD2    C3  561   1.726   2.772  11.615  0.0303  0.6562 -0.5147
   36MPD2    C4  562   1.786   2.850  11.531  0.1892 -0.6790  0.2006
   36MPD2    C5  563   1.917   2.880  11.546 -0.0379 -0.0955 -0.3921
   36MPD2     H  564   1.763   2.645  11.788 -0.3243 -1.5173 -1.3857
   36MPD2    H1  565   1.729   2.904  11.456 -2.0234 -4.5954 -0.9077
   36MPD2    H2  566   2.106   2.858  11.646  0.1635 -0.0984 -1.1507
   36MPD2    H3  567   1.962   2.948  11.475  1.7186  0.4232  1.1920
   36MPD2     N  568   1.583   2.763  11.620  0.7642  0.1070 -0.1903
   36MPD2    H5  569   1.555   2.715  11.705  1.9860  1.0413  0.7561
   36MPD2    N1  570   2.024   2.669  11.820 -0.5392 -0.3587  0.2923
   36MPD2    H7  571   2.121   2.697  11.824 -1.0204  1.1672  1.0254
   37TMC2    C1  572   3.691   3.022  11.740 -0.3099 -0.1562  0.2983
   37TMC2    C2  573   3.628   3.043  11.621  0.0694  0.3414 -0.2569
   37TMC2    C3  574   3.684   3.139  11.548 -0.1700 -0.2779  0.2087
   37TMC2    C4  575   3.792   3.097  11.790 -0.1503 -0.0847 -0.2368
   37TMC2    C5  576   3.840   3.193  11.705 -0.7287  0.2770 -0.1565
   37TMC2    C6  577   3.796   3.204  11.581  1.0395  0.6468  0.1858
   37TMC2     C  578   3.634   2.908  11.819  0.5399 -0.2953 -0.1662
   37TMC2     O  579   3.548   2.840  11.771  0.2552  0.4068 -0.0864
   37TMC2     H  580   3.562   2.970  11.578  1.4874 -0.7309 -0.6219
   37TMC2    H1  581   3.848   3.081  11.881  0.0015 -0.9321 -0.4794
   37TMC2    H2  582   3.827   3.281  11.511  1.0362 -0.0857 -0.6232
   37TMC2    C7  583   3.968   3.246  11.754 -0.1627  0.0661  0.2874
   37TMC2    C8  584   3.603   3.193  11.437 -0.0411  0.1429 -0.4449
   37TMC2    O1  585   4.021   3.208  11.853  0.1149 -0.0023 -0.6379
   37TMC2    O2  586   3.483   3.179  11.410 -0.2762  0.8799  0.1142
   37TMC2    O5  587   3.685   3.234  11.335 -0.1092  1.2972  0.1696
   37TMC2    H5  588   3.776   3.205  11.360 -1.3762 -1.5348  1.5897
   38MPD2     C  589   3.647   2.610  12.235 -0.0352  0.6329 -0.2342
   38MPD2    C1  590   3.764   2.684  12.231  0.1774 -0.1743 -0.2499
   38MPD2    C2  591   3.764   2.782  12.139 -0.4271  0.4596  0.9474
   38MPD2    C3  592   3.671   2.788  12.032  0.6638 -0.0278  0.0490
   38MPD2    C4  593   3.556   2.713  12.036 -0.1644 -0.2183 -0.2670
   38MPD2    C5  594   3.547   2.626  12.145  0.3477 -0.1745 -0.2986
   38MPD2     H  595   3.848   2.851  12.148  0.7211 -0.6767 -0.9612
   38MPD2    H1  596   3.476   2.727  11.965 -0.6609 -0.1493  0.3068
   38MPD2    H2  597   3.633   2.531  12.308 -0.5622  1.9973  1.1688
   38MPD2    H3  598   3.463   2.559  12.127  1.5547 -1.8806  0.3285
   38MPD2     N  599   3.697   2.888  11.935  0.2221  0.2664  0.1591
   38MPD2    H5  600   3.772   2.952  11.959  1.8975 -1.6759  0.1383
   38MPD2    N1  601   3.868   2.665  12.326  0.2288  0.6216 -0.1663
   38MPD2    H7  602   3.947   2.726  12.307  1.0963  0.1820  2.0918
   39TMC2    C1  603   2.928   0.037   1.717  0.5551 -0.7993 -0.2747
   39TMC2    C2  604   2.936   0.164   1.766  0.0552 -0.1333  0.0533
   39TMC2    C3  605   3.057   0.208   1.817  1.0561 -0.3376 -0.1956
   39TMC2    C4  606   3.038   4.712   1.687 -0.5575 -0.1717  0.3965
   39TMC2    C5  607   3.159   0.019   1.724  0.0866 -0.3345 -0.4407
   39TMC2    C6  608   3.168   0.142   1.794 -0.1664  0.6873 -0.8212
   39TMC2     C  609   2.802   4.738   1.659 -0.6213  0.5868  0.3387
   39TMC2     O  610   2.725   0.084   1.632 -0.4912  0.2808 -0.5319
   39TMC2     H  611   2.849   0.228   1.761 -0.9276 -1.4373  0.3378
   39TMC2    H1  612   3.037   4.615   1.639  1.5528  1.1612 -2.3066
   39TMC2    H2  613   3.263   0.179   1.832 -0.7772  0.6198  0.7425
   39TMC2    C7  614   3.273   4.720   1.649 -0.1617 -0.0411  0.2561
   39TMC2    C8  615   3.056   0.319   1.912 -0.5033 -0.2125 -0.4087
   39TMC2    O1  616   3.271   4.605   1.603 -0.2192  0.3937  0.0743
   39TMC2    O2  617   3.161   0.369   1.952 -0.3330  0.2203  0.7684
   39TMC2    O5  618   2.937   0.375   1.926 -0.0691 -0.0889 -0.2082
   39TMC2    H5  619   2.865   0.309   1.936 -1.5762  1.6608  0.4677
   40MPD2     C  620   2.717   4.412   1.513 -0.1780 -0.3612 -0.4148
   40MPD2    C1  621   2.710   4.547   1.533  0.8005 -0.4468 -0.3450
   40MPD2    C2  622   2.611   4.614   1.466 -0.0337  1.1752  0.6152
   40MPD2    C3  623   2.514   4.548   1.390  0.2443 -0.0757  0.1735
   40MPD2    C4  624   2.531   4.414   1.361 -0.3723 -0.1363 -0.5429
   40MPD2    C5  625   2.627   4.347   1.430 -0.1464  0.0441  1.2570
   40MPD2     H  626   2.613   4.723   1.470  0.5729  1.2128 -0.7412
   40MPD2    H1  627   2.446   4.365   1.313 -0.3188 -0.9936  0.2498
   40MPD2    H2  628   2.784   4.348   1.569 -1.3082 -0.2407  1.0738
   40MPD2    H3  629   2.636   4.239   1.432 -0.9585 -0.0440 -0.2086
   40MPD2     N  630   2.402   4.608   1.336 -0.6809  0.0934 -0.4538
   40MPD2    H5  631   2.341   4.545   1.285 -1.0740 -0.7257  1.0368
   40MPD2    N1  632   2.795   4.608   1.623  0.6836 -0.0680 -0.1501
   40MPD2    H7  633   2.871   4.555   1.665  1.1688  1.1540  0.5098
   41TMC2    C1  634   0.722   3.299  13.770 -0.8011 -0.3647  0.0110
   41TMC2    C2  635   0.604   3.351  13.825  0.2870  0.5757  0.5145
   41TMC2    C3  636   0.524   3.430  13.745 -0.5731  0.4809  0.1881
   41TMC2    C4  637   0.767   3.320  13.643  0.2160  0.1612  0.3343
   41TMC2    C5  638   0.688   3.405  13.567  0.1559  0.4950  0.4793
   41TMC2    C6  639   0.574   3.453  13.622  0.1268 -0.7812 -0.2369
   41TMC2     C  640   0.795   3.201  13.852 -0.1391 -1.2174  0.0155
   41TMC2     O  641   0.843   3.107  13.790 -0.2026  0.3667  0.4447
   41TMC2     H  642   0.572   3.328  13.926  0.2899  2.6707  0.9784
   41TMC2    H1  643   0.859   3.276  13.606  1.3053  0.4611  2.7012
   41TMC2    H2  644   0.514   3.518  13.559 -1.4779 -0.1859  1.8980
   41TMC2    C7  645   0.736   3.456  13.436 -0.4381  0.0402  0.4830
   41TMC2    C8  646   0.404   3.489  13.793  0.7499 -0.0033 -0.1864
   41TMC2    O1  647   0.672   3.538  13.372  0.2660 -0.2520 -0.4100
   41TMC2    O2  648   0.371   3.493  13.912 -0.2427 -0.1813  0.5177
   41TMC2    O5  649   0.322   3.461  13.693 -0.3215 -0.1447 -0.2881
   41TMC2    H5  650   0.355   3.445  13.602 -1.1008  3.4511 -1.1985
   42MPD2     C  651   0.866   2.987  14.057 -0.1767  0.0654  0.1494
   42MPD2    C1  652   0.856   3.123  14.079 -0.1143 -0.0242  0.7268
   42MPD2    C2  653   0.898   3.171  14.198  0.3898  0.3953  0.5909
   42MPD2    C3  654   0.964   3.086  14.290 -0.1840  0.6812 -0.2048
   42MPD2    C4  655   0.985   2.954  14.253 -0.6375 -0.0491  0.3309
   42MPD2    C5  656   0.933   2.910  14.139  0.3137  0.1535  0.0099
   42MPD2     H  657   0.881   3.277  14.214  0.1501  0.5328 -0.5634
   42MPD2    H1  658   1.046   2.887  14.312 -0.7317 -0.5548 -0.1487
   42MPD2    H2  659   0.833   2.937  13.967  0.3243  0.1386 -0.0764
   42MPD2    H3  660   0.954   2.805  14.122  1.6650  0.1888  1.3831
   42MPD2     N  661   1.023   3.120  14.409  0.7558 -0.5867 -0.5250
   42MPD2    H5  662   1.088   3.049  14.443 -0.2172 -0.8388  0.8313
   42MPD2    N1  663   0.797   3.215  13.989 -0.0318 -0.2503  0.2294
   42MPD2    H7  664   0.780   3.309  14.022  1.0567 -0.6274  1.8608
   43TMC2    C1  665   3.350   1.280   1.240  0.4162 -0.0727  0.3567
   43TMC2    C2  666   3.307   1.396   1.301  0.5463  1.0504  0.1695
   43TMC2    C3  667   3.248   1.392   1.424 -0.6455  0.1584  0.4196
   43TMC2    C4  668   3.328   1.156   1.296  0.2049  0.6632  0.0211
   43TMC2    C5  669   3.282   1.155   1.426 -0.5775  0.0264 -0.1246
   43TMC2    C6  670   3.242   1.275   1.489 -0.4814 -0.0135 -0.3990
   43TMC2     C  671   3.395   1.271   1.098 -0.3188 -0.3874 -0.0278
   43TMC2     O  672   3.465   1.174   1.076  0.2491 -0.1388  0.5458
   43TMC2     H  673   3.318   1.494   1.254  0.3416  0.2613 -1.5308
   43TMC2    H1  674   3.347   1.067   1.238 -1.4917  1.5749 -1.9551
   43TMC2    H2  675   3.183   1.280   1.579  0.3655  0.4075  0.1369
   43TMC2    C7  676   3.259   1.026   1.481 -0.4340  0.5586 -0.1088
   43TMC2    C8  677   3.223   1.508   1.510  0.1999  0.5113  0.4911
   43TMC2    O1  678   3.268   0.923   1.412 -0.3088 -0.1117 -0.1488
   43TMC2    O2  679   3.141   1.507   1.599  0.1354  0.0986 -0.4991
   43TMC2    O5  680   3.321   1.598   1.478  0.0075  0.2798  0.0179
   43TMC2    H5  681   3.374   1.578   1.398  0.0449  1.3657 -0.2338
   44MPD2     C  682   3.437   1.435   0.605 -0.2226 -1.0126 -0.0035
   44MPD2    C1  683   3.504   1.336   0.674 -0.7126 -0.3895  0.1633
   44MPD2    C2  684   3.469   1.310   0.808  0.0965  0.0363 -0.2178
   44MPD2    C3  685   3.379   1.389   0.873 -0.1491  0.6308 -0.9605
   44MPD2    C4  686   3.312   1.485   0.802  0.1158  0.2261 -0.3280
   44MPD2    C5  687   3.336   1.499   0.664 -0.4339  0.1209  0.0816
   44MPD2     H  688   3.525   1.235   0.862  0.1796  0.7230  0.6645
   44MPD2    H1  689   3.240   1.550   0.850  1.9331  0.4486  2.0830
   44MPD2    H2  690   3.452   1.450   0.499  0.4172  1.5715  0.4494
   44MPD2    H3  691   3.275   1.564   0.602 -1.0661 -1.1698 -0.6579
   44MPD2     N  692   3.348   1.375   1.013 -0.2653  0.4489  0.6949
   44MPD2    H5  693   3.282   1.440   1.054  1.6843  0.6703  3.4293
   44MPD2    N1  694   3.601   1.248   0.615 -0.2689 -0.5981  0.5636
   44MPD2    H7  695   3.643   1.177   0.674 -1.1175 -1.8737 -0.3691
   45TMC2    C1  696   3.476   3.030  10.252 -0.3949 -0.1059  0.1554
   45TMC2    C2  697   3.513   2.956  10.366 -0.1343 -0.6036  0.3939
   45TMC2    C3  698   3.545   3.035  10.474  1.0277  0.6574 -0.0350
   45TMC2    C4  699   3.466   3.166  10.243  0.4373  0.5906  0.4250
   45TMC2    C5  700   3.498   3.235  10.358  0.3329 -0.1971  0.4400
   45TMC2    C6  701   3.539   3.173  10.476  0.3084  0.2358  0.2491
   45TMC2     C  702   3.418   2.944  10.146 -0.2439 -0.3315  0.1476
   45TMC2     O  703   3.449   2.827  10.141 -0.4638  0.1552  0.3958
   45TMC2     H  704   3.523   2.849  10.355  3.9714 -0.0574 -1.4523
   45TMC2    H1  705   3.456   3.215  10.146  1.6201 -0.2591 -0.1299
   45TMC2    H2  706   3.574   3.222  10.565 -1.8474 -0.9383  1.7367
   45TMC2    C7  707   3.519   3.380  10.357  0.1112 -0.3586 -0.5967
   45TMC2    C8  708   3.609   2.975  10.588 -0.5530 -0.0602  0.3291
   45TMC2    O1  709   3.581   3.422  10.451  0.6068 -0.2560 -0.3787
   45TMC2    O2  710   3.697   2.894  10.573  0.0613 -0.9817  0.1355
   45TMC2    O5  711   3.538   3.009  10.694 -0.0633 -0.3767  0.5743
   45TMC2    H5  712   3.461   3.060  10.660  0.5152  0.2769  0.2385
   46MPD2     C  713   3.239   2.832   9.926 -0.0160  0.1255  0.4714
   46MPD2    C1  714   3.242   2.963   9.966  0.4831 -0.3319  0.5463
   46MPD2    C2  715   3.134   3.043   9.919  0.2471 -0.0789  0.0646
   46MPD2    C3  716   3.038   2.994   9.830 -0.4092 -0.7793 -0.3817
   46MPD2    C4  717   3.046   2.864   9.790 -0.5659  0.1860 -1.3127
   46MPD2    C5  718   3.147   2.788   9.834 -0.2428  0.4871 -0.4862
   46MPD2     H  719   3.127   3.147   9.950  0.4369 -0.4123  1.2527
   46MPD2    H1  720   2.968   2.823   9.726 -0.5281  3.3771 -3.4302
   46MPD2    H2  721   3.310   2.757   9.960 -1.0897 -0.8298  0.6055
   46MPD2    H3  722   3.153   2.684   9.806  0.2656  0.4516 -0.2420
   46MPD2     N  723   2.934   3.083   9.802 -0.3284 -0.4158  0.0872
   46MPD2    H5  724   2.952   3.181   9.821 -0.1228 -0.1893 -1.2722
   46MPD2    N1  725   3.331   3.011  10.070 -0.1966 -0.1592  0.1406
   46MPD2    H7  726   3.315   3.105  10.103  0.2403  0.8174 -2.4214
   47TMC2    C1  727   0.578   4.038   9.340  0.3651  0.9272 -0.1068
   47TMC2    C2  728   0.633   3.952   9.250  0.0274  0.0897  0.1616
   47TMC2    C3  729   0.545   3.877   9.173 -0.6964  0.7212 -0.5804
   47TMC2    C4  730   0.445   4.049   9.359 -0.0534 -0.0450 -0.7302
   47TMC2    C5  731   0.361   3.970   9.291 -0.0989 -0.3952  0.0096
   47TMC2    C6  732   0.415   3.888   9.197  0.0026 -0.2790  0.5943
   47TMC2     C  733   0.658   4.099   9.442  0.1559 -0.0088  0.3747
   47TMC2     O  734   0.620   4.202   9.492  1.0917 -0.4151 -0.5982
   47TMC2     H  735   0.739   3.955   9.228  0.0369  2.1143  0.4896
   47TMC2    H1  736   0.412   4.114   9.439  2.4348 -0.5569  0.6927
   47TMC2    H2  737   0.343   3.814   9.164 -1.1470  1.8944 -1.8136
   47TMC2    C7  738   0.251   3.917   9.370 -0.2987 -0.6611  0.5990
   47TMC2    C8  739   0.589   3.780   9.079  0.3001 -0.5819 -0.5619
   47TMC2    O1  740   0.229   3.796   9.366  0.0697 -0.0136  0.0427
   47TMC2    O2  741   0.707   3.779   9.049 -0.6561 -0.8905 -0.2490
   47TMC2    O5  742   0.494   3.772   8.979  0.2376  0.2835  0.0823
   47TMC2    H5  743   0.423   3.839   8.992 -0.6074 -0.6572  0.3688
   48MPD2     C  744   0.894   4.173   9.624 -0.5255  0.3261 -0.0086
   48MPD2    C1  745   0.876   4.053   9.562 -0.4489  0.3612 -0.1390
   48MPD2    C2  746   0.960   3.948   9.587  0.7533 -0.0591 -0.3516
   48MPD2    C3  747   1.050   3.952   9.688  0.2960 -0.7803  0.1940
   48MPD2    C4  748   1.070   4.076   9.756  0.0705 -0.4904  0.2387
   48MPD2    C5  749   0.991   4.187   9.722 -0.0550  0.5696 -0.5159
   48MPD2     H  750   0.948   3.861   9.523  2.8633 -1.7223  1.5278
   48MPD2    H1  751   1.153   4.090   9.824  0.3028  0.1916 -0.1913
   48MPD2    H2  752   0.826   4.254   9.599  0.1190  0.6273 -0.8051
   48MPD2    H3  753   1.007   4.283   9.770  0.4797  0.1528  0.1406
   48MPD2     N  754   1.139   3.847   9.701 -0.5773  0.4837  0.2323
   48MPD2    H5  755   1.127   3.760   9.649 -3.5160 -0.8389  3.1650
   48MPD2    N1  756   0.770   4.022   9.471 -0.3110 -0.1557  0.0668
   48MPD2    H7  757   0.769   3.929   9.430  0.2939  0.3806 -1.1865
   49TMC2    C1  758   4.035   1.918  10.227  0.3848 -0.0849 -0.3578
   49TMC2    C2  759   4.046   2.020  10.131 -0.2675 -0.8252  0.3634
   49TMC2    C3  760   3.935   2.077  10.080  0.0803 -0.1436 -0.6082
   49TMC2    C4  761   3.912   1.876  10.279 -0.0387  0.4245  0.0007
   49TMC2    C5  762   3.799   1.935  10.219  0.3187  0.2680 -0.9811
   49TMC2    C6  763   3.813   2.027  10.110  0.0680 -0.7419 -0.1446
   49TMC2     C  764   4.162   1.859  10.263 -0.6003 -0.1161 -1.1544
   49TMC2     O  765   4.260   1.926  10.267  0.5842 -0.1619 -0.1016
   49TMC2     H  766   4.142   2.069  10.119 -1.1674  1.2439  1.6215
   49TMC2    H1  767   3.903   1.808  10.363 -1.5134  3.6865  2.4998
   49TMC2    H2  768   3.733   2.097  10.088  0.3577 -0.2904  0.2350
   49TMC2    C7  769   3.672   1.879  10.243 -0.1442 -0.2130  0.0603
   49TMC2    C8  770   3.932   2.206  10.009 -0.0059  0.4688  0.2639
   49TMC2    O1  771   3.667   1.795  10.335 -0.0584  0.0091 -0.0614
   49TMC2    O2  772   3.843   2.287   9.993  0.1139 -0.2017  0.3998
   49TMC2    O5  773   4.056   2.216   9.942  0.0433 -0.2139  0.9490
   49TMC2    H5  774   4.116   2.138   9.938 -1.7368 -1.4601 -1.3933
   50MPD2     C  775   4.372   1.681  10.370  0.3417 -0.0899  0.0604
   50MPD2    C1  776   4.241   1.647  10.354  0.0576  0.1551 -0.3086
   50MPD2    C2  777   4.198   1.522  10.391  0.2909 -0.4072 -0.4893
   50MPD2    C3  778   4.279   1.424  10.442 -0.1232  0.0011 -0.1050
   50MPD2    C4  779   4.413   1.460  10.451 -0.4847  0.2487  0.0996
   50MPD2    C5  780   4.463   1.585  10.408 -0.4620 -0.1507  0.2315
   50MPD2     H  781   4.092   1.504  10.376  0.3434 -0.7545 -0.4407
   50MPD2    H1  782   4.473   1.374  10.477 -0.4186  0.9689  2.2918
   50MPD2    H2  783   4.408   1.782  10.355 -0.2545  0.3684  1.7810
   50MPD2    H3  784   4.567   1.615  10.417 -0.4600 -0.1620  0.2458
   50MPD2     N  785   4.245   1.289  10.466  0.6105 -0.1895  0.4761
   50MPD2    H5  786   4.322   1.225  10.483  0.8425  0.1902  0.8532
   50MPD2    N1  787   4.152   1.723  10.292  0.1100 -0.1340 -0.0371
   50MPD2    H7  788   4.063   1.679  10.271 -0.4227  0.7113  0.4557
   51TMC2    C1  789   4.289   1.051   1.580 -0.3497 -0.0604  0.5235
   51TMC2    C2  790   4.193   1.139   1.555 -0.3056 -0.1899 -0.0525
   51TMC2    C3  791   4.230   1.267   1.531 -0.1241  0.1734  0.2308
   51TMC2    C4  792   4.423   1.071   1.561 -0.4364 -0.2877 -0.8579
   51TMC2    C5  793   4.451   1.197   1.529 -0.2438 -0.1356  0.8051
   51TMC2    C6  794   4.364   1.300   1.529  0.3603 -0.0637 -0.1632
   51TMC2     C  795   4.263   0.922   1.636 -0.1084 -0.1446 -0.2667
   51TMC2     O  796   4.154   0.868   1.612  0.1546 -0.2528 -0.1371
   51TMC2     H  797   4.087   1.121   1.569 -0.0204 -2.8705 -1.3148
   51TMC2    H1  798   4.495   0.990   1.564  0.9049  0.8837 -1.5939
   51TMC2    H2  799   4.387   1.401   1.497  2.5709 -0.4987  0.0831
   51TMC2    C7  800   4.583   1.234   1.491  0.4245 -0.4878  0.2691
   51TMC2    C8  801   4.129   1.369   1.531 -0.4754 -0.2058  0.5077
   51TMC2    O1  802   4.612   1.353   1.479 -0.5850  0.3146 -0.3271
   51TMC2    O2  803   4.036   1.373   1.608 -0.2573 -0.0798  0.4435
   51TMC2    O5  804   4.165   1.456   1.437 -0.3551 -0.5232 -0.5285
   51TMC2    H5  805   4.226   1.417   1.371 -0.7069 -2.4085  0.2592
   52MPD2     C  806   4.419   0.526   1.897 -0.7033 -0.3022 -0.4080
   52MPD2    C1  807   4.312   0.533   1.817 -0.3082  0.3510  0.2844
   52MPD2    C2  808   4.283   0.653   1.765  0.1137 -0.5908 -0.0700
   52MPD2    C3  809   4.356   0.769   1.801  0.8298 -0.1400 -0.3373
   52MPD2    C4  810   4.461   0.760   1.891  0.1894  0.1676  0.0616
   52MPD2    C5  811   4.484   0.636   1.941  1.1846  0.2062 -0.4446
   52MPD2     H  812   4.196   0.662   1.701  0.6298 -1.2261 -0.8611
   52MPD2    H1  813   4.529   0.843   1.910  1.1263 -0.9270  1.5084
   52MPD2    H2  814   4.438   0.432   1.948  0.7473  1.1253  1.6466
   52MPD2    H3  815   4.576   0.621   1.996  1.0320 -1.3501 -0.6141
   52MPD2     N  816   4.351   0.890   1.733  0.8610 -0.6923 -0.2068
   52MPD2    H5  817   4.425   0.957   1.752 -0.2922  0.2878  0.7714
   52MPD2    N1  818   4.223   0.423   1.803 -0.2708  0.1670  0.2700
   52MPD2    H7  819   4.129   0.441   1.768  0.5138  0.3444 -1.7245
   53TMC2    C1  820   4.616   3.408  12.020  0.0832 -0.1924 -0.0632
   53TMC2    C2  821   0.001   3.383  12.041  0.7030  0.4222 -0.3470
   53TMC2    C3  822   0.026   3.330  12.161  0.1498  0.1566  0.4503
   53TMC2    C4  823   4.522   3.393  12.125  0.2455  0.1893  0.4850
   53TMC2    C5  824   4.551   3.326  12.239 -0.1493  0.5445  0.3457
   53TMC2    C6  825   4.683   3.292  12.257 -0.3824  0.2465  0.2311
   53TMC2     C  826   4.569   3.444  11.887  0.5092  0.2082  0.4197
   53TMC2     O  827   4.647   3.477  11.798 -0.8776  0.1543 -0.1842
   53TMC2     H  828   0.075   3.404  11.965  0.4867  1.1739 -0.3469
   53TMC2    H1  829   4.416   3.412  12.111  0.0376 -1.0613  0.3874
   53TMC2    H2  830   4.708   3.242  12.350  0.8307  0.4035 -0.0097
   53TMC2    C7  831   4.440   3.288  12.325  0.6040  0.7600  0.5998
   53TMC2    C8  832   0.161   3.286  12.174  0.0978 -0.2288  0.1086
   53TMC2    O1  833   4.338   3.347  12.315 -0.2704 -0.4929 -0.1520
   53TMC2    O2  834   0.248   3.357  12.124 -0.2511  0.4156  0.1438
   53TMC2    O5  835   0.162   3.147  12.186  0.1308 -0.2573 -0.2156
   53TMC2    H5  836   0.084   3.105  12.228 -0.0421 -0.2705 -0.5498
   54MPD2     C  837   4.374   3.559  11.693 -0.8965  0.0058 -0.1094
   54MPD2    C1  838   4.348   3.450  11.770 -0.0253  1.3585  0.2599
   54MPD2    C2  839   4.231   3.396  11.765 -0.1936  0.0054 -0.5056
   54MPD2    C3  840   4.131   3.424  11.679 -0.5386 -0.6042 -0.6577
   54MPD2    C4  841   4.153   3.529  11.592  0.4461 -0.1478 -0.0303
   54MPD2    C5  842   4.277   3.598  11.610 -0.3780  0.0060 -0.1350
   54MPD2     H  843   4.222   3.313  11.834 -0.7411  1.0919  0.7338
   54MPD2    H1  844   4.082   3.563  11.517  0.2247  0.6836  0.5651
   54MPD2    H2  845   4.470   3.607  11.709 -0.5388 -0.3295 -1.2466
   54MPD2    H3  846   4.297   3.679  11.541  1.3694  1.5163  2.1624
   54MPD2     N  847   4.010   3.344  11.668  0.0535  0.3497  0.3912
   54MPD2    H5  848   3.935   3.389  11.616 -0.1037 -2.3344 -1.7287
   54MPD2    N1  849   4.433   3.417  11.875 -0.2169  0.2654 -0.1346
   54MPD2    H7  850   4.396   3.360  11.951 -0.2933  1.8992  1.0395
   55TMC2    C1  851   1.282   0.985   0.008 -0.2994  0.6705  0.4204
   55TMC2    C2  852   1.229   0.932  17.667  0.5893 -1.0122 -0.3914
   55TMC2    C3  853   1.221   0.796  17.661 -0.3985  0.5372  0.5623
   55TMC2    C4  854   1.310   0.909   0.115 -0.1816 -0.0116 -0.3291
   55TMC2    C5  855   1.302   0.775   0.111 -0.2232 -0.7971 -0.9912
   55TMC2    C6  856   1.252   0.718  17.770 -0.2085  0.9390  0.3803
   55TMC2     C  857   1.295   1.132   0.030  0.2026  0.6455  0.1205
   55TMC2     O  858   1.286   1.161   0.147  0.0065  0.3906  0.4027
   55TMC2     H  859   1.195   0.991  17.582  0.4937  0.8180  0.9192
   55TMC2    H1  860   1.363   0.949   0.201 -0.8928 -0.6488  0.4093
   55TMC2    H2  861   1.258   0.610  17.763 -0.9945  0.9700 -0.7684
   55TMC2    C7  862   1.319   0.701   0.234  0.1562  0.5817  0.8078
   55TMC2    C8  863   1.160   0.734  17.543 -0.4543 -0.2035  0.5418
   55TMC2    O1  864   1.325   0.578   0.232  0.1384  0.2998  0.2533
   55TMC2    O2  865   1.164   0.799  17.436 -0.6186 -0.0222  0.4754
   55TMC2    O5  866   1.092   0.622  17.577  0.1920  0.0851 -0.1948
   55TMC2    H5  867   1.096   0.595  17.671 -1.2320 -3.5145 -1.1518
   56MPD2     C  868   1.380   1.408  17.573 -0.1685  0.0717  0.0802
   56MPD2    C1  869   1.322   1.353  17.684  0.0395  0.0430 -0.6557
   56MPD2    C2  870   1.283   1.438   0.011  0.2089 -0.7937  0.3163
   56MPD2    C3  871   1.291   1.577  17.764  0.1005 -0.7808 -0.1968
   56MPD2    C4  872   1.336   1.622  17.649 -0.2663  0.4154  0.4219
   56MPD2    C5  873   1.392   1.543  17.558 -0.2920 -0.0454  0.1487
   56MPD2     H  874   1.237   1.402   0.102  2.3751 -2.7614  0.6596
   56MPD2    H1  875   1.328   1.727  17.625 -1.0397  0.5403  1.2233
   56MPD2    H2  876   1.425   1.346  17.496 -0.4866 -1.0315  0.7775
   56MPD2    H3  877   1.444   1.579  17.471  2.9560 -0.8447  1.7790
   56MPD2     N  878   1.227   1.659   0.098 -0.0170  0.0107  0.2271
   56MPD2    H5  879   1.187   1.615   0.180 -0.4618  1.6920  0.9175
   56MPD2    N1  880   1.312   1.208  17.686  0.7636  0.2865  0.1627
   56MPD2    H7  881   1.317   1.165  17.594 -0.3159 -1.0965  0.7487
   57TMC2    C1  882   4.472   1.614  13.752 -0.1690  0.2424  0.2434
   57TMC2    C2  883   4.505   1.483  13.765  0.4687  0.0761  0.1720
   57TMC2    C3  884   4.607   1.435  13.696  0.3307  0.0848 -0.3874
   57TMC2    C4  885   4.555   1.697  13.678  0.2229  0.1774 -0.3048
   57TMC2    C5  886   4.665   1.646  13.617 -0.0467  0.3600 -0.0109
   57TMC2    C6  887   4.687   1.508  13.618 -0.4997 -0.4247  0.4665
   57TMC2     C  888   4.358   1.676  13.827 -0.3803 -0.7497  0.0682
   57TMC2     O  889   4.321   1.782  13.781  0.1768 -0.8710  0.0770
   57TMC2     H  890   4.465   1.431  13.852  0.3140 -1.2420 -0.6913
   57TMC2    H1  891   4.526   1.800  13.662  0.9044  0.3458 -0.4666
   57TMC2    H2  892   0.025   1.459  13.566 -0.5280 -1.8412  1.7306
   57TMC2    C7  893   0.028   1.740  13.589  0.2700  0.3275  0.5608
   57TMC2    C8  894   4.620   1.293  13.680 -0.0445  0.3186  0.6733
   57TMC2    O1  895   4.737   1.857  13.583  0.1376 -0.0446 -0.4078
   57TMC2    O2  896   4.730   1.232  13.672 -0.4154  0.4280 -0.3527
   57TMC2    O5  897   4.506   1.228  13.694 -0.3971 -0.4425  0.6964
   57TMC2    H5  898   4.425   1.282  13.705 -1.5764 -2.3337  1.4883
   58MPD2     C  899   3.937   1.652  14.123 -0.2344  0.1362  0.2548
   58MPD2    C1  900   4.012   1.764  14.087 -0.7243 -0.2745  0.1932
   58MPD2    C2  901   4.120   1.745  14.005 -0.5971  0.0934  0.4932
   58MPD2    C3  902   4.171   1.618  13.979  0.2598  0.2670 -0.1760
   58MPD2    C4  903   4.098   1.510  14.020  0.1525 -0.4166  0.0512
   58MPD2    C5  904   3.982   1.529  14.081 -0.4641  0.2734 -0.2571
   58MPD2     H  905   4.186   1.829  13.984  0.3174 -1.0584 -1.2229
   58MPD2    H1  906   4.115   1.408  13.986  2.6628 -0.2429  0.8500
   58MPD2    H2  907   3.841   1.664  14.172  1.4419  2.1775  3.0262
   58MPD2    H3  908   3.914   1.448  14.103  0.0214  1.0409  4.1680
   58MPD2     N  909   4.288   1.591  13.897 -0.1505  0.3218 -0.1001
   58MPD2    H5  910   4.317   1.494  13.896 -2.0554 -0.2575 -0.1308
   58MPD2    N1  911   3.991   1.903  14.121  0.3394 -0.2334 -0.0383
   58MPD2    H7  912   4.062   1.962  14.079  1.1395 -1.4933 -0.4391
   59TMC2    C1  913   2.275   1.825  12.972 -0.3343  0.1790 -0.3110
   59TMC2    C2  914   2.396   1.765  12.974 -0.1484 -0.1183 -0.1228
   59TMC2    C3  915   2.440   1.717  12.865 -0.0912 -0.2097 -0.3530
   59TMC2    C4  916   2.195   1.820  12.862  0.4554  0.1587 -0.3184
   59TMC2    C5  917   2.238   1.758  12.749 -0.1884 -0.3421  0.1534
   59TMC2    C6  918   2.367   1.717  12.749 -0.1021  0.0622 -0.1171
   59TMC2     C  919   2.221   1.899  13.082 -0.3859  0.2645  0.7444
   59TMC2     O  920   2.101   1.926  13.077  0.0324  0.3217  0.2712
   59TMC2     H  921   2.458   1.735  13.057  0.2747  1.3860  0.0995
   59TMC2    H1  922   2.095   1.862  12.858 -0.3736 -1.8372 -1.0863
   59TMC2    H2  923   2.396   1.672  12.655  0.1808  0.6136 -0.2900
   59TMC2    C7  924   2.160   1.759  12.623  0.1963  0.7267  0.3003
   59TMC2    C8  925   2.579   1.671  12.863 -0.3703 -0.1667  0.0123
   59TMC2    O1  926   2.168   1.654  12.561 -0.1226  0.3119  0.1771
   59TMC2    O2  927   2.677   1.738  12.901  0.4043  0.3710  0.2423
   59TMC2    O5  928   2.578   1.537  12.841 -0.2896 -0.3048  0.7123
   59TMC2    H5  929   2.489   1.503  12.818  0.3418 -0.0352 -2.2246
   60MPD2     C  930   2.168   2.066  13.325 -0.3898 -0.2952  0.3185
   60MPD2    C1  931   2.287   1.997  13.307 -0.0873  0.6934 -0.3105
   60MPD2    C2  932   2.389   1.996  13.402  0.3910 -0.1786 -0.4186
   60MPD2    C3  933   2.364   2.046  13.526  0.0104  0.0281 -0.0397
   60MPD2    C4  934   2.249   2.113  13.545 -0.1327 -0.3343 -0.0794
   60MPD2    C5  935   2.155   2.122  13.449  0.0087 -0.0206  0.3200
   60MPD2     H  936   2.485   1.948  13.382  1.4852  1.4115  0.9772
   60MPD2    H1  937   2.222   2.154  13.642 -1.2597 -2.8815  0.6947
   60MPD2    H2  938   2.086   2.072  13.254 -0.8614 -0.1653  0.8791
   60MPD2    H3  939   2.059   2.165  13.476  1.5346  3.6921 -0.2759
   60MPD2     N  940   2.452   2.049  13.635  0.1990 -0.0289 -0.1852
   60MPD2    H5  941   2.421   2.104  13.715 -1.4936  0.6623 -1.3229
   60MPD2    N1  942   2.315   1.932  13.184  0.2248 -0.0793 -0.1407
   60MPD2    H7  943   2.413   1.911  13.166 -0.3749 -2.1613 -0.8814
   61TMC2    C1  944   1.602   3.426  15.096 -0.3864 -0.3615  0.1209
   61TMC2    C2  945   1.536   3.336  15.181  0.3865  0.4261 -0.0685
   61TMC2    C3  946   1.466   3.385  15.286 -0.1825 -0.3767  0.2932
   61TMC2    C4  947   1.582   3.563  15.113 -0.9014 -0.2643 -0.1189
   61TMC2    C5  948   1.508   3.609  15.217  0.3627 -0.8305  0.1983
   61TMC2    C6  949   1.461   3.518  15.307  0.3657  0.3984  0.4059
   61TMC2     C  950   1.638   3.376  14.965 -0.6909  0.4640 -0.6212
   61TMC2     O  951   1.611   3.256  14.944  0.1333 -0.4637 -0.9495
   61TMC2     H  952   1.529   3.229  15.165  0.4798  0.6582 -1.7030
   61TMC2    H1  953   1.622   3.631  15.039  0.1065 -3.2050 -2.2679
   61TMC2    H2  954   1.399   3.557  15.387 -0.7134 -0.6638  0.0769
   61TMC2    C7  955   1.530   3.739  15.255  0.0737 -0.4937  0.1791
   61TMC2    C8  956   1.422   3.285  15.385  0.1162 -0.4148 -0.3515
   61TMC2    O1  957   1.523   3.818  15.162 -0.4734  0.2905 -0.2502
   61TMC2    O2  958   1.495   3.191  15.419  0.5261 -0.4024  0.4119
   61TMC2    O5  959   1.316   3.337  15.443  0.2155  0.9992  0.0419
   61TMC2    H5  960   1.266   3.391  15.379 -0.3691 -0.0635 -0.3820
   62MPD2     C  961   1.660   3.345  14.673  0.0247  0.0486 -0.0878
   62MPD2    C1  962   1.720   3.452  14.743  0.0991 -0.4413  0.0421
   62MPD2    C2  963   1.785   3.547  14.671 -0.1319 -0.7809 -0.3895
   62MPD2    C3  964   1.784   3.541  14.529 -0.5772  0.3314  0.4943
   62MPD2    C4  965   1.702   3.447  14.466 -0.3191  0.1764 -0.1761
   62MPD2    C5  966   1.643   3.348  14.536  0.0509  0.5452 -0.3402
   62MPD2     H  967   1.828   3.636  14.716 -0.6118  0.3078 -2.0432
   62MPD2    H1  968   1.706   3.437  14.358  1.9461 -1.8741  0.1254
   62MPD2    H2  969   1.599   3.271  14.722 -0.1214  1.4783  1.9226
   62MPD2    H3  970   1.589   3.269  14.483  0.4952  1.1037 -1.6202
   62MPD2     N  971   1.821   3.651  14.443  0.3211  0.1683 -0.5793
   62MPD2    H5  972   1.783   3.660  14.349  0.3698 -0.0397 -0.6191
   62MPD2    N1  973   1.696   3.471  14.884 -0.4768 -0.3639  0.3666
   62MPD2    H7  974   1.747   3.549  14.925  0.8208 -0.7027 -0.6129
   63TMC2    C1  975   1.360   3.767  11.083 -0.5015 -1.0300  0.0565
   63TMC2    C2  976   1.492   3.800  11.124 -0.3860 -0.7317 -0.7255
   63TMC2    C3  977   1.565   3.886  11.048 -0.8190 -0.3422 -0.1391
   63TMC2    C4  978   1.293   3.826  10.988  0.1888 -0.7308 -0.4145
   63TMC2    C5  979   1.375   3.917  10.918  0.5453 -0.2444  0.5167
   63TMC2    C6  980   1.506   3.944  10.941 -0.2117 -0.0574  0.0682
   63TMC2     C  981   1.295   3.650  11.140 -0.3786  0.5730  0.4547
   63TMC2     O  982   1.355   3.594  11.233  0.0715  0.3982  0.0652
   63TMC2     H  983   1.544   3.736  11.193  0.7189 -2.6606 -3.3491
   63TMC2    H1  984   1.186   3.824  10.974 -0.3587  0.9417  3.4064
   63TMC2    H2  985   1.571   4.005  10.879 -3.1388  1.0680 -1.8941
   63TMC2    C7  986   1.306   3.978  10.806  0.3808  0.0586 -0.1348
   63TMC2    C8  987   1.667   3.957  11.119  0.3055  0.2247  0.2967
   63TMC2    O1  988   1.205   3.923  10.766  0.1924 -0.5073 -0.2458
   63TMC2    O2  989   1.662   4.078  11.139  0.6149 -0.1786  0.4310
   63TMC2    O5  990   1.742   3.871  11.185  0.0066  0.5100 -0.1456
   63TMC2    H5  991   1.736   3.776  11.158 -0.7809  0.3728  0.4924
   64MPD2     C  992   0.931   3.308  11.156 -0.4891  0.2232  0.2194
   64MPD2    C1  993   0.934   3.358  11.028  0.2370  0.4702 -0.1779
   64MPD2    C2  994   1.014   3.459  10.999 -0.4792 -0.6111  0.0870
   64MPD2    C3  995   1.096   3.508  11.099 -0.6046  0.1308 -0.1509
   64MPD2    C4  996   1.096   3.462  11.232 -0.3221  0.3819 -0.5346
   64MPD2    C5  997   1.009   3.359  11.255 -0.8676 -0.0412  0.1276
   64MPD2     H  998   1.021   3.492  10.896 -2.8013  0.9134  0.4119
   64MPD2    H1  999   1.153   3.511  11.310 -0.1752  0.2385 -0.5535
   64MPD2    H2 1000   0.858   3.231  11.178 -0.1292  0.0134  0.6915
   64MPD2    H3 1001   1.007   3.318  11.356 -1.7293 -0.6088 -0.1204
   64MPD2     N 1002   1.187   3.605  11.064  0.8080 -0.3597  0.5361
   64MPD2    H5 1003   1.174   3.643  10.970  0.0740 -0.4305  0.6096
   64MPD2    N1 1004   0.867   3.295  10.915  0.1098 -0.3940 -0.3537
   64MPD2    H7 1005   0.896   3.324  10.822  1.0276  0.7150  0.2695
   65TMC2    C1 1006   2.228   3.105  15.712  0.5208  0.5244 -0.7581
   65TMC2    C2 1007   2.217   3.045  15.586  0.1232 -0.6121 -0.0498
   65TMC2    C3 1008   2.208   3.122  15.471 -0.1304  0.4092  0.0135
   65TMC2    C4 1009   2.231   3.247  15.723 -0.2870 -0.1912  0.6048
   65TMC2    C5 1010   2.226   3.316  15.606  0.0382  0.1046  0.4075
   65TMC2    C6 1011   2.220   3.259  15.474 -0.2549 -0.0373  0.5746
   65TMC2     C 1012   2.298   3.039  15.824  0.6903 -0.4574  0.4551
   65TMC2     O 1013   2.329   3.108  15.918  0.4595 -0.0556 -0.0093
   65TMC2     H 1014   2.203   2.937  15.580  2.3781 -0.9725  1.0279
   65TMC2    H1 1015   2.225   3.301  15.817 -1.1308  0.6589  0.0626
   65TMC2    H2 1016   2.201   3.319  15.386 -0.6767 -0.0785  0.6391
   65TMC2    C7 1017   2.234   3.465  15.600 -0.6288  0.0403 -0.4021
   65TMC2    C8 1018   2.205   3.045  15.347 -0.2910 -0.2886  0.2858
   65TMC2    O1 1019   2.286   3.506  15.495 -0.5777 -0.7399 -0.1008
   65TMC2    O2 1020   2.124   2.957  15.313  0.5123  0.1902  0.0527
   65TMC2    O5 1021   2.282   3.110  15.263 -0.6517  0.1783 -0.1600
   65TMC2    H5 1022   2.337   3.180  15.304  2.0746 -1.7480 -0.5972
   66MPD2     C 1023   2.432   2.831  15.990 -0.7969 -0.5073 -0.7897
   66MPD2    C1 1024   2.402   2.823  15.858  0.5690 -0.0363  0.0417
   66MPD2    C2 1025   2.431   2.706  15.794  0.5050 -0.2239 -0.0249
   66MPD2    C3 1026   2.494   2.602  15.860  0.1268  0.0469 -1.4795
   66MPD2    C4 1027   2.517   2.615  15.998 -0.0151 -0.7202  0.1785
   66MPD2    C5 1028   2.475   2.725  16.060  0.1222  0.2491 -0.5736
   66MPD2     H 1029   2.393   2.677  15.696  1.5367 -1.1728 -0.1344
   66MPD2    H1 1030   2.567   2.543  16.061  0.5861  1.2379  1.9439
   66MPD2    H2 1031   2.417   2.930  16.031  1.5049  0.0005 -1.1982
   66MPD2    H3 1032   2.487   2.735  16.167  0.1930 -0.2500 -0.5360
   66MPD2     N 1033   2.533   2.477  15.800  0.0831  0.0854  0.2654
   66MPD2    H5 1034   2.546   2.393  15.855  0.3084 -0.1572 -0.1595
   66MPD2    N1 1035   2.341   2.918  15.782 -0.2479 -0.2142  0.2415
   66MPD2    H7 1036   2.310   2.890  15.690 -1.1600  0.1342  0.4339
   67TMC2    C1 1037   2.186   2.710  14.523 -0.3487  0.1326 -0.2760
   67TMC2    C2 1038   2.199   2.841  14.482  0.3157  1.0194 -0.1053
   67TMC2    C3 1039   2.302   2.917  14.529  0.7505 -0.4028  0.3411
   67TMC2    C4 1040   2.265   2.664  14.622  0.6546 -1.2640  0.2666
   67TMC2    C5 1041   2.379   2.738  14.664 -0.9668  0.6548  0.3886
   67TMC2    C6 1042   2.392   2.870  14.620 -0.2241 -0.0640 -0.2665
   67TMC2     C 1043   2.119   2.599  14.456  0.3262 -0.0986 -0.2558
   67TMC2     O 1044   2.137   2.480  14.491  0.3787 -0.3688 -0.2876
   67TMC2     H 1045   2.146   2.881  14.397 -0.6120 -2.2746 -1.0830
   67TMC2    H1 1046   2.270   2.561  14.656  1.7622 -0.8530  1.3659
   67TMC2    H2 1047   2.482   2.924  14.646  0.2114 -0.4541 -0.9761
   67TMC2    C7 1048   2.478   2.683  14.743  0.1837 -0.1034  0.0690
   67TMC2    C8 1049   2.329   3.028  14.436 -0.2596 -0.9770  0.0732
   67TMC2    O1 1050   2.527   2.756  14.826  0.2398  0.5633  0.5966
   67TMC2    O2 1051   2.321   3.009  14.315  0.2989  0.3538 -0.0170
   67TMC2    O5 1052   2.298   3.138  14.502 -0.3985 -0.2553 -0.0623
   67TMC2    H5 1053   2.301   3.128  14.599 -2.7024 -1.4502 -0.1091
   68MPD2     C 1054   1.937   2.451  14.252  0.3168 -0.5228 -0.2502
   68MPD2    C1 1055   1.955   2.588  14.258 -0.3282  0.6616 -0.0857
   68MPD2    C2 1056   1.889   2.668  14.170 -0.3101 -0.2912  0.1677
   68MPD2    C3 1057   1.819   2.611  14.071 -0.6766  0.2607 -0.2500
   68MPD2    C4 1058   1.804   2.480  14.061  0.2165  0.0027 -0.8398
   68MPD2    C5 1059   1.867   2.398  14.151 -0.5671 -0.5195 -0.3187
   68MPD2     H 1060   1.900   2.774  14.186  0.0929 -0.9419  4.2823
   68MPD2    H1 1061   1.738   2.445  13.982  0.1832  1.4158 -1.4307
   68MPD2    H2 1062   1.981   2.389  14.329 -0.4177 -0.1883  0.4362
   68MPD2    H3 1063   1.853   2.291  14.146  0.7285 -0.4974 -4.4669
   68MPD2     N 1064   1.757   2.685  13.966  0.4903  0.2178 -0.7292
   68MPD2    H5 1065   1.701   2.632  13.900  0.9475  1.0724 -1.8098
   68MPD2    N1 1066   2.032   2.650  14.361 -0.1272 -0.4153  0.4925
   68MPD2    H7 1067   2.010   2.749  14.366 -1.3457 -0.6492 -0.1119
   69TMC2    C1 1068   4.099   3.704  12.675 -0.1430 -0.3540 -0.0058
   69TMC2    C2 1069   4.024   3.810  12.664  0.3779 -0.3638 -0.2142
   69TMC2    C3 1070   4.062   3.908  12.581  0.2021  0.3378 -0.2480
   69TMC2    C4 1071   4.217   3.685  12.607 -0.1489  0.0951  0.1178
   69TMC2    C5 1072   4.252   3.787  12.518  0.2098  0.2898 -0.4709
   69TMC2    C6 1073   4.172   3.899  12.500  0.1094  0.0867  0.1067
   69TMC2     C 1074   4.064   3.602  12.776 -0.2429  0.1385  0.1708
   69TMC2     O 1075   3.943   3.589  12.791  0.0127 -0.3233  0.1117
   69TMC2     H 1076   3.921   3.801  12.699  0.5949  0.9536  0.7762
   69TMC2    H1 1077   4.272   3.592  12.608  1.5372  1.1000  1.2043
   69TMC2    H2 1078   4.207   3.981  12.438  2.0899 -0.0575  1.0407
   69TMC2    C7 1079   4.344   3.756  12.417  0.3006  0.2884 -0.5216
   69TMC2    C8 1080   3.981   4.028  12.573 -0.2044 -0.8064 -0.0433
   69TMC2    O1 1081   4.440   3.686  12.443 -0.1775  0.1459 -0.3136
   69TMC2    O2 1082   3.995   4.114  12.482 -0.1408  0.5925 -0.1831
   69TMC2    O5 1083   3.931   4.044  12.696 -0.3643 -0.1990 -0.5229
   69TMC2    H5 1084   3.943   3.975  12.764 -0.0840  1.4578  1.1204
   70MPD2     C 1085   4.269   3.402  12.997 -0.0051 -0.4307 -0.5074
   70MPD2    C1 1086   4.151   3.437  12.938  0.4247  0.3101  0.4452
   70MPD2    C2 1087   4.035   3.362  12.956 -0.0969 -0.3325 -0.3792
   70MPD2    C3 1088   4.045   3.238  13.024 -0.0698  1.1241 -0.4732
   70MPD2    C4 1089   4.172   3.206  13.076 -0.2911 -0.1492  0.5127
   70MPD2    C5 1090   4.283   3.287  13.074 -0.3409 -0.4540  0.3665
   70MPD2     H 1091   3.938   3.398  12.925  1.3655  1.3879 -2.9017
   70MPD2    H1 1092   4.186   3.115  13.134 -1.4537  0.5905  1.9274
   70MPD2    H2 1093   4.362   3.459  12.992  0.4863 -1.0324  1.7402
   70MPD2    H3 1094   4.368   3.266  13.137 -0.7442 -0.0443  1.0487
   70MPD2     N 1095   3.946   3.140  13.029  0.7427 -0.1202 -0.0039
   70MPD2    H5 1096   3.980   3.057  13.077 -0.1646 -0.4106  0.1498
   70MPD2    N1 1097   4.169   3.535  12.836  0.2897  0.7375 -0.5555
   70MPD2    H7 1098   4.265   3.560  12.814  1.1355 -1.2184  0.9995
   71TMC2    C1 1099   1.788   0.029   1.540  0.4066  1.4955 -0.2175
   71TMC2    C2 1100   1.885   0.060   1.629 -0.8243 -0.3136  0.8973
   71TMC2    C3 1101   1.865   0.166   1.717 -0.3074  0.2811 -0.2085
   71TMC2    C4 1102   1.688   0.118   1.517 -0.1963 -0.7665 -0.2804
   71TMC2    C5 1103   1.683   0.225   1.599 -0.1530 -0.5864  0.2833
   71TMC2    C6 1104   1.754   0.241   1.712  0.7388  0.1342 -0.0893
   71TMC2     C 1105   1.819   4.675   1.433  0.7040  0.4963 -0.0173
   71TMC2     O 1106   1.935   4.649   1.412 -0.6676  0.7201  0.1111
   71TMC2     H 1107   1.971   4.739   1.635 -1.3654 -1.2392 -1.4038
   71TMC2    H1 1108   1.626   0.107   1.429  0.9491  1.1538 -1.3109
   71TMC2    H2 1109   1.738   0.324   1.780 -1.6882 -1.4200  1.2208
   71TMC2    C7 1110   1.607   0.341   1.559 -0.2233 -0.1702  0.5602
   71TMC2    C8 1111   1.926   0.157   1.848 -0.0548  0.0388 -0.0834
   71TMC2    O1 1112   1.595   0.432   1.637  0.1397  0.8127 -0.1516
   71TMC2    O2 1113   1.856   0.186   1.945 -0.3252 -0.0122  0.3479
   71TMC2    O5 1114   2.021   0.063   1.850  0.5470  0.0150  0.3546
   71TMC2    H5 1115   2.079   0.080   1.773  0.1954 -1.3214 -0.2086
   72MPD2     C 1116   1.661   4.290   1.126  0.0429 -0.7055 -0.1664
   72MPD2    C1 1117   1.781   4.343   1.146  0.8011  0.3280 -0.0711
   72MPD2    C2 1118   1.803   4.449   1.231  0.2934 -0.6196 -0.0292
   72MPD2    C3 1119   1.698   4.504   1.295  0.1525 -0.4629 -0.3059
   72MPD2    C4 1120   1.572   4.457   1.277 -0.3169 -0.0869 -0.1129
   72MPD2    C5 1121   1.550   4.344   1.195  0.0763 -0.1035  0.5591
   72MPD2     H 1122   1.897   4.502   1.243  1.9827 -3.4288 -0.9346
   72MPD2    H1 1123   1.494   4.499   1.340 -0.2705 -1.4875  0.9009
   72MPD2    H2 1124   1.637   4.216   1.050  0.1638 -0.2275 -0.6667
   72MPD2    H3 1125   1.447   4.311   1.184 -0.0653  0.4191  0.3306
   72MPD2     N 1126   1.707   4.608   1.389 -0.1577 -0.3397 -0.2196
   72MPD2    H5 1127   1.621   4.632   1.437 -0.5602 -1.5849 -0.3411
   72MPD2    N1 1128   1.895   4.289   1.079 -0.5934  0.2369 -0.0391
   72MPD2    H7 1129   1.984   4.319   1.116  0.8944 -1.0242 -2.5749
   73TMC2    C1 1130   1.631   1.251  14.218 -0.2550 -0.0967 -0.1491
   73TMC2    C2 1131   1.609   1.286  14.347 -0.1725 -0.3198  0.2380
   73TMC2    C3 1132   1.691   1.236  14.448  0.1494 -0.3274  0.3531
   73TMC2    C4 1133   1.746   1.172  14.192 -0.2042 -0.1412  0.3750
   73TMC2    C5 1134   1.830   1.138  14.291  0.1813 -0.0403 -0.4075
   73TMC2    C6 1135   1.811   1.173  14.418 -0.3168  0.0185 -0.0976
   73TMC2     C 1136   1.616   1.351  14.120  0.1927 -0.3013 -0.0991
   73TMC2     O 1137   1.724   1.371  14.065 -0.1407 -0.2672  0.5068
   73TMC2     H 1138   1.517   1.341  14.361 -0.3344 -0.4352 -0.3694
   73TMC2    H1 1139   1.765   1.140  14.090  1.7755  3.5482 -0.4343
   73TMC2    H2 1140   1.878   1.140  14.496  0.5368  1.1727 -0.3481
   73TMC2    C7 1141   1.966   1.179  14.253  0.5985  0.6062 -0.5453
   73TMC2    C8 1142   1.683   1.292  14.586  0.5787  0.2635  1.5170
   73TMC2    O1 1143   2.057   1.125  14.316  0.1060  0.7905  0.6338
   73TMC2    O2 1144   1.777   1.284  14.661  0.4237  0.8882 -0.6269
   73TMC2    O5 1145   1.596   1.394  14.597  0.0645 -0.0770 -0.3028
   73TMC2    H5 1146   1.525   1.395  14.529  0.3821  3.8197 -0.5613
   74MPD2     C 1147   1.413   1.707  13.815  0.6870  0.0502  0.1679
   74MPD2    C1 1148   1.544   1.676  13.846  0.3824  0.0831 -0.0050
   74MPD2    C2 1149   1.574   1.586  13.946 -0.3625 -0.6851 -0.1210
   74MPD2    C3 1150   1.473   1.518  14.014 -0.3942 -0.5131 -0.0047
   74MPD2    C4 1151   1.344   1.552  13.984 -0.0290 -0.8046 -0.1270
   74MPD2    C5 1152   1.316   1.642  13.891  0.2411  0.8510 -0.4396
   74MPD2     H 1153   1.676   1.574  13.983  0.5958 -1.9813 -3.2391
   74MPD2    H1 1154   1.261   1.505  14.035 -1.9346 -0.0399 -2.5157
   74MPD2    H2 1155   1.386   1.786  13.746 -0.5325 -0.2698  0.2902
   74MPD2    H3 1156   1.214   1.670  13.867  0.3968 -1.4908 -3.8034
   74MPD2     N 1157   1.496   1.414  14.111  0.1104  0.0902 -0.0438
   74MPD2    H5 1158   1.430   1.387  14.183 -0.4525  0.0890 -0.5676
   74MPD2    N1 1159   1.645   1.753  13.787  0.0012 -0.0422  0.0964
   74MPD2    H7 1160   1.611   1.811  13.712 -0.7678 -1.4063 -0.6087
   75TMC2    C1 1161   1.707   2.874  13.826  0.4830 -0.5914  0.1005
   75TMC2    C2 1162   1.717   3.009  13.817  0.0622  0.0666  0.8708
   75TMC2    C3 1163   1.642   3.062  13.716 -0.2972  0.3394 -0.1421
   75TMC2    C4 1164   1.636   2.790  13.750  0.7390  0.0604 -0.0996
   75TMC2    C5 1165   1.564   2.852  13.652  0.4259 -0.0999  0.1963
   75TMC2    C6 1166   1.564   2.989  13.635 -0.8799 -0.4391 -0.6595
   75TMC2     C 1167   1.779   2.819  13.939  0.2612 -0.0812  0.1337
   75TMC2     O 1168   1.847   2.903  14.000  0.0136  0.1231 -0.0451
   75TMC2     H 1169   1.745   3.077  13.897 -1.0954  0.3602  1.0320
   75TMC2    H1 1170   1.672   2.689  13.730  0.5976 -0.0766  0.3304
   75TMC2    H2 1171   1.514   3.042  13.554 -0.4602 -0.3245 -0.8434
   75TMC2    C7 1172   1.488   2.772  13.567  0.1718  0.4529 -0.2469
   75TMC2    C8 1173   1.621   3.205  13.711 -0.4077  0.0471  0.4293
   75TMC2    O1 1174   1.480   2.653  13.596  0.4535  0.1108  0.4764
   75TMC2    O2 1175   1.520   3.255  13.666  0.7305 -0.0785  0.6581
   75TMC2    O5 1176   1.741   3.245  13.680 -0.2046 -0.0049  0.0591
   75TMC2    H5 1177   1.808   3.186  13.720  1.2319  1.3040 -0.3826
   76TMC2    C1 1178   0.553   2.815  12.256 -0.0469  0.4664  0.3376
   76TMC2    C2 1179   0.457   2.730  12.199 -0.3342  0.6888  0.0423
   76TMC2    C3 1180   0.461   2.598  12.236  0.1773  0.4528 -0.1220
   76TMC2    C4 1181   0.652   2.775  12.340 -0.7064  0.3891 -0.9536
   76TMC2    C5 1182   0.659   2.640  12.367  0.0930 -0.1078 -0.3897
   76TMC2    C6 1183   0.562   2.553  12.319  0.0863  0.1385  0.5685
   76TMC2     C 1184   0.549   2.959  12.229 -0.1034  0.3542 -0.5236
   76TMC2     O 1185   0.444   3.015  12.253 -0.4694 -0.0919 -0.4107
   76TMC2     H 1186   0.374   2.775  12.146 -0.2247 -2.4115 -2.7350
   76TMC2    H1 1187   0.720   2.848  12.382 -2.0609  1.1923 -0.1223
   76TMC2    H2 1188   0.585   2.447  12.324  2.7519  0.6395 -1.0481
   76TMC2    C7 1189   0.759   2.588  12.454 -0.1753  0.5489  0.4512
   76TMC2    C8 1190   0.355   2.513  12.191 -0.2317  0.1849  0.1106
   76TMC2    O1 1191   0.752   2.469  12.486  0.2270  0.6559  0.4512
   76TMC2    O2 1192   0.270   2.564  12.112  0.2770 -0.2539  0.2501
   76TMC2    O5 1193   0.326   2.430  12.296  0.2575 -0.2028 -0.1165
   76TMC2    H5 1194   0.374   2.436  12.382 -1.1254 -0.0704  0.6572
   77MPD2     C 1195   0.730   3.393  12.012  0.1867 -0.5823  0.1607
   77MPD2    C1 1196   0.598   3.367  12.046  0.2986  0.2070  0.0593
   77MPD2    C2 1197   0.571   3.233  12.085  0.3744  0.4720  0.3998
   77MPD2    C3 1198   0.670   3.138  12.101  0.7695  0.5925  0.1524
   77MPD2    C4 1199   0.797   3.164  12.060  0.0345 -0.2948 -0.3212
   77MPD2    C5 1200   0.825   3.290  12.016 -0.0430 -0.1793 -0.7545
   77MPD2     H 1201   0.469   3.216  12.119  1.0401 -1.9204  1.1872
   77MPD2    H1 1202   0.877   3.091  12.055  0.4237  0.1451 -0.5045
   77MPD2    H2 1203   0.773   3.488  11.982  1.3101 -1.2498 -0.3272
   77MPD2    H3 1204   0.917   3.318  11.966  0.2805 -0.4620 -0.3153
   77MPD2     N 1205   0.661   3.012  12.165 -0.2688 -0.7665  0.4415
   77MPD2    H5 1206   0.731   2.938  12.163  0.9679  0.4295 -0.9647
   77MPD2    N1 1207   0.491   3.463  12.045  0.8978 -0.0267  0.5924
   77MPD2    H7 1208   0.399   3.426  12.067  0.3878  0.5458 -0.6007
   78TMC2    C1 1209   1.806   4.233   1.632  0.0058 -1.0511  0.0503
   78TMC2    C2 1210   1.881   4.207   1.746 -0.2887 -0.6336  0.5455
   78TMC2    C3 1211   1.975   4.110   1.733 -0.2728  0.3865 -0.0549
   78TMC2    C4 1212   1.830   4.177   1.510 -0.5311  0.0515  0.3927
   78TMC2    C5 1213   1.927   4.080   1.505  1.2293  0.1008  0.0362
   78TMC2    C6 1214   2.000   4.043   1.617  0.9840  0.6816  0.3912
   78TMC2     C 1215   1.720   4.347   1.636  0.7170  0.1323 -0.0533
   78TMC2     O 1216   1.635   4.347   1.548 -0.4019 -0.2244 -0.1763
   78TMC2     H 1217   1.878   4.259   1.841 -1.0160 -0.9861  0.7130
   78TMC2    H1 1218   1.782   4.219   1.422  0.0707 -1.4111 -0.6273
   78TMC2    H2 1219   2.062   3.955   1.608 -2.9024 -2.2262  2.2578
   78TMC2    C7 1220   1.963   4.021   1.372  0.0118  0.9346  0.1852
   78TMC2    C8 1221   2.048   4.080   1.850 -0.4570 -0.6616 -0.0285
   78TMC2    O1 1222   1.871   3.988   1.301  0.2136 -0.0435  0.1399
   78TMC2    O2 1223   2.000   4.102   1.959  0.3479 -0.0075 -0.1805
   78TMC2    O5 1224   2.179   4.079   1.813  0.1965  0.0025  0.5473
   78TMC2    H5 1225   2.181   4.065   1.716  0.5926  4.3576 -0.0841
   79MPD1     C 1226   1.495   4.737   1.887  0.2426  0.0901  0.5962
   79MPD1    C1 1227   1.464   4.681   1.764  0.4176  0.6689 -0.0322
   79MPD1    C2 1228   1.545   4.582   1.713 -0.6085 -0.5274  0.2661
   79MPD1    C3 1229   1.663   4.553   1.772  0.5476  0.0882 -0.3380
   79MPD1    C4 1230   1.704   4.617   1.883 -0.2390  0.5431 -0.5568
   79MPD1    C5 1231   1.617   4.703   1.936 -0.2000 -0.0804  0.0320
   79MPD1     H 1232   1.522   4.532   1.619  0.4299  0.4122 -0.4870
   79MPD1    H1 1233   1.799   4.598   1.932 -0.4210  1.9163  0.3139
   79MPD1    H2 1234   1.424   0.050   1.946  0.9151  0.7787  0.7368
   79MPD1    H3 1235   1.645   0.007   2.029  0.0153 -0.5388  0.1982
   79MPD1     N 1236   1.748   4.440   1.727 -0.8263 -0.2078 -0.6748
   79MPD1    H5 1237   1.837   4.432   1.775 -0.9935  2.5281  0.0784
   79MPD1    N1 1238   1.344   4.715   1.703 -0.0752  0.1288  0.1934
   79MPD1    H6 1239   1.354   4.691   1.605  1.1588 -0.3081  0.4256
   79MPD1    H7 1240   1.302   0.062   1.720 -2.5200 -0.7925 -0.9968
   80TMC2    C1 1241   3.823   2.146  12.294  0.5804  0.3023 -1.0492
   80TMC2    C2 1242   3.743   2.224  12.217 -0.3765  0.0735 -0.2865
   80TMC2    C3 1243   3.612   2.205  12.246  0.3908 -0.2885 -0.3746
   80TMC2    C4 1244   3.785   2.054  12.392  0.3475 -0.4359  0.0233
   80TMC2    C5 1245   3.650   2.026  12.406  0.2796  0.5625 -0.0726
   80TMC2    C6 1246   3.564   2.105  12.326 -0.4426 -0.2302  0.6569
   80TMC2     C 1247   3.965   2.170  12.281 -0.6953 -0.0483 -0.0855
   80TMC2     O 1248   4.004   2.260  12.202 -0.6383 -0.4162 -0.2085
   80TMC2     H 1249   3.787   2.301  12.156  0.0453 -0.9037 -1.2205
   80TMC2    H1 1250   3.843   2.000  12.466 -0.2312 -0.8819  0.1572
   80TMC2    H2 1251   3.459   2.079  12.329 -0.6429  0.6796  1.1570
   80TMC2    C7 1252   3.595   1.913  12.472  0.2089  0.3113  0.2921
   80TMC2    C8 1253   3.523   2.263  12.151 -0.0512  0.7960 -0.0652
   80TMC2    O1 1254   3.503   1.855  12.414  0.0462 -0.0671  0.4412
   80TMC2    O2 1255   3.576   2.314  12.054  0.1021 -0.2053  0.2941
   80TMC2    O5 1256   3.421   2.313  12.228 -0.0506 -0.5405 -0.2773
   80TMC2    H5 1257   3.437   2.284  12.321  0.0665  1.0634  0.1999
   81MPD2     C 1258   4.252   2.015  12.439 -0.3155  0.2409 -0.2027
   81MPD2    C1 1259   4.171   2.119  12.399  0.2869  0.3725 -0.4276
   81MPD2    C2 1260   4.227   2.248  12.400 -0.0096 -0.3922 -0.4544
   81MPD2    C3 1261   4.364   2.271  12.434  0.7557 -0.9562  0.7844
   81MPD2    C4 1262   4.448   2.167  12.457 -0.3261 -0.5683 -0.0871
   81MPD2    C5 1263   4.384   2.044  12.465 -0.5483  1.2173  0.9248
   81MPD2     H 1264   4.170   2.334  12.366  0.5232  0.4045  0.6923
   81MPD2    H1 1265   4.555   2.170  12.476 -0.6224  0.9009  1.4233
   81MPD2    H2 1266   4.218   1.913  12.448 -3.6665  1.1428 -2.8782
   81MPD2    H3 1267   4.435   1.952  12.494  0.3519  1.6215  0.6312
   81MPD2     N 1268   4.418   2.401  12.432  0.2865  0.1290 -0.1871
   81MPD2    H5 1269   4.519   2.405  12.425  0.2987  0.9990  0.4611
   81MPD2    N1 1270   4.038   2.087  12.364  0.1723 -0.6777  0.2892
   81MPD2    H7 1271   4.004   1.995  12.393 -0.6615 -0.7625 -0.9385
   82TMC2    C1 1272   1.659   2.048  11.064 -0.4233  0.2262 -0.3094
   82TMC2    C2 1273   1.633   2.099  11.185 -0.1576 -0.2839  0.2337
   82TMC2    C3 1274   1.666   2.016  11.288  0.0712  0.0611 -0.5696
   82TMC2    C4 1275   1.674   1.914  11.042 -0.1869  0.4308 -0.6877
   82TMC2    C5 1276   1.692   1.827  11.151  0.2400 -1.0792 -0.4616
   82TMC2    C6 1277   1.708   1.891  11.273 -0.2640 -0.2782 -0.0480
   82TMC2     C 1278   1.641   2.139  10.959  0.1203 -0.3591  0.6802
   82TMC2     O 1279   1.613   2.083  10.851 -0.5050  0.0935  0.0662
   82TMC2     H 1280   1.600   2.202  11.196 -0.7197 -0.3562 -0.8023
   82TMC2    H1 1281   1.691   1.872  10.943  0.3936  1.7826 -1.1625
   82TMC2    H2 1282   1.722   1.823  11.356  1.0681 -2.6129 -2.1922
   82TMC2    C7 1283   1.771   1.711  11.142 -0.2609 -0.2411  0.8025
   82TMC2    C8 1284   1.642   2.059  11.424 -0.6041 -0.0992  0.1857
   82TMC2    O1 1285   1.877   1.722  11.200 -0.0183  0.0765 -0.0964
   82TMC2    O2 1286   1.554   2.138  11.448 -0.8079  0.1403  0.1345
   82TMC2    O5 1287   1.757   2.029  11.498 -0.3218 -0.4408  0.0975
   82TMC2    H5 1288   1.830   1.986  11.449  0.1822 -0.9391  1.2749
   83MPD2     C 1289   1.801   2.595  10.778 -0.3794 -0.1022 -0.2830
   83MPD2    C1 1290   1.708   2.508  10.724  0.4390 -0.5338  0.6272
   83MPD2    C2 1291   1.674   2.395  10.791  1.1319  0.1687  0.0981
   83MPD2    C3 1292   1.742   2.365  10.915  0.1741  0.3715  0.0331
   83MPD2    C4 1293   1.841   2.451  10.966 -0.2431 -0.0160  0.1559
   83MPD2    C5 1294   1.869   2.564  10.892  0.1028  0.9743  0.4137
   83MPD2     H 1295   1.597   2.328  10.754  0.9211  0.2810  0.3337
   83MPD2    H1 1296   1.902   2.413  11.047 -0.8951 -0.4059  0.4683
   83MPD2    H2 1297   1.846   2.680  10.729 -0.1554  1.0434  1.9264
   83MPD2    H3 1298   1.952   2.627  10.921 -0.6889  0.6120  3.4277
   83MPD2     N 1299   1.724   2.246  10.994  0.7106  0.0067 -0.7168
   83MPD2    H5 1300   1.775   2.235  11.081  1.7606  0.7320 -1.2499
   83MPD2    N1 1301   1.662   2.539  10.597  0.0118  0.4443 -0.1000
   83MPD2    H7 1302   1.707   2.621  10.556 -0.7662  1.1658  0.4844
   84TMC2    C1 1303   3.918   0.978  10.584 -0.1318 -0.3922  0.7911
   84TMC2    C2 1304   3.940   0.877  10.498  0.3758  0.3499  0.1813
   84TMC2    C3 1305   4.046   0.900  10.411  0.8604 -0.0335  0.2465
   84TMC2    C4 1306   3.992   1.095  10.578  0.1971  0.1050  0.4601
   84TMC2    C5 1307   4.094   1.108  10.492 -0.0287 -0.1071  0.4896
   84TMC2    C6 1308   4.118   1.015  10.392 -0.8087  0.2524 -0.2555
   84TMC2     C 1309   3.788   0.990  10.645 -0.0559 -0.1430  0.6208
   84TMC2     O 1310   3.749   1.106  10.654 -0.1900 -0.5104  0.2854
   84TMC2     H 1311   3.876   0.790  10.492 -0.2940  0.8706 -0.2254
   84TMC2    H1 1312   3.960   1.177  10.642  0.9096  1.1503 -0.5142
   84TMC2    H2 1313   4.203   1.022  10.327  0.9306 -0.3283  1.9478
   84TMC2    C7 1314   4.113   1.244  10.462 -0.2391 -0.2309  0.2713
   84TMC2    C8 1315   4.070   0.782  10.329 -0.2858  0.1897 -0.9766
   84TMC2    O1 1316   4.009   1.302  10.450  0.4223  0.3866  0.3324
   84TMC2    O2 1317   4.059   0.672  10.374 -0.4580 -0.1324  0.3739
   84TMC2    O5 1318   4.095   0.817  10.202 -0.3287 -0.5173  0.0989
   84TMC2    H5 1319   4.091   0.912  10.178  0.8259 -0.2271  1.0974
   85TMC2    C1 1320   4.328   3.848  16.034 -0.3050  0.2547  0.2417
   85TMC2    C2 1321   4.297   3.874  15.904 -0.4896 -0.4914  0.3782
   85TMC2    C3 1322   4.336   3.991  15.842  0.0030  0.3445 -0.3836
   85TMC2    C4 1323   4.402   3.945  16.103 -0.5108 -0.4277  0.2242
   85TMC2    C5 1324   4.439   4.059  16.035 -0.4528 -0.5438  0.4585
   85TMC2    C6 1325   4.409   4.089  15.908  0.3223  0.5058 -0.0358
   85TMC2     C 1326   4.231   3.777  16.116 -0.0055 -0.5860  0.2283
   85TMC2     O 1327   4.229   3.819  16.235 -0.1537 -0.0196  0.5708
   85TMC2     H 1328   4.237   3.807  15.843 -1.0221 -0.2533  0.6343
   85TMC2    H1 1329   4.435   3.928  16.205  0.0329 -0.5617  0.0299
   85TMC2    H2 1330   4.432   4.182  15.857  0.1818  0.2500 -0.5660
   85TMC2    C7 1331   4.548   4.130  16.094 -0.4079 -0.3197 -0.3286
   85TMC2    C8 1332   4.307   3.997  15.702 -0.2546 -0.2484  0.4833
   85TMC2    O1 1333   4.621   4.081  16.180  0.5422  0.0090 -0.8618
   85TMC2    O2 1334   4.284   3.895  15.640  0.0937  0.1117 -0.2451
   85TMC2    O5 1335   4.373   4.093  15.637  0.5265 -0.0387 -1.0100
   85TMC2    H5 1336   4.393   4.178  15.682 -0.2942  1.3572 -3.2721
   86MPD2     C 1337   3.852   3.435  16.187 -0.2049  0.8102 -0.4109
   86MPD2    C1 1338   3.887   3.436  16.053 -0.2568  0.2270 -0.1452
   86MPD2    C2 1339   3.981   3.524  16.006  1.1278 -0.2965  0.3126
   86MPD2    C3 1340   4.053   3.599  16.098  0.0139  0.7541 -0.1838
   86MPD2    C4 1341   4.026   3.597  16.234 -0.3510 -0.0639 -0.4621
   86MPD2    C5 1342   3.927   3.518  16.276 -0.5922  0.1572  0.1868
   86MPD2     H 1343   4.013   3.529  15.902  2.4361 -1.8281  0.6508
   86MPD2    H1 1344   4.068   3.658  16.313  0.5415  1.2895 -1.9907
   86MPD2    H2 1345   3.774   3.376  16.234  1.1909  0.0845  0.9922
   86MPD2    H3 1346   3.906   3.518  16.383  0.1904  1.1040  0.3482
   86MPD2     N 1347   4.157   3.684  16.045  0.5914  0.0209  0.4211
   86MPD2    H5 1348   4.165   3.679  15.944 -1.3930 -0.7148  0.3089
   86MPD2    N1 1349   3.828   3.345  15.961  0.1653 -0.7082 -0.1330
   86MPD2    H7 1350   3.857   3.335  15.863  1.0930  0.5032  0.0169
   87TMC2    C1 1351   1.921   2.661   0.843 -0.1613  0.4119 -0.8031
   87TMC2    C2 1352   1.897   2.604   0.962 -0.9072 -0.1912 -0.0987
   87TMC2    C3 1353   1.764   2.590   1.008  0.1570  0.1612  0.4051
   87TMC2    C4 1354   1.821   2.712   0.764 -0.3984 -0.2696 -0.5256
   87TMC2    C5 1355   1.691   2.695   0.809 -0.3692  0.1804 -0.0833
   87TMC2    C6 1356   1.659   2.631   0.927 -0.1910  0.1539 -0.2941
   87TMC2     C 1357   2.061   2.685   0.807  0.3159  0.3854  0.0109
   87TMC2     O 1358   2.084   2.716   0.686  0.9346 -0.0745  0.3422
   87TMC2     H 1359   1.983   2.561   1.012 -0.8216  0.8285  0.6127
   87TMC2    H1 1360   1.842   2.760   0.669 -3.6965  0.2585 -0.9808
   87TMC2    H2 1361   1.557   2.611   0.959  0.2562 -0.0462  0.9814
   87TMC2    C7 1362   1.593   2.756   0.725 -0.8231  0.2004  0.3709
   87TMC2    C8 1363   1.727   2.536   1.135 -0.0440 -0.0972  0.3776
   87TMC2    O1 1364   1.636   2.829   0.638 -0.6067  0.4015  0.4455
   87TMC2    O2 1365   1.610   2.506   1.156  0.2854  0.0215  0.0394
   87TMC2    O5 1366   1.827   2.563   1.228  0.3992  0.2264  0.2866
   87TMC2    H5 1367   1.912   2.602   1.197  0.7009 -0.6272  0.0396
   88MPD2     C 1368   1.227   2.744   0.763  0.1692 -0.4887  0.2664
   88MPD2    C1 1369   1.347   2.794   0.728  0.0181 -0.1727  0.3636
   88MPD2    C2 1370   1.354   2.923   0.680  0.6606 -0.3878  0.4798
   88MPD2    C3 1371   1.237   2.994   0.652  0.1736  0.5275 -0.2613
   88MPD2    C4 1372   1.113   2.934   0.682 -0.2621  0.1345 -0.1681
   88MPD2    C5 1373   1.112   2.808   0.737 -0.1076 -0.1844  0.2121
   88MPD2     H 1374   1.448   2.967   0.651  1.6372 -2.0973  1.0537
   88MPD2    H1 1375   1.019   2.985   0.663 -0.9765 -1.2226 -0.2680
   88MPD2    H2 1376   1.220   2.642   0.800 -1.9021 -0.5653 -0.3625
   88MPD2    H3 1377   1.019   2.762   0.768 -1.2975  1.4057 -0.9977
   88MPD2     N 1378   1.236   3.123   0.588 -0.1537 -0.3077  0.3988
   88MPD2    H5 1379   1.146   3.148   0.549 -1.3072 -1.3210  2.3621
   88MPD2    N1 1380   1.463   2.712   0.747  0.4376 -0.4862  0.1279
   88MPD2    H7 1381   1.447   2.622   0.790  1.6423 -1.8111 -2.1954
   89TMC2    C1 1382   3.918   0.468   1.420 -0.1374 -0.1465 -1.1963
   89TMC2    C2 1383   4.047   0.492   1.393 -0.6566  0.2761 -0.3860
   89TMC2    C3 1384   4.084   0.622   1.392  0.3718 -0.0438  0.1327
   89TMC2    C4 1385   3.820   0.568   1.439 -0.6839 -0.0087 -0.7240
   89TMC2    C5 1386   3.869   0.700   1.430 -0.9107 -1.0087  0.1804
   89TMC2    C6 1387   3.999   0.727   1.407  0.7318  0.1214  0.5584
   89TMC2     C 1388   3.873   0.329   1.415  0.4924  0.2444 -0.1737
   89TMC2     O 1389   3.936   0.244   1.354  0.3524  0.1451 -0.2715
   89TMC2     H 1390   4.116   0.411   1.370 -0.4700 -0.3031  2.2334
   89TMC2    H1 1391   3.723   0.552   1.486  0.5527  2.5465  2.7452
   89TMC2    H2 1392   4.039   0.827   1.415 -1.2049  1.0124 -0.9754
   89TMC2    C7 1393   3.778   0.809   1.457  0.0187 -0.3814 -0.3841
   89TMC2    C8 1394   4.223   0.657   1.370 -0.2157  0.6609 -0.0533
   89TMC2    O1 1395   3.673   0.775   1.509  0.2397  0.4943  0.3172
   89TMC2    O2 1396   4.258   0.769   1.331  0.5801 -0.1405 -0.1078
   89TMC2    O5 1397   4.315   0.560   1.396 -0.7207  0.2672  0.3019
   89TMC2    H5 1398   4.273   0.479   1.432 -3.2608  0.1328 -2.9549
   90MPD2     C 1399   3.518   4.694   1.474  0.4837  0.0133  0.6550
   90MPD2    C1 1400   3.484   0.062   1.547 -0.2977  0.4342  0.5776
   90MPD2    C2 1401   3.567   0.173   1.545  0.3571 -0.0910 -0.3395
   90MPD2    C3 1402   3.680   0.185   1.471 -0.2507 -0.9475 -0.4310
   90MPD2    C4 1403   3.717   0.070   1.404  0.1694 -0.2398 -0.0273
   90MPD2    C5 1404   3.639   4.700   1.404  0.5276  0.4265 -0.3372
   90MPD2     H 1405   3.546   0.260   1.606 -1.1054 -1.3534  0.9553
   90MPD2    H1 1406   3.818   0.056   1.367 -0.7226 -2.1303 -1.7180
   90MPD2    H2 1407   3.453   4.608   1.470 -0.7208  0.8264  2.5093
   90MPD2    H3 1408   3.672   4.608   1.356  0.8810  0.6522 -0.5258
   90MPD2     N 1409   3.757   0.304   1.481  0.0232 -0.3611 -0.2269
   90MPD2    H5 1410   3.715   0.378   1.536 -0.7403 -1.1649  0.2838
   90MPD2    N1 1411   3.371   0.077   1.630  0.2896 -0.1168  0.1539
   90MPD2    H7 1412   3.349   0.165   1.674  0.6331  0.7508 -1.4248
   91TMC2    C1 1413   0.288   0.296  16.796  0.0294 -0.0304  0.0078
   91TMC2    C2 1414   0.317   0.403  16.864 -0.1618 -0.2301  0.7001
   91TMC2    C3 1415   0.252   0.424  16.976 -0.0633  0.1522  1.1113
   91TMC2    C4 1416   0.187   0.218  16.836  0.2701 -0.0071 -0.0182
   91TMC2    C5 1417   0.125   0.239  16.962  0.2266  0.6047  0.1858
   91TMC2    C6 1418   0.153   0.351  17.027 -0.2713 -0.1802 -0.2053
   91TMC2     C 1419   0.345   0.277  16.664  0.4590  0.1627 -0.1091
   91TMC2     O 1420   0.295   0.213  16.577 -0.6010  0.1559  0.5324
   91TMC2     H 1421   0.394   0.475  16.838 -1.4391  0.3134 -1.5673
   91TMC2    H1 1422   0.160   0.133  16.774 -0.8695  0.8117 -0.6436
   91TMC2    H2 1423   0.097   0.379  17.115  0.7964  0.1832  0.3568
   91TMC2    C7 1424   0.002   0.181  16.993  0.3136 -0.1410  0.4357
   91TMC2    C8 1425   0.259   0.561  17.043 -0.4161  0.7319 -0.1185
   91TMC2    O1 1426   4.706   0.188  17.107 -0.2969  0.4331 -0.6098
   91TMC2    O2 1427   0.298   0.662  16.989  0.3142  0.3966  0.0030
   91TMC2    O5 1428   0.313   0.522  17.161  0.0059 -1.0636  0.5536
   91TMC2    H5 1429   0.274   0.435  17.184  1.6019 -1.7624  0.5767
   92MPD2     C 1430   0.515   0.310  16.425  0.0152  0.1219 -0.5683
   92MPD2    C1 1431   0.552   0.357  16.550 -0.1869 -0.0243 -0.1659
   92MPD2    C2 1432   0.664   0.433  16.572  0.0732  0.0875  0.3457
   92MPD2    C3 1433   0.738   0.469  16.457  0.2913  0.0984  0.0460
   92MPD2    C4 1434   0.713   0.424  16.332 -0.0090 -0.4061  0.0492
   92MPD2    C5 1435   0.607   0.340  16.320 -0.0624 -0.6873 -0.1827
   92MPD2     H 1436   0.704   0.472  16.664 -0.3482  1.6220 -0.1250
   92MPD2    H1 1437   0.779   0.440  16.248  0.0629  0.5177  0.2751
   92MPD2    H2 1438   0.424   0.253  16.413  0.2426  0.0966 -2.1977
   92MPD2    H3 1439   0.579   0.298  16.225  0.3101 -0.6100 -0.3261
   92MPD2     N 1440   0.837   0.561  16.477  1.0596 -0.5542  0.6171
   92MPD2    H5 1441   0.842   0.601  16.570  0.2799  1.3057 -0.1360
   92MPD2    N1 1442   0.471   0.335  16.663  0.3792  0.1755 -0.2139
   92MPD2    H7 1443   0.503   0.377  16.750 -0.9199 -1.0625  0.8678
   93TMC2    C1 1444   2.041   0.194  13.955  0.5334  1.4427  0.2608
   93TMC2    C2 1445   2.004   0.094  13.868  0.1071  0.5546 -0.0662
   93TMC2    C3 1446   2.065   0.095  13.747 -0.6215 -0.8139 -0.0315
   93TMC2    C4 1447   2.116   0.299  13.927  0.8977 -0.2679 -0.2325
   93TMC2    C5 1448   2.161   0.308  13.797 -0.2124 -0.4837  0.1456
   93TMC2    C6 1449   2.146   0.200  13.709  0.0628 -0.2995  0.5981
   93TMC2     C 1450   1.997   0.187  14.089  0.2135 -0.1762 -0.2292
   93TMC2     O 1451   2.075   0.228  14.178  0.0846 -0.2094 -0.0108
   93TMC2     H 1452   1.935   0.015  13.896 -1.7940  1.7236 -1.4639
   93TMC2    H1 1453   2.133   0.385  13.990  0.7638 -0.4845  0.1008
   93TMC2    H2 1454   2.178   0.209  13.606 -0.9610  0.0172  0.3097
   93TMC2    C7 1455   2.273   0.391  13.757 -0.2393  0.8539 -0.4578
   93TMC2    C8 1456   2.022   0.002  13.642  0.0129  0.1498 -0.4602
   93TMC2    O1 1457   2.327   0.359  13.651  0.4577  0.5923  0.2971
   93TMC2    O2 1458   2.075   4.727  13.536 -0.0840  0.0096  0.0736
   93TMC2    O5 1459   1.885   0.011  13.660 -0.0365 -0.4848  0.1077
   93TMC2    H5 1460   1.846   0.048  13.742 -0.9230  1.5185 -1.2215
   94MPD2     C 1461   1.819   0.159  14.328  0.3522  0.6694 -0.3491
   94MPD2    C1 1462   1.791   0.109  14.201  0.1182  0.0553 -0.0924
   94MPD2    C2 1463   1.675   0.042  14.182  0.5037  0.1808 -0.7897
   94MPD2    C3 1464   1.574   0.034  14.280  0.0454 -0.4697 -0.2850
   94MPD2    C4 1465   1.605   0.079  14.408  0.2470 -0.0718  0.5974
   94MPD2    C5 1466   1.726   0.149  14.423 -0.5622  0.1694 -0.2380
   94MPD2     H 1467   1.674   4.736  14.086 -0.8722 -1.3267  0.0073
   94MPD2    H1 1468   1.542   0.084  14.496 -1.9043  0.9442 -0.9924
   94MPD2    H2 1469   1.913   0.210  14.349  1.2538 -0.6355 -1.2880
   94MPD2    H3 1470   1.760   0.177  14.522  0.7067 -0.9869 -0.3405
   94MPD2     N 1471   1.444   4.743  14.247 -0.8429 -0.3196  0.0257
   94MPD2    H5 1472   1.373   0.018  14.317 -1.8933 -3.4945 -0.1908
   94MPD2    N1 1473   1.872   0.141  14.087  0.4846  0.0041 -0.7005
   94MPD2    H7 1474   1.828   0.119  13.998 -0.9397  1.4258 -0.3645
   95TMC2    C1 1475   2.000   1.727  16.121  0.0291  0.1437 -0.0022
   95TMC2    C2 1476   2.027   1.602  16.169  0.9812 -0.6550  0.1862
   95TMC2    C3 1477   1.999   1.581  16.301  0.0283  0.1980 -0.0818
   95TMC2    C4 1478   1.953   1.832  16.197  0.0533 -0.3016 -0.2920
   95TMC2    C5 1479   1.926   1.806  16.331 -0.4485 -0.4252  0.2992
   95TMC2    C6 1480   1.953   1.682  16.387 -0.8911 -0.6019  0.3603
   95TMC2     C 1481   2.057   1.758  15.993 -0.1382 -0.1766 -0.4320
   95TMC2     O 1482   2.088   1.874  15.979  0.4456  0.3625 -0.3520
   95TMC2     H 1483   2.060   1.524  16.101  1.9024  0.2892 -0.4505
   95TMC2    H1 1484   1.964   1.929  16.150  0.2067 -0.2588 -0.1673
   95TMC2    H2 1485   1.925   1.654  16.487 -1.2629  0.0738  0.4477
   95TMC2    C7 1486   1.881   1.910  16.418 -0.5707 -0.1965  0.4278
   95TMC2    C8 1487   2.037   1.450  16.344  0.1694  0.1855 -0.3581
   95TMC2    O1 1488   1.859   1.877  16.535 -0.0930 -0.4195 -0.1953
   95TMC2    O2 1489   2.083   1.357  16.279  0.2822  0.2179  0.1996
   95TMC2    O5 1490   2.008   1.442  16.478  0.1152 -0.3343  0.4520
   95TMC2    H5 1491   1.976   1.522  16.526  1.2873 -0.6896  1.8231
   96MPD2     C 1492   2.355   1.675  15.586 -0.4089  0.1752 -0.6287
   96MPD2    C1 1493   2.325   1.789  15.654  0.0178 -0.1652  0.5714
   96MPD2    C2 1494   2.239   1.780  15.765 -0.4481  0.0557 -0.0369
   96MPD2    C3 1495   2.185   1.662  15.803 -0.3474  0.4800 -0.0200
   96MPD2    C4 1496   2.216   1.552  15.731 -0.4261  0.3217 -1.0574
   96MPD2    C5 1497   2.296   1.560  15.616 -0.4060 -0.4782 -0.3982
   96MPD2     H 1498   2.224   1.867  15.829 -1.2143 -0.4544  0.4815
   96MPD2    H1 1499   2.168   1.460  15.762  1.7726  0.0206  1.4312
   96MPD2    H2 1500   2.440   1.676  15.518  0.1414  1.6176  0.0802
   96MPD2    H3 1501   2.330   1.470  15.567  1.9669  0.4044 -0.3958
   96MPD2     N 1502   2.096   1.653  15.915  0.1406  0.5354  0.0548
   96MPD2    H5 1503   2.056   1.561  15.931  1.2991 -0.0271 -0.2756
   96MPD2    N1 1504   2.373   1.908  15.603 -0.1609 -0.0087 -0.3314
   96MPD2    H7 1505   2.430   1.905  15.519 -0.8408  2.2479 -0.8717
   97TMC2    C1 1506   4.386   0.416  17.744 -0.5760  0.1064 -0.7723
   97TMC2    C2 1507   4.294   0.403  17.646 -0.2168  0.2309  0.2744
   97TMC2    C3 1508   4.280   0.517  17.564 -0.3447  0.2417 -0.6066
   97TMC2    C4 1509   4.473   0.522  17.755  0.1272 -0.3903  0.3873
   97TMC2    C5 1510   4.459   0.624  17.662  0.5942  0.0069 -0.4053
   97TMC2    C6 1511   4.357   0.633  17.577  0.0896  1.2071 -0.1039
   97TMC2     C 1512   4.368   0.330   0.088 -0.0890 -0.3031 -0.2725
   97TMC2     O 1513   4.352   0.210   0.063  0.5012 -0.1423 -0.0630
   97TMC2     H 1514   4.213   0.332  17.651 -0.0631  0.1288  1.2347
   97TMC2    H1 1515   4.557   0.524   0.053  1.0500 -0.8225 -0.7220
   97TMC2    H2 1516   4.338   0.723  17.520  1.4943  0.4228 -1.8265
   97TMC2    C7 1517   4.558   0.726  17.679  0.1775 -1.0184 -0.5884
   97TMC2    C8 1518   4.150   0.529  17.506 -0.2157 -0.3260 -0.4016
   97TMC2    O1 1519   4.594   0.738   0.025  0.2774 -0.4423 -0.4782
   97TMC2    O2 1520   4.082   0.450  17.440 -0.2462 -0.3211 -0.3538
   97TMC2    O5 1521   4.085   0.621  17.586 -0.1461 -0.6294  0.2764
   97TMC2    H5 1522   4.141   0.655  17.659  0.4313  1.4215 -1.1213
   98MPD2     C 1523   4.198   0.282   0.574  0.3254 -0.3402 -0.1609
   98MPD2    C1 1524   4.208   0.188   0.476  0.6261 -0.2451 -0.3646
   98MPD2    C2 1525   4.253   0.219   0.350 -0.0351 -0.5925 -0.7964
   98MPD2    C3 1526   4.295   0.357   0.320 -0.3479  0.2082  0.3972
   98MPD2    C4 1527   4.283   0.446   0.428  0.1142 -0.2331  0.1411
   98MPD2    C5 1528   4.228   0.414   0.550  0.3583  0.0681  0.6959
   98MPD2     H 1529   4.254   0.145   0.271  0.4101 -2.8956  1.3616
   98MPD2    H1 1530   4.316   0.548   0.413 -2.1625  0.3480 -0.8502
   98MPD2    H2 1531   4.166   0.269   0.677 -2.9942 -1.1739 -1.2896
   98MPD2    H3 1532   4.224   0.486   0.631 -0.6854  0.2471  0.4807
   98MPD2     N 1533   4.355   0.405   0.201  0.0798  0.3849 -0.1494
   98MPD2    H5 1534   4.374   0.503   0.184 -1.5925  0.7653  0.1729
   98MPD2    N1 1535   4.165   0.057   0.503 -0.5388 -0.1338 -0.4793
   98MPD2    H7 1536   4.134   0.037   0.598 -0.0493  2.0385  0.1273
   99TMC2    C1 1537   2.892   0.882   2.213 -0.6001  0.3007  0.0012
   99TMC2    C2 1538   2.862   0.813   2.331  0.2889 -0.4598  0.8569
   99TMC2    C3 1539   2.752   0.846   2.412 -0.2862 -0.0747 -0.9141
   99TMC2    C4 1540   2.813   0.988   2.172  0.2807  0.0211  0.2899
   99TMC2    C5 1541   2.710   1.022   2.258 -0.0244 -0.1528  0.0424
   99TMC2    C6 1542   2.680   0.959   2.377  0.3136  0.5571 -0.2268
   99TMC2     C 1543   2.967   0.801   2.119 -0.0191  0.3779  0.3841
   99TMC2     O 1544   2.984   0.679   2.119 -0.0175 -0.0303  0.1850
   99TMC2     H 1545   2.919   0.724   2.351  1.2380 -0.5202 -2.0156
   99TMC2    H1 1546   2.816   1.025   2.070  0.7774 -0.0827  0.2660
   99TMC2    H2 1547   2.585   0.982   2.424  0.7162 -0.9912  1.3432
   99TMC2    C7 1548   2.603   1.108   2.218  0.2404 -0.4399  0.3960
   99TMC2    C8 1549   2.705   0.748   2.514  0.4232 -0.3719 -0.2810
   99TMC2    O1 1550   2.548   1.175   2.304  0.4299  0.2046  0.3401
   99TMC2    O2 1551   2.776   0.688   2.595  0.1444 -0.0689  0.2148
   99TMC2    O5 1552   2.574   0.743   2.511 -0.6245 -0.7027 -0.3369
   99TMC2    H5 1553   2.543   0.778   2.425  1.9366  0.7365 -0.6870
  100MPD2     C 1554   3.062   0.727   1.848 -0.0964 -0.0349  0.1755
  100MPD2    C1 1555   3.087   0.848   1.912 -0.5185 -0.6102  0.8177
  100MPD2    C2 1556   3.152   0.940   1.828  0.8001 -0.3050  0.3487
  100MPD2    C3 1557   3.180   0.916   1.691  0.2122  0.2148 -0.5912
  100MPD2    C4 1558   3.171   0.791   1.643 -0.1576  1.4250 -0.3526
  100MPD2    C5 1559   3.106   0.693   1.727 -0.8232 -0.5165  0.2377
  100MPD2     H 1560   3.172   1.037   1.872 -1.0963  1.4709 -2.6784
  100MPD2    H1 1561   3.199   0.755   1.545 -1.1621 -0.0684 -0.0949
  100MPD2    H2 1562   3.014   0.647   1.903  0.6753 -1.3274 -1.0408
  100MPD2    H3 1563   3.084   0.590   1.701  0.8365 -0.0184 -3.0743
  100MPD2     N 1564   3.230   1.028   1.616  0.7582  0.2320  0.2859
  100MPD2    H5 1565   3.245   1.117   1.661 -1.5210  0.0469  1.4184
  100MPD2    N1 1566   3.028   0.887   2.039 -0.1117  0.2966 -0.1431
  100MPD2    H7 1567   3.031   0.986   2.062  1.2097  0.7627 -2.3494
  101TMC2    C1 1568   2.931   2.872  13.320 -0.4980  0.0634 -0.6290
  101TMC2    C2 1569   2.919   2.989  13.389 -0.2583 -0.3769 -0.0736
  101TMC2    C3 1570   2.965   3.105  13.338  0.1387 -0.3145  0.7080
  101TMC2    C4 1571   2.994   2.880  13.201 -0.4099  0.3986 -0.5821
  101TMC2    C5 1572   3.031   2.996  13.144 -1.3469  0.4113  0.1296
  101TMC2    C6 1573   3.021   3.110  13.212 -0.4033 -0.4678 -0.5254
  101TMC2     C 1574   2.929   2.749  13.397  0.2381 -0.0066 -0.2198
  101TMC2     O 1575   2.892   2.755  13.513 -0.5369 -0.0643 -0.4681
  101TMC2     H 1576   2.879   2.999  13.489 -0.4555 -1.3029 -0.0573
  101TMC2    H1 1577   3.026   2.790  13.150 -1.6248 -0.5017  0.2372
  101TMC2    H2 1578   3.070   3.200  13.177  0.0749 -0.7174 -0.5009
  101TMC2    C7 1579   3.078   3.004  13.009  0.5504 -0.1729  0.4598
  101TMC2    C8 1580   2.910   3.228  13.402 -0.0801  0.3615  0.3301
  101TMC2    O1 1581   3.163   3.087  12.982 -0.9037 -0.3781  0.1542
  101TMC2    O2 1582   2.806   3.224  13.465 -0.3218 -0.0103  0.8001
  101TMC2    O5 1583   2.974   3.338  13.353  0.1673  0.2538  0.4794
  101TMC2    H5 1584   3.066   3.322  13.320 -0.0944  3.3916 -1.7174
  102MPD2     C 1585   2.973   2.410  13.260  0.1201 -0.3954 -0.2521
  102MPD2    C1 1586   2.953   2.504  13.356 -0.7080 -0.7786  0.7349
  102MPD2    C2 1587   2.942   2.464  13.489  0.1534 -0.8103 -0.0607
  102MPD2    C3 1588   2.943   2.329  13.525  0.1371 -0.0758 -0.1585
  102MPD2    C4 1589   2.969   2.240  13.426  0.2715 -0.9837  0.4446
  102MPD2    C5 1590   2.988   2.278  13.297 -0.4490  0.1892 -0.6953
  102MPD2     H 1591   2.917   2.539  13.563  0.9250  1.9255 -2.5553
  102MPD2    H1 1592   2.971   2.133  13.442  1.5686 -0.7418  1.8701
  102MPD2    H2 1593   2.984   2.442  13.157  0.3770  0.1580 -0.0501
  102MPD2    H3 1594   2.991   2.200  13.222  0.1063  0.3016 -0.7907
  102MPD2     N 1595   2.921   2.286  13.658 -0.3166  0.1102 -0.0173
  102MPD2    H5 1596   2.887   2.361  13.718  1.5592 -0.5081  1.8195
  102MPD2    N1 1597   2.935   2.642  13.316 -0.2744 -0.3691 -0.4922
  102MPD2    H7 1598   2.944   2.668  13.218 -0.9304  1.0776 -0.1705
  103TMC2    C1 1599   1.330   3.036  12.832 -0.3220 -0.1845  0.2209
  103TMC2    C2 1600   1.439   2.963  12.877 -0.2793  0.2643  0.5138
  103TMC2    C3 1601   1.513   2.997  12.988  0.2264 -0.1764  0.6830
  103TMC2    C4 1602   1.288   3.152  12.900  0.5236 -0.0845 -0.5430
  103TMC2    C5 1603   1.352   3.166  13.019 -0.1395 -0.1207  0.9994
  103TMC2    C6 1604   1.468   3.101  13.061  0.2750  0.3338  0.4186
  103TMC2     C 1605   1.227   2.968  12.757 -0.2316 -0.0521 -0.1089
  103TMC2     O 1606   1.142   3.031  12.698  0.9415  0.3354 -0.4374
  103TMC2     H 1607   1.466   2.886  12.806  0.2166  0.8648  0.0385
  103TMC2    H1 1608   1.198   3.203  12.870  0.5469  0.4818  0.3373
  103TMC2    H2 1609   1.502   3.118  13.163  0.1884 -0.0320  0.5120
  103TMC2    C7 1610   1.289   3.241  13.127 -0.2123 -0.4312 -0.0063
  103TMC2    C8 1611   1.603   2.907  13.053  0.0412  0.0965  0.0690
  103TMC2    O1 1612   1.333   3.236  13.242  0.3477 -0.3355  0.1244
  103TMC2    O2 1613   1.643   2.921  13.172 -0.1364  0.0167  0.4018
  103TMC2    O5 1614   1.626   2.795  12.978  0.3980  0.6013  0.9467
  103TMC2    H5 1615   1.635   2.823  12.884 -0.3545 -2.2423  0.0300
  104MPD2     C 1616   1.170   2.605  12.741 -0.3144  0.1832  0.3653
  104MPD2    C1 1617   1.145   2.739  12.711 -0.3989 -0.4540  0.2128
  104MPD2    C2 1618   1.039   2.767  12.624  0.8664  0.4819  0.4945
  104MPD2    C3 1619   0.958   2.659  12.579  0.7789 -0.0495  0.2056
  104MPD2    C4 1620   0.984   2.532  12.623  0.7855  0.4646  0.8677
  104MPD2    C5 1621   1.084   2.503  12.703 -0.5183 -0.1898 -0.5984
  104MPD2     H 1622   1.027   2.872  12.596 -0.1601  0.2774  0.1597
  104MPD2    H1 1623   0.929   2.439  12.608  3.4295 -0.4490 -3.1894
  104MPD2    H2 1624   1.245   2.575  12.813 -0.5442  1.0256  0.9642
  104MPD2    H3 1625   1.087   2.399  12.731  1.2782 -0.0401 -0.2118
  104MPD2     N 1626   0.842   2.680  12.508  0.2003  0.4798 -0.3060
  104MPD2    H5 1627   0.846   2.777  12.477 -1.5898  0.3226 -1.0307
  104MPD2    N1 1628   1.228   2.834  12.776  0.2731 -0.7933 -0.4324
  104MPD2    H7 1629   1.293   2.801  12.846  2.1182 -1.9958 -2.7662
  105TMC2    C1 1630   2.886   2.513   0.366 -0.6856  0.0412 -0.3523
  105TMC2    C2 1631   2.825   2.586   0.263  0.3885  0.6354  0.7299
  105TMC2    C3 1632   2.725   2.670   0.301 -0.7105 -0.1328 -0.2177
  105TMC2    C4 1633   2.839   2.519   0.493 -1.2561 -0.3979 -0.0468
  105TMC2    C5 1634   2.745   2.618   0.524  0.6057  0.3412 -0.2742
  105TMC2    C6 1635   2.689   2.701   0.429  0.2049 -0.0670 -0.0186
  105TMC2     C 1636   2.970   2.405   0.330  0.0220 -0.2007  0.8353
  105TMC2     O 1637   3.021   2.337   0.415 -0.0273  0.3798  0.2560
  105TMC2     H 1638   2.852   2.570   0.159  0.6870 -0.3671  0.9551
  105TMC2    H1 1639   2.877   2.455   0.572  1.5960  2.6013  1.0120
  105TMC2    H2 1640   2.606   2.769   0.446  0.0253 -0.3217  0.1316
  105TMC2    C7 1641   2.702   2.623   0.662 -1.0821 -0.3419  0.0760
  105TMC2    C8 1642   2.693   2.754   0.184 -0.2594 -0.1477  0.1919
  105TMC2    O1 1643   2.782   2.576   0.741  0.7817 -0.0938  0.4474
  105TMC2    O2 1644   2.780   2.813   0.125 -0.4359 -0.1043 -0.2862
  105TMC2    O5 1645   2.576   2.809   0.220 -0.6652 -0.1253 -0.2747
  105TMC2    H5 1646   2.508   2.751   0.260  0.9462 -0.5333  1.8996
  106MPD2     C 1647   3.287   2.161  17.754  0.4419  0.3423 -0.8853
  106MPD2    C1 1648   3.232   2.270  17.697 -0.1138 -0.1775  0.5489
  106MPD2    C2 1649   3.137   2.349  17.766  0.0568  0.0943  0.2735
  106MPD2    C3 1650   3.102   2.322   0.131 -0.2042  0.7014 -0.3261
  106MPD2    C4 1651   3.168   2.214   0.192 -0.2496 -0.8762 -0.5000
  106MPD2    C5 1652   3.257   2.143   0.118 -0.0466 -0.5708  0.0385
  106MPD2     H 1653   3.085   2.431  17.718 -0.9259 -0.3406  0.5959
  106MPD2    H1 1654   3.142   2.181   0.292 -1.4483  1.2112 -0.1257
  106MPD2    H2 1655   3.370   2.104  17.714 -1.1271 -0.5388 -2.9122
  106MPD2    H3 1656   3.308   2.066   0.174 -0.2244 -0.0111  0.9811
  106MPD2     N 1657   3.011   2.405   0.197 -0.0663 -0.6571 -1.0990
  106MPD2    H5 1658   2.956   2.466   0.136  1.0095  0.4468 -0.9661
  106MPD2    N1 1659   3.249   2.305  17.561  0.1039 -0.1486  0.2000
  106MPD2    H7 1660   3.214   2.396  17.533  1.3035 -0.2080 -1.5046
  107TMC2    C1 1661   3.356   1.381  11.321 -0.1200 -0.2606 -0.1985
  107TMC2    C2 1662   3.439   1.475  11.260  0.6987  0.5220 -0.1378
  107TMC2    C3 1663   3.480   1.441  11.132  0.3529 -0.0266 -0.7225
  107TMC2    C4 1664   3.314   1.267  11.259 -0.2676 -0.6141 -0.1603
  107TMC2    C5 1665   3.347   1.248  11.132 -0.5635  0.7311  0.2732
  107TMC2    C6 1666   3.427   1.337  11.064 -0.1279  0.2411  0.4486
  107TMC2     C 1667   3.340   1.398  11.461 -0.1030  0.3065  0.0861
  107TMC2     O 1668   3.230   1.382  11.516  0.3682  0.0928  0.3813
  107TMC2     H 1669   3.453   1.570  11.311 -1.8225  2.3500 -2.8525
  107TMC2    H1 1670   3.259   1.194  11.318  0.5731  0.3449  1.8086
  107TMC2    H2 1671   3.441   1.340  10.956 -0.4860  1.8225  0.4465
  107TMC2    C7 1672   3.342   1.110  11.091 -0.1608  0.5740  0.5902
  107TMC2    C8 1673   3.527   1.547  11.053  0.3808  0.1091 -0.4761
  107TMC2    O1 1674   3.276   1.026  11.154  0.1596 -0.0486 -0.6875
  107TMC2    O2 1675   3.509   1.555  10.934 -0.3820  0.1584  0.4334
  107TMC2    O5 1676   3.632   1.589  11.120  0.6956 -0.2475 -0.1777
  107TMC2    H5 1677   3.646   1.553  11.210 -1.4862 -0.7894 -0.0425
  108MPD2     C 1678   3.626   1.466  11.685 -0.7255  0.3017  0.0773
  108MPD2    C1 1679   3.490   1.463  11.651  0.2560  0.4267 -0.4828
  108MPD2    C2 1680   3.395   1.472  11.750 -0.0116 -0.2927 -0.0022
  108MPD2    C3 1681   3.434   1.509  11.880  0.2860 -0.6725 -0.0454
  108MPD2    C4 1682   3.565   1.516  11.908 -0.0372  0.3371  0.1250
  108MPD2    C5 1683   3.666   1.485  11.817 -0.3394 -0.4605 -0.3386
  108MPD2     H 1684   3.290   1.470  11.723  0.3115  0.0128 -1.2859
  108MPD2    H1 1685   3.593   1.539  12.010  0.4280 -3.2653  0.7986
  108MPD2    H2 1686   3.703   1.449  11.612 -1.2565  2.5930 -1.0456
  108MPD2    H3 1687   3.767   1.500  11.852  0.1499  0.1021 -2.0030
  108MPD2     N 1688   3.347   1.545  11.979 -0.1429  0.9060 -0.0399
  108MPD2    H5 1689   3.381   1.586  12.066  0.5402 -0.0049  0.1206
  108MPD2    N1 1690   3.463   1.423  11.516 -0.3886  0.7463 -0.5481
  108MPD2    H7 1691   3.545   1.414  11.457  1.4748 -0.0221  2.2069
  109TMC2    C1 1692   3.494   0.015   0.833  0.1088 -0.5894  0.0799
  109TMC2    C2 1693   3.520   0.142   0.793 -0.2204  0.0928 -0.6888
  109TMC2    C3 1694   3.606   0.151   0.683 -0.5036  0.2116 -0.8827
  109TMC2    C4 1695   3.535   4.640   0.771 -0.6301  0.5323 -0.3839
  109TMC2    C5 1696   3.627   4.657   0.669 -0.3485  0.2388 -0.4520
  109TMC2    C6 1697   3.660   0.040   0.627 -0.5098 -0.4612  0.0925
  109TMC2     C 1698   3.396   0.015   0.944 -0.5005 -0.2368  0.0122
  109TMC2     O 1699   3.396   0.108   1.020 -0.1208  0.1691 -0.2895
  109TMC2     H 1700   3.483   0.230   0.844  2.3335  0.7602  0.0233
  109TMC2    H1 1701   3.529   4.542   0.817 -1.4331  1.3248  1.1745
  109TMC2    H2 1702   3.736   0.049   0.550  0.8734 -1.8196  1.3082
  109TMC2    C7 1703   3.722   4.552   0.640  0.0982  0.0590 -0.4222
  109TMC2    C8 1704   3.683   0.270   0.656  0.8100 -0.1643 -0.1143
  109TMC2    O1 1705   3.833   4.584   0.596  0.1847  0.1865  0.3927
  109TMC2    O2 1706   3.705   0.369   0.722  0.2733 -0.0818  0.1888
  109TMC2    O5 1707   3.678   0.268   0.518  0.1990  0.1718  0.4045
  109TMC2    H5 1708   3.620   0.196   0.486  0.2732 -0.9347  2.7497
  110MPD2     C 1709   3.039   4.539   1.259  0.1619 -0.4717  0.4132
  110MPD2    C1 1710   3.083   4.447   1.168  0.8475  0.5876 -0.0556
  110MPD2    C2 1711   3.174   4.481   1.067  0.4116  0.6132 -0.2168
  110MPD2    C3 1712   3.231   4.611   1.062  0.3689 -0.6452  0.1088
  110MPD2    C4 1713   3.186   4.703   1.161 -0.3189  0.6054 -1.0388
  110MPD2    C5 1714   3.092   4.663   1.255 -0.7032 -0.0639  0.2005
  110MPD2     H 1715   3.195   4.409   0.989  1.3912  1.5786 -0.8585
  110MPD2    H1 1716   3.219   0.063   1.160 -0.1211  0.5916  2.6090
  110MPD2    H2 1717   2.961   4.513   1.330 -0.1185  0.2629  0.3752
  110MPD2    H3 1718   3.052   4.733   1.327 -2.1665 -1.3046  0.6149
  110MPD2     N 1719   3.329   4.638   0.960  0.0194  0.0905  0.3399
  110MPD2    H5 1720   3.360   4.559   0.905  2.1856 -0.8325  2.8561
  110MPD2    N1 1721   3.031   4.314   1.184  0.5017  0.0415 -0.1497
  110MPD2    H7 1722   2.978   4.302   1.270  0.6751  0.9176  0.0728
  111TMC2    C1 1723   2.996   3.465  11.717  0.3849 -0.4794 -0.0418
  111TMC2    C2 1724   2.889   3.378  11.744  0.0792 -0.2777 -0.0671
  111TMC2    C3 1725   2.929   3.245  11.735  0.4062 -0.6806 -0.1638
  111TMC2    C4 1726   3.122   3.420  11.693  0.5382  0.2205  0.6912
  111TMC2    C5 1727   3.150   3.284  11.676  0.0591  0.6202  0.0518
  111TMC2    C6 1728   3.049   3.196  11.700  0.2395  0.2812 -0.6304
  111TMC2     C 1729   2.973   3.612  11.727 -0.2005 -0.3694  0.0618
  111TMC2     O 1730   3.047   3.668  11.646  0.5565  0.4940 -0.4084
  111TMC2     H 1731   2.785   3.402  11.762  0.0607 -0.6796  0.3634
  111TMC2    H1 1732   3.200   3.493  11.675  0.7424 -0.1910 -0.0716
  111TMC2    H2 1733   3.064   3.089  11.706  1.3241  0.4439 -0.4673
  111TMC2    C7 1734   3.261   3.238  11.753  0.1842  0.9548  0.4768
  111TMC2    C8 1735   2.827   3.146  11.760 -0.9389  0.0338 -0.0576
  111TMC2    O1 1736   3.244   3.149  11.841  0.4096 -0.6381  0.1629
  111TMC2    O2 1737   2.834   3.032  11.715  0.0296 -0.0842  0.8473
  111TMC2    O5 1738   2.805   3.172  11.893 -0.3946  0.2174  0.3325
  111TMC2    H5 1739   2.806   3.265  11.922  1.3095  0.0176  0.9003
  112MPD2     C 1740   2.766   4.028  11.925  0.6331  0.0389 -0.1852
  112MPD2    C1 1741   2.850   4.014  11.817 -0.3608  0.4514  0.2666
  112MPD2    C2 1742   2.886   3.885  11.779 -0.0995 -0.4291  0.4083
  112MPD2    C3 1743   2.835   3.775  11.838  0.6923 -0.3002  0.2980
  112MPD2    C4 1744   2.752   3.792  11.952 -0.2681 -0.8968  0.4773
  112MPD2    C5 1745   2.723   3.921  11.995  0.0611  0.9714 -0.2739
  112MPD2     H 1746   2.957   3.872  11.697 -1.0462  0.7661 -0.6024
  112MPD2    H1 1747   2.710   3.705  12.000  0.6505 -0.9852  1.1274
  112MPD2    H2 1748   2.718   4.119  11.957  0.0382 -0.5562  0.6273
  112MPD2    H3 1749   2.654   3.934  12.078 -0.1969  0.5769 -0.4300
  112MPD2     N 1750   2.875   3.646  11.813 -0.8243  0.0515 -0.1632
  112MPD2    H5 1751   2.831   3.572  11.866 -1.2020 -0.6609 -1.4769
  112MPD2    N1 1752   2.902   4.124  11.739  0.9549  0.3486 -0.2119
  112MPD2    H7 1753   2.953   4.094  11.657  0.3303  0.5506 -0.6737
  113TMC2    C1 1754   1.872   1.486   0.432  0.5620 -0.3002 -0.1261
  113TMC2    C2 1755   1.788   1.558   0.351  1.1612  0.6376  0.6643
  113TMC2    C3 1756   1.679   1.482   0.301  0.5024 -0.2452 -0.0727
  113TMC2    C4 1757   1.843   1.363   0.480 -0.5403  0.1606  0.5892
  113TMC2    C5 1758   1.744   1.292   0.427 -0.1226 -0.6385 -0.1676
  113TMC2    C6 1759   1.664   1.351   0.335  0.1510  0.2294  0.5321
  113TMC2     C 1760   1.936   1.572   0.532 -0.0895 -0.4293 -0.7738
  113TMC2     O 1761   1.915   1.694   0.533  0.4093  0.4200  0.0179
  113TMC2     H 1762   1.800   1.665   0.347  2.8045  0.4794  1.0023
  113TMC2    H1 1763   1.908   1.298   0.539 -1.9353 -0.4131  1.5114
  113TMC2    H2 1764   1.569   1.308   0.306  0.6651 -1.2346  1.0325
  113TMC2    C7 1765   1.686   1.162   0.477 -0.1693  0.5915 -0.3930
  113TMC2    C8 1766   1.550   1.554   0.298  0.0368 -0.4667  0.2616
  113TMC2    O1 1767   1.627   1.089   0.402  0.4030  0.7614 -0.3028
  113TMC2    O2 1768   1.459   1.521   0.375  0.3847 -0.2861  0.0280
  113TMC2    O5 1769   1.574   1.671   0.241 -0.5361  0.2067 -0.3063
  113TMC2    H5 1770   1.638   1.659   0.167 -1.7885 -3.0557 -0.8541
  114MPD2     C 1771   2.315   1.658   0.876  0.2476  0.3022 -0.0272
  114MPD2    C1 1772   2.224   1.738   0.822 -0.1032 -0.6000  0.2059
  114MPD2    C2 1773   2.133   1.690   0.729  0.2702  0.6987 -0.1221
  114MPD2    C3 1774   2.136   1.561   0.686 -0.6140 -0.3175  0.6402
  114MPD2    C4 1775   2.233   1.479   0.736 -0.2078 -0.0706  0.0737
  114MPD2    C5 1776   2.321   1.530   0.830 -0.2081  0.2330 -0.2014
  114MPD2     H 1777   2.050   1.754   0.701 -1.0242 -0.3986  1.1934
  114MPD2    H1 1778   2.237   1.375   0.709 -2.2558 -0.4565  1.1859
  114MPD2    H2 1779   2.387   1.686   0.952 -0.0481  0.2660  0.2671
  114MPD2    H3 1780   2.388   1.464   0.884  2.6794  0.6017 -3.3359
  114MPD2     N 1781   2.049   1.511   0.591 -0.0061  0.2059 -0.0602
  114MPD2    H5 1782   2.065   1.416   0.557  0.1780  0.0496  0.4496
  114MPD2    N1 1783   2.211   1.875   0.842 -0.6768  0.1790 -0.3361
  114MPD2    H7 1784   2.137   1.923   0.791 -0.0875  0.5295 -0.8705
  115TMC2    C1 1785   2.793   4.075  17.434 -0.3733 -0.1602 -0.5312
  115TMC2    C2 1786   2.926   4.046  17.436  0.0712 -0.1093 -0.5956
  115TMC2    C3 1787   3.010   4.150  17.465  0.2888  0.6126  0.2152
  115TMC2    C4 1788   2.738   4.199  17.459  0.1730 -0.3105  0.3406
  115TMC2    C5 1789   2.828   4.294  17.487 -0.3910 -0.2247  0.1806
  115TMC2    C6 1790   2.962   4.272  17.499 -0.0503  0.6008 -0.2595
  115TMC2     C 1791   2.705   3.973  17.386  0.3412 -0.0260  0.0113
  115TMC2     O 1792   2.744   3.894  17.301  0.5585 -0.0928 -0.2280
  115TMC2     H 1793   2.965   3.949  17.407  0.8341  0.1723 -0.5301
  115TMC2    H1 1794   2.631   4.215  17.446  0.5002  1.5159 -0.0341
  115TMC2    H2 1795   3.027   4.350  17.538 -0.1635  1.3487 -1.5767
  115TMC2    C7 1796   2.787   4.432  17.517 -0.2612 -0.4490  0.0479
  115TMC2    C8 1797   3.150   4.123  17.484 -0.1614 -0.2312 -0.2031
  115TMC2    O1 1798   2.682   4.456  17.571 -0.2153 -0.3798 -0.1083
  115TMC2    O2 1799   3.221   4.199  17.551  0.4681 -0.4516  0.2901
  115TMC2    O5 1800   3.197   4.024  17.406 -0.5226 -0.3947  0.1174
  115TMC2    H5 1801   3.124   3.986  17.353  0.2954  1.2001 -2.1580
  116MPD2     C 1802   2.300   3.673  17.480  0.5101  0.8127 -0.3825
  116MPD2    C1 1803   2.392   3.664  17.381  0.5229  0.0597 -0.2752
  116MPD2    C2 1804   2.484   3.763  17.364  0.5215  0.0579  0.0580
  116MPD2    C3 1805   2.493   3.862  17.461  0.4246 -0.0146 -0.0532
  116MPD2    C4 1806   2.395   3.878  17.557 -0.0042  0.1608 -0.4132
  116MPD2    C5 1807   2.299   3.777  17.567  0.2272 -0.2832 -0.1463
  116MPD2     H 1808   2.551   3.760  17.279 -0.3493 -0.2833 -0.6161
  116MPD2    H1 1809   2.402   3.950  17.637  1.5450  0.0133 -0.4204
  116MPD2    H2 1810   2.219   3.602  17.492  1.6175 -0.2772  0.6263
  116MPD2    H3 1811   2.224   3.788  17.644 -0.4761  2.7316 -1.2465
  116MPD2     N 1812   2.593   3.965  17.466  0.2403  0.3457  0.5125
  116MPD2    H5 1813   2.595   4.031  17.543  2.0679  0.2555  0.5391
  116MPD2    N1 1814   2.389   3.567  17.279 -0.2368  0.5170 -1.1223
  116MPD2    H7 1815   2.457   3.578  17.205  0.2677 -1.3225 -0.9447
  117TMC2    C1 1816   1.111   0.867  14.243 -0.0933  0.1578 -0.1723
  117TMC2    C2 1817   1.236   0.819  14.285 -0.3606  0.1796  0.0773
  117TMC2    C3 1818   1.339   0.903  14.314 -0.2044 -0.3835  0.3263
  117TMC2    C4 1819   1.096   1.005  14.242  0.1044 -0.4263 -0.0560
  117TMC2    C5 1820   1.203   1.089  14.270 -0.7815 -0.2637  0.5617
  117TMC2    C6 1821   1.323   1.040  14.298 -0.1364  0.2142 -0.1810
  117TMC2     C 1822   1.015   0.784  14.173 -0.5491 -0.0092 -0.6008
  117TMC2     O 1823   1.000   0.666  14.210  0.4097 -0.1063 -0.2508
  117TMC2     H 1824   1.238   0.713  14.309  0.0077 -0.3378 -2.3068
  117TMC2    H1 1825   1.006   1.051  14.202  1.0450  2.4815  1.1931
  117TMC2    H2 1826   1.407   1.108  14.313  0.7787 -0.8980 -0.2354
  117TMC2    C7 1827   1.187   1.234  14.261 -0.2217  0.5493 -0.6558
  117TMC2    C8 1828   1.479   0.865  14.314  0.1774 -0.8078  0.0985
  117TMC2    O1 1829   1.294   1.293  14.251  0.0033  0.3772  0.0073
  117TMC2    O2 1830   1.563   0.938  14.367 -0.3211  0.2501 -0.0978
  117TMC2    O5 1831   1.460   0.730  14.345  0.3398  0.0755  0.3481
  117TMC2    H5 1832   1.406   0.685  14.276  2.0314 -1.0823 -0.2273
  118MPD2     C 1833   0.875   1.433  14.245  0.2581  0.3292  0.5055
  118MPD2    C1 1834   1.012   1.406  14.260 -0.1195  0.6127  0.1995
  118MPD2    C2 1835   1.099   1.513  14.254 -0.8867 -0.1814 -0.4748
  118MPD2    C3 1836   1.056   1.641  14.228  0.5242  0.8667 -0.1060
  118MPD2    C4 1837   0.919   1.666  14.227 -0.0747 -0.1222 -0.5420
  118MPD2    C5 1838   0.833   1.559  14.229  0.1351  0.4853  0.1270
  118MPD2     H 1839   1.207   1.499  14.258 -1.0781 -1.2722  0.9404
  118MPD2    H1 1840   0.868   1.762  14.219  0.3640  0.2855  1.3279
  118MPD2    H2 1841   0.821   1.339  14.241 -0.5837  0.8528 -0.2871
  118MPD2    H3 1842   0.728   1.579  14.210 -0.1700  0.3669  1.6956
  118MPD2     N 1843   1.140   1.753  14.213 -0.5958 -0.1639 -0.4122
  118MPD2    H5 1844   1.093   1.835  14.179 -0.7101 -0.6256 -1.3679
  118MPD2    N1 1845   1.056   1.275  14.265 -0.3983  0.2063 -0.6532
  118MPD2    H7 1846   0.990   1.198  14.264  0.6573 -0.7192  1.1081
  119TMC2    C1 1847   4.040   2.023  13.715  0.1704  0.7034 -0.2385
  119TMC2    C2 1848   4.063   1.896  13.675 -0.0286 -0.8150  0.0985
  119TMC2    C3 1849   3.969   1.801  13.705  0.2982  0.0689 -0.1558
  119TMC2    C4 1850   3.920   2.051  13.788  0.2342 -0.3950 -0.6646
  119TMC2    C5 1851   3.825   1.961  13.812 -0.0317  0.2763 -0.6825
  119TMC2    C6 1852   3.849   1.831  13.770  0.1483  0.2459 -0.0831
  119TMC2     C 1853   4.152   2.108  13.745  0.2376  0.8192  0.1036
  119TMC2     O 1854   4.130   2.229  13.755 -0.0127  0.0481 -0.2152
  119TMC2     H 1855   4.150   1.871  13.616 -0.2994  1.7996 -1.3886
  119TMC2    H1 1856   3.918   2.150  13.833  0.4867 -0.8628  0.3754
  119TMC2    H2 1857   3.790   1.748  13.807  1.6147  0.0845  1.8861
  119TMC2    C7 1858   3.701   2.011  13.874 -0.2353  0.3514  0.5514
  119TMC2    C8 1859   3.994   1.661  13.679  0.4379  0.3081 -0.1544
  119TMC2    O1 1860   3.694   2.132  13.889  0.2211  0.0099 -0.7143
  119TMC2    O2 1861   4.107   1.624  13.640 -0.2292  0.0956  0.8392
  119TMC2    O5 1862   3.880   1.590  13.650  0.4245  0.4407 -0.2626
  119TMC2    H5 1863   3.791   1.632  13.646 -0.3931 -1.3271 -0.5612
  120MPD2     C 1864   4.439   2.120  14.171  0.8644 -1.0048 -0.2476
  120MPD2    C1 1865   4.331   2.191  14.131 -0.0891 -0.1068 -0.5154
  120MPD2    C2 1866   4.273   2.173  14.007 -0.3291  0.4113 -0.0921
  120MPD2    C3 1867   4.317   2.072  13.925 -0.0963 -0.1905  0.1132
  120MPD2    C4 1868   4.424   1.999  13.972 -0.8608  0.2938  0.6469
  120MPD2    C5 1869   4.493   2.030  14.085 -0.6502  0.5852 -0.7884
  120MPD2     H 1870   4.185   2.231  13.984 -3.3436 -4.1633 -0.0725
  120MPD2    H1 1871   4.476   1.927  13.910 -0.0369  1.7928 -0.4016
  120MPD2    H2 1872   4.484   2.146  14.266 -0.3165 -1.6949  0.4977
  120MPD2    H3 1873   4.578   1.973  14.120 -0.0220  1.6973 -0.5023
  120MPD2     N 1874   4.246   2.031  13.810 -0.3661  0.4259 -0.4246
  120MPD2    H5 1875   4.273   1.936  13.785 -0.6628  0.5643 -1.2769
  120MPD2    N1 1876   4.283   2.284  14.227 -0.4313 -0.3147 -0.1229
  120MPD2    H7 1877   4.345   2.311  14.303 -0.5845  0.1728 -0.1731
  121TMC2    C1 1878   1.052   3.651  14.891  0.2285  0.4968 -0.5102
  121TMC2    C2 1879   1.078   3.604  15.021 -0.4258  0.2665  0.4580
  121TMC2    C3 1880   1.019   3.488  15.064  0.2855 -0.5136 -0.0918
  121TMC2    C4 1881   0.966   3.580  14.807  0.2952 -0.3671  0.7021
  121TMC2    C5 1882   0.911   3.460  14.853 -0.3557 -0.8837 -0.2798
  121TMC2    C6 1883   0.946   3.409  14.973  0.3348  0.1333 -0.1860
  121TMC2     C 1884   1.113   3.770  14.840 -0.0878  0.1609 -0.5789
  121TMC2     O 1885   1.182   3.831  14.922  0.4927 -0.2101  0.1701
  121TMC2     H 1886   1.164   3.646  15.072  0.5163  0.3035 -1.1715
  121TMC2    H1 1887   0.952   3.610  14.704 -0.3066 -0.7524  0.6736
  121TMC2    H2 1888   0.885   3.328  15.010  0.7000 -0.4770 -0.9348
  121TMC2    C7 1889   0.830   3.379  14.769 -0.0988 -0.0289  0.1130
  121TMC2    C8 1890   1.070   3.421  15.182 -0.0939  0.6976  0.8072
  121TMC2    O1 1891   0.837   3.258  14.781 -0.2392 -0.2182  0.1628
  121TMC2    O2 1892   1.176   3.437  15.240 -0.2611  0.8525  0.2312
  121TMC2    O5 1893   0.976   3.333  15.220 -0.0360 -0.8122 -0.1822
  121TMC2    H5 1894   0.888   3.345  15.180 -0.7034  1.7676  2.1031
  122MPD2     C 1895   1.192   4.028  14.694  0.7290 -0.6672 -0.3331
  122MPD2    C1 1896   1.131   3.916  14.638  0.4779 -0.0996  0.4301
  122MPD2    C2 1897   1.109   3.921  14.504  0.1424  0.2986 -0.1329
  122MPD2    C3 1898   1.152   4.033  14.429  0.0845 -0.2557 -0.3284
  122MPD2    C4 1899   1.200   4.150  14.492  0.2175  0.1580  0.0728
  122MPD2    C5 1900   1.232   4.137  14.624  0.0012 -0.4617  0.0552
  122MPD2     H 1901   1.063   3.835  14.457 -3.2623  0.2114  3.3743
  122MPD2    H1 1902   1.251   4.226  14.435 -1.7210  1.3795 -0.0103
  122MPD2    H2 1903   1.213   4.034  14.800  1.2948 -2.0282 -0.3669
  122MPD2    H3 1904   1.299   4.207  14.672 -0.2842 -0.6001  0.6540
  122MPD2     N 1905   1.165   4.039  14.286  0.1547  0.1234  0.9680
  122MPD2    H5 1906   1.203   4.126  14.249  2.5517 -0.6595  1.5591
  122MPD2    N1 1907   1.090   3.798  14.706 -0.3915 -0.1006  0.1919
  122MPD2    H7 1908   1.049   3.731  14.641  2.3179  1.9798 -3.6599
  123TMC2    C1 1909   4.722   1.950  11.011 -0.3625 -0.2752 -0.5766
  123TMC2    C2 1910   0.112   1.957  11.044  0.2939 -0.1610 -0.1053
  123TMC2    C3 1911   0.193   2.050  10.984  0.5477 -0.0195 -1.2545
  123TMC2    C4 1912   4.666   2.042  10.917 -0.1010 -0.3197  0.2699
  123TMC2    C5 1913   0.010   2.131  10.859  1.0803  0.0603  0.1045
  123TMC2    C6 1914   0.143   2.135  10.895 -0.1486  0.1476  0.5050
  123TMC2     C 1915   4.645   1.830  11.054  0.5320 -0.4450  0.0708
  123TMC2     O 1916   4.702   1.733  11.104 -0.9244 -0.2764  0.2319
  123TMC2     H 1917   0.146   1.881  11.113  0.0296  0.6276  0.8870
  123TMC2    H1 1918   4.561   2.040  10.891  0.2516 -3.4070 -0.9281
  123TMC2    H2 1919   0.217   2.191  10.839  2.3899 -4.3038 -0.6073
  123TMC2    C7 1920   4.702   2.230  10.771 -0.5004 -0.0721 -0.0044
  123TMC2    C8 1921   0.332   2.027  10.984  0.0718  0.3010  0.1744
  123TMC2    O1 1922   4.586   2.252  10.782  0.2673  0.1811 -0.3064
  123TMC2    O2 1923   0.410   2.061  10.892  0.0118  0.1186  0.4446
  123TMC2    O5 1924   0.370   2.007  11.117 -0.3728  0.0351 -0.0196
  123TMC2    H5 1925   0.298   2.020  11.182  0.5763 -0.3095  1.0950
  124MPD2     C 1926   4.191   1.627  11.180  0.4975 -0.2539 -0.2454
  124MPD2    C1 1927   4.171   1.746  11.115  0.3637  0.0183 -0.1180
  124MPD2    C2 1928   4.279   1.802  11.053 -0.3747  0.3164 -0.1909
  124MPD2    C3 1929   4.412   1.758  11.074 -0.1109  0.7295  0.2673
  124MPD2    C4 1930   4.427   1.638  11.143  0.0282 -0.0155 -1.1140
  124MPD2    C5 1931   4.316   1.569  11.192  0.4473 -0.7127 -0.1582
  124MPD2     H 1932   4.260   1.895  11.001 -1.6627 -1.2853 -2.6047
  124MPD2    H1 1933   4.523   1.596  11.168  1.1616  3.3468  0.2176
  124MPD2    H2 1934   4.107   1.584  11.234 -0.0385  1.7792  0.5176
  124MPD2    H3 1935   4.327   1.481  11.253  0.7067  0.0105  0.8429
  124MPD2     N 1936   4.515   1.843  11.028 -0.5621  0.0026 -0.1328
  124MPD2    H5 1937   4.488   1.920  10.967 -0.5636 -0.1808 -0.3627
  124MPD2    N1 1938   4.043   1.811  11.126 -0.1683 -0.1465 -0.2663
  124MPD2    H7 1939   3.970   1.754  11.167  2.0452  0.8656  5.1163
  125TMC2    C1 1940   4.518   3.372   9.824  0.2692 -0.1743  0.2185
  125TMC2    C2 1941   4.394   3.342   9.868  0.1815  0.4028  0.1562
  125TMC2    C3 1942   4.294   3.432   9.851 -0.6706  0.6584 -0.1932
  125TMC2    C4 1943   4.545   3.495   9.770  0.1120  0.1189  0.1109
  125TMC2    C5 1944   4.439   3.590   9.769 -0.2844 -0.0136 -0.0021
  125TMC2    C6 1945   4.312   3.558   9.813 -0.1157 -0.3843 -0.1229
  125TMC2     C 1946   4.626   3.270   9.839  0.4489 -0.5404  0.4963
  125TMC2     O 1947   4.585   3.151   9.843 -0.0567  0.7043  0.5692
  125TMC2     H 1948   4.376   3.242   9.906  0.8660  0.4621  0.6255
  125TMC2    H1 1949   4.645   3.527   9.744  0.7447 -0.7237  1.5167
  125TMC2    H2 1950   4.225   3.622   9.817  1.2156  1.3125  2.1171
  125TMC2    C7 1951   4.457   3.730   9.736  0.2051 -0.5546 -0.5506
  125TMC2    C8 1952   4.158   3.394   9.889  0.8339  0.8470 -0.5059
  125TMC2    O1 1953   4.373   3.811   9.775 -0.0150 -0.7402 -0.4134
  125TMC2    O2 1954   4.120   3.277   9.897 -0.0699  0.3327 -0.1470
  125TMC2    O5 1955   4.107   3.493   9.971 -0.4491  0.1539 -0.5849
  125TMC2    H5 1956   4.149   3.581   9.984  3.7008 -2.0539  0.7774
  126MPD1     C 1957   0.368   3.145   9.902  0.1927  1.1518  0.4667
  126MPD1    C1 1958   0.355   3.283   9.895  0.2460  0.1541  0.5698
  126MPD1    C2 1959   0.233   3.337   9.864  0.8602 -0.3225 -0.3565
  126MPD1    C3 1960   0.121   3.261   9.856  0.5501 -0.2120 -1.4263
  126MPD1    C4 1961   0.133   3.125   9.876 -1.1344 -0.7980  0.0915
  126MPD1    C5 1962   0.257   3.067   9.905  0.4366  0.8099  0.5127
  126MPD1     H 1963   0.235   3.444   9.848 -0.3962 -0.1056  0.8862
  126MPD1    H1 1964   0.047   3.060   9.881 -1.4521 -0.2794  1.2920
  126MPD1    H2 1965   0.461   3.090   9.907  0.5615  1.7883  0.6798
  126MPD1    H3 1966   0.260   2.960   9.922 -2.0808  0.6277 -0.2181
  126MPD1     N 1967   0.005   3.329   9.832  0.0663 -0.1129  0.6627
  126MPD1    H5 1968   0.025   3.428   9.837  1.8309 -0.6518  3.6994
  126MPD1    N1 1969   0.477   3.352   9.885  0.0002 -0.0964 -0.0370
  126MPD1    H6 1970   0.457   3.452   9.895  1.0622  0.0806  0.3463
  126MPD1    H7 1971   0.539   3.332   9.962 -0.8461 -2.7488 -0.0500
  127TMC2    C1 1972   0.929   2.697   9.918 -0.2734  0.0590  0.4669
  127TMC2    C2 1973   0.965   2.655  10.042  0.0028 -0.2385  0.4786
  127TMC2    C3 1974   0.890   2.552  10.097 -0.8057 -0.1377  0.6653
  127TMC2    C4 1975   0.813   2.657   9.855 -0.3888 -0.7353 -0.2652
  127TMC2    C5 1976   0.738   2.564   9.925 -0.3568 -0.0271 -0.5745
  127TMC2    C6 1977   0.777   2.496  10.038 -0.4072 -0.5742 -0.1600
  127TMC2     C 1978   0.998   2.812   9.860  0.5223  0.0769 -0.7364
  127TMC2     O 1979   1.064   2.881   9.936 -0.1066 -0.2011  0.1024
  127TMC2     H 1980   1.062   2.684  10.080  0.2251  0.5098 -0.6515
  127TMC2    H1 1981   0.772   2.716   9.774 -0.3880 -0.0956  0.2007
  127TMC2    H2 1982   0.707   2.446  10.104  0.4417 -1.5218  0.0245
  127TMC2    C7 1983   0.614   2.520   9.856  0.4941  0.2514  0.0162
  127TMC2    C8 1984   0.946   2.483  10.207  0.6551  0.7502  0.8008
  127TMC2    O1 1985   0.593   2.574   9.745  0.2027  0.4586 -0.4589
  127TMC2    O2 1986   1.026   2.548  10.270 -0.2356  0.4942 -0.9402
  127TMC2    O5 1987   0.901   2.355  10.218 -0.4892 -0.5635 -0.1330
  127TMC2    H5 1988   0.829   2.328  10.156 -0.0192 -2.3187  0.0677
  128MPD2     C 1989   1.017   2.927   9.509  0.0999 -0.1123 -0.1155
  128MPD2    C1 1990   1.040   2.934   9.646 -0.3296  0.1261 -0.3015
  128MPD2    C2 1991   1.107   3.037   9.702 -0.2397 -0.3033  0.0814
  128MPD2    C3 1992   1.154   3.139   9.616  0.3046 -0.6531 -0.6185
  128MPD2    C4 1993   1.139   3.130   9.478  0.8176 -0.6023  0.3757
  128MPD2    C5 1994   1.067   3.028   9.430 -0.7218  0.1234  0.7754
  128MPD2     H 1995   1.123   3.046   9.809 -0.2642 -0.9394  0.1414
  128MPD2    H1 1996   1.184   3.200   9.408  2.0928 -0.2266  1.5808
  128MPD2    H2 1997   0.948   2.852   9.470 -0.3116 -0.5723  1.4709
  128MPD2    H3 1998   1.049   3.018   9.323  2.3297 -0.5680  0.3189
  128MPD2     N 1999   1.205   3.259   9.678  0.3703 -0.1692  0.7714
  128MPD2    H5 2000   1.216   3.263   9.779  0.5735 -3.3651  0.9043
  128MPD2    N1 2001   0.984   2.827   9.722  0.4460  0.2220  0.1749
  128MPD2    H7 2002   0.939   2.748   9.677  1.0504  0.0384 -0.1035
  129TMC2    C1 2003   3.179   4.381   2.019  0.3206  0.1689 -1.0951
  129TMC2    C2 2004   3.249   4.294   2.101  0.6406  0.4287 -0.4365
  129TMC2    C3 2005   3.202   4.163   2.108  0.0268  0.1720  0.6734
  129TMC2    C4 2006   3.062   4.347   1.958 -0.2204 -1.4386 -0.4837
  129TMC2    C5 2007   3.026   4.216   1.966  0.4221 -0.3616 -0.0923
  129TMC2    C6 2008   3.088   4.119   2.040  0.8734 -0.1674  0.0826
  129TMC2     C 2009   3.213   4.516   2.024  0.2784 -0.0506  1.0194
  129TMC2     O 2010   3.122   4.590   2.037  0.1029 -0.4631 -0.6539
  129TMC2     H 2011   3.331   4.336   2.157 -1.2578  0.2127  2.4676
  129TMC2    H1 2012   3.019   4.418   1.889  0.2790 -0.5071  0.1678
  129TMC2    H2 2013   3.049   4.018   2.049 -0.6028  0.4547  0.5839
  129TMC2    C7 2014   2.903   4.175   1.899 -0.2205  0.1880  0.0317
  129TMC2    C8 2015   3.277   4.067   2.198 -0.4650  0.1160 -0.4290
  129TMC2    O1 2016   2.907   4.057   1.866  0.2791 -0.0585 -0.3177
  129TMC2    O2 2017   3.235   3.954   2.212  0.8456  0.0363  0.2095
  129TMC2    O5 2018   3.405   4.100   2.179 -0.5008  0.1661  0.5999
  129TMC2    H5 2019   3.429   4.178   2.124 -3.2636 -0.5283 -1.5784
  130MPD2     C 2020   3.339   0.032   2.090 -0.1609 -0.4212 -0.3423
  130MPD2    C1 2021   3.405   4.667   2.026 -0.7427  0.4801 -0.0619
  130MPD2    C2 2022   3.529   4.687   1.969  0.0450  0.3996 -0.9022
  130MPD2    C3 2023   3.584   0.069   1.958 -0.0476 -0.7200  0.4661
  130MPD2    C4 2024   3.519   0.178   2.014 -0.0722  0.6093 -0.1745
  130MPD2    C5 2025   3.395   0.155   2.081  0.9517 -0.9472 -0.2081
  130MPD2     H 2026   3.574   4.603   1.917  1.5720  0.6496  0.0482
  130MPD2    H1 2027   3.567   0.274   2.029 -0.7121  1.0174 -0.7906
  130MPD2    H2 2028   3.257   0.018   2.159 -0.8354  1.3925 -0.7907
  130MPD2    H3 2029   3.363   0.233   2.149 -2.9974 -2.5790 -0.2142
  130MPD2     N 2030   3.701   0.074   1.880  0.2548 -0.3973 -0.1430
  130MPD2    H5 2031   3.731   4.729   1.840 -0.2878 -1.5645  2.0681
  130MPD2    N1 2032   3.352   4.533   2.030  0.1979  0.5315 -0.1884
  130MPD2    H7 2033   3.418   4.460   2.007 -0.5596 -0.1783 -0.1249
  131TMC2    C1 2034   3.994   2.713  10.532 -0.1503  0.3445 -0.4501
  131TMC2    C2 2035   4.094   2.772  10.600 -0.1389 -0.1273 -0.1690
  131TMC2    C3 2036   4.135   2.898  10.563 -0.6108 -1.2059  0.0617
  131TMC2    C4 2037   3.932   2.782  10.426  0.7040  0.0790 -0.0893
  131TMC2    C5 2038   3.976   2.908  10.395  0.1751 -0.6257 -0.1667
  131TMC2    C6 2039   4.080   2.967  10.460  0.1439 -0.4802 -1.0257
  131TMC2     C 2040   3.922   2.619  10.615 -0.6143  0.3503 -0.2806
  131TMC2     O 2041   3.985   2.554  10.696  0.3635 -0.2428 -0.3085
  131TMC2     H 2042   4.111   2.738  10.701  0.4660 -1.0175 -0.5750
  131TMC2    H1 2043   3.846   2.748  10.371  0.2044  3.6933 -1.5518
  131TMC2    H2 2044   4.114   3.061  10.418 -1.7580 -0.0236 -1.5247
  131TMC2    C7 2045   3.919   2.976  10.280 -0.3022  0.4276 -1.0707
  131TMC2    C8 2046   4.195   2.965  10.680  0.5213  0.2288 -0.8981
  131TMC2    O1 2047   3.868   2.903  10.198 -0.3624 -0.3739 -0.0685
  131TMC2    O2 2048   4.271   2.909  10.759  0.3664  0.9223 -0.5283
  131TMC2    O5 2049   4.166   3.094  10.669 -0.0625 -0.6183 -0.0200
  131TMC2    H5 2050   4.100   3.120  10.601  1.1158  1.6505 -0.3251
  132MPD2     C 2051   3.551   2.557  10.631  0.1672 -0.6287  1.0119
  132MPD2    C1 2052   3.689   2.530  10.644  0.0857 -0.7262  0.2750
  132MPD2    C2 2053   3.726   2.417  10.710 -0.0811 -0.3063 -0.1246
  132MPD2    C3 2054   3.629   2.349  10.786 -0.3030  0.1275 -0.0427
  132MPD2    C4 2055   3.494   2.382  10.768 -0.1880  0.3931  0.8851
  132MPD2    C5 2056   3.455   2.484  10.695 -0.2362 -0.3041  0.4036
  132MPD2     H 2057   3.830   2.395  10.730  0.4334 -1.0769 -3.6929
  132MPD2    H1 2058   3.419   2.320  10.815  0.3655  0.3629  1.7329
  132MPD2    H2 2059   3.520   2.644  10.574 -0.1288 -1.2118  0.2865
  132MPD2    H3 2060   3.352   2.515  10.688  0.0097  0.9221  2.4131
  132MPD2     N 2061   3.671   2.239  10.867  0.1277  0.0997 -0.6428
  132MPD2    H5 2062   3.772   2.230  10.877  0.0124  0.6374  0.9911
  132MPD2    N1 2063   3.785   2.616  10.590 -0.0832 -0.7322 -0.2763
  132MPD2    H7 2064   3.739   2.691  10.540 -0.2679  0.8394  2.2838
  133TMC2    C1 2065   3.109   3.881  10.240  0.0364  0.0206 -0.3514
  133TMC2    C2 2066   3.124   3.785  10.338  0.5883 -0.1281  0.0726
  133TMC2    C3 2067   3.168   3.840  10.453  0.3907 -0.8229 -1.0940
  133TMC2    C4 2068   3.132   4.015  10.261  0.0266  0.0183  0.4415
  133TMC2    C5 2069   3.185   4.058  10.377  0.0653 -0.1859  0.3137
  133TMC2    C6 2070   3.194   3.969  10.481 -0.1637  0.1733  0.6974
  133TMC2     C 2071   3.056   3.830  10.116  0.3176  0.2954  0.3766
  133TMC2     O 2072   3.041   3.711  10.101  0.2547  0.2272  0.3301
  133TMC2     H 2073   3.082   3.685  10.330  0.5386 -0.2024  1.2909
  133TMC2    H1 2074   3.109   4.089  10.185  2.2089  0.8259  0.5717
  133TMC2    H2 2075   3.217   4.012  10.578 -0.2726  0.1045  0.7541
  133TMC2    C7 2076   3.266   4.181  10.361 -0.2983 -0.3062  0.6148
  133TMC2    C8 2077   3.204   3.748  10.561 -0.3656  0.4576 -0.1873
  133TMC2    O1 2078   3.289   4.211  10.245  0.6645  0.4034 -0.0932
  133TMC2    O2 2079   3.261   3.793  10.658 -0.2492 -0.6856  0.4526
  133TMC2    O5 2080   3.200   3.617  10.524 -0.4280 -0.3221 -0.2905
  133TMC2    H5 2081   3.169   3.591  10.434  0.4309  3.1494 -1.5961
  134MPD2     C 2082   2.849   4.022   9.880  0.4740 -0.0477 -0.5524
  134MPD2    C1 2083   2.905   3.911   9.940  0.9777  0.0768  0.6232
  134MPD2    C2 2084   2.883   3.783   9.880  0.4150  0.0182  0.1096
  134MPD2    C3 2085   2.795   3.770   9.774  0.2403 -0.1630  0.4494
  134MPD2    C4 2086   2.720   3.876   9.736 -0.0691 -0.0769 -0.5529
  134MPD2    C5 2087   2.759   4.000   9.783 -0.0227 -0.6714  0.2978
  134MPD2     H 2088   2.922   3.689   9.916  1.8298  0.7728  0.5528
  134MPD2    H1 2089   2.634   3.864   9.671 -1.4810  1.3987  1.0447
  134MPD2    H2 2090   2.860   4.124   9.913 -0.4923 -0.8230  2.1717
  134MPD2    H3 2091   2.711   4.091   9.750  1.9696 -0.0483 -0.9094
  134MPD2     N 2092   2.744   3.642   9.730 -0.2507 -0.4156  0.1116
  134MPD2    H5 2093   2.656   3.632   9.680 -1.2039 -0.6682  1.8523
  134MPD2    N1 2094   2.991   3.932  10.051 -0.1662  0.8428 -0.3092
  134MPD2    H7 2095   3.003   4.026  10.086 -2.3499  1.1010 -0.2592
  135TMC2    C1 2096   0.354   4.730  10.118 -0.0910 -0.4669  0.7208
  135TMC2    C2 2097   0.339   0.029  10.246  0.1827  0.3242  0.3709
  135TMC2    C3 2098   0.318   4.676  10.341 -0.1853 -0.2848  0.1689
  135TMC2    C4 2099   0.336   4.599  10.089  0.2370  0.5982 -0.4005
  135TMC2    C5 2100   0.310   4.502  10.183 -0.3648  0.0157  0.0437
  135TMC2    C6 2101   0.310   4.540  10.313 -0.5824 -0.6491  0.2908
  135TMC2     C 2102   0.403   0.078  10.025 -0.3090  1.4086  0.1874
  135TMC2     O 2103   0.427   0.190  10.069  0.9925  0.1477  0.9721
  135TMC2     H 2104   0.353   0.132  10.275  1.2244  0.6011 -1.0723
  135TMC2    H1 2105   0.341   4.561   9.988  2.9249  1.6236 -0.6583
  135TMC2    H2 2106   0.289   4.467  10.391  0.1067 -1.0966  0.0594
  135TMC2    C7 2107   0.344   4.367  10.148 -0.0013  0.0246 -0.5006
  135TMC2    C8 2108   0.294   4.728  10.471 -0.0431 -0.1684 -0.0127
  135TMC2    O1 2109   0.398   4.358  10.037 -0.1206  0.5343  0.6239
  135TMC2    O2 2110   0.282   0.106  10.488 -0.0970  0.0420 -0.3133
  135TMC2    O5 2111   0.390   4.666  10.540 -0.2658  0.0142 -0.2429
  135TMC2    H5 2112   0.418   4.577  10.510  2.1375  1.3042 -1.7823
  136MPD2     C 2113   0.540   0.196   9.785  0.2240 -0.2341  0.6431
  136MPD2    C1 2114   0.446   0.093   9.781  0.1234 -0.1101 -0.4412
  136MPD2    C2 2115   0.411   0.033   9.658 -0.6599  0.2373  1.0059
  136MPD2    C3 2116   0.460   0.086   9.539  0.4419  0.4933 -0.2302
  136MPD2    C4 2117   0.547   0.197   9.542 -0.2164 -0.4005  0.1104
  136MPD2    C5 2118   0.578   0.247   9.663  0.2150 -0.0588 -0.4018
  136MPD2     H 2119   0.346   4.690   9.655 -0.0711 -0.1927  0.5799
  136MPD2    H1 2120   0.592   0.239   9.452 -0.1739 -1.0248 -0.1612
  136MPD2    H2 2121   0.556   0.259   9.872  0.1633  0.5737  0.0811
  136MPD2    H3 2122   0.645   0.332   9.666 -0.2849  0.4337 -3.2215
  136MPD2     N 2123   0.434   0.022   9.413 -0.0493 -0.2572 -0.5942
  136MPD2    H5 2124   0.477   0.052   9.326  0.5543  0.1333 -0.1654
  136MPD2    N1 2125   0.392   0.037   9.896  0.1831 -0.0434 -0.3254
  136MPD2    H7 2126   0.345   4.694   9.870  1.5913 -0.2246 -2.3355
  137TMC2    C1 2127   0.084   3.926   9.914 -0.2954  0.0676 -0.0494
  137TMC2    C2 2128   0.191   3.960   9.846  0.7532  0.2531  0.5612
  137TMC2    C3 2129   0.227   4.095   9.833 -0.0971 -1.0113  0.2504
  137TMC2    C4 2130   0.011   4.024   9.977  0.2326  0.3312 -0.0652
  137TMC2    C5 2131   0.042   4.154   9.961 -0.2725  0.2164  0.4084
  137TMC2    C6 2132   0.155   4.193   9.889 -0.1692 -0.2419 -0.1389
  137TMC2     C 2133   0.064   3.779   9.937  0.3670 -0.6563  0.1365
  137TMC2     O 2134   0.153   3.707   9.889  0.3227  0.4285 -0.5990
  137TMC2     H 2135   0.261   3.889   9.803 -0.8895 -1.1525  0.1878
  137TMC2    H1 2136   4.671   4.000  10.042  0.0707 -0.4139 -0.5404
  137TMC2    H2 2137   0.157   4.294   9.849 -1.0483  0.4751  1.6423
  137TMC2    C7 2138   4.689   4.259   9.983 -0.5083 -0.6443  0.1749
  137TMC2    C8 2139   0.340   4.124   9.747 -0.2883 -0.1388 -0.5555
  137TMC2    O1 2140   0.001   4.364  10.007 -0.1632 -0.3766 -0.1487
  137TMC2    O2 2141   0.401   4.041   9.688 -0.1232 -0.1432 -0.3444
  137TMC2    O5 2142   0.417   4.213   9.811 -0.2376  0.7406 -0.4930
  137TMC2    H5 2143   0.377   4.253   9.891  0.5077 -1.4068  0.9437
  138MPD2     C 2144   4.551   3.616  10.152  0.6605  0.2678  0.2245
  138MPD2    C1 2145   4.670   3.631  10.087 -0.5868 -1.1151 -0.2170
  138MPD2    C2 2146   0.017   3.528  10.101 -0.2096  0.6097  0.2605
  138MPD2    C3 2147   4.732   3.418  10.186 -0.6696 -0.7373 -0.9585
  138MPD2    C4 2148   4.615   3.405  10.249 -0.2119 -0.6073 -0.6940
  138MPD2    C5 2149   4.524   3.504  10.231 -0.2557  0.0871 -0.1866
  138MPD2     H 2150   0.119   3.539  10.066 -0.4453 -1.6444 -1.1486
  138MPD2    H1 2151   4.602   3.331  10.327  1.9957 -0.0654  0.2081
  138MPD2    H2 2152   4.474   3.692  10.153 -0.5494 -0.9503 -0.8735
  138MPD2    H3 2153   4.437   3.497  10.294  0.3270 -1.2138  0.4828
  138MPD2     N 2154   0.097   3.332  10.206 -0.6021  0.0783 -0.1060
  138MPD2    H5 2155   0.182   3.355  10.155 -0.1318  2.7001  1.8478
  138MPD2    N1 2156   4.694   3.749  10.012  0.0408  0.2462  0.1093
  138MPD2    H7 2157   4.625   3.820  10.032  0.4369  0.3637  1.0588
  139TMC2    C1 2158   0.959   1.926  13.563 -0.3968  0.1900 -0.0574
  139TMC2    C2 2159   1.053   2.004  13.514 -0.7073  0.0562  0.4924
  139TMC2    C3 2160   1.019   2.124  13.453 -1.1810 -1.0359 -0.3283
  139TMC2    C4 2161   0.826   1.966  13.562  0.5087 -0.5199  0.0790
  139TMC2    C5 2162   0.800   2.079  13.496 -0.2001 -0.0277 -0.1958
  139TMC2    C6 2163   0.892   2.167  13.443  0.0154 -0.5064 -0.2610
  139TMC2     C 2164   1.003   1.810  13.635  0.4393 -0.2242  0.2882
  139TMC2     O 2165   1.119   1.780  13.640  0.1395  0.3738 -0.8400
  139TMC2     H 2166   1.151   1.960  13.501 -0.3779  0.8980  0.0764
  139TMC2    H1 2167   0.750   1.898  13.598  1.0774  0.0707  2.4174
  139TMC2    H2 2168   0.860   2.264  13.406  0.7553 -0.7401 -1.5124
  139TMC2    C7 2169   0.665   2.131  13.506 -0.0572 -0.1961  0.1147
  139TMC2    C8 2170   1.122   2.222  13.445 -0.5575 -0.0222 -0.3450
  139TMC2    O1 2171   0.620   2.190  13.409 -0.1440  0.2106  0.5116
  139TMC2    O2 2172   1.236   2.192  13.460 -0.3016  0.4678  0.3756
  139TMC2    O5 2173   1.065   2.333  13.489 -0.2404  0.6435  0.4446
  139TMC2    H5 2174   1.124   2.406  13.516 -0.4692  0.3078  1.8585
  140MPD2     C 2175   0.792   1.595  13.842  0.6680  0.1892 -0.0539
  140MPD2    C1 2176   0.895   1.621  13.756 -0.0541  0.8347 -0.0756
  140MPD2    C2 2177   0.991   1.523  13.751 -0.7564 -0.3017 -0.2577
  140MPD2    C3 2178   0.981   1.409  13.832 -0.1838 -0.5321  0.0661
  140MPD2    C4 2179   0.880   1.392  13.922 -0.4055 -0.7747 -0.6604
  140MPD2    C5 2180   0.778   1.485  13.924 -0.4505  0.0953 -0.3818
  140MPD2     H 2181   1.082   1.547  13.698  0.0874 -2.7151  0.1145
  140MPD2    H1 2182   0.877   1.306  13.989  1.8561 -0.4885 -0.2088
  140MPD2    H2 2183   0.727   1.677  13.869  0.7390 -0.2146  1.3512
  140MPD2    H3 2184   0.698   1.479  13.997 -0.8098  1.4667 -0.6588
  140MPD2     N 2185   1.091   1.320  13.829 -0.1106 -0.0082 -0.1834
  140MPD2    H5 2186   1.163   1.344  13.762 -0.8085  0.8075 -0.6385
  140MPD2    N1 2187   0.895   1.744  13.696  0.1779  0.6252  0.0810
  140MPD2    H7 2188   0.811   1.800  13.706 -0.3207  0.3315 -2.4465
  141TMC2    C1 2189   1.101   3.240  14.596  0.3569  0.5536 -0.6633
  141TMC2    C2 2190   1.089   3.138  14.684  0.5484  0.2381  0.2296
  141TMC2    C3 2191   1.160   3.154  14.805  0.5510  0.1822  0.1850
  141TMC2    C4 2192   1.177   3.351  14.625  0.5461 -0.3546 -0.0606
  141TMC2    C5 2193   1.261   3.350  14.736 -0.0797 -0.8887  0.5117
  141TMC2    C6 2194   1.248   3.255  14.831 -0.2213 -0.2108 -0.2379
  141TMC2     C 2195   1.033   3.246  14.468  0.9350  0.5738  0.0313
  141TMC2     O 2196   1.005   3.360  14.427  0.5052 -0.0047  0.4948
  141TMC2     H 2197   1.042   3.044  14.658  1.4776 -0.5292  1.3196
  141TMC2    H1 2198   1.176   3.441  14.565 -2.1076 -0.1523  0.2937
  141TMC2    H2 2199   1.311   3.250  14.919  3.1718  0.0492 -2.6133
  141TMC2    C7 2200   1.326   3.471  14.785 -0.3495  0.5344  0.1192
  141TMC2    C8 2201   1.120   3.060  14.908  0.3902  0.2121  0.5902
  141TMC2    O1 2202   1.339   3.481  14.908  0.1718  0.5215 -0.0572
  141TMC2    O2 2203   1.202   3.024  14.991 -1.0058  0.1639  0.4793
  141TMC2    O5 2204   0.987   3.080  14.941  0.0535 -0.3379 -0.0652
  141TMC2    H5 2205   0.937   3.124  14.869  0.4385 -2.4284 -1.5904
  142TMC2    C1 2206   4.078   2.435  10.299 -0.2781  0.3484  0.1189
  142TMC2    C2 2207   4.092   2.457  10.170  0.4364 -0.2392  0.0555
  142TMC2    C3 2208   4.204   2.523  10.126 -0.5769  0.8624 -0.3843
  142TMC2    C4 2209   4.169   2.466  10.387 -0.2382 -0.1851 -0.1015
  142TMC2    C5 2210   4.289   2.522  10.343  0.0522 -0.4010  0.0401
  142TMC2    C6 2211   4.305   2.560  10.211 -0.6112 -0.4374  0.3614
  142TMC2     C 2212   3.983   2.341  10.349 -0.7857  0.2966 -0.5853
  142TMC2     O 2213   3.868   2.359  10.318 -0.1900 -0.4563 -0.1229
  142TMC2     H 2214   4.015   2.433  10.098  0.8954  1.3024 -0.9682
  142TMC2    H1 2215   4.168   2.432  10.490 -0.7834 -0.6503 -0.2673
  142TMC2    H2 2216   4.395   2.607  10.174 -1.6203  0.4334 -0.9957
  142TMC2    C7 2217   4.395   2.520  10.442 -0.0303 -0.6319  0.2128
  142TMC2    C8 2218   4.229   2.537   9.985  0.1589 -0.8007 -0.2283
  142TMC2    O1 2219   4.372   2.489  10.558 -0.3603 -0.3991 -0.2933
  142TMC2    O2 2220   4.341   2.517   9.946  0.1531  0.1177  0.1097
  142TMC2    O5 2221   4.115   2.553   9.917  0.1792  0.1038 -0.2485
  142TMC2    H5 2222   4.047   2.587   9.979  0.9588  0.6968  0.2747
  143MPD2     C 2223   3.882   1.955  10.698  0.4157  0.2855 -0.2927
  143MPD2    C1 2224   3.792   2.033  10.623  0.0052  0.2794  0.2754
  143MPD2    C2 2225   3.843   2.125  10.531  0.0609 -0.2311 -0.1712
  143MPD2    C3 2226   3.979   2.145  10.513  0.3882 -0.6120 -0.7786
  143MPD2    C4 2227   4.065   2.065  10.581 -0.0636  1.1728 -0.7820
  143MPD2    C5 2228   4.016   1.969  10.672  0.0050 -0.0800 -0.1281
  143MPD2     H 2229   3.782   2.194  10.474  1.2891  1.2706  0.3462
  143MPD2    H1 2230   4.173   2.076  10.572  0.5836 -1.7982  3.5469
  143MPD2    H2 2231   3.855   1.880  10.771 -0.1120 -0.5045 -1.3002
  143MPD2    H3 2232   4.094   1.908  10.715  0.9949  1.9398  0.9184
  143MPD2     N 2233   4.044   2.242  10.427 -0.0972  0.2266  0.3640
  143MPD2    H5 2234   4.143   2.234  10.409 -0.0910 -1.8863  1.3995
  143MPD2    N1 2235   3.654   1.999  10.645  0.1989  0.1647  0.4681
  143MPD2    H7 2236   3.633   1.923  10.709  2.4719 -1.2677 -0.4836
  144TMC2    C1 2237   2.392   0.189   0.630 -0.7789 -0.6112 -0.1640
  144TMC2    C2 2238   2.469   0.115   0.546 -0.0478  0.4508  0.2000
  144TMC2    C3 2239   2.603   0.113   0.571 -0.6464  0.2505  0.1928
  144TMC2    C4 2240   2.447   0.261   0.736  1.8631 -0.5715 -0.0750
  144TMC2    C5 2241   2.585   0.246   0.755 -0.0869  0.1425 -0.2272
  144TMC2    C6 2242   2.658   0.156   0.685  0.0563  0.3459  0.4464
  144TMC2     C 2243   2.256   0.222   0.578  0.2512  0.2392  0.1802
  144TMC2     O 2244   2.228   0.154   0.484 -0.2442 -0.7965 -0.2771
  144TMC2     H 2245   2.432   0.051   0.466  2.1818 -0.8293  0.1789
  144TMC2    H1 2246   2.391   0.337   0.790  1.3466  0.2221 -1.7524
  144TMC2    H2 2247   2.764   0.143   0.703 -0.0090 -0.7142  0.0562
  144TMC2    C7 2248   2.653   0.308   0.867 -0.0749 -0.8650 -0.1548
  144TMC2    C8 2249   2.682   0.032   0.477 -0.6003 -0.1289  0.4817
  144TMC2    O1 2250   2.765   0.262   0.889 -0.4092  0.3604 -0.0658
  144TMC2    O2 2251   2.771   4.704   0.510 -0.5452 -0.2929  0.1089
  144TMC2    O5 2252   2.642   0.049   0.349  0.1679  0.5235 -0.2082
  144TMC2    H5 2253   2.584   0.127   0.337 -0.4105  0.1787  0.3227
  145MPD2     C 2254   1.801   0.455   0.562  0.0880 -0.3189  0.1976
  145MPD2    C1 2255   1.878   0.399   0.462  0.0491 -0.0287  0.1882
  145MPD2    C2 2256   2.006   0.357   0.491 -0.5260 -0.3798  0.8462
  145MPD2    C3 2257   2.057   0.358   0.616  0.5438  0.8160  0.1534
  145MPD2    C4 2258   1.979   0.416   0.715 -0.8669  0.4814  0.2323
  145MPD2    C5 2259   1.853   0.473   0.688 -0.0864 -0.0518 -0.2801
  145MPD2     H 2260   2.066   0.324   0.407 -0.4593 -3.8571  2.2693
  145MPD2    H1 2261   2.019   0.430   0.814  2.4453 -1.5428 -0.8482
  145MPD2    H2 2262   1.696   0.472   0.545 -0.1575  0.3669  2.4265
  145MPD2    H3 2263   1.799   0.522   0.768  0.1629  0.3067 -0.3298
  145MPD2     N 2264   2.181   0.310   0.657 -0.0428  0.6017  0.4441
  145MPD2    H5 2265   2.211   0.321   0.753  0.7356  0.6130  0.2045
  145MPD2    N1 2266   1.829   0.373   0.332 -0.0127  0.0560  0.1835
  145MPD2    H7 2267   1.903   0.334   0.275  0.5221 -0.8978  1.5433
  146TMC2    C1 2268   3.232   4.218  12.602 -0.2912 -0.8602  0.1369
  146TMC2    C2 2269   3.275   4.305  12.504 -0.0688 -0.2814  0.6660
  146TMC2    C3 2270   3.302   4.248  12.380 -0.2911 -0.4303  0.1298
  146TMC2    C4 2271   3.235   4.085  12.583 -0.1065 -0.0339  0.4019
  146TMC2    C5 2272   3.265   4.036  12.460  0.2341 -0.4063 -0.6811
  146TMC2    C6 2273   3.298   4.114  12.352 -0.4046 -0.4576  0.0265
  146TMC2     C 2274   3.181   4.283  12.716  0.0923 -0.6364  0.3367
  146TMC2     O 2275   3.159   4.404  12.717  0.3545 -0.2925 -0.3699
  146TMC2     H 2276   3.288   4.412  12.516 -0.2167 -0.5137  2.9208
  146TMC2    H1 2277   3.191   4.017  12.654  0.3309 -0.7674 -0.0356
  146TMC2    H2 2278   3.333   4.078  12.256  0.2489 -1.3244  0.5949
  146TMC2    C7 2279   3.281   3.893  12.439 -0.5959  0.3294 -0.1130
  146TMC2    C8 2280   3.324   4.326  12.267 -0.8313  0.5693  0.6274
  146TMC2    O1 2281   3.325   3.864  12.329  0.4483 -0.0839  0.2230
  146TMC2    O2 2282   3.409   4.310  12.179  0.1734 -0.0811  0.4559
  146TMC2    O5 2283   3.240   4.428  12.281  0.2136  0.0480  0.1510
  146TMC2    H5 2284   3.178   4.417  12.356  0.6549 -0.6724  0.4123
  147MPD2     C 2285   3.419   3.421  12.581  0.6489  0.2951 -0.3764
  147MPD2    C1 2286   3.403   3.495  12.696  0.2410  0.2925 -0.7004
  147MPD2    C2 2287   3.369   3.626  12.687 -0.0619 -0.1787 -0.4554
  147MPD2    C3 2288   3.330   3.681  12.562 -0.5427 -0.9811  0.3057
  147MPD2    C4 2289   3.347   3.601  12.454 -0.0723 -0.4394  0.3349
  147MPD2    C5 2290   3.397   3.469  12.461  0.5869  0.3243 -0.5278
  147MPD2     H 2291   3.371   3.688  12.776  0.6001 -1.4830  0.4269
  147MPD2    H1 2292   3.313   3.639  12.359 -1.4170 -0.1256  0.9329
  147MPD2    H2 2293   3.455   3.319  12.579 -2.5331 -0.7887 -2.3487
  147MPD2    H3 2294   3.413   3.408  12.373 -0.8713  1.1051 -1.3256
  147MPD2     N 2295   3.285   3.816  12.554 -0.3286  0.2774 -0.0925
  147MPD2    H5 2296   3.256   3.851  12.644  2.4423 -0.0571  0.9464
  147MPD2    N1 2297   3.445   3.430  12.816  0.3876  0.5930 -0.6447
  147MPD2    H7 2298   3.435   3.329  12.820 -0.5110  0.6666 -1.0098
  148TMC2    C1 2299   2.827   3.127  10.591  1.2908  0.0635 -0.2869
  148TMC2    C2 2300   2.958   3.161  10.578  0.3991 -0.2237 -0.1595
  148TMC2    C3 2301   3.054   3.100  10.650 -0.0658 -0.4720 -0.4683
  148TMC2    C4 2302   2.794   3.026  10.683  0.4509  0.6379 -0.5778
  148TMC2    C5 2303   2.893   2.962  10.751 -0.4292 -0.3726 -0.2291
  148TMC2    C6 2304   3.030   2.995  10.734  0.3078  0.5116  0.5462
  148TMC2     C 2305   2.712   3.200  10.523  0.0700  0.2125 -0.1404
  148TMC2     O 2306   2.751   3.307  10.476  0.1410 -0.3268  0.3791
  148TMC2     H 2307   2.990   3.232  10.503  0.8480 -2.7309 -2.3590
  148TMC2    H1 2308   2.690   3.008  10.710  1.0077  0.9317  1.7474
  148TMC2    H2 2309   3.116   2.938  10.769  0.3196  0.9824  1.2762
  148TMC2    C7 2310   2.859   2.873  10.858  0.1724 -0.0327 -0.0219
  148TMC2    C8 2311   3.190   3.109  10.605  0.0167 -0.2168  0.4221
  148TMC2    O1 2312   2.765   2.800  10.836  0.4297 -0.4570  0.2814
  148TMC2    O2 2313   3.285   3.072  10.671  0.9571 -0.3175  0.9514
  148TMC2    O5 2314   3.192   3.118  10.468 -0.1283 -0.2689  0.2052
  148TMC2    H5 2315   3.103   3.139  10.433 -1.5746 -4.0962  1.5682
  149MPD2     C 2316   2.471   3.298  10.375  0.4241 -0.5546  0.4777
  149MPD2    C1 2317   2.501   3.166  10.408 -0.8784  0.4104  0.0778
  149MPD2    C2 2318   2.412   3.069  10.353 -0.3796 -0.2695 -0.0969
  149MPD2    C3 2319   2.306   3.112  10.269 -0.2100 -0.1453 -0.6597
  149MPD2    C4 2320   2.291   3.240  10.233  0.2180 -0.7466 -0.1967
  149MPD2    C5 2321   2.372   3.340  10.289  0.1253 -0.0599 -0.5180
  149MPD2     H 2322   2.419   2.964  10.377 -0.4565 -0.1809  0.3162
  149MPD2    H1 2323   2.205   3.270  10.176 -0.9378 -0.3080  1.7767
  149MPD2    H2 2324   2.533   3.371  10.425 -2.4890  0.9589  1.8574
  149MPD2    H3 2325   2.351   3.445  10.269  1.6371 -0.1299 -2.5196
  149MPD2     N 2326   2.208   3.018  10.226 -0.1830 -0.3274  0.0158
  149MPD2    H5 2327   2.151   3.054  10.150  2.0669  0.5301 -1.2633
  149MPD2    N1 2328   2.607   3.119  10.494  0.2107 -0.2581  0.0206
  149MPD2    H7 2329   2.597   3.031  10.544  0.9520  1.0010  2.3902
  150TMC2    C1 2330   0.582   2.158  12.361 -0.1986 -0.1160 -0.8136
  150TMC2    C2 2331   0.488   2.097  12.442 -0.5527  0.4292  0.1933
  150TMC2    C3 2332   0.540   2.049  12.559  1.3464 -0.3522 -0.0730
  150TMC2    C4 2333   0.713   2.164  12.394 -0.4850  0.0416 -0.5925
  150TMC2    C5 2334   0.754   2.119  12.513 -0.1645  0.5686  0.5343
  150TMC2    C6 2335   0.669   2.049  12.596 -0.2360 -0.4727  0.4727
  150TMC2     C 2336   0.566   2.182  12.226 -0.0844  0.0140  0.3424
  150TMC2     O 2337   0.635   2.266  12.171  0.3847  0.1411  0.3639
  150TMC2     H 2338   0.382   2.082  12.425  0.0304 -1.6300 -1.6611
  150TMC2    H1 2339   0.781   2.201  12.319 -0.2630  2.5467  0.8124
  150TMC2    H2 2340   0.684   2.035  12.702  1.7110 -1.1169  0.1066
  150TMC2    C7 2341   0.901   2.117  12.536  0.3772 -0.0330  0.9210
  150TMC2    C8 2342   0.447   1.970  12.637  1.0624  0.5462 -0.2885
  150TMC2    O1 2343   0.960   2.197  12.466  0.4958 -0.0404 -0.4028
  150TMC2    O2 2344   0.322   1.977  12.623 -0.1162 -0.6612  0.1883
  150TMC2    O5 2345   0.522   1.872  12.703 -0.4877  0.2720 -0.3945
  150TMC2    H5 2346   0.616   1.867  12.676  0.0907  0.1731  1.6398
  151MPD2     C 2347   0.213   2.292  11.878 -0.2360  0.4929 -0.9692
  151MPD2    C1 2348   0.159   2.218  11.981  0.3772 -0.1475 -0.4893
  151MPD2    C2 2349   0.245   2.164  12.067 -0.2252 -0.4870 -0.4608
  151MPD2    C3 2350   0.378   2.178  12.073  0.6103  0.0754  0.1356
  151MPD2    C4 2351   0.439   2.245  11.970 -0.2457 -0.4352 -0.0122
  151MPD2    C5 2352   0.350   2.298  11.876 -0.1978  0.1253 -0.3897
  151MPD2     H 2353   0.194   2.123  12.154  0.0230 -1.2713 -0.6908
  151MPD2    H1 2354   0.547   2.240  11.959 -0.1658 -1.3370  1.1390
  151MPD2    H2 2355   0.155   2.354  11.811  1.2760  1.8071 -1.0567
  151MPD2    H3 2356   0.398   2.344  11.791 -1.3441  0.3174 -0.9231
  151MPD2     N 2357   0.449   2.123  12.183 -0.3616 -0.0412 -0.6585
  151MPD2    H5 2358   0.404   2.052  12.240  0.3520 -0.7761 -1.0292
  151MPD2    N1 2359   0.019   2.199  11.998 -0.9995  0.4432  0.5810
  151MPD2    H7 2360   4.700   2.247  11.935 -1.1820  2.4435  2.2757
  152TMC2    C1 2361   0.091   1.500  13.201 -0.6755  0.0855  0.1651
  152TMC2    C2 2362   0.164   1.387  13.162  0.5029 -0.1906  0.7420
  152TMC2    C3 2363   0.287   1.414  13.136  0.4309 -0.1478  0.2919
  152TMC2    C4 2364   0.135   1.629  13.201  0.7646  0.7699  0.2999
  152TMC2    C5 2365   0.258   1.648  13.152 -0.2119 -0.2067 -0.0563
  152TMC2    C6 2366   0.333   1.538  13.117  0.3487  0.0554 -0.4552
  152TMC2     C 2367   4.698   1.486  13.260 -0.0726 -0.2509 -0.4015
  152TMC2     O 2368   4.646   1.590  13.297 -0.0121  0.2747  0.1201
  152TMC2     H 2369   0.122   1.287  13.161  0.7095 -0.2853  1.6433
  152TMC2    H1 2370   0.075   1.715  13.227 -0.1429  0.8492 -2.0123
  152TMC2    H2 2371   0.428   1.554  13.066  2.2326 -1.1343  2.6681
  152TMC2    C7 2372   0.294   1.781  13.112  0.0765 -0.8465  0.4730
  152TMC2    C8 2373   0.383   1.304  13.126 -0.2039 -0.0230  0.4380
  152TMC2    O1 2374   0.206   1.859  13.125  0.0934  0.4160  0.2978
  152TMC2    O2 2375   0.489   1.308  13.062 -0.2356  0.7471  0.3804
  152TMC2    O5 2376   0.332   1.188  13.184 -0.1168 -0.2930 -0.0751
  152TMC2    H5 2377   0.291   1.211  13.270  0.4114  0.7590 -0.0990
  153MPD2     C 2378   4.511   1.178  13.354 -0.2853 -0.5059 -0.3595
  153MPD2    C1 2379   4.532   1.310  13.316  0.3771 -0.3566  0.9604
  153MPD2    C2 2380   4.417   1.393  13.321 -0.1757  0.0279  0.1596
  153MPD2    C3 2381   4.291   1.346  13.341 -0.2050  0.3982  0.5815
  153MPD2    C4 2382   4.281   1.223  13.395 -0.4319  1.2970 -0.8926
  153MPD2    C5 2383   4.387   1.142  13.396  0.9529  0.0416  0.5175
  153MPD2     H 2384   4.429   1.496  13.290 -1.2486 -0.6414 -2.5764
  153MPD2    H1 2385   4.192   1.174  13.432  2.0221 -2.1013  0.5091
  153MPD2    H2 2386   4.592   1.108  13.367 -0.1067 -0.0838  0.7758
  153MPD2    H3 2387   4.370   1.045  13.442  2.5899 -0.3571  0.2938
  153MPD2     N 2388   4.190   1.440  13.322  0.5742  0.6132 -0.1171
  153MPD2    H5 2389   4.214   1.536  13.298  1.3314 -0.0575 -1.9955
  153MPD2    N1 2390   4.661   1.353  13.287  0.0068  0.0294  0.0617
  153MPD2    H7 2391   4.735   1.284  13.299  1.3372  0.5715 -4.7966
  154TMC2    C1 2392   2.772   2.076   0.061  0.0658  0.4077 -0.5609
  154TMC2    C2 2393   2.727   1.998  17.733  0.0218  0.2968  0.2468
  154TMC2    C3 2394   2.755   1.863  17.743 -0.3249  0.2653  0.1006
  154TMC2    C4 2395   2.842   2.029   0.171 -0.1703  0.0789  0.0546
  154TMC2    C5 2396   2.868   1.899   0.179 -0.1210  0.1738  0.5079
  154TMC2    C6 2397   2.823   1.813   0.078 -0.2433  0.3392  0.2951
  154TMC2     C 2398   2.707   2.206   0.070 -0.5565 -0.2399  0.5099
  154TMC2     O 2399   2.651   2.238   0.174  0.5437  0.0821  0.2608
  154TMC2     H 2400   2.645   2.034  17.671 -1.9331 -0.4093  2.4458
  154TMC2    H1 2401   2.876   2.099   0.246  4.8772  0.7470 -2.8188
  154TMC2    H2 2402   2.836   1.706   0.083 -0.7464  0.2372 -0.6770
  154TMC2    C7 2403   2.885   1.857   0.318  0.2540  0.2864 -0.3478
  154TMC2    C8 2404   2.693   1.764  17.661 -0.3670 -1.0988  0.6594
  154TMC2    O1 2405   2.857   1.946   0.398  0.7902  0.4535 -0.0740
  154TMC2    O2 2406   2.688   1.644  17.686 -0.1873  0.2918  0.4392
  154TMC2    O5 2407   2.645   1.814  17.550  0.5123 -0.0149 -0.4859
  154TMC2    H5 2408   2.683   1.905  17.545 -0.2758  0.2355 -2.0500
  155MPD2     C 2409   2.751   2.484  17.622 -0.1122  0.3700  0.8142
  155MPD2    C1 2410   2.681   2.403  17.706  0.0261 -0.0601  0.3627
  155MPD2    C2 2411   2.565   2.443  17.768  1.0263  0.3324  0.0011
  155MPD2    C3 2412   2.508   2.560  17.717 -0.0529  0.3367  0.7582
  155MPD2    C4 2413   2.584   2.652  17.644 -0.8025  0.0956  0.1253
  155MPD2    C5 2414   2.699   2.608  17.591 -0.0628 -0.3805  0.6120
  155MPD2     H 2415   2.504   2.372   0.050  0.0423 -1.6181 -3.7065
  155MPD2    H1 2416   2.557   2.752  17.611  1.3873  0.5879 -0.1961
  155MPD2    H2 2417   2.854   2.461  17.597 -0.2025  1.4416 -0.5172
  155MPD2    H3 2418   2.748   2.690  17.541  0.5900 -1.1668 -0.0374
  155MPD2     N 2419   2.377   2.587  17.770  0.5773 -0.2835 -0.5488
  155MPD2    H5 2420   2.337   2.519   0.063  0.3170 -0.2444 -0.6732
  155MPD2    N1 2421   2.742   2.278  17.732 -0.2143  0.5145  0.8597
  155MPD2    H7 2422   2.825   2.250  17.680 -0.1916  0.2842  1.0206
  156TMC2    C1 2423   0.221   4.425  11.824  0.9578  0.1433 -0.1832
  156TMC2    C2 2424   0.179   4.316  11.757 -0.2230  0.5031  0.5387
  156TMC2    C3 2425   0.087   4.327  11.661 -0.2599 -0.2733  0.3306
  156TMC2    C4 2426   0.173   4.549  11.796  0.6115 -0.3212 -0.0862
  156TMC2    C5 2427   0.079   4.553  11.696  0.3911 -0.3211  0.5452
  156TMC2    C6 2428   0.027   4.444  11.639 -0.2018 -0.1113 -0.3317
  156TMC2     C 2429   0.305   4.406  11.940  0.7417 -0.6859 -0.2932
  156TMC2     O 2430   0.328   4.505  12.009 -0.0425  0.1812  0.1254
  156TMC2     H 2431   0.230   4.220  11.764 -0.2100  0.5360  0.8804
  156TMC2    H1 2432   0.209   4.636  11.850 -0.5729 -0.7162  1.3512
  156TMC2    H2 2433   4.702   4.445  11.555 -0.2895 -0.0203 -0.2584
  156TMC2    C7 2434   0.033   4.675  11.637 -0.1720 -0.1374 -0.5721
  156TMC2    C8 2435   0.080   4.228  11.558 -0.4491  0.1988 -0.0720
  156TMC2    O1 2436   4.664   4.680  11.587 -0.3441 -0.0580  0.1340
  156TMC2    O2 2437   4.731   4.210  11.477  0.2993  0.4978  0.1307
  156TMC2    O5 2438   0.206   4.219  11.511 -0.1678 -0.0782 -0.1282
  156TMC2    H5 2439   0.272   4.251  11.576 -0.1917  0.8806 -0.5750
  157MPD2     C 2440   0.458   4.093  12.081 -0.3701 -0.1404  0.1184
  157MPD2    C1 2441   0.410   4.226  12.080 -0.5318 -0.0952 -0.0542
  157MPD2    C2 2442   0.403   4.295  12.199  0.1838  0.3207  0.5370
  157MPD2    C3 2443   0.470   4.249  12.308  0.1785  0.0506  0.3265
  157MPD2    C4 2444   0.530   4.127  12.311 -0.1776 -0.3357 -0.2715
  157MPD2    C5 2445   0.523   4.047  12.197 -0.9313 -0.9285 -0.0800
  157MPD2     H 2446   0.357   4.393  12.210 -0.1832  0.4169 -1.9291
  157MPD2    H1 2447   0.581   4.098  12.402  0.2048  0.7088 -0.1536
  157MPD2    H2 2448   0.462   4.029  11.993  0.6785 -0.5924  0.4889
  157MPD2    H3 2449   0.556   3.945  12.211  2.3925  0.0953 -0.4400
  157MPD2     N 2450   0.477   4.338  12.422 -0.2718 -0.0224  0.2701
  157MPD2    H5 2451   0.429   4.426  12.407 -0.4073  0.1072  1.5089
  157MPD2    N1 2452   0.345   4.277  11.967  0.4236 -0.2413  0.8398
  157MPD2    H7 2453   0.329   4.202  11.901  1.1363 -2.4256  3.1085
  158TMC2    C1 2454   0.700   3.239  12.937 -0.4074 -0.1749  0.1548
  158TMC2    C2 2455   0.746   3.358  12.891  0.5243 -0.3212  0.3264
  158TMC2    C3 2456   0.652   3.441  12.841 -0.1460  0.0132 -0.2662
  158TMC2    C4 2457   0.566   3.199  12.932 -0.1235  0.3898 -0.2658
  158TMC2    C5 2458   0.475   3.289  12.888 -0.2403 -0.7949 -0.1127
  158TMC2    C6 2459   0.516   3.410  12.838  0.4698 -0.1279 -0.1274
  158TMC2     C 2460   0.789   3.172  13.029 -0.3128 -0.9957  0.7669
  158TMC2     O 2461   0.912   3.174  13.002  0.3156  0.0504 -0.5021
  158TMC2     H 2462   0.851   3.385  12.896 -0.0151  1.9606 -0.6711
  158TMC2    H1 2463   0.538   3.100  12.967  1.2546  0.3298  0.6588
  158TMC2    H2 2464   0.452   3.488  12.799 -0.7060 -0.3960  1.2511
  158TMC2    C7 2465   0.334   3.281  12.918 -0.1143 -0.4107 -0.0326
  158TMC2    C8 2466   0.715   3.551  12.776 -1.0191  0.1108  0.1592
  158TMC2    O1 2467   0.268   3.370  12.872 -0.3708  0.1099  0.1445
  158TMC2    O2 2468   0.833   3.581  12.776  0.4727 -0.1656  0.3383
  158TMC2    O5 2469   0.624   3.635  12.720 -0.1976 -0.3092  0.2628
  158TMC2    H5 2470   0.528   3.618  12.735 -0.0296 -2.2275 -0.9046
  159MPD2     C 2471   0.908   2.970  13.496  0.8311 -0.1775 -0.1112
  159MPD2    C1 2472   0.772   2.965  13.478  0.2690  0.5232  0.3200
  159MPD2    C2 2473   0.714   2.997  13.355 -0.2571 -1.0019  0.0723
  159MPD2    C3 2474   0.791   3.043  13.253  0.1520  0.4102  1.0634
  159MPD2    C4 2475   0.927   3.046  13.270  0.9315  0.0010  0.0568
  159MPD2    C5 2476   0.987   3.007  13.393 -0.1482 -0.1818 -0.5511
  159MPD2     H 2477   0.608   2.982  13.339 -0.7910  0.7316  1.9892
  159MPD2    H1 2478   0.989   3.088  13.191 -1.1832  1.3092 -0.9026
  159MPD2    H2 2479   0.958   2.942  13.588  2.1798 -3.3216 -1.7982
  159MPD2    H3 2480   1.094   3.009  13.409 -0.3881  0.0331  1.0418
  159MPD2     N 2481   0.728   3.105  13.136 -0.3048 -0.2796 -0.2594
  159MPD2    H5 2482   0.628   3.124  13.134 -0.5308 -1.8651 -3.6418
  159MPD2    N1 2483   0.702   2.915  13.585  0.1081  0.5947 -0.2070
  159MPD2    H7 2484   0.751   2.903  13.673 -0.4774  1.5704  0.2502
  160TMC2    C1 2485   0.347   1.750   0.896 -0.0404  0.2427 -0.2911
  160TMC2    C2 2486   0.341   1.886   0.919  0.3629 -0.7848 -0.2703
  160TMC2    C3 2487   0.453   1.934   0.973 -0.1886 -0.3337 -0.7341
  160TMC2    C4 2488   0.451   1.671   0.925 -0.1126 -0.0149  0.5603
  160TMC2    C5 2489   0.562   1.732   0.964  0.1856 -0.0505 -1.0934
  160TMC2    C6 2490   0.569   1.865   0.975 -0.1306  0.4936  0.0798
  160TMC2     C 2491   0.230   1.686   0.835  0.8942  1.3043 -0.3214
  160TMC2     O 2492   0.243   1.584   0.770 -0.2682  0.5078 -0.1317
  160TMC2     H 2493   0.259   1.949   0.889 -0.3712 -1.4066  0.4400
  160TMC2    H1 2494   0.451   1.565   0.900 -3.0597  0.4410 -1.3733
  160TMC2    H2 2495   0.660   1.903   1.019  0.6507  1.1166 -2.0764
  160TMC2    C7 2496   0.675   1.646   1.007  0.7048  0.0442  0.2918
  160TMC2    C8 2497   0.459   2.083   0.989 -0.1009 -0.6200 -1.1332
  160TMC2    O1 2498   0.638   1.540   1.052 -0.8353 -0.7160 -0.0240
  160TMC2    O2 2499   0.564   2.147   0.979 -0.0235 -0.1693 -0.4468
  160TMC2    O5 2500   0.358   2.107   1.081 -0.2007  0.0774 -1.2039
  160TMC2    H5 2501   0.303   2.029   1.104 -0.2100  0.3997 -0.1534
  161MPD2     C 2502   4.699   1.619   0.730 -0.3075  0.0481 -0.5184
  161MPD2    C1 2503   4.726   1.714   0.820 -0.2267 -0.1349 -0.0413
  161MPD2    C2 2504   4.626   1.798   0.856  0.6933  0.5608  0.5356
  161MPD2    C3 2505   4.503   1.793   0.801  0.0773  0.1384 -0.5807
  161MPD2    C4 2506   4.477   1.701   0.703 -0.8040 -0.3124 -0.0362
  161MPD2    C5 2507   4.573   1.609   0.673 -0.2681 -1.0395  0.0971
  161MPD2     H 2508   4.645   1.874   0.931  2.2380 -1.3793  2.1135
  161MPD2    H1 2509   4.376   1.686   0.666 -0.8302  0.5075 -0.2960
  161MPD2    H2 2510   0.031   1.549   0.697  1.0109  0.1929  2.2352
  161MPD2    H3 2511   4.551   1.536   0.597  0.6188 -1.6785  0.4599
  161MPD2     N 2512   4.401   1.885   0.828  0.3344 -0.0978 -0.9943
  161MPD2    H5 2513   4.323   1.890   0.764  0.6859 -1.9388 -1.5522
  161MPD2    N1 2514   0.113   1.742   0.878  0.4311  1.4603 -0.2390
  161MPD2    H7 2515   0.125   1.815   0.947 -0.6403  0.3122  1.1759
  162TMC2    C1 2516   2.026   3.308   0.526  0.3754  0.0224 -0.1658
  162TMC2    C2 2517   1.932   3.328   0.426 -0.7729 -0.2226 -0.4152
  162TMC2    C3 2518   1.799   3.337   0.463  0.4405 -0.6315 -0.0242
  162TMC2    C4 2519   1.994   3.325   0.661 -0.3817 -0.2766 -0.3882
  162TMC2    C5 2520   1.860   3.353   0.684 -0.2946 -0.5857 -0.0831
  162TMC2    C6 2521   1.759   3.350   0.589 -0.3433 -0.5939 -0.0954
  162TMC2     C 2522   2.165   3.280   0.487  0.3459 -0.1227  0.3849
  162TMC2     O 2523   2.254   3.319   0.561  0.0879 -0.9669 -0.3140
  162TMC2     H 2524   1.959   3.329   0.321  0.4699 -0.3302 -0.1017
  162TMC2    H1 2525   2.081   3.326   0.725 -0.1223  0.4087 -0.7514
  162TMC2    H2 2526   1.653   3.358   0.610 -0.3984  0.8609 -0.9351
  162TMC2    C7 2527   1.814   3.388   0.818 -0.2680  0.4791 -0.1856
  162TMC2    C8 2528   1.702   3.311   0.360 -0.1523  0.2379  0.1890
  162TMC2    O1 2529   1.697   3.376   0.838  0.0871  0.0568 -0.1015
  162TMC2    O2 2530   1.708   3.352   0.244  0.4874  0.5285 -0.5344
  162TMC2    O5 2531   1.616   3.216   0.405 -0.2460 -0.6728  0.1369
  162TMC2    H5 2532   1.639   3.180   0.494  1.2246 -1.6120 -0.6228
  163MPD2     C 2533   2.448   3.075   0.122 -0.1878  0.1527 -0.7029
  163MPD2    C1 2534   2.468   3.176   0.216 -0.2432 -0.0122  0.2166
  163MPD2    C2 2535   2.375   3.220   0.303 -0.0438 -0.2500  0.5166
  163MPD2    C3 2536   2.259   3.150   0.309 -0.0087  0.6685  0.3072
  163MPD2    C4 2537   2.233   3.051   0.211  0.0220  0.0070  0.1028
  163MPD2    C5 2538   2.328   3.015   0.119  0.2864 -0.3825  0.3349
  163MPD2     H 2539   2.391   3.307   0.364 -0.5737  1.1151 -1.2840
  163MPD2    H1 2540   2.135   3.003   0.208 -0.0505  0.0715  1.6902
  163MPD2    H2 2541   2.519   3.042   0.047 -0.4917 -1.3434 -0.3209
  163MPD2    H3 2542   2.308   2.949   0.035 -2.1630 -0.0064  0.6273
  163MPD2     N 2543   2.160   3.196   0.387  0.0935 -0.3587  0.9074
  163MPD2    H5 2544   2.064   3.170   0.367  1.2957 -3.5641 -0.7470
  163MPD2    N1 2545   2.594   3.243   0.201 -0.0185 -0.3652 -0.4919
  163MPD2    H7 2546   2.663   3.203   0.138  0.4525 -0.9282  0.3860
  164TMC2    C1 2547   3.632   2.686  11.050  0.4437 -0.1110  0.1808
  164TMC2    C2 2548   3.761   2.717  11.007  0.0573 -0.3602  0.2766
  164TMC2    C3 2549   3.781   2.845  10.959 -0.4088  0.5705 -0.1642
  164TMC2    C4 2550   3.551   2.793  11.079 -0.5291  0.2626  0.8957
  164TMC2    C5 2551   3.581   2.921  11.047 -0.5783 -0.4216  0.0703
  164TMC2    C6 2552   3.695   2.947  10.973 -0.1411  0.1015  0.2681
  164TMC2     C 2553   3.605   2.561  11.122 -0.4968 -0.2226  0.0970
  164TMC2     O 2554   3.491   2.538  11.170  0.0755 -0.0784  0.3089
  164TMC2     H 2555   3.816   2.636  10.960 -1.5845 -1.3818  0.1055
  164TMC2    H1 2556   3.452   2.782  11.120 -0.8749 -0.4880 -0.1277
  164TMC2    H2 2557   3.735   3.048  10.969  0.0956 -0.0447 -0.9035
  164TMC2    C7 2558   3.472   3.021  11.050  0.1644  0.1936 -0.0716
  164TMC2    C8 2559   3.877   2.868  10.855 -0.5450  0.0142 -0.0199
  164TMC2    O1 2560   3.365   2.994  11.098 -0.3656 -0.3624  0.1316
  164TMC2    O2 2561   3.903   2.984  10.819 -0.0946  0.3996 -0.0497
  164TMC2    O5 2562   3.978   2.790  10.896  0.4911  0.1111  0.3713
  164TMC2    H5 2563   3.970   2.710  10.952 -0.7080 -0.7147 -0.9953
  165TMC2    C1 2564   0.456   1.506   1.351 -0.1657 -0.6577 -0.0886
  165TMC2    C2 2565   0.454   1.641   1.347  0.9714 -0.0825 -0.3550
  165TMC2    C3 2566   0.572   1.708   1.370 -0.1296 -0.1556  0.6610
  165TMC2    C4 2567   0.570   1.436   1.363  0.4328 -0.5139  0.3398
  165TMC2    C5 2568   0.677   1.504   1.395  0.3402 -0.6444 -0.0617
  165TMC2    C6 2569   0.690   1.639   1.393 -0.4659  0.0676 -0.2174
  165TMC2     C 2570   0.330   1.449   1.366  0.5224 -0.6401  0.5519
  165TMC2     O 2571   0.242   1.513   1.418  0.2347  0.0033  0.4128
  165TMC2     H 2572   0.368   1.700   1.316 -0.2863 -0.6446  2.0568
  165TMC2    H1 2573   0.576   1.328   1.368  0.9890 -0.5784 -1.6023
  165TMC2    H2 2574   0.785   1.692   1.402  0.1285 -0.9664 -0.3786
  165TMC2    C7 2575   0.797   1.425   1.422  0.2515  0.3258  0.1655
  165TMC2    C8 2576   0.598   1.851   1.339 -1.0252  0.2948  0.4744
  165TMC2    O1 2577   0.819   1.327   1.352 -0.0550  0.1222  0.6880
  165TMC2    O2 2578   0.708   1.898   1.312 -0.2712  0.2420 -0.4348
  165TMC2    O5 2579   0.474   1.909   1.327  0.0292 -0.3300  0.6452
  165TMC2    H5 2580   0.397   1.858   1.361 -0.0550 -0.3193  0.4695
  166MPD2     C 2581   0.068   1.008   1.326 -0.1033  0.7787 -0.0806
  166MPD2    C1 2582   0.031   1.130   1.378  0.2258 -0.1659 -0.2100
  166MPD2    C2 2583   0.124   1.235   1.379  0.4901 -0.3603 -0.0021
  166MPD2    C3 2584   0.247   1.221   1.318 -0.0195  0.2851  0.5559
  166MPD2    C4 2585   0.284   1.101   1.260  0.0022  0.0631 -0.3803
  166MPD2    C5 2586   0.196   0.999   1.267 -0.3396 -0.0772  0.6081
  166MPD2     H 2587   0.099   1.337   1.408  2.2189  0.7053 -2.2730
  166MPD2    H1 2588   0.380   1.093   1.212 -1.1371 -0.2536 -2.5782
  166MPD2    H2 2589   0.003   0.922   1.334 -0.2374  0.6922 -2.2207
  166MPD2    H3 2590   0.225   0.908   1.215 -1.4875 -0.2880  0.3223
  166MPD2     N 2591   0.340   1.324   1.317  0.2763  0.9452 -0.6313
  166MPD2    H5 2592   0.422   1.303   1.262 -0.3114  0.1151 -1.2026
  166MPD2    N1 2593   4.647   1.130   1.432 -0.9709 -0.1501 -0.6861
  166MPD2    H7 2594   4.590   1.049   1.406 -0.6960 -0.4367 -0.3872
  167TMC2    C1 2595   2.566   2.769  13.298 -0.8944 -0.3009  0.2502
  167TMC2    C2 2596   2.539   2.772  13.424 -0.0579 -0.5969 -0.5886
  167TMC2    C3 2597   2.548   2.658  13.495  0.0373  0.3048  1.0868
  167TMC2    C4 2598   2.596   2.650  13.241  0.2988  0.1861  0.1063
  167TMC2    C5 2599   2.601   2.540  13.317  0.4228  0.2210  0.4129
  167TMC2    C6 2600   2.582   2.533  13.451 -0.1973  0.1794  0.5140
  167TMC2     C 2601   2.541   2.888  13.214  0.0289 -0.0172  0.4100
  167TMC2     O 2602   2.525   2.994  13.278  0.2596 -0.3551  0.7441
  167TMC2     H 2603   2.531   2.862  13.484 -0.5584  0.0659 -1.6452
  167TMC2    H1 2604   2.600   2.641  13.133  3.0098  0.3149  0.1794
  167TMC2    H2 2605   2.580   2.439  13.505 -2.3902 -0.2081 -0.2737
  167TMC2    C7 2606   2.601   2.422  13.245 -0.1067  0.8747 -0.5547
  167TMC2    C8 2607   2.513   2.670  13.633  0.0623  0.7359  0.2943
  167TMC2    O1 2608   2.526   2.340  13.298  0.0387 -0.0639  0.2888
  167TMC2    O2 2609   2.528   2.776  13.693 -0.5170  0.1430  0.0720
  167TMC2    O5 2610   2.390   2.611  13.637  0.6411 -0.1235 -0.3050
  167TMC2    H5 2611   2.384   2.522  13.596 -0.0734  0.6818 -1.9064
  168MPD2     C 2612   2.679   3.083  13.053  0.1359 -0.5704  0.4443
  168MPD2    C1 2613   2.611   2.972  13.002 -0.1503  0.2393 -0.3119
  168MPD2    C2 2614   2.598   2.951  12.867  0.8532 -0.0512  0.0250
  168MPD2    C3 2615   2.655   3.041  12.780 -0.5091  0.0258 -0.3332
  168MPD2    C4 2616   2.722   3.150  12.832  0.0935 -0.2431 -0.0108
  168MPD2    C5 2617   2.736   3.168  12.964  0.0016  0.3215 -0.6408
  168MPD2     H 2618   2.529   2.873  12.837  1.5390 -0.3174 -0.8624
  168MPD2    H1 2619   2.776   3.221  12.770 -0.0750 -0.2824 -0.2054
  168MPD2    H2 2620   2.693   3.105  13.158  1.6763 -2.6585  0.6667
  168MPD2    H3 2621   2.794   3.252  13.000  0.7382 -0.7009  0.5737
  168MPD2     N 2622   2.655   3.036  12.643 -0.5353  0.1775  0.1006
  168MPD2    H5 2623   2.698   3.110  12.588 -0.9052  0.8469  0.7306
  168MPD2    N1 2624   2.538   2.877  13.079 -0.0604 -0.2394 -0.4998
  168MPD2    H7 2625   2.494   2.798  13.034  0.1738 -0.1012 -0.9642
  169MPD1     C 2626   3.796   1.563  10.101  0.0677 -0.2223 -0.1739
  169MPD1    C1 2627   3.852   1.462  10.176 -0.5762 -0.5238  0.1638
  169MPD1    C2 2628   3.981   1.414  10.135 -0.7823  0.1490 -0.0503
  169MPD1    C3 2629   4.065   1.491  10.048  0.0723 -0.0285  0.6826
  169MPD1    C4 2630   4.013   1.605   9.993  0.2680 -0.3206  0.6516
  169MPD1    C5 2631   3.881   1.634  10.012 -0.0563 -0.3017 -0.0508
  169MPD1     H 2632   4.021   1.328  10.189 -0.2575 -0.2134 -1.0104
  169MPD1    H1 2633   4.078   1.668   9.932  0.9899 -0.8004  0.9215
  169MPD1    H2 2634   3.698   1.604  10.122 -0.5963 -0.8353 -2.0353
  169MPD1    H3 2635   3.838   1.718   9.959 -0.8086 -0.7368 -0.1276
  169MPD1     N 2636   4.205   1.480  10.046 -0.2106 -0.5937 -0.0448
  169MPD1    H5 2637   4.261   1.554  10.006 -1.8242  1.4605  1.4920
  169MPD1    N1 2638   3.773   1.382  10.261 -0.0576  0.3198  0.4466
  169MPD1    H6 2639   3.846   1.341  10.319 -0.5740 -0.1364  0.7719
  169MPD1    H7 2640   3.716   1.443  10.319 -1.4171  1.7146 -2.3194
  170MPD1     C 2641   4.489   4.016  13.508 -0.1900 -0.2974 -0.3806
  170MPD1    C1 2642   4.569   4.108  13.565  0.0555  0.1478 -0.6155
  170MPD1    C2 2643   4.511   4.234  13.580 -0.4910 -0.3372  0.7919
  170MPD1    C3 2644   4.378   4.260  13.557  0.0627 -0.5770  0.4435
  170MPD1    C4 2645   4.299   4.164  13.506  0.3481 -0.1125  0.4055
  170MPD1    C5 2646   4.357   4.049  13.478 -0.1931  0.1322  0.0902
  170MPD1     H 2647   4.574   4.315  13.616  1.0060 -0.9635 -0.3946
  170MPD1    H1 2648   4.196   4.170  13.473  0.3094  0.0340  0.5520
  170MPD1    H2 2649   4.521   3.913  13.501  0.4971 -0.1292  0.2667
  170MPD1    H3 2650   4.292   3.968  13.446  0.4353  0.4493 -2.0036
  170MPD1     N 2651   4.326   4.393  13.583 -0.5571 -0.0485  0.7265
  170MPD1    H5 2652   4.377   4.467  13.631  1.1901 -0.5016 -0.4378
  170MPD1    N1 2653   4.708   4.082  13.583 -0.1711 -1.2031 -0.2931
  170MPD1    H6 2654   0.009   4.140  13.653 -3.9662  0.4859  0.7407
  170MPD1    H7 2655   4.737   3.984  13.582  0.4965 -1.0179  1.4533
  171MPD1     C 2656   2.685   1.538  15.438 -0.1877 -0.4603  0.2833
  171MPD1    C1 2657   2.624   1.419  15.414  0.2708 -0.2624  0.0255
  171MPD1    C2 2658   2.662   1.308  15.484 -0.3369 -0.2885 -0.3969
  171MPD1    C3 2659   2.758   1.314  15.591 -0.6277 -0.1925  0.1072
  171MPD1    C4 2660   2.820   1.435  15.611 -0.2097 -0.1107  0.1838
  171MPD1    C5 2661   2.784   1.540  15.533  0.0330  0.3798 -0.0440
  171MPD1     H 2662   2.627   1.215  15.441 -1.2717 -0.9452  1.7918
  171MPD1    H1 2663   2.902   1.446  15.680 -1.7244  2.9800  1.5106
  171MPD1    H2 2664   2.662   1.627  15.381  0.1883 -0.5570 -0.0163
  171MPD1    H3 2665   2.838   1.634  15.532  0.9152 -0.1218  0.8102
  171MPD1     N 2666   2.785   1.211  15.676 -1.0565 -0.3247 -0.5680
  171MPD1    H5 2667   2.857   1.228  15.746 -1.5753 -0.4569  0.0046
  171MPD1    N1 2668   2.542   1.405  15.300 -0.0163 -0.2138  0.3746
  171MPD1    H6 2669   2.484   1.484  15.272  1.4347  1.2072  1.4466
  171MPD1    H7 2670   2.464   1.339  15.296 -0.4535  0.4860 -3.1870
  172MPD1     C 2671   3.285   0.347   0.283  0.2480  0.1399 -0.3818
  172MPD1    C1 2672   3.164   0.284   0.315 -0.0940 -0.9928  0.4696
  172MPD1    C2 2673   3.049   0.356   0.336 -0.2517 -0.1659  0.3772
  172MPD1    C3 2674   3.055   0.494   0.322 -0.0715  0.0149  0.0780
  172MPD1    C4 2675   3.178   0.553   0.302  0.6344  0.1194  0.2408
  172MPD1    C5 2676   3.294   0.485   0.281 -0.7204  0.0438  0.1092
  172MPD1     H 2677   2.954   0.312   0.365  0.4391 -1.5116  0.5920
  172MPD1    H1 2678   3.174   0.661   0.305  2.5711  0.2005  0.4460
  172MPD1    H2 2679   3.378   0.293   0.273  0.0418 -0.3797  0.5929
  172MPD1    H3 2680   3.391   0.529   0.262 -1.7149  2.8232  1.4605
  172MPD1     N 2681   2.947   0.587   0.351 -0.0314 -0.1044 -0.4403
  172MPD1    H5 2682   2.972   0.685   0.345 -1.3521  0.2991  0.6129
  172MPD1    N1 2683   3.166   0.141   0.324  0.5185  0.5942 -0.0669
  172MPD1    H6 2684   3.238   0.091   0.272  2.0247  0.7143  1.8874
  172MPD1    H7 2685   3.077   0.107   0.291  2.1531 -2.0704 -1.6679
  173MPD1     C 2686   3.723   0.556  13.923 -0.1410 -0.1772 -0.1304
  173MPD1    C1 2687   3.594   0.576  13.974  0.3288 -0.1028 -0.2265
  173MPD1    C2 2688   3.584   0.567  14.111  0.0141  0.3406 -0.2652
  173MPD1    C3 2689   3.695   0.547  14.196  0.2698  0.3624 -0.0994
  173MPD1    C4 2690   3.822   0.546  14.134  0.2127 -0.0130  0.1936
  173MPD1    C5 2691   3.838   0.549  13.997  0.6544  0.3929  0.1661
  173MPD1     H 2692   3.485   0.570  14.156 -0.2333 -0.8215 -0.7200
  173MPD1    H1 2693   3.910   0.538  14.196 -0.7174 -1.4995  1.3180
  173MPD1    H2 2694   3.724   0.547  13.815  1.3828 -1.3228 -0.0174
  173MPD1    H3 2695   3.934   0.549  13.947  0.4067 -0.6626 -0.3013
  173MPD1     N 2696   3.671   0.526  14.337  0.2747 -0.2042 -0.0633
  173MPD1    H5 2697   3.576   0.508  14.367  0.6261 -0.6453  0.7882
  173MPD1    N1 2698   3.472   0.564  13.895 -0.1321  0.2401 -0.1982
  173MPD1    H6 2699   3.489   0.599  13.801 -2.5960 -1.2644 -1.2114
  173MPD1    H7 2700   3.390   0.615  13.927 -0.5819  1.1490 -2.8071
  174MPD1     C 2701   4.124   0.074  15.132 -0.0417  0.2831  0.3725
  174MPD1    C1 2702   3.986   0.068  15.139  0.5383 -0.6410 -0.1972
  174MPD1    C2 2703   3.916   0.120  15.032  0.2775 -0.2050  0.1797
  174MPD1    C3 2704   3.984   0.165  14.915 -0.5319  0.1630 -0.1380
  174MPD1    C4 2705   4.118   0.156  14.902 -0.2108  0.2958  0.0975
  174MPD1    C5 2706   4.187   0.109  15.012  0.1479  0.2347  0.4330
  174MPD1     H 2707   3.809   0.140  15.034  0.1077 -1.0853 -0.1070
  174MPD1    H1 2708   4.167   0.167  14.806  0.3627 -0.7592  0.2740
  174MPD1    H2 2709   4.184   0.029  15.210 -0.2332 -0.7295 -0.0606
  174MPD1    H3 2710   4.293   0.093  14.997 -0.2774 -1.7410 -0.4661
  174MPD1     N 2711   3.905   0.210  14.800  0.1310  0.0476 -0.0457
  174MPD1    H5 2712   3.943   0.270  14.728 -0.7823 -0.5207 -1.0033
  174MPD1    N1 2713   3.915   0.044  15.256 -0.2777  0.1085 -0.1607
  174MPD1    H6 2714   3.825   4.741  15.246 -0.0292  0.0635 -2.1819
  174MPD1    H7 2715   3.972   4.739  15.324  0.0595 -1.1590 -1.3447
  175MPD1     C 2716   1.608   0.895  15.733 -0.3212  0.2801  0.1135
  175MPD1    C1 2717   1.739   0.920  15.748  0.1237 -0.5356 -0.2050
  175MPD1    C2 2718   1.784   0.978  15.870  0.0761  0.7322 -0.5179
  175MPD1    C3 2719   1.689   1.032  15.953  0.1959  0.2482 -0.5530
  175MPD1    C4 2720   1.557   1.020  15.921  0.3906  0.4930  0.9934
  175MPD1    C5 2721   1.514   0.950  15.815 -0.1057  0.1349 -0.7038
  175MPD1     H 2722   1.890   0.987  15.887  0.4169 -0.1496 -2.1354
  175MPD1    H1 2723   1.484   1.062  15.989 -2.0156 -0.9462 -0.7159
  175MPD1    H2 2724   1.567   0.853  15.641  0.5579  0.9606 -0.5866
  175MPD1    H3 2725   1.409   0.944  15.790  0.4454 -1.0885 -2.7755
  175MPD1     N 2726   1.721   1.102  16.071  0.0585 -0.4639  0.4310
  175MPD1    H5 2727   1.643   1.134  16.128  0.0737  0.1589  0.1045
  175MPD1    N1 2728   1.833   0.857  15.665 -0.1338 -0.0605 -0.3946
  175MPD1    H6 2729   1.922   0.906  15.662  0.3048 -0.8130  0.3822
  175MPD1    H7 2730   1.794   0.834  15.574  0.1968 -0.3153 -0.4710
  176MPD1     C 2731   2.763   3.798  17.735 -0.1791  0.2760  0.2264
  176MPD1    C1 2732   2.848   3.870   0.044  0.0918  0.3444 -0.8260
  176MPD1    C2 2733   2.978   3.865   0.016 -0.3055 -0.8726  0.1092
  176MPD1    C3 2734   3.035   3.795  17.674  0.3090 -1.0517  0.1600
  176MPD1    C4 2735   2.942   3.726  17.598  0.4592 -0.1287  0.5918
  176MPD1    C5 2736   2.809   3.732  17.626 -0.4449  0.2975  0.0567
  176MPD1     H 2737   3.048   3.916   0.080  1.0839 -1.9994 -0.5121
  176MPD1    H1 2738   2.973   3.667  17.512 -0.4353  0.7177 -0.3150
  176MPD1    H2 2739   2.655   3.796  17.747  0.0095  0.9266  2.1197
  176MPD1    H3 2740   2.736   3.680  17.566 -0.2205 -2.6941  2.3855
  176MPD1     N 2741   3.175   3.798  17.646  0.1970  0.4466 -0.1525
  176MPD1    H5 2742   3.228   3.865  17.702 -1.5195  0.0697  1.9284
  176MPD1    N1 2743   2.809   3.933   0.159  0.3012  0.3656 -0.0619
  176MPD1    H6 2744   2.872   4.010   0.182  0.3456  0.2838  0.0905
  176MPD1    H7 2745   2.715   3.970   0.147 -0.1412 -0.5686  0.4684
  177MPD1     C 2746   1.830   3.643  10.396  0.5712  0.9495  0.2290
  177MPD1    C1 2747   1.831   3.751  10.301 -0.4335 -0.5246  0.6014
  177MPD1    C2 2748   1.760   3.740  10.178  0.0831 -0.0964  0.2043
  177MPD1    C3 2749   1.672   3.630  10.159 -0.7065 -0.0736  0.1312
  177MPD1    C4 2750   1.669   3.534  10.255 -0.5930 -0.7286 -0.3143
  177MPD1    C5 2751   1.743   3.538  10.378 -0.0319  0.5319 -0.0636
  177MPD1     H 2752   1.775   3.815  10.102  1.6914 -2.0469 -1.3840
  177MPD1    H1 2753   1.606   3.446  10.256 -1.6250  0.0277  1.1412
  177MPD1    H2 2754   1.909   3.644  10.469  1.4088  1.8088 -0.6826
  177MPD1    H3 2755   1.734   3.455  10.448 -1.4881  0.5866 -0.1847
  177MPD1     N 2756   1.601   3.623  10.043  0.2889  0.1061  0.3411
  177MPD1    H5 2757   1.610   3.701   9.979  0.0409  0.0268  0.2094
  177MPD1    N1 2758   1.934   3.846  10.304 -0.4327 -0.2710  0.3672
  177MPD1    H6 2759   1.971   3.862  10.398 -0.7486  1.9164  0.1381
  177MPD1    H7 2760   1.911   3.935  10.259 -0.4961  0.1235  1.1712
  178MPD1     C 2761   3.634   3.864   0.256 -0.0658 -0.1223 -0.0449
  178MPD1    C1 2762   3.582   3.770   0.168 -0.6134 -0.2357  0.3063
  178MPD1    C2 2763   3.651   3.747   0.050 -0.2477 -0.3831 -0.2983
  178MPD1    C3 2764   3.774   3.810   0.020 -0.0702  0.0703  0.0645
  178MPD1    C4 2765   3.826   3.888   0.119 -0.3342  0.6180 -0.2684
  178MPD1    C5 2766   3.756   3.919   0.234 -0.0135 -0.4897  0.3522
  178MPD1     H 2767   3.614   3.683  17.741  0.1986 -0.7470 -0.2171
  178MPD1    H1 2768   3.920   3.939   0.103  0.1940 -0.6929 -1.3564
  178MPD1    H2 2769   3.585   3.902   0.345 -0.8220 -1.0076 -0.0726
  178MPD1    H3 2770   3.799   3.996   0.297 -0.0599 -0.4816  0.3739
  178MPD1     N 2771   3.851   3.803  17.670 -0.7378  0.0645 -0.0636
  178MPD1    H5 2772   3.939   3.853  17.673 -1.1731  0.8456 -0.2847
  178MPD1    N1 2773   3.454   3.719   0.196 -0.1503  0.1532 -0.3278
  178MPD1    H6 2774   3.430   3.634   0.146 -0.6253  1.3043 -2.0734
  178MPD1    H7 2775   3.464   3.679   0.289 -0.4633 -1.7632 -1.1120
  179MPD1     C 2776   4.414   1.516  15.613  0.3293 -0.2427 -1.0280
  179MPD1    C1 2777   4.463   1.559  15.742  1.1454  0.1800 -0.4280
  179MPD1    C2 2778   4.367   1.640  15.806  0.5662 -0.1168  1.0292
  179MPD1    C3 2779   4.246   1.687  15.754  0.6444 -0.2885  0.2328
  179MPD1    C4 2780   4.216   1.643  15.627  0.4683 -0.0420  0.3818
  179MPD1    C5 2781   4.295   1.554  15.561 -0.3334 -0.3126  0.3396
  179MPD1     H 2782   4.384   1.661  15.911 -1.0643  0.0536  1.2539
  179MPD1    H1 2783   4.123   1.673  15.581  0.5756 -0.4312 -0.0865
  179MPD1    H2 2784   4.479   1.448  15.559 -0.8013 -1.4245 -0.9148
  179MPD1    H3 2785   4.264   1.506  15.469 -2.2710  1.1383  0.2280
  179MPD1     N 2786   4.163   1.767  15.833 -0.1930 -0.3542  0.1747
  179MPD1    H5 2787   4.186   1.780  15.931 -0.7025  2.8075 -0.1376
  179MPD1    N1 2788   4.576   1.503  15.809 -0.0020 -0.1632  0.0085
  179MPD1    H6 2789   4.541   1.409  15.830 -0.3686 -0.2469 -1.0021
  179MPD1    H7 2790   4.640   1.477  15.734 -0.0359  1.3613 -0.5482
  180MPD1     C 2791   4.002   4.065  15.234  0.0503 -0.1446  0.1507
  180MPD1    C1 2792   4.030   4.070  15.099 -0.1983  0.7614 -1.1545
  180MPD1    C2 2793   3.957   3.991  15.012 -0.3933  0.3368 -0.3786
  180MPD1    C3 2794   3.844   3.915  15.051  0.0985 -0.4697 -0.0330
  180MPD1    C4 2795   3.812   3.925  15.183  0.7496  0.2032  0.7321
  180MPD1    C5 2796   3.894   3.991  15.269  0.0789  0.4809 -0.2087
  180MPD1     H 2797   3.981   3.973  14.907 -1.1150  1.6545 -0.7693
  180MPD1    H1 2798   3.734   3.860  15.222 -0.4840  1.9501  1.1975
  180MPD1    H2 2799   4.078   4.104  15.300 -0.0770  1.3225 -0.5692
  180MPD1    H3 2800   3.870   3.978  15.374 -3.0126 -2.3943 -1.2784
  180MPD1     N 2801   3.778   3.840  14.953  0.0262  0.2383 -0.6016
  180MPD1    H5 2802   3.817   3.846  14.859 -1.3223  0.2551 -1.1561
  180MPD1    N1 2803   4.153   4.125  15.058 -0.4614  0.6383 -0.1957
  180MPD1    H6 2804   4.144   4.140  14.958 -1.4384  0.0249 -0.1981
  180MPD1    H7 2805   4.169   4.214  15.104  2.0892  0.0476  0.0410
  181MPD1     C 2806   0.200   1.660  10.344 -0.4583 -1.1923 -0.2020
  181MPD1    C1 2807   0.178   1.553  10.426 -0.0909  0.5295 -0.5036
  181MPD1    C2 2808   0.273   1.452  10.420  0.6783 -0.1937  0.6483
  181MPD1    C3 2809   0.400   1.461  10.356  0.2153 -0.3812  0.1109
  181MPD1    C4 2810   0.421   1.575  10.280 -0.8284  0.9124 -1.1365
  181MPD1    C5 2811   0.324   1.671  10.286 -0.3036  0.3804  0.2388
  181MPD1     H 2812   0.248   1.355  10.461  0.5853 -0.8768 -1.0352
  181MPD1    H1 2813   0.517   1.586  10.230 -0.8278  2.8267 -0.6869
  181MPD1    H2 2814   0.130   1.741  10.326  0.0199 -0.9644 -1.0021
  181MPD1    H3 2815   0.358   1.760  10.234 -1.6681  1.0839  0.5566
  181MPD1     N 2816   0.500   1.366  10.364  0.0646 -0.3630 -0.0004
  181MPD1    H5 2817   0.582   1.378  10.305 -0.2602  1.0263 -0.1657
  181MPD1    N1 2818   0.051   1.522  10.476 -0.0661  0.0963  0.0738
  181MPD1    H6 2819   0.015   1.610  10.511 -1.3375 -0.4584  0.1823
  181MPD1    H7 2820   0.061   1.469  10.562  0.7334 -0.9452 -0.6540
  182MPD1     C 2821   1.871   0.044   0.282  0.3045  0.0711 -0.0691
  182MPD1    C1 2822   1.891   4.731   0.157  0.4568 -0.3237  0.1119
  182MPD1    C2 2823   1.789   4.704   0.071  0.1460  0.1818 -0.3971
  182MPD1    C3 2824   1.661   4.713   0.120  0.0971 -0.2128 -0.2610
  182MPD1    C4 2825   1.643   0.020   0.250 -0.1851 -0.5977  0.1098
  182MPD1    C5 2826   1.746   0.051   0.335 -0.2498 -0.0005 -1.0240
  182MPD1     H 2827   1.811   4.674  17.741  0.2760  1.5153 -0.7710
  182MPD1    H1 2828   1.543   0.019   0.292 -0.3189 -0.6423 -0.2134
  182MPD1    H2 2829   1.957   0.060   0.346 -0.5232  0.7132  0.8898
  182MPD1    H3 2830   1.726   0.092   0.433  0.3741 -1.3098 -0.3342
  182MPD1     N 2831   1.550   4.693   0.038 -0.2006 -0.5489  0.0964
  182MPD1    H5 2832   1.458   4.714   0.074  0.2068 -2.8205  2.4216
  182MPD1    N1 2833   2.017   0.015   0.096  0.2974 -0.8681 -0.2028
  182MPD1    H6 2834   2.102   4.742   0.150  0.7411  1.9171 -0.0684
  182MPD1    H7 2835   2.030   4.690   0.021  0.3211  0.2070 -1.1923
  183MPD1     C 2836   1.415   0.785   8.492 -0.2596 -0.5748 -1.0654
  183MPD1    C1 2837   1.281   0.792   8.497 -0.1103  0.1996 -0.1375
  183MPD1    C2 2838   1.225   0.789   8.622  0.6590  0.5352 -0.5754
  183MPD1    C3 2839   1.302   0.789   8.734  0.2248 -0.0390  0.4595
  183MPD1    C4 2840   1.442   0.786   8.729  0.0401 -0.2699 -0.6012
  183MPD1    C5 2841   1.496   0.785   8.601 -0.4629  0.1011 -0.9964
  183MPD1     H 2842   1.117   0.795   8.638  0.9563 -0.2704  1.8135
  183MPD1    H1 2843   1.511   0.781   8.812 -2.1309  3.8749  1.3995
  183MPD1    H2 2844   1.465   0.788   8.395 -0.0311  3.1737 -0.8513
  183MPD1    H3 2845   1.603   0.782   8.581 -0.1811  0.6647  0.4908
  183MPD1     N 2846   1.239   0.794   8.864  0.0770  0.3128  1.1072
  183MPD1    H5 2847   1.138   0.802   8.867  0.0603  0.4499  0.0818
  183MPD1    N1 2848   1.195   0.785   8.384 -0.0033  0.7137  0.1242
  183MPD1    H6 2849   1.109   0.838   8.389 -0.1416  0.4540  0.4904
  183MPD1    H7 2850   1.243   0.810   8.298 -0.7525  1.3922 -0.0950
  184MPD1     C 2851   0.669   2.790  10.277  0.6485  0.9927 -0.7182
  184MPD1    C1 2852   0.583   2.775  10.168 -0.0043 -0.3868 -0.8880
  184MPD1    C2 2853   0.624   2.848  10.055  0.5192  0.4723  0.0669
  184MPD1    C3 2854   0.724   2.942  10.062 -0.0671 -0.1862  0.3262
  184MPD1    C4 2855   0.793   2.963  10.179  0.4254  0.5272  0.4822
  184MPD1    C5 2856   0.769   2.882  10.284 -0.4633 -0.3323 -0.5179
  184MPD1     H 2857   0.562   2.838   9.967  1.5536 -3.8116 -0.1860
  184MPD1    H1 2858   0.876   3.032  10.182  0.7734  0.0616  1.3213
  184MPD1    H2 2859   0.650   2.739  10.370  1.3527 -0.8978 -1.6129
  184MPD1    H3 2860   0.837   2.892  10.367 -2.0317 -0.3967  0.7679
  184MPD1     N 2861   0.759   3.033   9.954  0.1897  0.5309  0.8152
  184MPD1    H5 2862   0.831   3.102   9.974  0.7500 -0.0716  0.8542
  184MPD1    N1 2863   0.484   2.676  10.162 -0.2279  0.0839  0.4889
  184MPD1    H6 2864   0.425   2.689  10.081  1.3269 -1.0534 -0.8313
  184MPD1    H7 2865   0.431   2.676  10.249  1.4666 -2.2280  1.5314
  185MPD1     C 2866   0.602   3.325   8.912  0.5281 -0.2968  0.4224
  185MPD1    C1 2867   0.585   3.209   8.976  0.1826  0.5478  0.6516
  185MPD1    C2 2868   0.629   3.201   9.108 -0.0840 -0.4592  0.1009
  185MPD1    C3 2869   0.697   3.302   9.173 -0.1986 -0.4202 -0.5701
  185MPD1    C4 2870   0.717   3.419   9.105 -0.0075 -0.0244 -0.3518
  185MPD1    C5 2871   0.666   3.427   8.980 -0.6686  1.0988  0.9638
  185MPD1     H 2872   0.611   3.104   9.153 -0.4313 -0.0511  0.8510
  185MPD1    H1 2873   0.768   3.504   9.150 -0.8242  1.9289 -3.0715
  185MPD1    H2 2874   0.561   3.335   8.812  0.7841 -0.4187  0.3058
  185MPD1    H3 2875   0.670   3.521   8.927 -0.8324  1.7275  2.0753
  185MPD1     N 2876   0.743   3.292   9.306  0.0417  0.4658 -0.3561
  185MPD1    H5 2877   0.809   3.362   9.340  0.4349  0.0602 -0.2852
  185MPD1    N1 2878   0.497   3.114   8.915  0.7346 -0.3756  0.2873
  185MPD1    H6 2879   0.521   3.020   8.947  2.3953 -0.5275 -1.4282
  185MPD1    H7 2880   0.518   3.112   8.816  0.1331 -0.7605  0.1668
  186MPD1     C 2881   4.351   1.841  16.304  0.1732 -0.7765  0.5393
  186MPD1    C1 2882   4.364   1.931  16.194 -0.3795 -0.6259  0.5841
  186MPD1    C2 2883   4.361   2.067  16.228 -0.4944  0.0136 -0.4966
  186MPD1    C3 2884   4.342   2.107  16.360  0.0821  0.3871 -0.0495
  186MPD1    C4 2885   4.349   2.015  16.461 -0.0643  0.1833  0.1862
  186MPD1    C5 2886   4.350   1.886  16.430  0.0780 -0.4362 -0.3610
  186MPD1     H 2887   4.348   2.130  16.141 -1.1835  0.7592  0.1357
  186MPD1    H1 2888   4.332   2.040  16.565  0.9233 -0.0656  0.4093
  186MPD1    H2 2889   4.328   1.736  16.291  2.4238 -1.0715 -1.1676
  186MPD1    H3 2890   4.342   1.816  16.512  0.4005 -0.1902 -0.1162
  186MPD1     N 2891   4.318   2.247  16.395  0.0730 -0.4187 -0.0796
  186MPD1    H5 2892   4.299   2.270  16.492  0.9744  3.2279 -0.7498
  186MPD1    N1 2893   4.344   1.871  16.069 -0.8054 -0.1745 -0.1621
  186MPD1    H6 2894   4.363   1.930  15.988 -1.4381  0.0353 -0.1571
  186MPD1    H7 2895   4.408   1.793  16.061  1.5911  1.6071  1.7398
  187MPD1     C 2896   3.048   4.560   0.170 -0.6262 -0.1277  0.7185
  187MPD1    C1 2897   3.016   4.681   0.115 -0.4105 -0.4801  0.7527
  187MPD1    C2 2898   3.079   4.727   0.002  0.0858 -0.6160 -0.5868
  187MPD1    C3 2899   3.174   4.650  17.712  0.6586 -0.1727 -0.4527
  187MPD1    C4 2900   3.207   4.524  17.766  0.7732  0.3218  0.7555
  187MPD1    C5 2901   3.138   4.485   0.107 -0.6483  0.1789  1.0057
  187MPD1     H 2902   3.046   0.069  17.716  0.6361 -1.0921 -1.6243
  187MPD1    H1 2903   3.268   4.453  17.712  0.8493 -1.1676  2.8494
  187MPD1    H2 2904   3.015   4.519   0.265 -1.2663  0.2395  0.6552
  187MPD1    H3 2905   3.163   4.387   0.146 -2.5018 -0.9531 -0.6603
  187MPD1     N 2906   3.242   4.681  17.589 -0.0983  0.0537  0.1779
  187MPD1    H5 2907   3.293   4.603  17.549 -0.1506 -0.1882  0.5819
  187MPD1    N1 2908   2.929   0.023   0.186  0.5646  0.1863  1.0202
  187MPD1    H6 2909   2.862   0.074   0.129 -0.3761 -1.5664  0.5704
  187MPD1    H7 2910   2.872   4.726   0.260 -1.0326 -0.7142 -0.6993
  188MPD1     C 2911   2.751   3.858  10.298 -0.5300  0.2159  0.0680
  188MPD1    C1 2912   2.775   3.759  10.396  0.2653  0.5609 -0.4782
  188MPD1    C2 2913   2.764   3.628  10.359 -0.0577 -0.8058  0.2207
  188MPD1    C3 2914   2.711   3.594  10.232 -0.0605  0.3978 -0.2005
  188MPD1    C4 2915   2.659   3.694  10.152  0.5253  0.0674 -0.2091
  188MPD1    C5 2916   2.697   3.822  10.177  0.3015  0.4133 -0.4422
  188MPD1     H 2917   2.800   3.550  10.425  1.8318 -1.3094 -1.3989
  188MPD1    H1 2918   2.621   3.675  10.053 -0.0139 -0.3805  0.0781
  188MPD1    H2 2919   2.782   3.962  10.303 -1.9496  0.6307  0.1395
  188MPD1    H3 2920   2.669   3.901  10.108  2.1802 -1.1126 -2.9462
  188MPD1     N 2921   2.710   3.454  10.208 -1.1938  0.9432  0.6845
  188MPD1    H5 2922   2.742   3.395  10.284 -0.9142  0.5130  0.2330
  188MPD1    N1 2923   2.849   3.787  10.509 -0.7690 -0.0980 -0.1984
  188MPD1    H6 2924   2.822   3.873  10.557  0.5279  0.7644 -1.0210
  188MPD1    H7 2925   2.825   3.717  10.578  0.4152 -1.2484 -0.9586
  189MPD1     C 2926   0.958   0.642   0.266 -0.7913  0.5161  0.2605
  189MPD1    C1 2927   0.891   0.657   0.144 -0.2178 -0.0211  0.0435
  189MPD1    C2 2928   0.799   0.756   0.139 -0.2132 -0.7530 -0.1314
  189MPD1    C3 2929   0.754   0.829   0.255 -0.0055  0.4250  0.7598
  189MPD1    C4 2930   0.825   0.816   0.366  0.0658  0.3939 -0.6416
  189MPD1    C5 2931   0.924   0.718   0.373  0.1336  0.1380 -0.1591
  189MPD1     H 2932   0.743   0.781   0.050  2.3480 -1.9817 -2.0984
  189MPD1    H1 2933   0.791   0.858   0.461  5.1400  1.2397  0.7855
  189MPD1    H2 2934   1.036   0.567   0.277  0.5449  1.7081 -1.1592
  189MPD1    H3 2935   0.957   0.685   0.471  0.6339 -0.4870 -0.5442
  189MPD1     N 2936   0.648   0.917   0.242  0.0279 -0.1393  0.6226
  189MPD1    H5 2937   0.589   0.920   0.160  1.0574  1.1202 -0.0748
  189MPD1    N1 2938   0.932   0.587   0.030  0.7242 -1.1974  0.3903
  189MPD1    H6 2939   0.965   0.495   0.056  1.7679 -1.2367 -1.0629
  189MPD1    H7 2940   0.851   0.574  17.741  1.1641 -0.4857 -0.3543
  190MPD1     C 2941   3.337   3.172  14.514  0.8167 -0.2155 -0.2503
  190MPD1    C1 2942   3.466   3.159  14.479  0.1892 -0.1961  0.0071
  190MPD1    C2 2943   3.551   3.195  14.582  0.2692 -0.1637 -0.2668
  190MPD1    C3 2944   3.522   3.246  14.704 -0.4522 -0.0347 -0.0012
  190MPD1    C4 2945   3.392   3.266  14.739 -0.0496  0.0884 -0.0912
  190MPD1    C5 2946   3.301   3.239  14.636  0.2822 -0.5503  0.1900
  190MPD1     H 2947   3.659   3.193  14.574  0.4638  0.2354  2.1683
  190MPD1    H1 2948   3.356   3.303  14.834 -0.8608  0.1017 -0.4008
  190MPD1    H2 2949   3.260   3.135  14.447  0.3045 -1.4883  1.0442
  190MPD1    H3 2950   3.196   3.251  14.660  0.4140 -2.1863  1.5324
  190MPD1     N 2951   3.629   3.255  14.790  0.5368  0.1188  0.0024
  190MPD1    H5 2952   3.715   3.206  14.767  0.8761 -0.4053  2.4431
  190MPD1    N1 2953   3.516   3.112  14.359  0.0572  0.5293 -0.3858
  190MPD1    H6 2954   3.606   3.156  14.344  0.4161 -0.7889 -2.0033
  190MPD1    H7 2955   3.451   3.152  14.292 -1.0134 -0.4714  0.0554
  191MPD1     C 2956   2.946   0.683  13.145 -0.1205 -0.4628 -0.4573
  191MPD1    C1 2957   2.954   0.822  13.117  0.0258 -0.0037  0.0523
  191MPD1    C2 2958   3.054   0.862  13.030  0.2794 -0.4335  0.2529
  191MPD1    C3 2959   3.147   0.772  12.965 -0.0283  0.3632 -0.2563
  191MPD1    C4 2960   3.144   0.642  13.005 -0.0654 -0.3082  0.6256
  191MPD1    C5 2961   3.052   0.600  13.093 -0.0335  0.5184 -0.2581
  191MPD1     H 2962   3.041   0.963  12.995 -1.7898 -1.0532 -0.7521
  191MPD1    H1 2963   3.214   0.565  12.974 -1.2102 -0.3540 -1.7736
  191MPD1    H2 2964   2.872   0.630  13.203  1.3705 -1.7412  0.2936
  191MPD1    H3 2965   3.040   0.501  13.136 -3.0779 -0.3124 -3.0089
  191MPD1     N 2966   3.221   0.826  12.860 -0.9414 -0.2487  0.2846
  191MPD1    H5 2967   3.205   0.925  12.841 -1.1378 -0.6451 -1.6548
  191MPD1    N1 2968   2.847   0.902  13.156  0.0923  0.2567  0.2920
  191MPD1    H6 2969   2.810   0.860  13.241  2.9873 -2.1948  0.3157
  191MPD1    H7 2970   2.872   0.999  13.173  1.5930 -0.2906  1.1761
  192MPD1     C 2971   3.698   0.295  12.146  0.2568  0.0194  0.2817
  192MPD1    C1 2972   3.681   0.419  12.089 -0.5333 -0.3877 -0.2064
  192MPD1    C2 2973   3.638   0.522  12.169  0.3846  0.2697  0.3560
  192MPD1    C3 2974   3.610   0.511  12.305 -0.2326 -0.3504  0.4561
  192MPD1    C4 2975   3.640   0.390  12.362  0.8287 -0.8267 -0.1305
  192MPD1    C5 2976   3.685   0.283  12.284 -0.1676 -0.2873 -0.1738
  192MPD1     H 2977   3.621   0.621  12.128 -0.3718  0.2077  0.5169
  192MPD1    H1 2978   3.635   0.367  12.468  2.3425  0.6292  0.2552
  192MPD1    H2 2979   3.722   0.205  12.091 -2.5542 -0.2884 -0.4293
  192MPD1    H3 2980   3.697   0.183  12.323  1.4971 -0.1069 -0.2331
  192MPD1     N 2981   3.557   0.608  12.390  0.5409  0.1191  0.4819
  192MPD1    H5 2982   3.540   0.588  12.488 -0.6782 -0.1103  0.2260
  192MPD1    N1 2983   3.683   0.434  11.946  0.3898 -0.2881 -0.3142
  192MPD1    H6 2984   3.755   0.377  11.901  1.4375 -0.5451  1.6940
  192MPD1    H7 2985   3.698   0.531  11.920  1.3609  0.1625  1.9434
  193MPD1     C 2986   2.573   0.773  16.348 -0.8312  0.0152  0.3637
  193MPD1    C1 2987   2.535   0.896  16.386  0.2070 -0.6975  0.0611
  193MPD1    C2 2988   2.640   0.990  16.407  0.1788  0.2823  0.6036
  193MPD1    C3 2989   2.771   0.948  16.435  0.1794  0.1691 -0.4435
  193MPD1    C4 2990   2.792   0.814  16.440 -0.9209  0.1805 -0.0131
  193MPD1    C5 2991   2.703   0.734  16.373  0.6818  0.0257 -0.0236
  193MPD1     H 2992   2.611   1.094  16.412 -1.3236  0.0242 -3.0782
  193MPD1    H1 2993   2.890   0.786  16.476 -0.8774  2.3581  1.6114
  193MPD1    H2 2994   2.501   0.703  16.307 -1.9375  0.7976  0.9684
  193MPD1    H3 2995   2.737   0.632  16.361  0.2012 -0.3587  1.8564
  193MPD1     N 2996   2.881   1.036  16.469  0.5041 -0.1273  0.1307
  193MPD1    H5 2997   2.973   0.997  16.489 -0.4542 -0.5888  3.5576
  193MPD1    N1 2998   2.398   0.936  16.361 -0.2616 -0.1347  0.1434
  193MPD1    H6 2999   2.334   0.865  16.393  0.6563 -0.6041  0.9355
  193MPD1    H7 3000   2.370   1.021  16.409 -0.4955 -0.9106  1.3896
  194MPD1     C 3001   0.753   3.033  16.886  0.0675 -0.2234  0.2958
  194MPD1    C1 3002   0.767   3.126  16.985  0.3088  0.7268  0.2871
  194MPD1    C2 3003   0.882   3.127  17.055 -0.0610 -0.2687  0.1539
  194MPD1    C3 3004   0.985   3.032  17.045 -0.4635 -0.2453  0.4599
  194MPD1    C4 3005   0.966   2.938  16.952  0.1119 -0.4080  0.6427
  194MPD1    C5 3006   0.856   2.947  16.863  0.5052  0.4436  0.0155
  194MPD1     H 3007   0.897   3.215  17.117 -2.3141 -0.3398  0.7876
  194MPD1    H1 3008   1.044   2.873  16.916 -0.1014  0.0683 -0.6862
  194MPD1    H2 3009   0.665   3.033  16.822  1.0810 -1.3172 -1.0937
  194MPD1    H3 3010   0.846   2.879  16.779  2.7616 -0.6811  0.6503
  194MPD1     N 3011   1.089   3.022  17.134  0.1405  0.0465  0.2930
  194MPD1    H5 3012   1.158   2.948  17.123  0.5784  0.5580 -0.4044
  194MPD1    N1 3013   0.656   3.201  17.026 -0.1446 -0.3130 -0.2856
  194MPD1    H6 3014   0.589   3.215  16.951 -1.4130  1.7899  1.2429
  194MPD1    H7 3015   0.680   3.291  17.067 -0.3765  0.1833 -1.2386
  195MPD1     C 3016   3.296   0.503   0.810 -0.4788  0.5440  0.4127
  195MPD1    C1 3017   3.212   0.422   0.883 -0.4944 -0.2542 -0.2042
  195MPD1    C2 3018   3.163   0.304   0.821  0.8208 -0.0627 -0.6940
  195MPD1    C3 3019   3.211   0.265   0.702 -0.6139  0.4817 -0.0063
  195MPD1    C4 3020   3.296   0.344   0.632 -0.2598  0.3225 -0.2957
  195MPD1    C5 3021   3.345   0.457   0.690  0.3356  0.3431  0.6682
  195MPD1     H 3022   3.083   0.262   0.880  0.6564  2.3384  0.8045
  195MPD1    H1 3023   3.322   0.309   0.533 -0.0447 -2.5557  0.7589
  195MPD1    H2 3024   3.328   0.600   0.846 -0.3857  0.8717 -0.5504
  195MPD1    H3 3025   3.410   0.527   0.640 -0.7535  0.0156 -1.1779
  195MPD1     N 3026   3.163   0.151   0.637  0.3342 -0.3196  0.2201
  195MPD1    H5 3027   3.210   0.127   0.550  0.6676 -1.9768  0.8502
  195MPD1    N1 3028   3.140   0.472   0.988  0.0460 -0.3167 -0.0647
  195MPD1    H6 3029   3.109   0.405   1.058 -3.9034  2.6058  1.0059
  195MPD1    H7 3030   3.199   0.542   1.033  0.2231 -1.4149  1.3959
  196MPD1     C 3031   2.004   4.000   0.145  0.0550 -0.1359 -0.0296
  196MPD1    C1 3032   2.133   4.019   0.184  0.8321 -0.4780 -0.0904
  196MPD1    C2 3033   2.156   4.057   0.316  0.2487 -0.5379 -0.1127
  196MPD1    C3 3034   2.051   4.080   0.405 -0.5896 -0.7572 -0.1563
  196MPD1    C4 3035   1.925   4.049   0.362 -0.1671 -0.3319 -0.0684
  196MPD1    C5 3036   1.899   4.005   0.233 -0.1028  0.3990  0.2725
  196MPD1     H 3037   2.257   4.083   0.345 -0.0828  1.9683 -1.2344
  196MPD1    H1 3038   1.837   4.064   0.424  0.6360  0.7837  0.8094
  196MPD1    H2 3039   1.979   3.963   0.047 -2.9022  2.5896 -0.3130
  196MPD1    H3 3040   1.797   3.996   0.198  0.2417  3.5894 -1.5349
  196MPD1     N 3041   2.061   4.115   0.540  0.3345 -0.2364 -0.1904
  196MPD1    H5 3042   1.980   4.135   0.597 -0.2192 -0.0924 -1.0236
  196MPD1    N1 3043   2.234   4.030   0.089  0.3290  0.5614  0.7644
  196MPD1    H6 3044   2.328   4.022   0.127 -0.3564 -0.9353  2.1522
  196MPD1    H7 3045   2.229   3.976   0.003 -0.3876  1.7136  0.0807
  197MPD1     C 3046   2.097   1.759   0.225 -0.3279 -0.1592 -0.6216
  197MPD1    C1 3047   2.080   1.890   0.186  0.9596 -0.2498 -0.1831
  197MPD1    C2 3048   2.050   1.916   0.053 -0.0580 -0.0123 -0.0843
  197MPD1    C3 3049   2.036   1.819  17.723 -0.1117  0.4412  0.1130
  197MPD1    C4 3050   2.061   1.688  17.766  0.2521 -0.1471 -0.1068
  197MPD1    C5 3051   2.090   1.661   0.125  0.2403 -0.1831  0.3726
  197MPD1     H 3052   2.041   2.018   0.017  0.2386 -0.4637 -1.4334
  197MPD1    H1 3053   2.057   1.599  17.704 -3.4808 -1.2921  1.7711
  197MPD1    H2 3054   2.130   1.735   0.325 -0.2649 -0.6783 -0.7655
  197MPD1    H3 3055   2.111   1.560   0.156 -0.5573 -0.6717 -0.6592
  197MPD1     N 3056   2.005   1.841  17.589 -0.3592 -0.1267  0.8924
  197MPD1    H5 3057   2.010   1.764  17.524  0.2652  0.9036 -0.2742
  197MPD1    N1 3058   2.106   1.995   0.279  1.1369  0.1990  0.0977
  197MPD1    H6 3059   2.072   1.975   0.373  0.8211 -0.5469 -0.1714
  197MPD1    H7 3060   2.063   2.084   0.255  1.7956  0.8546  1.3290
  198MPD1     C 3061   3.540   4.492  15.840  0.5852  0.1306 -0.0660
  198MPD1    C1 3062   3.546   4.625  15.858  0.1775 -0.0375  0.4586
  198MPD1    C2 3063   3.644   4.673  15.949 -0.9079 -0.4181 -0.5451
  198MPD1    C3 3064   3.719   4.585  16.028  0.2200 -0.0410  0.0706
  198MPD1    C4 3065   3.690   4.453  16.022  0.1502  0.6038 -0.6937
  198MPD1    C5 3066   3.613   4.411  15.919  0.0347  0.1363 -0.1353
  198MPD1     H 3067   3.664   0.035  15.939 -0.8121 -0.7485 -3.7887
  198MPD1    H1 3068   3.742   4.372  16.071  0.0882  0.3275 -1.0853
  198MPD1    H2 3069   3.481   4.440  15.765 -0.5359 -0.9739  1.5924
  198MPD1    H3 3070   3.610   4.305  15.897 -0.7557 -0.1292  1.2218
  198MPD1     N 3071   3.824   4.645  16.106 -0.5247  0.1789  0.1284
  198MPD1    H5 3072   3.838   0.001  16.109 -2.7918  0.5684 -2.2300
  198MPD1    N1 3073   3.475   4.703  15.761 -0.3504  0.4318 -0.2764
  198MPD1    H6 3074   3.450   0.052  15.794  1.1747  0.3894  1.0181
  198MPD1    H7 3075   3.389   4.658  15.731  1.4545 -2.5550 -1.0052
  199MPD1     C 3076   0.591   1.810   9.509  0.3502 -0.4565  0.3243
  199MPD1    C1 3077   0.655   1.712   9.434 -0.3650  0.1034  0.0969
  199MPD1    C2 3078   0.664   1.586   9.484  0.1042  0.4029  0.8640
  199MPD1    C3 3079   0.583   1.544   9.588  0.2565 -0.5161 -0.8159
  199MPD1    C4 3080   0.519   1.635   9.658 -0.5854  0.0096  0.3089
  199MPD1    C5 3081   0.519   1.770   9.620  0.4117  0.3348 -0.0597
  199MPD1     H 3082   0.716   1.513   9.422 -0.1691  1.3884 -0.5360
  199MPD1    H1 3083   0.458   1.608   9.743 -0.3471 -2.7061 -0.3588
  199MPD1    H2 3084   0.575   1.912   9.476 -2.0995 -1.2410 -0.8938
  199MPD1    H3 3085   0.457   1.837   9.679  0.2355  0.6847 -0.6402
  199MPD1     N 3086   0.582   1.414   9.635  0.8473  0.1366  0.7284
  199MPD1    H5 3087   0.525   1.391   9.715 -0.2231 -0.5978 -0.2430
  199MPD1    N1 3088   0.723   1.750   9.312  0.0689 -0.3221  0.4068
  199MPD1    H6 3089   0.680   1.824   9.258  0.3030  1.4197  2.5710
  199MPD1    H7 3090   0.727   1.668   9.252  0.8628 -0.0971  0.1515
  200MPD1     C 3091   4.255   1.090  15.345 -0.4346  0.0977 -0.2516
  200MPD1    C1 3092   4.256   1.055  15.215 -0.3348 -0.1557 -0.2248
  200MPD1    C2 3093   4.357   1.095  15.135 -0.5814 -0.0932 -0.6464
  200MPD1    C3 3094   4.462   1.174  15.184 -0.3072 -0.5609 -0.8161
  200MPD1    C4 3095   4.453   1.217  15.312  0.3991  1.0155 -0.5825
  200MPD1    C5 3096   4.354   1.166  15.395  0.6223  0.5802  0.0603
  200MPD1     H 3097   4.357   1.066  15.031  2.8734 -0.9225 -0.4212
  200MPD1    H1 3098   4.522   1.282  15.365 -0.6625  1.2569  0.5163
  200MPD1    H2 3099   4.171   1.079  15.412 -0.8017 -0.7111 -0.8514
  200MPD1    H3 3100   4.345   1.193  15.500 -0.1653 -2.3178  0.7414
  200MPD1     N 3101   4.562   1.215  15.091 -0.7948 -0.6157  0.0456
  200MPD1    H5 3102   4.546   1.184  14.996  2.8111 -1.7539 -0.2094
  200MPD1    N1 3103   4.136   1.004  15.155  0.2058 -0.5612 -0.0068
  200MPD1    H6 3104   4.160   0.944  15.076  1.5299 -1.6078  1.1908
  200MPD1    H7 3105   4.069   0.962  15.219 -0.3386 -3.4218 -2.4571
  201MPD1     C 3106   1.930   0.154  12.774  0.3247  0.5512 -0.7256
  201MPD1    C1 3107   1.874   0.027  12.793  0.6462  0.1242 -0.1695
  201MPD1    C2 3108   1.929   4.679  12.886 -0.0379  0.9996  0.0295
  201MPD1    C3 3109   2.034   4.724  12.973 -0.4973  0.3338 -0.3184
  201MPD1    C4 3110   2.067   0.120  12.963  0.3946  1.0656 -1.0967
  201MPD1    C5 3111   2.025   0.198  12.865 -0.1681  0.6588  0.6869
  201MPD1     H 3112   1.907   4.574  12.870  0.6368  1.1361 -1.7173
  201MPD1    H1 3113   2.138   0.158  13.035 -2.3665  0.7190  1.8018
  201MPD1    H2 3114   1.902   0.210  12.686 -0.9298 -0.5488 -1.0282
  201MPD1    H3 3115   2.078   0.291  12.847 -0.0552  0.7186  1.3504
  201MPD1     N 3116   2.078   4.636  13.071  0.2064  0.3277 -0.2856
  201MPD1    H5 3117   2.015   4.558  13.089  1.4138 -0.8936 -1.4404
  201MPD1    N1 3118   1.791   4.728  12.696  0.0377 -0.4489 -0.2463
  201MPD1    H6 3119   1.718   0.054  12.680  0.0821 -0.7086 -1.5841
  201MPD1    H7 3120   1.753   4.640  12.729  0.5130 -0.3928  0.4552
  202MPD1     C 3121   1.432   4.241   9.137 -0.1999  0.6081 -0.5361
  202MPD1    C1 3122   1.397   4.371   9.156 -0.8818 -1.0539 -0.1776
  202MPD1    C2 3123   1.469   4.454   9.238 -0.7100 -0.1694 -0.0798
  202MPD1    C3 3124   1.553   4.401   9.329  0.7875 -0.2897  0.1068
  202MPD1    C4 3125   1.578   4.265   9.318 -0.6441  0.6527 -0.4291
  202MPD1    C5 3126   1.526   4.192   9.216 -0.1027  0.1882  0.6739
  202MPD1     H 3127   1.443   4.559   9.236  2.4124  0.6179  0.5172
  202MPD1    H1 3128   1.638   4.209   9.389  0.3314  1.0523 -0.9471
  202MPD1    H2 3129   1.391   4.181   9.056  0.4886 -0.8100  0.1618
  202MPD1    H3 3130   1.560   4.089   9.208  0.3099  0.2430  1.7578
  202MPD1     N 3131   1.611   4.470   9.439 -0.3924  0.5358 -0.4039
  202MPD1    H5 3132   1.662   4.423   9.513  0.6849  0.0161 -1.4837
  202MPD1    N1 3133   1.312   4.440   9.063  0.0421  0.1900 -0.3710
  202MPD1    H6 3134   1.281   4.524   9.111 -0.4714 -0.0932 -0.2096
  202MPD1    H7 3135   1.228   4.387   9.039 -0.4326  0.3531  0.9781
  203MPD1     C 3136   0.670   0.261  13.285 -0.2688  0.5943 -0.5379
  203MPD1    C1 3137   0.646   0.192  13.170  0.3895 -0.8946 -0.5342
  203MPD1    C2 3138   0.756   0.140  13.102 -0.3474  0.1420  0.2787
  203MPD1    C3 3139   0.880   0.146  13.168  0.7993  0.3740  0.4925
  203MPD1    C4 3140   0.903   0.194  13.298 -0.0805 -0.6810  0.4537
  203MPD1    C5 3141   0.791   0.253  13.358 -0.4785  0.1496 -0.1191
  203MPD1     H 3142   0.744   0.101  13.002  1.5975 -1.7738  0.7830
  203MPD1    H1 3143   0.994   0.186  13.356  1.0487  1.7158 -1.0134
  203MPD1    H2 3144   0.595   0.305  13.350  0.9647 -1.5156  2.3236
  203MPD1    H3 3145   0.794   0.294  13.458 -0.1664 -1.8429  0.6876
  203MPD1     N 3146   0.983   0.074  13.100 -0.1856 -0.1825 -0.7199
  203MPD1    H5 3147   0.956   0.033  13.011  0.2665 -0.8706 -0.5392
  203MPD1    N1 3148   0.519   0.206  13.114  0.7488  0.7071  0.4506
  203MPD1    H6 3149   0.445   0.196  13.184  1.7195  1.3041  1.5774
  203MPD1    H7 3150   0.500   0.149  13.032  0.8654  0.3565  0.6678
  204MPD1     C 3151   0.780   2.259  17.757 -0.7935 -0.4662 -0.8022
  204MPD1    C1 3152   0.830   2.278  17.632  0.7772  0.1704  0.2342
  204MPD1    C2 3153   0.873   2.171  17.558  0.0457 -0.0181 -0.2022
  204MPD1    C3 3154   0.857   2.047  17.611  0.2745  0.0338  0.0538
  204MPD1    C4 3155   0.786   2.029  17.726  0.1542 -0.6898  0.5995
  204MPD1    C5 3156   0.734   2.135   0.019 -0.5948 -0.0324  0.0857
  204MPD1     H 3157   0.919   2.195  17.463  0.0630 -0.0345 -0.1979
  204MPD1    H1 3158   0.775   1.927  17.759 -0.2854 -0.4811  1.0914
  204MPD1    H2 3159   0.750   2.339   0.052  1.3799 -0.0325 -0.3460
  204MPD1    H3 3160   0.682   2.123   0.114 -1.2205  2.1308  0.0195
  204MPD1     N 3161   0.918   1.943  17.539 -0.6292 -0.0632 -0.0945
  204MPD1    H5 3162   0.968   1.973  17.456  0.8444 -0.0583  0.8054
  204MPD1    N1 3163   0.888   2.401  17.597  0.3421 -0.1166  0.1255
  204MPD1    H6 3164   0.846   2.477  17.650  0.3816 -0.1529  0.2084
  204MPD1    H7 3165   0.897   2.431  17.500 -1.9062 -3.5886 -1.1521
  205MPD1     C 3166   0.577   1.093  16.376 -0.3537  0.2811 -0.1357
  205MPD1    C1 3167   0.618   0.964  16.376  0.1740 -0.2543 -0.3565
  205MPD1    C2 3168   0.657   0.909  16.499  1.0099 -0.1176  0.0519
  205MPD1    C3 3169   0.675   0.988  16.615  0.4050 -0.2464 -1.0707
  205MPD1    C4 3170   0.630   1.124  16.612 -0.5928  0.3743  0.6208
  205MPD1    C5 3171   0.584   1.167  16.493 -0.6485  0.1016 -0.4330
  205MPD1     H 3172   0.668   0.801  16.493  0.5700 -0.2006  0.6946
  205MPD1    H1 3173   0.627   1.190  16.698 -3.1156 -0.6795  1.3379
  205MPD1    H2 3174   0.546   1.141  16.284  0.0477 -0.4162 -0.6308
  205MPD1    H3 3175   0.541   1.266  16.487 -0.6098  0.0050 -2.3384
  205MPD1     N 3176   0.726   0.937  16.739 -1.0090  0.0038 -0.1027
  205MPD1    H5 3177   0.725   0.998  16.820 -2.3968  1.1698 -0.9866
  205MPD1    N1 3178   0.591   0.871  16.273  0.3954  0.5419  0.0006
  205MPD1    H6 3179   0.608   0.925  16.188  1.2025  4.6342  2.7157
  205MPD1    H7 3180   0.657   0.794  16.269  0.4345  0.5895 -0.3144
  206MPD1     C 3181   1.548   3.315  16.982  0.0063  0.3866 -0.9773
  206MPD1    C1 3182   1.441   3.386  17.023 -0.7351 -0.0726  0.4259
  206MPD1    C2 3183   1.318   3.344  16.977 -0.6138  0.1422 -0.5726
  206MPD1    C3 3184   1.296   3.248  16.886  0.0831 -0.5334 -0.6191
  206MPD1    C4 3185   1.402   3.170  16.847 -0.4616  0.0468 -0.4870
  206MPD1    C5 3186   1.525   3.204  16.905  0.4732 -0.8034  0.1967
  206MPD1     H 3187   1.234   3.409  16.996  1.2110  1.7701  2.0873
  206MPD1    H1 3188   1.392   3.091  16.774 -1.8894  1.2961 -1.6426
  206MPD1    H2 3189   1.649   3.333  17.016 -0.8124  3.1352 -0.0389
  206MPD1    H3 3190   1.616   3.153  16.876  1.0315  1.0839 -1.4147
  206MPD1     N 3191   1.171   3.232  16.818 -0.8931  0.2985 -0.0049
  206MPD1    H5 3192   1.171   3.150  16.758 -1.5764  1.4966 -1.6391
  206MPD1    N1 3193   1.456   3.482  17.123  0.1733 -0.2577  0.0670
  206MPD1    H6 3194   1.553   3.513  17.127  0.6105 -1.4345 -1.1395
  206MPD1    H7 3195   1.391   3.559  17.106 -0.5958 -0.7110  0.9646
  207MPD1     C 3196   2.792   1.610  10.140 -0.8798  0.0730 -0.0316
  207MPD1    C1 3197   2.867   1.721  10.102 -0.0190 -0.4371  0.9145
  207MPD1    C2 3198   2.980   1.754  10.171  0.1953 -0.0509 -0.3320
  207MPD1    C3 3199   3.009   1.680  10.288  0.2735  0.0636 -0.4844
  207MPD1    C4 3200   2.939   1.560  10.318 -0.5893  0.6596 -0.3457
  207MPD1    C5 3201   2.837   1.523  10.237 -0.5352  0.4561  0.4618
  207MPD1     H 3202   3.041   1.839  10.139  0.5748  0.0245  0.6053
  207MPD1    H1 3203   2.958   1.506  10.410 -1.5181 -0.4159 -0.7841
  207MPD1    H2 3204   2.692   1.602  10.100 -0.8832  0.5891 -0.1264
  207MPD1    H3 3205   2.776   1.439  10.265  1.0413 -1.1437 -0.8476
  207MPD1     N 3206   3.105   1.721  10.383  0.2605  0.6623 -0.1302
  207MPD1    H5 3207   3.119   1.660  10.463  0.0865 -0.6737 -1.1238
  207MPD1    N1 3208   2.833   1.778   9.977 -0.3437  0.1587  0.3826
  207MPD1    H6 3209   2.735   1.771   9.948  0.0070 -2.3358 -0.2463
  207MPD1    H7 3210   2.857   1.876   9.970  3.4409 -0.8270 -0.2085
  208MPD1     C 3211   1.213   4.449  15.939  0.2364 -0.3645 -0.0519
  208MPD1    C1 3212   1.261   4.375  16.040  0.8159  0.3618 -0.0487
  208MPD1    C2 3213   1.203   4.395  16.162 -0.0587 -0.4606 -0.3233
  208MPD1    C3 3214   1.082   4.464  16.186 -0.6773  0.3918  0.0526
  208MPD1    C4 3215   1.015   4.507  16.069  0.1608  0.6458  0.2874
  208MPD1    C5 3216   1.091   4.514  15.956 -0.2056 -0.2444  0.7565
  208MPD1     H 3217   1.248   4.339  16.243  0.2194  1.8899  1.1354
  208MPD1    H1 3218   0.919   4.558  16.068 -0.7271 -0.9574  1.5809
  208MPD1    H2 3219   1.269   4.475  15.849  0.1888 -0.4605 -0.1089
  208MPD1    H3 3220   1.041   4.575  15.882  0.2608 -0.7285  0.0405
  208MPD1     N 3221   1.027   4.468  16.319 -0.1715  0.0713  0.5207
  208MPD1    H5 3222   1.077   4.414  16.389  0.8710 -0.7117 -0.8225
  208MPD1    N1 3223   1.370   4.291  16.021  0.3749 -0.6664  0.0842
  208MPD1    H6 3224   1.399   4.298  15.923  0.2922  4.6372  0.4522
  208MPD1    H7 3225   1.439   4.323  16.088  1.8738 -2.1213 -0.7546
  209MPD1     C 3226   2.321   0.971  10.380 -0.5671 -0.0803 -0.2152
  209MPD1    C1 3227   2.394   1.091  10.388 -0.4710  0.3567 -0.4486
  209MPD1    C2 3228   2.498   1.094  10.481  0.8024  0.0721 -0.0985
  209MPD1    C3 3229   2.516   0.995  10.579  0.2911  0.3664 -0.9711
  209MPD1    C4 3230   2.422   0.888  10.583  0.4822  0.6347  1.2857
  209MPD1    C5 3231   2.327   0.879  10.480 -0.0739 -0.2172  0.0435
  209MPD1     H 3232   2.571   1.174  10.480  0.7328  0.1447  0.6969
  209MPD1    H1 3233   2.423   0.806  10.654 -0.4737 -1.6066 -1.3036
  209MPD1    H2 3234   2.252   0.961  10.297 -1.3695  2.3219  0.1550
  209MPD1    H3 3235   2.252   0.801  10.485 -1.5288  1.2484  0.8300
  209MPD1     N 3236   2.631   1.008  10.666 -0.1875 -0.1159  0.5200
  209MPD1    H5 3237   2.688   1.091  10.665 -0.6411  0.2053  1.3205
  209MPD1    N1 3238   2.386   1.189  10.290 -0.1534  0.6383  0.3116
  209MPD1    H6 3239   2.395   1.282  10.330  1.8686  1.0659 -1.1488
  209MPD1    H7 3240   2.301   1.181  10.235  0.5920 -0.2223 -0.6982
  210MPD1     C 3241   2.904   0.355  11.414 -0.2232 -0.0339  0.8010
  210MPD1    C1 3242   2.985   0.467  11.422 -0.1960  0.2597  0.3985
  210MPD1    C2 3243   2.990   0.566  11.323 -0.0010 -0.2920  0.4720
  210MPD1    C3 3244   2.893   0.571  11.224 -0.0955  0.0289 -0.3693
  210MPD1    C4 3245   2.798   0.468  11.220 -0.3601 -0.4847  0.1230
  210MPD1    C5 3246   2.806   0.367  11.313 -0.1820 -0.1830  0.3259
  210MPD1     H 3247   3.050   0.655  11.335 -2.2762  1.0321  1.8464
  210MPD1    H1 3248   2.732   0.461  11.135 -0.8698  0.9507  0.3853
  210MPD1    H2 3249   2.891   0.267  11.476 -2.3726  0.3632  0.9367
  210MPD1    H3 3250   2.739   0.282  11.315  0.6273 -0.8802 -2.1563
  210MPD1     N 3251   2.885   0.676  11.128 -1.3141  0.4191 -0.2080
  210MPD1    H5 3252   2.807   0.654  11.066 -0.5807  0.2525 -1.0667
  210MPD1    N1 3253   3.085   0.463  11.522  0.4489  0.5204  0.0154
  210MPD1    H6 3254   3.077   0.394  11.597  0.9939 -0.2516 -0.6354
  210MPD1    H7 3255   3.113   0.557  11.548 -0.4949  0.1167  2.4703
  211MPD1     C 3256   1.286   0.515  17.179  0.2007 -0.1140  0.5190
  211MPD1    C1 3257   1.293   0.432  17.059  0.7394  0.0652  0.2796
  211MPD1    C2 3258   1.270   0.495  16.936 -0.1614 -0.5145  0.0561
  211MPD1    C3 3259   1.233   0.624  16.934  0.6210  0.0149  0.5593
  211MPD1    C4 3260   1.240   0.706  17.047  0.4582  0.2683  0.1944
  211MPD1    C5 3261   1.258   0.647  17.166 -0.5038  0.1197 -0.3502
  211MPD1     H 3262   1.277   0.438  16.845  0.2262  0.0795 -0.2860
  211MPD1    H1 3263   1.227   0.813  17.041  1.9973  0.4675  0.5423
  211MPD1    H2 3264   1.289   0.466  17.276  0.5145 -1.1884 -0.0248
  211MPD1    H3 3265   1.259   0.709  17.255  2.0534  0.1534 -0.4222
  211MPD1     N 3266   1.192   0.668  16.806 -0.0079 -0.4167  0.0094
  211MPD1    H5 3267   1.203   0.607  16.725 -1.8247 -1.2360  0.3967
  211MPD1    N1 3268   1.305   0.299  17.062  0.7718  0.2097 -0.0168
  211MPD1    H6 3269   1.339   0.271  16.970  0.7803 -0.4701  0.1910
  211MPD1    H7 3270   1.358   0.263  17.142 -2.2054 -0.3785  1.6852
  212MPD1     C 3271   0.189   3.883  16.589  0.3809  0.0650  0.3564
  212MPD1    C1 3272   0.274   3.796  16.659  0.4296  0.9902 -0.2709
  212MPD1    C2 3273   0.220   3.675  16.701  0.0352 -0.3730  0.4249
  212MPD1    C3 3274   0.085   3.642  16.669 -0.2955 -0.1515  0.3124
  212MPD1    C4 3275   0.010   3.729  16.598  0.7602 -0.4610  0.1521
  212MPD1    C5 3276   0.062   3.850  16.556 -0.9189 -0.2428  0.5290
  212MPD1     H 3277   0.276   3.598  16.755  1.8790  1.8369  1.6836
  212MPD1    H1 3278   4.649   3.707  16.582  1.3173 -2.7012 -0.4145
  212MPD1    H2 3279   0.226   3.981  16.561 -2.9265  0.6191 -2.0715
  212MPD1    H3 3280   0.002   3.916  16.495  0.7053 -2.0268 -2.9820
  212MPD1     N 3281   0.023   3.518  16.705 -0.6687  0.4427  0.6152
  212MPD1    H5 3282   4.666   3.514  16.692 -0.6725 -1.7069  1.3315
  212MPD1    N1 3283   0.399   3.844  16.697  0.9941  0.4447 -0.0868
  212MPD1    H6 3284   0.461   3.765  16.713 -0.9608 -0.9234  0.8909
  212MPD1    H7 3285   0.438   3.913  16.634 -0.1120 -0.1130 -1.3718
  213MPD1     C 3286   3.102   3.675  15.535  0.1774 -0.0020 -0.4227
  213MPD1    C1 3287   3.146   3.799  15.493  0.0595  0.0840  0.2980
  213MPD1    C2 3288   3.063   3.866  15.395  0.6592 -0.0994 -0.1241
  213MPD1    C3 3289   2.932   3.839  15.375 -0.0163  0.2767 -0.0474
  213MPD1    C4 3290   2.879   3.731  15.446 -0.7708  0.0937 -0.1673
  213MPD1    C5 3291   2.965   3.652  15.522  0.0097 -1.0231  0.9724
  213MPD1     H 3292   3.107   3.956  15.354 -1.9498  1.2411 -0.0003
  213MPD1    H1 3293   2.779   3.691  15.440 -0.4046 -0.5819 -1.6840
  213MPD1    H2 3294   3.158   3.592  15.578 -0.4489  0.3921  1.1534
  213MPD1    H3 3295   2.921   3.560  15.557  0.2388 -1.9653 -1.2082
  213MPD1     N 3296   2.860   3.914  15.279  0.7554  0.3280  0.2417
  213MPD1    H5 3297   2.905   4.001  15.252  2.0826 -0.1755  0.8059
  213MPD1    N1 3298   3.287   3.821  15.490 -0.3911  0.3073 -0.0584
  213MPD1    H6 3299   3.310   3.918  15.468  3.0420  0.1276  2.7630
  213MPD1    H7 3300   3.335   3.784  15.572  1.3144 -0.7648 -1.5469
  214MPD1     C 3301   1.871   3.822  15.033  0.1584 -0.2890  0.0808
  214MPD1    C1 3302   1.941   3.848  14.920  0.0332  0.4535  0.4195
  214MPD1    C2 3303   2.067   3.894  14.941 -0.4913 -0.4400 -0.7872
  214MPD1    C3 3304   2.131   3.899  15.065 -0.0851  0.4661 -0.1510
  214MPD1    C4 3305   2.055   3.866  15.174  0.4071  0.5091 -0.4827
  214MPD1    C5 3306   1.926   3.831  15.157 -0.9741 -0.2348  0.7229
  214MPD1     H 3307   2.123   3.929  14.855 -0.8034 -0.6114 -1.0552
  214MPD1    H1 3308   2.096   3.863  15.274 -1.2783  2.0504  0.2574
  214MPD1    H2 3309   1.768   3.788  15.022  0.8020 -2.7136  1.6492
  214MPD1    H3 3310   1.867   3.817  15.247  3.0434  0.7745  3.5020
  214MPD1     N 3311   2.262   3.954  15.085 -0.1286  0.1180  0.4566
  214MPD1    H5 3312   2.296   3.954  15.181  1.1309 -0.2158  0.0078
  214MPD1    N1 3313   1.881   3.854  14.797  0.2205 -0.0697  0.3433
  214MPD1    H6 3314   1.954   3.823  14.733 -1.9037 -0.9331 -1.6792
  214MPD1    H7 3315   1.804   3.787  14.796  0.7905 -0.7471  1.0174
  215MPD1     C 3316   2.019   0.176  11.350  0.1149  0.9006  0.3289
  215MPD1    C1 3317   2.071   0.194  11.471 -0.1616 -0.3624  1.0981
  215MPD1    C2 3318   2.180   0.282  11.482 -0.0193  0.1255  0.6914
  215MPD1    C3 3319   2.208   0.372  11.389 -0.1713  0.5382 -0.5422
  215MPD1    C4 3320   2.152   0.353  11.260 -0.3545 -0.0832  0.5444
  215MPD1    C5 3321   2.051   0.262  11.248 -0.3237  0.7940  0.4666
  215MPD1     H 3322   2.228   0.291  11.579  1.1175 -2.1888  0.3496
  215MPD1    H1 3323   2.173   0.423  11.179  0.1259  0.3578  1.0433
  215MPD1    H2 3324   1.943   0.100  11.330  2.3426 -1.5881  1.3880
  215MPD1    H3 3325   2.001   0.265  11.152 -1.0572  0.4276  0.8324
  215MPD1     N 3326   2.310   0.465  11.422  0.6611 -0.3788 -0.0083
  215MPD1    H5 3327   2.337   0.463  11.520  0.4340  3.3773  0.1493
  215MPD1    N1 3328   2.046   0.103  11.569 -0.0360  0.7696 -0.2268
  215MPD1    H6 3329   1.965   0.044  11.554 -0.0998  0.7719  0.1009
  215MPD1    H7 3330   2.036   0.159  11.654  0.1416  0.4101  0.0324
  216MPD1     C 3331   0.775   2.323  16.699 -0.1190  0.7525  0.3084
  216MPD1    C1 3332   0.637   2.322  16.691 -0.3831  0.1638 -0.5553
  216MPD1    C2 3333   0.572   2.317  16.808  0.2097  0.3452  0.2612
  216MPD1    C3 3334   0.633   2.304  16.931  0.6689 -0.5485  0.8246
  216MPD1    C4 3335   0.768   2.292  16.939 -0.3249  0.1486  0.0146
  216MPD1    C5 3336   0.839   2.307  16.820  0.1216  0.2391 -0.2965
  216MPD1     H 3337   0.463   2.318  16.808  0.2315  1.8284  1.0796
  216MPD1    H1 3338   0.820   2.286  17.033  0.7500 -0.8621 -0.6480
  216MPD1    H2 3339   0.838   2.312  16.612 -1.3566 -3.1376 -0.0909
  216MPD1    H3 3340   0.947   2.295  16.814  0.1209 -0.0624  0.2749
  216MPD1     N 3341   0.558   2.291  17.050  0.2772 -0.1689  1.0795
  216MPD1    H5 3342   0.457   2.295  17.036  0.1707 -0.4099  1.7602
  216MPD1    N1 3343   0.574   2.348  16.571 -0.1412 -0.0061  0.0328
  216MPD1    H6 3344   0.489   2.293  16.576 -0.4554  0.3732 -1.2137
  216MPD1    H7 3345   0.622   2.297  16.496 -0.5773  0.6760 -0.7067
  217MPD1     C 3346   4.497   4.078   9.218  0.1176  0.3778 -0.0806
  217MPD1    C1 3347   4.603   4.031   9.149 -0.7175  0.4954  0.4733
  217MPD1    C2 3348   4.714   4.114   9.134 -0.5251  0.2583  0.2396
  217MPD1    C3 3349   4.720   4.232   9.208 -0.2002  0.9782  0.4354
  217MPD1    C4 3350   4.612   4.276   9.284 -0.1693 -0.7944  0.1894
  217MPD1    C5 3351   4.499   4.197   9.288  0.5937 -0.3529  0.3746
  217MPD1     H 3352   0.056   4.089   9.073 -0.3045 -0.5547  0.8773
  217MPD1    H1 3353   4.620   4.360   9.351 -0.7075  2.3697 -3.7104
  217MPD1    H2 3354   4.405   4.022   9.230 -0.1671  0.8929  0.1307
  217MPD1    H3 3355   4.427   4.226   9.364  0.8282  0.7111  0.1902
  217MPD1     N 3356   0.094   4.311   9.208  1.0900  0.0986 -0.0647
  217MPD1    H5 3357   0.087   4.387   9.274  1.8545  0.6980 -0.6877
  217MPD1    N1 3358   4.594   3.919   9.067  0.1824 -0.2920  0.1514
  217MPD1    H6 3359   4.529   3.850   9.106  1.0699 -0.9556  0.4616
  217MPD1    H7 3360   4.681   3.872   9.044 -0.6579 -1.9770  0.3470
  218MPD1     C 3361   2.151   0.434  13.126 -0.1595 -0.4738  0.0394
  218MPD1    C1 3362   2.261   0.354  13.158 -0.2914  0.2532 -0.3821
  218MPD1    C2 3363   2.386   0.381  13.100 -0.2972 -0.1736  0.4904
  218MPD1    C3 3364   2.393   0.483  13.007 -0.2550 -0.0475  0.2578
  218MPD1    C4 3365   2.277   0.548  12.957  0.2570 -0.1810 -0.4562
  218MPD1    C5 3366   2.161   0.525  13.020 -0.3073 -0.2538 -0.2019
  218MPD1     H 3367   2.468   0.324  13.141 -0.0826 -1.4511 -1.6660
  218MPD1    H1 3368   2.271   0.634  12.891 -1.2172  0.4034  0.4424
  218MPD1    H2 3369   2.057   0.422  13.179 -0.1511  3.2268  0.8467
  218MPD1    H3 3370   2.073   0.581  12.992 -1.0733 -1.3633 -0.0310
  218MPD1     N 3371   2.526   0.526  12.975 -0.4577 -0.1075  0.0268
  218MPD1    H5 3372   2.600   0.485  13.031  0.5967  0.4360 -0.9710
  218MPD1    N1 3373   2.252   0.266  13.267 -0.1934 -0.5051 -0.7822
  218MPD1    H6 3374   2.307   0.184  13.241  0.6369  0.2245 -1.3506
  218MPD1    H7 3375   2.155   0.243  13.287  1.4902 -3.8883  3.6341
  219MPD1     C 3376   3.211   1.159  12.387 -0.0012 -0.1528 -0.2261
  219MPD1    C1 3377   3.156   1.188  12.511  0.4367  0.0245 -0.6331
  219MPD1    C2 3378   3.060   1.098  12.571 -0.0774 -0.0196  0.1561
  219MPD1    C3 3379   3.041   0.971  12.511 -0.1080  0.6625 -0.2492
  219MPD1    C4 3380   3.097   0.947  12.387 -0.2357 -0.2068  0.6102
  219MPD1    C5 3381   3.173   1.043  12.329 -0.2473 -0.4510  0.2449
  219MPD1     H 3382   3.016   1.128  12.665 -1.2398 -1.7338  0.1597
  219MPD1    H1 3383   3.098   0.849  12.341 -0.8309 -0.5148  1.2613
  219MPD1    H2 3384   3.290   1.219  12.343  0.1316 -1.4273 -1.7388
  219MPD1    H3 3385   3.228   1.024  12.237 -0.3595 -2.1495  0.5179
  219MPD1     N 3386   2.971   0.861  12.574 -0.2633 -0.0483  0.3106
  219MPD1    H5 3387   2.961   0.771  12.528 -0.4766  0.0331  0.1986
  219MPD1    N1 3388   3.193   1.308  12.579  0.7536 -0.3800 -1.2353
  219MPD1    H6 3389   3.214   1.377  12.508 -0.8116  0.8840 -0.4669
  219MPD1    H7 3390   3.115   1.353  12.626 -0.5079 -3.4569 -0.3597
  220MPD1     C 3391   1.797   1.896  10.307 -0.3528 -0.1368  0.5206
  220MPD1    C1 3392   1.921   1.906  10.367 -0.7842 -0.1794  0.4706
  220MPD1    C2 3393   1.975   1.782  10.411  0.2206 -0.5529 -0.0474
  220MPD1    C3 3394   1.910   1.659  10.410  0.5113  0.4199 -0.4282
  220MPD1    C4 3395   1.783   1.660  10.359  0.0296 -0.0368  0.9884
  220MPD1    C5 3396   1.728   1.779  10.314 -0.5515 -0.0842  0.0251
  220MPD1     H 3397   2.073   1.775  10.457  0.1362 -2.0637 -0.0923
  220MPD1    H1 3398   1.723   1.569  10.359  0.1885 -0.1384  0.1033
  220MPD1    H2 3399   1.752   1.985  10.265  1.8574  0.9969  0.5840
  220MPD1    H3 3400   1.634   1.779  10.261 -0.0955  1.6665 -0.7727
  220MPD1     N 3401   1.977   1.545  10.464 -0.3604 -0.0149  0.0074
  220MPD1    H5 3402   2.073   1.553  10.499 -0.4381 -1.2141  0.5008
  220MPD1    N1 3403   2.002   2.020  10.353 -0.9182  0.2677 -0.5647
  220MPD1    H6 3404   1.944   2.103  10.342  1.1032  1.8911  1.1742
  220MPD1    H7 3405   2.062   2.036  10.434 -2.4709  1.7908  0.2925
  221MPD1     C 3406   0.516   4.415  17.265 -0.2156 -0.5587 -0.7127
  221MPD1    C1 3407   0.608   4.404  17.366 -0.0297  0.1589 -0.2279
  221MPD1    C2 3408   0.731   4.356  17.343  0.0485 -0.3250  0.1023
  221MPD1    C3 3409   0.767   4.327  17.210 -0.1786  0.2687 -0.0462
  221MPD1    C4 3410   0.678   4.347  17.107 -0.0332 -0.7491  0.8307
  221MPD1    C5 3411   0.555   4.393  17.135 -0.3182  0.5853 -0.3481
  221MPD1     H 3412   0.802   4.349  17.425  1.2336 -2.2262 -1.0845
  221MPD1    H1 3413   0.706   4.330  17.004  1.3852  0.6213  0.9940
  221MPD1    H2 3414   0.412   4.436  17.288 -0.5807 -0.5414 -2.3881
  221MPD1    H3 3415   0.477   4.413  17.063 -0.0082  2.2317 -0.2230
  221MPD1     N 3416   0.889   4.272  17.170 -0.5326  0.3497 -1.1270
  221MPD1    H5 3417   0.894   4.244  17.072  1.0245 -3.6747  0.1018
  221MPD1    N1 3418   0.577   4.458  17.491  0.3776 -0.1405  0.2376
  221MPD1    H6 3419   0.479   4.439  17.513  0.0779 -0.0934 -1.0619
  221MPD1    H7 3420   0.639   4.426  17.565  1.7399 -2.7848 -2.0624
  222MPD1     C 3421   3.912   3.016  17.641  0.1494 -0.2556 -0.8973
  222MPD1    C1 3422   4.046   3.050  17.657  0.4758  0.1807  0.4673
  222MPD1    C2 3423   4.093   3.104   0.007 -0.2925 -0.3369 -0.4145
  222MPD1    C3 3424   4.002   3.131   0.110 -0.2950 -0.2882 -0.1061
  222MPD1    C4 3425   3.868   3.106   0.085  0.6233  0.5310  0.5856
  222MPD1    C5 3426   3.825   3.045  17.744 -0.6745  0.0389 -0.2569
  222MPD1     H 3427   4.200   3.114   0.018 -0.5345  1.7210  0.0978
  222MPD1    H1 3428   3.792   3.131   0.158 -0.8051  0.0419 -0.7274
  222MPD1    H2 3429   3.876   2.959  17.556 -2.2819  0.3415 -0.2370
  222MPD1    H3 3430   3.725   3.003  17.738 -0.1368 -1.3095  0.2822
  222MPD1     N 3431   4.032   3.190   0.239  0.4684  0.1793 -0.6579
  222MPD1    H5 3432   3.956   3.216   0.301  1.7640 -2.1039  1.8468
  222MPD1    N1 3433   4.139   3.020  17.556  0.2539  0.3621  0.3398
  222MPD1    H6 3434   4.123   3.023  17.456 -0.7664  3.0395  0.6075
  222MPD1    H7 3435   4.219   3.082  17.564  0.3381  0.8815 -4.6926
  223MPD1     C 3436   3.436   3.308   0.841 -0.4587 -0.3153 -0.0543
  223MPD1    C1 3437   3.450   3.315   0.705 -0.4040  0.2725 -0.2200
  223MPD1    C2 3438   3.573   3.295   0.647 -0.1101 -0.4068  0.0368
  223MPD1    C3 3439   3.687   3.272   0.722  0.5183  0.0898  0.3064
  223MPD1    C4 3440   3.670   3.289   0.857  0.3912  0.0923 -0.1917
  223MPD1    C5 3441   3.552   3.312   0.913 -0.1428 -0.3621 -0.0194
  223MPD1     H 3442   3.579   3.290   0.539 -1.5344  2.5132 -0.1847
  223MPD1    H1 3443   3.750   3.308   0.928 -0.6441 -1.5211  1.4099
  223MPD1    H2 3444   3.344   3.315   0.897 -0.9743  0.2217 -0.9726
  223MPD1    H3 3445   3.551   3.326   1.021 -0.3911  2.4695 -0.3877
  223MPD1     N 3446   3.813   3.264   0.660 -0.4449  0.2258 -0.1553
  223MPD1    H5 3447   3.811   3.252   0.559 -1.8046  0.6998 -0.1823
  223MPD1    N1 3448   3.331   3.305   0.628  0.4445 -0.3603  0.3248
  223MPD1    H6 3449   3.332   3.371   0.551 -0.6846  0.9965  1.4874
  223MPD1    H7 3450   3.252   3.333   0.685  0.2000  0.3921 -0.3784
  224MPD1     C 3451   0.928   0.522   8.806  0.0607  0.8397  0.2463
  224MPD1    C1 3452   0.835   0.585   8.883  0.4831  0.5061  0.2531
  224MPD1    C2 3453   0.847   0.598   9.019 -0.0146  0.0012  0.1216
  224MPD1    C3 3454   0.955   0.540   9.085 -0.4452  0.1267  0.0524
  224MPD1    C4 3455   1.041   0.461   9.007 -0.1688 -0.2527 -0.3833
  224MPD1    C5 3456   1.029   0.458   8.868 -0.2666  0.2161 -0.1681
  224MPD1     H 3457   0.786   0.668   9.074  0.4727 -0.4341  1.2108
  224MPD1    H1 3458   1.115   0.402   9.061  1.1825  1.7121 -0.0911
  224MPD1    H2 3459   0.927   0.538   8.699  0.4991  0.6768  0.2175
  224MPD1    H3 3460   1.105   0.405   8.812 -0.0124  1.5127 -1.0392
  224MPD1     N 3461   0.976   0.546   9.221  0.0108  0.1465 -0.5309
  224MPD1    H5 3462   1.058   0.505   9.265 -1.2281  0.3570  1.9737
  224MPD1    N1 3463   0.744   0.666   8.817 -0.1598  0.2329  0.7272
  224MPD1    H6 3464   0.734   0.642   8.719 -2.8745 -0.6578  1.2215
  224MPD1    H7 3465   0.660   0.693   8.868 -1.2733 -0.3568 -0.8196
  225MPD1     C 3466   2.961   1.276  12.155 -0.5327 -0.7540 -0.1720
  225MPD1    C1 3467   2.850   1.210  12.098 -0.1947  0.3022  0.0450
  225MPD1    C2 3468   2.727   1.229  12.160 -0.5639  0.2317  0.4880
  225MPD1    C3 3469   2.721   1.283  12.292 -0.5917 -0.1468 -0.5546
  225MPD1    C4 3470   2.839   1.331  12.340 -0.5724  0.5897  0.5755
  225MPD1    C5 3471   2.959   1.324  12.278  0.4589  0.1480  0.4638
  225MPD1     H 3472   2.636   1.192  12.115 -1.5910 -0.1588  2.8788
  225MPD1    H1 3473   2.848   1.367  12.442  0.0275  3.0695 -0.3486
  225MPD1    H2 3474   3.058   1.280  12.105 -0.6416 -0.4681 -0.3575
  225MPD1    H3 3475   3.046   1.374  12.319  1.6830  0.1489 -2.1227
  225MPD1     N 3476   2.610   1.286  12.373  0.1271  0.0510 -0.4036
  225MPD1    H5 3477   2.633   1.299  12.471 -0.2444  1.8833 -0.5584
  225MPD1    N1 3478   2.859   1.161  11.964  0.2920 -0.4296 -0.3950
  225MPD1    H6 3479   2.953   1.133  11.937  0.5924  2.9486 -2.7919
  225MPD1    H7 3480   2.790   1.088  11.948  0.0485 -0.5750  1.3161
  226MPD1     C 3481   4.606   2.095   9.594  0.9302  0.0234  1.2739
  226MPD1    C1 3482   4.550   1.977   9.633 -0.5514 -0.3173  0.4269
  226MPD1    C2 3483   4.633   1.862   9.611  0.3997  0.0744 -0.6966
  226MPD1    C3 3484   0.009   1.860   9.538 -0.0838 -0.0438 -0.0884
  226MPD1    C4 3485   0.053   1.981   9.491 -0.4695 -0.1061 -0.6159
  226MPD1    C5 3486   4.725   2.095   9.523 -0.6790  0.6435 -0.1083
  226MPD1     H 3487   4.598   1.766   9.648 -0.1702  0.9829  1.1323
  226MPD1    H1 3488   0.150   1.993   9.443 -0.4216  2.1480  0.0170
  226MPD1    H2 3489   4.543   2.183   9.602  0.8541  0.2205 -1.6937
  226MPD1    H3 3490   0.024   2.190   9.496  0.7725 -0.1858 -0.7329
  226MPD1     N 3491   0.082   1.746   9.516 -0.1592  0.0553  0.1889
  226MPD1    H5 3492   0.038   1.657   9.540 -1.2206  0.1116 -1.5802
  226MPD1    N1 3493   4.433   1.974   9.713 -0.0739  0.0902 -0.6645
  226MPD1    H6 3494   4.368   2.051   9.701 -0.1719 -0.1532 -1.6852
  226MPD1    H7 3495   4.384   1.886   9.730  2.0803 -0.9116  0.3162
  227MPD1     C 3496   0.187   0.820   9.781  0.0814 -0.2270  0.4722
  227MPD1    C1 3497   0.164   0.822   9.644 -0.1368 -0.7435 -0.5485
  227MPD1    C2 3498   0.184   0.944   9.575  0.9366 -0.1231 -0.3002
  227MPD1    C3 3499   0.236   1.053   9.638 -0.1013 -0.2309  1.1167
  227MPD1    C4 3500   0.252   1.049   9.775 -0.3151 -0.2778 -0.5598
  227MPD1    C5 3501   0.224   0.935   9.843  0.2026  0.3948 -0.8894
  227MPD1     H 3502   0.148   0.968   9.476 -0.1501 -2.5390 -0.4900
  227MPD1    H1 3503   0.282   1.129   9.842 -3.6266  0.5040 -0.0025
  227MPD1    H2 3504   0.172   0.731   9.841 -1.5159 -0.7258 -0.6564
  227MPD1    H3 3505   0.241   0.935   9.951 -0.3444 -1.7656 -0.7996
  227MPD1     N 3506   0.238   1.176   9.561 -0.0737  0.8676  0.4682
  227MPD1    H5 3507   0.196   1.177   9.468 -1.9020  4.6845  1.3147
  227MPD1    N1 3508   0.105   0.717   9.581 -0.2037  0.5721  0.2170
  227MPD1    H6 3509   0.134   0.708   9.484  3.6101 -2.8710  1.6940
  227MPD1    H7 3510   0.113   0.624   9.621  0.0872 -0.0054 -1.1781
  228MPD1     C 3511   4.222   3.678  13.284 -0.5339  0.5840  0.0731
  228MPD1    C1 3512   4.119   3.761  13.241 -0.3208 -0.4445 -0.2823
  228MPD1    C2 3513   3.991   3.705  13.226 -0.3125  0.0144  0.0201
  228MPD1    C3 3514   3.963   3.576  13.263 -0.1617 -0.1000 -0.8331
  228MPD1    C4 3515   4.072   3.498  13.304  0.1674 -0.0498  0.2329
  228MPD1    C5 3516   4.194   3.556  13.316 -0.5399  0.2046 -0.2481
  228MPD1     H 3517   3.906   3.764  13.193 -1.6602 -1.3819  1.0255
  228MPD1    H1 3518   4.055   3.392  13.322  3.5428 -0.3144  1.9757
  228MPD1    H2 3519   4.325   3.711  13.289 -1.0806  2.0231  1.6755
  228MPD1    H3 3520   4.273   3.488  13.345 -0.8013  0.7605  1.7294
  228MPD1     N 3521   3.835   3.521  13.238 -0.0054 -0.0899  0.4905
  228MPD1    H5 3522   3.765   3.577  13.191 -1.4784 -3.0337 -0.8215
  228MPD1    N1 3523   4.146   3.898  13.212  0.0681  0.2731 -0.2263
  228MPD1    H6 3524   4.236   3.934  13.242  1.3027 -1.8343 -1.4004
  228MPD1    H7 3525   4.071   3.957  13.247  0.2186  0.0692  0.4248
  229MPD1     C 3526   3.491   2.780  15.327 -0.7157  0.0928 -0.0719
  229MPD1    C1 3527   3.590   2.761  15.235 -0.8794 -0.0014  0.0655
  229MPD1    C2 3528   3.687   2.662  15.268 -0.5302  0.5830 -0.2209
  229MPD1    C3 3529   3.686   2.599  15.392 -0.2131  0.0065  0.0034
  229MPD1    C4 3530   3.602   2.647  15.487  0.0670  0.0956 -0.2081
  229MPD1    C5 3531   3.505   2.737  15.452  0.1028  0.5399 -0.3040
  229MPD1     H 3532   3.760   2.637  15.191  0.2029 -0.6057  0.8494
  229MPD1    H1 3533   3.597   2.609  15.588  1.2254 -0.0860 -0.2175
  229MPD1    H2 3534   3.410   2.852  15.317 -1.9008 -1.2867 -0.4218
  229MPD1    H3 3535   3.425   2.748  15.524 -0.7098  1.5759 -1.3646
  229MPD1     N 3536   3.771   2.493  15.432  0.5405 -0.3404 -0.1796
  229MPD1    H5 3537   3.758   2.448  15.522  0.1362  1.3575  0.5975
  229MPD1    N1 3538   3.590   2.829  15.113  0.4849  0.5144  0.1224
  229MPD1    H6 3539   3.683   2.837  15.074  0.8917  0.4864  1.0924
  229MPD1    H7 3540   3.557   2.922  15.138  0.2194  0.0484  1.5384
  230MPD1     C 3541   3.909   2.315  16.253  0.4215 -0.5739  0.5352
  230MPD1    C1 3542   3.798   2.356  16.183  0.4062  0.3263 -0.0833
  230MPD1    C2 3543   3.812   2.355  16.046  0.0093  0.6966 -0.1096
  230MPD1    C3 3544   3.923   2.299  15.981 -0.3473  0.3106 -0.8998
  230MPD1    C4 3545   4.023   2.254  16.061 -0.4132  0.2104  0.4509
  230MPD1    C5 3546   4.020   2.266  16.193  0.3879 -0.2745  0.3603
  230MPD1     H 3547   3.729   2.399  15.992  0.2330  1.2313 -0.0138
  230MPD1    H1 3548   4.111   2.203  16.025  0.5258  0.7795  1.9449
  230MPD1    H2 3549   3.918   2.327  16.361 -1.9015 -1.3000  0.8107
  230MPD1    H3 3550   4.102   2.239  16.259  0.8651  1.9224  0.6667
  230MPD1     N 3551   3.919   2.289  15.835  0.1566  0.3344 -0.1196
  230MPD1    H5 3552   3.836   2.321  15.786 -0.4726  1.3185  1.6130
  230MPD1    N1 3553   3.694   2.429  16.247 -0.4298  0.5316 -0.0882
  230MPD1    H6 3554   3.677   2.384  16.337 -1.0441 -0.4789 -0.7102
  230MPD1    H7 3555   3.609   2.444  16.194 -0.0422  0.6135 -0.6927
  231MPD1     C 3556   2.111   4.204  15.273 -0.2887  0.3052  0.3952
  231MPD1    C1 3557   2.085   4.240  15.141 -0.6139  0.0547  0.0285
  231MPD1    C2 3558   2.164   4.330  15.071 -0.2758 -0.2007  0.6355
  231MPD1    C3 3559   2.279   4.378  15.129 -1.2090 -0.4318 -0.8779
  231MPD1    C4 3560   2.307   4.335  15.261 -0.6100  0.3617 -0.2408
  231MPD1    C5 3561   2.223   4.256  15.330 -0.1389  0.1517 -0.1445
  231MPD1     H 3562   2.133   4.364  14.973  2.4608 -1.1082 -0.5380
  231MPD1    H1 3563   2.398   4.367  15.310 -0.8456 -0.5972  0.8123
  231MPD1    H2 3564   2.048   4.136  15.329 -1.1852  0.1262 -0.8361
  231MPD1    H3 3565   2.250   4.224  15.430  3.0548  1.0025 -0.7393
  231MPD1     N 3566   2.362   4.457  15.046  1.1446  0.0623  0.6197
  231MPD1    H5 3567   2.316   4.481  14.959 -0.1871  2.7652  2.0790
  231MPD1    N1 3568   1.962   4.191  15.086 -0.4028  0.1771 -0.1357
  231MPD1    H6 3569   1.966   4.168  14.987 -1.8551  2.3781 -0.7073
  231MPD1    H7 3570   1.932   4.107  15.135 -0.5838  0.5415  0.3879
  232MPD1     C 3571   0.282   2.113   0.641 -0.5769 -0.2904  0.6139
  232MPD1    C1 3572   0.260   1.997   0.569  0.5180  0.0815 -0.8658
  232MPD1    C2 3573   0.128   1.979   0.531 -0.7935  0.6659  0.3201
  232MPD1    C3 3574   0.025   2.064   0.551  0.2847  0.0834  0.7981
  232MPD1    C4 3575   0.047   2.172   0.632  0.6485 -0.0351  0.1639
  232MPD1    C5 3576   0.181   2.190   0.673  0.0950  0.1530  0.0822
  232MPD1     H 3577   0.107   1.896   0.465  2.5638 -0.0978  0.2324
  232MPD1    H1 3578   4.711   2.241   0.657  0.0030 -0.5158 -0.5330
  232MPD1    H2 3579   0.379   2.140   0.682 -1.3302  2.5739  0.5204
  232MPD1    H3 3580   0.199   2.278   0.734  4.3766 -2.1210  2.1127
  232MPD1     N 3581   4.639   2.037   0.484 -0.4034  0.8592 -0.3026
  232MPD1    H5 3582   4.622   1.945   0.445  0.0743  0.5891  0.1263
  232MPD1    N1 3583   0.356   1.892   0.564  0.2343  0.0666  0.8637
  232MPD1    H6 3584   0.449   1.932   0.559  0.0249  0.3234 -1.0467
  232MPD1    H7 3585   0.354   1.825   0.487 -0.4976  1.5827 -0.4198
  233MPD1     C 3586   0.505   1.135  17.292  0.0182  0.1452  0.3271
  233MPD1    C1 3587   0.537   1.163  17.420  0.0481  0.5644 -0.1681
  233MPD1    C2 3588   0.551   1.056  17.516  0.4400 -0.2604  0.2266
  233MPD1    C3 3589   0.522   0.926  17.478 -0.3307  0.2153 -0.6749
  233MPD1    C4 3590   0.478   0.900  17.346  0.2355  0.3104  0.1863
  233MPD1    C5 3591   0.476   1.006  17.257 -0.3649 -0.6056 -0.0003
  233MPD1     H 3592   0.592   1.084  17.612 -0.1821  2.8951 -0.3923
  233MPD1    H1 3593   0.476   0.797  17.312 -0.2530  1.0137 -1.9199
  233MPD1    H2 3594   0.519   1.204  17.210 -0.4171  1.6333  1.5264
  233MPD1    H3 3595   0.442   0.990  17.155 -1.6802  0.1520  0.3192
  233MPD1     N 3596   0.521   0.816  17.561 -0.2640  0.0409 -0.5846
  233MPD1    H5 3597   0.490   0.733  17.512  0.4478  0.5965 -1.9697
  233MPD1    N1 3598   0.601   1.283  17.443  0.5775  0.0133  0.2060
  233MPD1    H6 3599   0.599   1.309  17.541  1.1660 -1.1601  0.5293
  233MPD1    H7 3600   0.556   1.360  17.393  1.0502  0.2080  0.0740
  234MPD1     C 3601   1.699   3.552   9.406 -0.3793  0.3141 -0.7530
  234MPD1    C1 3602   1.563   3.532   9.403 -0.3314 -0.1089  0.2513
  234MPD1    C2 3603   1.476   3.641   9.428  0.2653 -1.1169 -0.6880
  234MPD1    C3 3604   1.528   3.761   9.480 -0.1618 -0.0524  0.8198
  234MPD1    C4 3605   1.661   3.768   9.505  0.3319  0.2470 -0.5711
  234MPD1    C5 3606   1.751   3.668   9.463  0.1496 -0.6721 -1.0848
  234MPD1     H 3607   1.371   3.631   9.402 -0.2270 -2.2338  1.8004
  234MPD1    H1 3608   1.700   3.847   9.569  2.5452 -2.1673  1.0400
  234MPD1    H2 3609   1.765   3.474   9.372  1.3304 -0.2213  3.7551
  234MPD1    H3 3610   1.856   3.692   9.474  0.1870 -1.2227 -0.2677
  234MPD1     N 3611   1.438   3.869   9.496  0.3104  0.0270 -0.9313
  234MPD1    H5 3612   1.352   3.864   9.443  0.3827  0.0975 -1.0559
  234MPD1    N1 3613   1.509   3.425   9.327  0.5718  0.5322  0.2259
  234MPD1    H6 3614   1.577   3.352   9.306  0.8405  1.2470 -1.3245
  234MPD1    H7 3615   1.424   3.391   9.372  0.9669 -0.6578  0.0856
  235MPD1     C 3616   3.131   1.832  11.560 -0.4490  0.1799  0.1298
  235MPD1    C1 3617   3.128   1.935  11.470 -0.1194  0.0587  0.2842
  235MPD1    C2 3618   3.236   1.957  11.391  0.4078 -0.5539 -0.0599
  235MPD1    C3 3619   3.352   1.887  11.404  0.1233  0.0127  0.3504
  235MPD1    C4 3620   3.360   1.791  11.496  0.6714 -0.5414 -0.3198
  235MPD1    C5 3621   3.253   1.773  11.579 -0.3015  0.0943 -0.5317
  235MPD1     H 3622   3.231   2.039  11.319  0.6126 -0.2905  0.2237
  235MPD1    H1 3623   3.445   1.725  11.508  1.0687  0.0338  0.0534
  235MPD1    H2 3624   3.050   1.802  11.624 -0.2572 -1.2061 -0.2678
  235MPD1    H3 3625   3.259   1.683  11.639  2.3451  0.3165 -0.4442
  235MPD1     N 3626   3.455   1.910  11.310 -0.1510 -0.2646  0.3082
  235MPD1    H5 3627   3.423   1.971  11.235  1.1810  2.1654  1.7237
  235MPD1    N1 3628   3.006   2.006  11.444  0.2081  0.4032 -0.7120
  235MPD1    H6 3629   3.031   2.100  11.414 -1.1115  1.1898  0.6154
  235MPD1    H7 3630   2.952   2.010  11.531 -0.2967 -2.3657 -0.8909
  236MPD1     C 3631   1.664   3.187   9.585 -0.2625  0.1092 -1.0557
  236MPD1    C1 3632   1.603   3.073   9.634  0.4241  0.2381  0.7876
  236MPD1    C2 3633   1.682   3.001   9.723 -0.2721  0.3139  0.5579
  236MPD1    C3 3634   1.805   3.042   9.775 -0.4384  0.3585 -0.0711
  236MPD1    C4 3635   1.856   3.158   9.730 -0.6388  0.5941  0.0209
  236MPD1    C5 3636   1.786   3.222   9.634  0.4196 -0.3927  0.0313
  236MPD1     H 3637   1.640   2.902   9.740  0.0213  0.2120  0.6876
  236MPD1    H1 3638   1.962   3.173   9.745 -0.3792  0.6229 -1.8403
  236MPD1    H2 3639   1.622   3.249   9.506  3.9059  0.8715 -2.6749
  236MPD1    H3 3640   1.826   3.302   9.572 -1.9789 -0.0749 -1.1088
  236MPD1     N 3641   1.890   2.960   9.855 -0.3488 -0.6023 -0.2118
  236MPD1    H5 3642   1.983   2.998   9.870 -0.8662  0.3157  0.6822
  236MPD1    N1 3643   1.483   3.028   9.581 -0.0424 -0.2308 -0.7805
  236MPD1    H6 3644   1.427   2.983   9.653 -0.7443  1.1893 -0.4398
  236MPD1    H7 3645   1.422   3.099   9.540 -3.1276 -2.5120 -0.1012
  237MPD1     C 3646   2.957   0.933  15.069 -0.5001  0.0960 -0.2064
  237MPD1    C1 3647   2.949   0.813  15.142 -0.5162  0.5982 -0.4973
  237MPD1    C2 3648   2.820   0.784  15.193 -0.2392 -0.4520 -0.2348
  237MPD1    C3 3649   2.721   0.884  15.200 -0.9038  0.6807  0.0099
  237MPD1    C4 3650   2.742   1.005  15.131  0.6231  0.2718  0.4105
  237MPD1    C5 3651   2.861   1.032  15.072  0.3624  0.2223  0.0806
  237MPD1     H 3652   2.807   0.690  15.245  0.2987 -1.7727 -2.5106
  237MPD1    H1 3653   2.670   1.086  15.123  0.2924 -0.0027  0.6087
  237MPD1    H2 3654   3.043   0.964  15.010 -0.3444  0.1774  0.0633
  237MPD1    H3 3655   2.885   1.116  15.007  1.3035  0.8047  1.1740
  237MPD1     N 3656   2.589   0.872  15.256  0.1407  0.1110 -0.2000
  237MPD1    H5 3657   2.530   0.954  15.243 -2.0198 -1.6273 -1.5491
  237MPD1    N1 3658   3.054   0.723  15.135 -0.4007 -0.2938 -0.2740
  237MPD1    H6 3659   3.141   0.763  15.103  0.0971  0.5708  2.1468
  237MPD1    H7 3660   3.076   0.671  15.220 -2.7874 -2.1737 -0.8142
  238MPD1     C 3661   3.985   4.591  15.686 -0.3437 -0.3115 -0.0299
  238MPD1    C1 3662   4.045   4.586  15.567 -0.5221 -0.0492 -0.0872
  238MPD1    C2 3663   3.984   4.534  15.461  0.0958  0.2369 -0.1460
  238MPD1    C3 3664   3.862   4.476  15.471  0.2540 -0.5730 -0.3403
  238MPD1    C4 3665   3.810   4.466  15.594  0.6324  0.0525 -0.0085
  238MPD1    C5 3666   3.878   4.513  15.702 -0.1462 -0.4701  0.0513
  238MPD1     H 3667   4.039   4.534  15.367 -0.3806  1.7330 -0.4231
  238MPD1    H1 3668   3.720   4.406  15.596 -0.2022  1.1867 -2.4834
  238MPD1    H2 3669   4.034   4.624  15.776 -0.5890 -2.2928  0.8313
  238MPD1    H3 3670   3.837   4.494  15.801 -1.1126 -0.1389 -0.2861
  238MPD1     N 3671   3.790   4.418  15.358  0.2341  0.0792  0.4955
  238MPD1    H5 3672   3.701   4.370  15.370  0.1813  0.1324  0.3084
  238MPD1    N1 3673   4.159   4.664  15.555 -0.4932 -0.6937 -0.0238
  238MPD1    H6 3674   4.222   4.648  15.634  1.2358 -0.4196 -1.3519
  238MPD1    H7 3675   4.211   4.647  15.469 -0.5195 -1.4011  0.0982
  239MPD1     C 3676   4.617   4.685  15.258 -0.6477 -0.2149 -0.2810
  239MPD1    C1 3677   4.525   0.034  15.309  0.9718 -0.1884 -0.2137
  239MPD1    C2 3678   4.493   0.145  15.226  0.2038 -0.4296 -0.6820
  239MPD1    C3 3679   4.536   0.144  15.095 -0.2119 -0.7456  0.4676
  239MPD1    C4 3680   4.627   0.060  15.046  0.2471 -0.2930  0.5513
  239MPD1    C5 3681   4.666   4.700  15.136  0.3765 -0.5999  0.0673
  239MPD1     H 3682   4.430   0.228  15.255  0.7577 -0.3631  0.3464
  239MPD1    H1 3683   4.693   0.072  14.961  0.4613 -2.8168  0.3629
  239MPD1    H2 3684   4.643   4.596  15.315  0.2006 -0.1751 -0.5964
  239MPD1    H3 3685   0.003   4.630  15.117 -0.7908 -1.4419 -1.8125
  239MPD1     N 3686   4.514   0.257  15.003  0.8119  0.8593  0.0328
  239MPD1    H5 3687   4.548   0.250  14.908  0.9706  0.8662  0.0891
  239MPD1    N1 3688   4.457   0.011  15.431  0.1371  0.6228  0.1967
  239MPD1    H6 3689   4.499   4.695  15.501 -0.0652  1.2454  0.8496
  239MPD1    H7 3690   4.422   0.098  15.471 -2.3625 -0.3039  0.0584
  240MPD1     C 3691   3.890   0.210  14.170 -0.3582 -0.2496  0.5047
  240MPD1    C1 3692   3.755   0.197  14.144 -0.0026  0.5651  0.7517
  240MPD1    C2 3693   3.678   0.120  14.230  0.6680  0.1872  0.3353
  240MPD1    C3 3694   3.731   0.083  14.353  0.1642  0.3047  0.1050
  240MPD1    C4 3695   3.868   0.108  14.378 -0.2363  0.6965 -0.3999
  240MPD1    C5 3696   3.943   0.171  14.286  0.1836 -0.4678 -0.0280
  240MPD1     H 3697   3.575   0.096  14.207  0.4258  0.9268  0.6494
  240MPD1    H1 3698   3.916   0.084  14.472 -1.0552 -0.3047 -0.2409
  240MPD1    H2 3699   3.957   0.252  14.095 -1.7231  2.1435  0.6266
  240MPD1    H3 3700   4.052   0.171  14.291  0.1828 -0.9732  0.0654
  240MPD1     N 3701   3.649   0.008  14.446 -0.1575 -0.1203 -0.2494
  240MPD1    H5 3702   3.551   4.738  14.421 -0.6300  0.8475  1.0468
  240MPD1    N1 3703   3.711   0.248  14.026  0.3948  0.5584 -0.3967
  240MPD1    H6 3704   3.617   0.286  14.035  0.0678 -0.6477  1.3355
  240MPD1    H7 3705   3.771   0.325  13.996 -0.0851  0.9568 -0.3229
  241MPD1     C 3706   3.553   4.679  15.427  0.2152 -0.6221  0.0538
  241MPD1    C1 3707   3.484   4.564  15.381 -0.4290 -0.1528  0.5348
  241MPD1    C2 3708   3.472   4.550  15.238  0.2295  0.1323 -0.2666
  241MPD1    C3 3709   3.532   4.636  15.148  0.3159  0.0948 -0.2958
  241MPD1    C4 3710   3.595   0.005  15.198 -0.3665  0.2100 -0.7230
  241MPD1    C5 3711   3.595   0.024  15.331  0.0806  0.2492 -0.3274
  241MPD1     H 3712   3.415   4.464  15.204  1.3636 -0.5137 -0.5089
  241MPD1    H1 3713   3.643   0.074  15.129  0.6757  1.4913  1.2804
  241MPD1    H2 3714   3.573   4.715  15.528  3.2970 -0.9750 -0.4347
  241MPD1    H3 3715   3.644   0.111  15.372  0.6836  0.4259 -1.4146
  241MPD1     N 3716   3.543   4.605  15.012 -0.0758 -0.2174  0.4531
  241MPD1    H5 3717   3.585   4.681  14.960 -2.5164  1.3337  0.7522
  241MPD1    N1 3718   3.454   4.454  15.460 -0.3409 -0.5139 -0.4054
  241MPD1    H6 3719   3.387   4.390  15.418 -1.7331  1.1217 -0.6846
  241MPD1    H7 3720   3.421   4.474  15.555  0.1841  2.2348 -0.7875
  242MPD1     C 3721   2.980   3.304  15.904  0.6590  0.4965 -0.1948
  242MPD1    C1 3722   3.105   3.330  15.951 -0.5489  0.4444  0.0819
  242MPD1    C2 3723   3.200   3.348  15.853 -0.4020 -0.6476 -0.0441
  242MPD1    C3 3724   3.182   3.333  15.715 -0.7912  0.4243 -0.1467
  242MPD1    C4 3725   3.054   3.309  15.671  0.3521  0.3215 -0.5032
  242MPD1    C5 3726   2.958   3.288  15.771 -0.5283  0.4155  0.3403
  242MPD1     H 3727   3.300   3.374  15.886 -0.9423  1.4484 -0.0610
  242MPD1    H1 3728   3.019   3.294  15.569 -1.5297  0.6403  0.0966
  242MPD1    H2 3729   2.893   3.296  15.969  1.7901  0.8788  1.3685
  242MPD1    H3 3730   2.853   3.278  15.745 -0.7823  0.8565  1.1793
  242MPD1     N 3731   3.281   3.313  15.619 -0.3318 -0.8070  0.0986
  242MPD1    H5 3732   3.247   3.288  15.526 -1.8123  0.8471  0.1969
  242MPD1    N1 3733   3.132   3.348  16.088 -0.2691 -0.0435 -0.3228
  242MPD1    H6 3734   3.224   3.309  16.111 -2.0136 -3.2147  1.2194
  242MPD1    H7 3735   3.061   3.305  16.146  0.2599  0.5079  0.7269
  243MPD1     C 3736   4.620   1.921   0.175 -0.7064 -0.4820 -0.7643
  243MPD1    C1 3737   4.681   1.807   0.223  0.0496  0.0328  0.3139
  243MPD1    C2 3738   0.061   1.763   0.169 -0.3624  0.2784 -0.1087
  243MPD1    C3 3739   0.121   1.836   0.065  0.2691  0.4962 -0.4607
  243MPD1    C4 3740   0.060   1.948   0.016 -0.5226 -1.1024  0.2499
  243MPD1    C5 3741   4.681   1.988   0.067 -0.2164  0.2749 -0.0573
  243MPD1     H 3742   0.116   1.685   0.220  0.6520  1.9052  1.2731
  243MPD1    H1 3743   0.093   1.988  17.693  1.1414 -0.7989  0.9598
  243MPD1    H2 3744   4.528   1.955   0.222  0.7477  1.3163  0.8103
  243MPD1    H3 3745   4.648   2.083   0.029  1.8677  0.6120 -0.9952
  243MPD1     N 3746   0.244   1.783   0.014  0.0775 -0.2747  1.0579
  243MPD1    H5 3747   0.269   1.688   0.038 -1.5618 -1.1467 -0.6955
  243MPD1    N1 3748   4.646   1.765   0.352  0.0584 -0.2787 -0.1325
  243MPD1    H6 3749   4.549   1.736   0.345 -0.4101  1.1681  0.5589
  243MPD1    H7 3750   4.697   1.678   0.370 -1.5965 -1.3107 -0.4016
  244MPD1     C 3751   0.957   1.301   0.268  0.1809 -0.2250 -0.1796
  244MPD1    C1 3752   0.990   1.426   0.241 -0.5472 -0.5704 -0.2316
  244MPD1    C2 3753   0.911   1.502   0.157 -0.0040  0.3809 -0.0835
  244MPD1    C3 3754   0.805   1.450   0.085 -1.0868 -0.7861 -0.4208
  244MPD1    C4 3755   0.784   1.310   0.103  0.5167  0.0937  0.3525
  244MPD1    C5 3756   0.852   1.244   0.199  0.3419 -0.4274  0.0724
  244MPD1     H 3757   0.938   1.606   0.148 -0.0604  0.0988 -3.4794
  244MPD1    H1 3758   0.704   1.263   0.049  0.6403 -0.1462  0.3805
  244MPD1    H2 3759   1.004   1.235   0.341  1.6419  0.5324 -0.4442
  244MPD1    H3 3760   0.828   1.141   0.219  0.7471 -0.4477  0.4487
  244MPD1     N 3761   0.739   1.530  17.766 -0.7438  0.4196  0.1087
  244MPD1    H5 3762   0.771   1.625  17.753  3.0642 -1.0397 -1.3086
  244MPD1    N1 3763   1.084   1.496   0.317  0.2201  0.7973  0.3596
  244MPD1    H6 3764   1.156   1.430   0.345  0.9399  1.5775  0.3545
  244MPD1    H7 3765   1.045   1.515   0.408  0.7850  1.0766  0.5432
  245MPD1     C 3766   1.647   1.876  13.359 -0.5745 -1.0518 -0.0184
  245MPD1    C1 3767   1.610   1.971  13.452 -0.0244 -0.5146 -0.3631
  245MPD1    C2 3768   1.676   2.094  13.463  0.4638 -0.7816 -0.8472
  245MPD1    C3 3769   1.762   2.136  13.361  0.0525  0.0359  0.5174
  245MPD1    C4 3770   1.773   2.057  13.257  0.2470 -0.1137 -0.5510
  245MPD1    C5 3771   1.726   1.929  13.257  0.9508  0.0715  0.0920
  245MPD1     H 3772   1.653   2.157  13.548  0.1966 -1.5403 -0.3576
  245MPD1    H1 3773   1.842   2.082  13.177 -1.2574  2.5074 -1.0649
  245MPD1    H2 3774   1.619   1.772  13.370  1.5202 -1.6831 -0.6580
  245MPD1    H3 3775   1.746   1.860  13.176 -1.0943 -0.5476  0.1040
  245MPD1     N 3776   1.829   2.267  13.367 -0.2422 -0.3706  0.1237
  245MPD1    H5 3777   1.791   2.330  13.438 -1.0308  0.7616 -1.2901
  245MPD1    N1 3778   1.537   1.927  13.570 -0.0147  0.0830  0.3209
  245MPD1    H6 3779   1.468   1.854  13.553 -1.7681  2.7346 -4.1389
  245MPD1    H7 3780   1.488   2.004  13.615  0.1713  0.6422 -0.4221
  246MPD1     C 3781   3.549   4.555  10.576  0.4559  0.0919  0.2527
  246MPD1    C1 3782   3.492   4.489  10.675 -1.0921 -0.0800 -0.4482
  246MPD1    C2 3783   3.402   4.389  10.638  0.5703  0.7802  0.0631
  246MPD1    C3 3784   3.383   4.343  10.514  0.1292  0.3945  0.2136
  246MPD1    C4 3785   3.460   4.400  10.413  0.5543  0.2356 -0.4514
  246MPD1    C5 3786   3.537   4.509  10.445  0.2839  0.1162 -0.1171
  246MPD1     H 3787   3.354   4.338  10.721  2.0105  1.7328  1.4818
  246MPD1    H1 3788   3.487   4.355  10.318 -1.2802  0.0133 -0.8489
  246MPD1    H2 3789   3.623   4.630  10.600  1.5262 -0.8470 -0.1046
  246MPD1    H3 3790   3.608   4.549  10.374  1.0737  0.6279  0.9547
  246MPD1     N 3791   3.300   4.225  10.482 -0.1002 -0.2044 -0.0481
  246MPD1    H5 3792   3.252   4.179  10.559 -1.6551 -0.4131 -1.1526
  246MPD1    N1 3793   3.507   4.522  10.808 -0.4419  0.8676  0.3806
  246MPD1    H6 3794   3.586   4.578  10.839 -2.0536  2.7090  1.1905
  246MPD1    H7 3795   3.495   4.444  10.873  0.5736 -0.7358 -1.3634
  247MPD1     C 3796   1.859   2.404  16.561 -0.3341  0.3718 -0.2973
  247MPD1    C1 3797   1.853   2.287  16.639  0.7276 -0.2407 -0.0363
  247MPD1    C2 3798   1.863   2.170  16.570  0.2206 -0.4387 -0.2951
  247MPD1    C3 3799   1.879   2.165  16.434  0.3136  0.3036 -0.2690
  247MPD1    C4 3800   1.886   2.275  16.359  0.2472  0.7109  0.7630
  247MPD1    C5 3801   1.871   2.397  16.426 -0.0345  0.0449  0.4094
  247MPD1     H 3802   1.866   2.083  16.634  0.4913  0.5555  1.0344
  247MPD1    H1 3803   1.902   2.270  16.252  0.8846 -2.3550  1.0040
  247MPD1    H2 3804   1.852   2.502  16.606  1.1977  0.8854 -1.1981
  247MPD1    H3 3805   1.876   2.484  16.361 -0.1469 -0.3409 -0.1228
  247MPD1     N 3806   1.892   2.035  16.367 -0.3438  0.1117  0.0665
  247MPD1    H5 3807   1.921   2.040  16.270 -1.9097 -0.8767 -0.4387
  247MPD1    N1 3808   1.801   2.278  16.773  0.2673  0.2193 -0.2604
  247MPD1    H6 3809   1.831   2.187  16.807  0.2558  0.6411  0.9112
  247MPD1    H7 3810   1.843   2.346  16.837 -0.7724  1.3587 -0.7937
  248MPD1     C 3811   2.974   1.501   0.683 -0.0519  0.1230 -1.3145
  248MPD1    C1 3812   2.975   1.446   0.559  0.5989  0.5419  0.0798
  248MPD1    C2 3813   2.947   1.521   0.448 -0.4005 -0.1420 -0.3130
  248MPD1    C3 3814   2.933   1.656   0.461  0.4480 -1.0278 -0.0488
  248MPD1    C4 3815   2.923   1.707   0.592 -0.6225 -0.0212 -0.5557
  248MPD1    C5 3816   2.936   1.625   0.697 -0.3054  0.4786 -0.6191
  248MPD1     H 3817   2.953   1.473   0.351  1.1079 -0.0000 -0.2931
  248MPD1    H1 3818   2.887   1.806   0.617 -2.9724 -0.6321 -1.5348
  248MPD1    H2 3819   2.975   1.438   0.772 -2.0215  0.6004 -0.9615
  248MPD1    H3 3820   2.906   1.656   0.796 -1.5789  0.0969 -0.8878
  248MPD1     N 3821   2.917   1.721   0.338 -0.1288 -0.2993 -0.4816
  248MPD1    H5 3822   2.929   1.662   0.256 -1.4356 -1.2213  0.0009
  248MPD1    N1 3823   2.989   1.308   0.544  0.1807  0.5875  0.7912
  248MPD1    H6 3824   3.061   1.268   0.604 -0.6260 -1.7157  0.2491
  248MPD1    H7 3825   3.014   1.288   0.447  0.2551  0.1074  0.9062
  249MPD1     C 3826   3.285   1.661   9.987 -0.1893 -0.5539 -0.2603
  249MPD1    C1 3827   3.333   1.770   9.909 -0.1101  0.3184 -0.2806
  249MPD1    C2 3828   3.438   1.838   9.965 -0.0788 -0.0628  0.6846
  249MPD1    C3 3829   3.486   1.822  10.093 -1.1649 -1.2175 -0.6948
  249MPD1    C4 3830   3.429   1.727  10.174 -0.3679  0.2609 -0.7074
  249MPD1    C5 3831   3.339   1.640  10.113  1.1533  0.0181  0.4674
  249MPD1     H 3832   3.501   1.902   9.904  1.2723 -0.7723  1.3281
  249MPD1    H1 3833   3.456   1.700  10.276  2.6348  0.6369 -1.3984
  249MPD1    H2 3834   3.216   1.583   9.955 -0.3376  0.0652 -1.4391
  249MPD1    H3 3835   3.306   1.554  10.170  0.3026 -0.2184 -0.3705
  249MPD1     N 3836   3.595   1.897  10.130 -0.2549 -0.0197 -0.5469
  249MPD1    H5 3837   3.626   1.969  10.066 -0.2092  0.2829 -0.1838
  249MPD1    N1 3838   3.308   1.760   9.776  0.5562  0.3797  0.0264
  249MPD1    H6 3839   3.332   1.844   9.723 -1.4026  0.8415 -0.1227
  249MPD1    H7 3840   3.209   1.742   9.766  0.7533 -0.4107 -0.4736
  250MPD2     C 3841   0.804   0.688  13.542 -0.6356  0.0778  0.4043
  250MPD2    C1 3842   0.710   0.761  13.475 -0.2785 -0.2588 -0.2850
  250MPD2    C2 3843   0.583   0.708  13.457 -0.4491  0.3171  0.5676
  250MPD2    C3 3844   0.550   0.581  13.498  0.0165 -0.3719 -0.6262
  250MPD2    C4 3845   0.643   0.508  13.570  0.7521 -0.0751  0.5872
  250MPD2    C5 3846   0.768   0.561  13.580  0.3878  0.6596 -0.0696
  250MPD2     H 3847   0.511   0.761  13.396 -0.6594 -0.5786  0.0349
  250MPD2    H1 3848   0.629   0.413  13.620  0.8717  0.7405  2.1739
  250MPD2    H2 3849   0.900   0.726  13.574 -0.8038 -0.3227  1.3891
  250MPD2    H3 3850   0.841   0.513  13.645 -0.0410 -2.5952 -1.9930
  250MPD2     N 3851   0.420   0.520  13.480  0.4684  0.1065  0.3883
  250MPD2    H5 3852   0.402   0.432  13.526 -1.6131  0.0616 -0.5287
  250MPD2    N1 3853   0.749   0.890  13.448  0.0483 -0.1399  0.0688
  250MPD2    H7 3854   0.840   0.916  13.484 -0.6242  4.3521 -1.4205
  251TMC3    C1 3855   0.733   1.118  13.358 -0.5626 -0.1603 -0.8491
  251TMC3    C2 3856   0.646   1.219  13.341 -0.2934  0.2419 -0.2658
  251TMC3    C3 3857   0.684   1.350  13.382 -0.8904 -0.1437  0.2755
  251TMC3    C4 3858   0.862   1.138  13.398 -0.0164 -0.3651 -0.2643
  251TMC3    C5 3859   0.900   1.266  13.426 -0.4786 -0.5302  0.0491
  251TMC3    C6 3860   0.813   1.367  13.422  0.5557  0.0470 -1.0126
  251TMC3     C 3861   0.664   0.987  13.389 -0.0022  0.3165 -0.2028
  251TMC3     O 3862   0.545   0.988  13.362  0.1047 -0.1209 -0.0966
  251TMC3     H 3863   0.542   1.201  13.320 -0.0741 -0.9372 -0.3276
  251TMC3    H1 3864   0.933   1.056  13.400  1.7686  1.1836 -0.1641
  251TMC3    H2 3865   0.840   1.466  13.456  2.9390 -0.5831 -1.0494
  251TMC3    C7 3866   1.038   1.284  13.479  0.6967  0.0257 -0.1532
  251TMC3    C8 3867   0.576   1.433  13.432 -0.2158  0.2918  0.1387
  251TMC3    O1 3868   1.085   1.179  13.520  0.0572  0.4629  0.0317
  251TMC3    O2 3869   0.467   1.381  13.442  0.2212 -0.4290  0.2498
  252TMC3    C1 3870   4.418   1.382  10.090 -0.2292  0.2883  0.2241
  252TMC3    C2 3871   4.476   1.502  10.069 -0.3993  0.1979 -0.6152
  252TMC3    C3 3872   4.613   1.515  10.084  0.1612  0.2068 -0.2850
  252TMC3    C4 3873   4.500   1.284  10.140  0.7748 -0.0446 -0.2701
  252TMC3    C5 3874   4.628   1.302  10.160  0.1180  0.5951 -0.2100
  252TMC3    C6 3875   4.688   1.417  10.136 -0.2354 -0.1647 -0.7144
  252TMC3     C 3876   4.273   1.371  10.094 -0.1355 -0.0854 -0.1171
  252TMC3     O 3877   4.230   1.263  10.129  0.2436  0.0510  0.0516
  252TMC3     H 3878   4.431   1.591  10.025  0.1394 -0.1219 -1.8138
  252TMC3    H1 3879   4.455   1.189  10.166  0.3634  0.2591  0.1489
  252TMC3    H2 3880   0.048   1.431  10.164 -0.5243 -1.5081  1.0606
  252TMC3    C7 3881   4.706   1.189  10.215 -0.3738  0.0615  0.3762
  252TMC3    C8 3882   4.672   1.635  10.026  0.2186 -0.5614  0.3514
  252TMC3    O1 3883   4.642   1.090  10.248  0.3232  1.2216 -0.1097
  252TMC3    O2 3884   4.594   1.733  10.010 -0.0014  0.5092  0.6433
  253MPD2     C 3885   1.694   0.549  15.324 -0.1440  0.0992  0.0582
  253MPD2    C1 3886   1.560   0.583  15.359  0.4616 -0.4158 -0.5190
  253MPD2    C2 3887   1.514   0.585  15.488  0.1179 -0.4974  0.3852
  253MPD2    C3 3888   1.596   0.538  15.586  0.1400  0.7454 -0.9910
  253MPD2    C4 3889   1.730   0.513  15.557  0.1971  0.2153 -0.2275
  253MPD2    C5 3890   1.778   0.519  15.425 -0.6024 -0.5459 -0.2760
  253MPD2     H 3891   1.412   0.609  15.514  1.0565  4.3164 -0.2511
  253MPD2    H1 3892   1.794   0.488  15.640 -0.0599 -1.8766 -0.6507
  253MPD2    H2 3893   1.730   0.515  15.227  1.3944 -2.0820  1.4100
  253MPD2    H3 3894   1.882   0.492  15.417 -0.4158 -0.0007  0.3031
  253MPD2     N 3895   1.563   0.531  15.722 -0.2742 -0.3575  0.4976
  253MPD2    H5 3896   1.638   0.539  15.790  0.7193 -1.5742 -0.4590
  253MPD2    N1 3897   1.468   0.611  15.252 -0.3160  0.0030  0.1027
  253MPD2    H7 3898   1.371   0.619  15.281 -0.0421 -1.1153  1.3272
  254TMC3    C1 3899   1.417   0.592  15.905  0.1422  0.5400  0.5725
  254TMC3    C2 3900   1.307   0.668  15.926 -0.6094 -0.5033 -0.2197
  254TMC3    C3 3901   1.266   0.685  16.053  0.7142  0.7361 -0.5120
  254TMC3    C4 3902   1.506   0.548  15.998  0.0193 -0.1287 -0.4840
  254TMC3    C5 3903   1.465   0.573  16.124 -0.6965 -0.3038  0.5246
  254TMC3    C6 3904   1.345   0.633  16.155  0.2608 -0.0224  0.3267
  254TMC3     C 3905   1.432   0.546  15.768 -1.2859 -0.0182 -0.4259
  254TMC3     O 3906   1.329   0.536  15.700 -0.4282  0.1590 -0.3270
  254TMC3     H 3907   1.249   0.706  15.843 -1.0157 -1.2490 -0.2772
  254TMC3    H1 3908   1.602   0.501  15.978 -0.7240 -1.3504 -1.1421
  254TMC3    H2 3909   1.319   0.655  16.258 -0.6531 -0.5281  0.2053
  254TMC3    C7 3910   1.568   0.581  16.229 -0.1057  0.4514 -0.0256
  254TMC3    C8 3911   1.229   0.822  16.090  0.3988 -0.0914  0.2572
  254TMC3    O1 3912   1.527   0.567  16.345 -0.0155  0.6961  0.6492
  254TMC3    O2 3913   1.251   0.865  16.205  0.3512  0.0211  0.0394
  255MPD2     C 3914   4.582   3.036  10.633  0.6628  0.7698  0.4768
  255MPD2    C1 3915   4.702   3.087  10.607  0.6048  0.3613  0.4423
  255MPD2    C2 3916   0.069   3.008  10.565  0.1694  0.4740 -0.7863
  255MPD2    C3 3917   0.050   2.870  10.537 -0.1179  0.1340  0.4485
  255MPD2    C4 3918   4.667   2.821  10.584 -0.2696  0.2905  0.0271
  255MPD2    C5 3919   4.565   2.903  10.636 -0.2230 -0.0286 -0.9112
  255MPD2     H 3920   0.161   3.058  10.538  0.5542  0.6038  0.7956
  255MPD2    H1 3921   4.649   2.714  10.587 -0.4146  0.3293  0.4956
  255MPD2    H2 3922   4.497   3.093  10.669 -0.2798 -1.5849  2.0403
  255MPD2    H3 3923   4.480   2.846  10.672 -1.1447  1.8812 -0.0739
  255MPD2     N 3924   0.151   2.777  10.490 -0.0027 -0.3633 -0.6423
  255MPD2    H5 3925   0.136   2.681  10.516  1.7681 -0.7763 -1.0914
  255MPD2    N1 3926   4.713   3.227  10.596  0.3557  0.1588 -0.2442
  255MPD2    H7 3927   4.621   3.265  10.615  0.0707  0.0230 -1.3628
  256TMC3    C1 3928   0.058   3.444  10.584  0.0524  0.3994  0.2230
  256TMC3    C2 3929   0.158   3.522  10.529  0.6246  0.3197 -0.1020
  256TMC3    C3 3930   0.120   3.642  10.487 -0.2714 -1.1135  0.4907
  256TMC3    C4 3931   4.669   3.481  10.589  0.0572  0.2542 -0.5605
  256TMC3    C5 3932   4.646   3.610  10.553  0.3121 -0.4862 -0.6763
  256TMC3    C6 3933   4.740   3.689  10.498  0.0354 -0.5031 -0.7769
  256TMC3     C 3934   0.087   3.301  10.587 -1.0356  0.2780  0.4834
  256TMC3     O 3935   0.205   3.273  10.582 -0.5617  0.5403  0.5396
  256TMC3     H 3936   0.255   3.475  10.512  0.1200 -0.8077  0.0942
  256TMC3    H1 3937   4.601   3.429  10.655  1.2625 -1.1598 -0.4553
  256TMC3    H2 3938   4.707   3.782  10.453 -3.0948 -1.0786  0.3018
  256TMC3    C7 3939   4.515   3.667  10.561 -0.0687  0.6508 -0.0495
  256TMC3    C8 3940   0.206   3.699  10.385  0.0824  0.5282 -0.1686
  256TMC3    O1 3941   4.420   3.596  10.534 -0.3880  0.1134  0.1085
  256TMC3    O2 3942   0.273   3.612  10.329  0.3496  0.4888  0.4979
  257MPD2     C 3943   3.842   0.513  13.156  0.3054  0.1151 -0.3937
  257MPD2    C1 3944   3.965   0.547  13.214  0.3872  0.0306 -0.4930
  257MPD2    C2 3945   4.024   0.447  13.289  0.8360  0.0062  0.2430
  257MPD2    C3 3946   3.969   0.318  13.314 -0.3530  0.2674 -0.1051
  257MPD2    C4 3947   3.843   0.293  13.261  0.8943 -0.5690  0.1437
  257MPD2    C5 3948   3.790   0.389  13.179  0.4324 -1.1621 -0.2686
  257MPD2     H 3949   4.118   0.463  13.339  1.4680 -1.0262 -0.6213
  257MPD2    H1 3950   3.787   0.200  13.271 -0.0036 -0.1317 -0.7124
  257MPD2    H2 3951   3.790   0.572  13.081  0.4134  0.2215 -0.3853
  257MPD2    H3 3952   3.701   0.357  13.125  1.9951 -2.0457 -2.3047
  257MPD2     N 3953   4.035   0.224  13.391 -0.1447 -0.7136 -0.3730
  257MPD2    H5 3954   4.125   0.242  13.435  0.4187 -3.4457 -0.4614
  257MPD2    N1 3955   4.013   0.676  13.197  0.2742 -0.4847  0.3570
  257MPD2    H7 3956   3.952   0.739  13.146  0.4178 -0.8477 -0.2588
  258TMC3    C1 3957   4.071   0.020  13.507  0.5386 -0.1194 -0.3915
  258TMC3    C2 3958   4.082   4.632  13.498 -0.1123 -0.5422 -0.2300
  258TMC3    C3 3959   4.168   4.560  13.580  0.1470 -0.3020 -0.6417
  258TMC3    C4 3960   4.134   0.094  13.605 -0.0294  0.5775 -0.6339
  258TMC3    C5 3961   4.203   0.020  13.691  1.1220 -0.1697 -0.3470
  258TMC3    C6 3962   4.217   4.629  13.688  0.8232  0.3005 -0.4902
  258TMC3     C 3963   3.998   0.094  13.406 -0.0215 -0.0666 -0.6722
  258TMC3     O 3964   3.902   0.032  13.353  0.3484 -0.4081  0.5623
  258TMC3     H 3965   4.051   4.584  13.406  0.3608 -0.4381 -0.4446
  258TMC3    H1 3966   4.102   0.194  13.632 -0.9596  0.0455  0.2130
  258TMC3    H2 3967   4.263   4.572  13.769  0.6633 -1.5420 -1.6964
  258TMC3    C7 3968   4.245   0.088  13.814 -0.3481 -0.0203  0.7059
  258TMC3    C8 3969   4.193   4.423  13.557  0.3369 -1.1670  0.3761
  258TMC3    O1 3970   4.176   0.183  13.845  0.0682 -0.1948 -0.3587
  258TMC3    O2 3971   4.110   4.358  13.498 -0.1318  0.0444 -0.7402
  259MPD2     C 3972   2.918   2.951   0.532 -0.5025  0.2485  0.0014
  259MPD2    C1 3973   2.983   2.856   0.618 -0.7607  0.3073 -0.0989
  259MPD2    C2 3974   3.077   2.777   0.554 -0.5170  0.2139  0.7643
  259MPD2    C3 3975   3.107   2.783   0.419  0.3847  0.3767 -0.6124
  259MPD2    C4 3976   3.047   2.876   0.339  0.5341  0.0406 -0.2674
  259MPD2    C5 3977   2.955   2.955   0.400  0.7519  0.3571  0.6153
  259MPD2     H 3978   3.134   2.707   0.614 -0.2274  0.2695  0.5572
  259MPD2    H1 3979   3.072   2.897   0.236  1.0714 -3.2970 -0.8340
  259MPD2    H2 3980   2.853   3.025   0.578  0.6105  0.9615  0.4296
  259MPD2    H3 3981   2.913   3.028   0.332  0.2771  0.6370  1.2041
  259MPD2     N 3982   3.202   2.692   0.376  0.3864 -0.2535 -0.6446
  259MPD2    H5 3983   3.228   2.621   0.443  1.6266  3.1959  2.4795
  259MPD2    N1 3984   2.964   2.859   0.759 -0.1844 -0.9811  0.2415
  259MPD2    H7 3985   2.901   2.930   0.796  1.6467 -0.3400  2.1135
  260TMC3    C1 3986   3.362   2.608   0.224  0.1164  0.6860 -0.9277
  260TMC3    C2 3987   3.470   2.676   0.189 -0.3479 -0.4821 -0.4536
  260TMC3    C3 3988   3.588   2.627   0.236 -0.0043 -0.5641 -0.0641
  260TMC3    C4 3989   3.374   2.505   0.316 -1.0375  0.5624  0.5436
  260TMC3    C5 3990   3.489   2.465   0.375  0.2865  0.6021 -1.2137
  260TMC3    C6 3991   3.603   2.526   0.327  0.0949  0.4983  0.9580
  260TMC3     C 3992   3.243   2.691   0.244 -0.4080 -0.1135 -0.3138
  260TMC3     O 3993   3.206   2.764   0.152 -0.0929  0.2027  0.1476
  260TMC3     H 3994   3.457   2.762   0.125 -2.4568 -0.1941  0.3589
  260TMC3    H1 3995   3.283   2.452   0.344 -1.4774  0.5808 -0.8810
  260TMC3    H2 3996   3.698   2.510   0.377 -0.2351  2.3683  2.1931
  260TMC3    C7 3997   3.499   2.325   0.391  0.5890 -0.0426  0.5458
  260TMC3    C8 3998   3.706   2.673   0.175  0.2999 -0.6663  0.1194
  260TMC3    O1 3999   3.606   2.267   0.366  0.1244  0.0370  0.1202
  260TMC3    O2 4000   3.710   2.795   0.150 -0.3400  0.0323  0.5826
  261MPD2     C 4001   4.475   0.555  12.953  0.1068  0.1037  0.6889
  261MPD2    C1 4002   4.600   0.613  12.977  0.6911  0.3440  0.3349
  261MPD2    C2 4003   4.635   0.726  12.912  0.6020 -0.3415 -0.3185
  261MPD2    C3 4004   4.550   0.781  12.815 -0.0382  0.1842 -0.2796
  261MPD2    C4 4005   4.425   0.724  12.796 -0.4607  0.6975  0.7215
  261MPD2    C5 4006   4.388   0.613  12.866 -0.6411  0.0695 -0.1114
  261MPD2     H 4007   4.732   0.771  12.929  0.4060 -0.6450  1.6103
  261MPD2    H1 4008   4.355   0.761  12.722  0.7350  0.9394 -0.2806
  261MPD2    H2 4009   4.444   0.456  12.983 -0.6957  0.4177  0.8954
  261MPD2    H3 4010   4.299   0.555  12.844 -1.3959  1.3143 -0.3864
  261MPD2     N 4011   4.585   0.894  12.737  0.4623  0.4820  0.6924
  261MPD2    H5 4012   4.679   0.931  12.748 -0.0408  1.3122  2.1237
  261MPD2    N1 4013   4.699   0.555  13.056  0.0505  0.2984 -0.2368
  261MPD2    H7 4014   0.039   0.609  13.071 -0.6057  1.0615  0.6300
  262TMC3    C1 4015   4.564   1.088  12.607  0.3765  0.6692  0.0771
  262TMC3    C2 4016   4.485   1.191  12.583  0.5537  0.3243  0.0336
  262TMC3    C3 4017   4.547   1.296  12.519 -0.5771 -0.5112 -0.6640
  262TMC3    C4 4018   4.686   1.071  12.556 -1.0468 -0.1316 -0.2919
  262TMC3    C5 4019   4.742   1.176  12.493 -0.4423  0.4639  0.8016
  262TMC3    C6 4020   4.677   1.296  12.479  0.7024 -0.1964  0.1306
  262TMC3     C 4021   4.498   0.972  12.668  1.1716 -0.3300  0.0271
  262TMC3     O 4022   4.373   0.961  12.649 -0.3842 -0.5860 -0.6164
  262TMC3     H 4023   4.382   1.201  12.613  0.2465 -0.0059 -0.8982
  262TMC3    H1 4024   4.736   0.975  12.565 -3.1227 -1.2992 -1.3968
  262TMC3    H2 4025   4.714   1.383  12.426  0.6860  1.7107  3.2645
  262TMC3    C7 4026   0.120   1.160  12.419  0.1592 -0.8630 -0.6494
  262TMC3    C8 4027   4.477   1.423  12.492  0.4556 -0.4334 -0.4431
  262TMC3    O1 4028   0.179   1.050  12.437  0.5386  0.2741  0.7030
  262TMC3    O2 4029   4.540   1.531  12.492  0.4134 -0.0213 -0.3345
  263MPD2     C 4030   0.858   0.025  11.885  0.4328  0.8028 -0.4075
  263MPD2    C1 4031   0.989   0.038  11.840  0.0839 -0.3591  0.3749
  263MPD2    C2 4032   1.013   0.120  11.732 -0.3337 -0.5931  0.5660
  263MPD2    C3 4033   0.909   0.175  11.660 -0.2320  0.1527 -0.0620
  263MPD2    C4 4034   0.776   0.169  11.706 -0.6431 -0.2163  0.5066
  263MPD2    C5 4035   0.756   0.090  11.819 -0.4972  0.1635 -0.5081
  263MPD2     H 4036   1.111   0.151  11.699  0.0624 -0.9161  1.4274
  263MPD2    H1 4037   0.697   0.211  11.644  0.0112  1.4749  0.8010
  263MPD2    H2 4038   0.840   4.712  11.975 -0.5214 -0.5463 -1.4423
  263MPD2    H3 4039   0.657   0.077  11.862  0.3275 -1.7334  0.8138
  263MPD2     N 4040   0.956   0.243  11.545 -0.1785  0.1076  0.3624
  263MPD2    H5 4041   1.054   0.242  11.518 -0.3358 -0.0524 -0.2167
  263MPD2    N1 4042   1.091   4.714  11.904 -0.4673 -0.0426  0.0453
  263MPD2    H7 4043   1.060   4.640  11.966 -1.9075 -1.3894 -2.3387
  264TMC3    C1 4044   0.960   0.377  11.367 -1.1384  0.1203 -0.3011
  264TMC3    C2 4045   1.069   0.433  11.429  0.2540  0.6397  0.4036
  264TMC3    C3 4046   1.181   0.456  11.353 -0.8291  0.0593  0.4126
  264TMC3    C4 4047   0.951   0.351  11.240 -0.6380 -0.0157  0.3622
  264TMC3    C5 4048   1.061   0.374  11.165  0.6480  0.4627  0.2891
  264TMC3    C6 4049   1.176   0.432  11.218 -0.5000 -0.9700 -0.8155
  264TMC3     C 4050   0.876   0.296  11.453  0.1257  1.1797 -0.1215
  264TMC3     O 4051   0.754   0.280  11.437 -0.1085 -0.1446  0.2945
  264TMC3     H 4052   1.061   0.467  11.532 -1.5847  0.0468  0.4441
  264TMC3    H1 4053   0.857   0.321  11.196  0.2049 -0.5511 -1.1020
  264TMC3    H2 4054   1.270   0.459  11.171 -1.8150  4.4955 -0.2929
  264TMC3    C7 4055   1.071   0.338  11.028 -0.1447  0.8521 -0.0493
  264TMC3    C8 4056   1.259   0.575  11.375  0.8923  0.1926  0.6050
  264TMC3    O1 4057   1.176   0.365  10.975  0.2805 -0.1248 -0.0768
  264TMC3    O2 4058   1.298   0.636  11.276 -0.2635 -0.1141 -0.1307
  265MPD2     C 4059   2.792   0.362  15.676  0.0002 -0.2866  0.6902
  265MPD2    C1 4060   2.856   0.475  15.633  0.2166 -0.1401  0.1397
  265MPD2    C2 4061   2.952   0.461  15.527 -0.4230  0.4332  0.2968
  265MPD2    C3 4062   2.979   0.334  15.477 -0.3566  0.0103  0.2847
  265MPD2    C4 4063   2.909   0.224  15.520 -0.0030 -0.4157 -1.0390
  265MPD2    C5 4064   2.823   0.237  15.623  0.4049 -0.3329  0.7819
  265MPD2     H 4065   3.002   0.548  15.485  2.4799 -0.5499  1.6625
  265MPD2    H1 4066   2.930   0.124  15.484  1.2196 -0.1068 -1.1740
  265MPD2    H2 4067   2.702   0.361  15.737 -0.4804  2.6723  0.0206
  265MPD2    H3 4068   2.769   0.157  15.672  0.2988 -1.0853 -0.5568
  265MPD2     N 4069   3.075   0.304  15.370 -0.1008 -0.2591  0.4876
  265MPD2    H5 4070   3.076   0.208  15.337 -0.4373  0.3117 -1.1607
  265MPD2    N1 4071   2.834   0.601  15.688  0.3469  0.3967 -0.1572
  265MPD2    H7 4072   2.882   0.678  15.644  2.5212 -2.1158 -2.1363
  266TMC3    C1 4073   2.772   0.773  15.840  0.0651 -0.1621  0.5982
  266TMC3    C2 4074   2.783   0.806  15.971  0.2632 -0.7067 -0.2676
  266TMC3    C3 4075   2.797   0.939  16.001  0.2624  0.1990 -0.3689
  266TMC3    C4 4076   2.750   0.858  15.742  0.0600 -0.2213  0.0663
  266TMC3    C5 4077   2.748   0.994  15.782  1.3023 -0.2477  0.0241
  266TMC3    C6 4078   2.778   1.041  15.910  0.1644  0.8057  0.2094
  266TMC3     C 4079   2.766   0.633  15.806 -0.3115 -0.3386  0.7142
  266TMC3     O 4080   2.693   0.560  15.871 -0.4965 -0.1778 -0.2972
  266TMC3     H 4081   2.807   0.728  16.042  1.0708 -0.3205 -0.1211
  266TMC3    H1 4082   2.735   0.816  15.644  2.1954 -0.0025 -0.3489
  266TMC3    H2 4083   2.780   1.145  15.939 -1.2226  0.3623  1.8517
  266TMC3    C7 4084   2.717   1.090  15.675 -0.3552 -0.1608  1.1346
  266TMC3    C8 4085   2.909   0.961  16.083 -0.5808  0.2646 -0.3607
  266TMC3    O1 4086   2.624   1.058  15.603 -0.5196  0.3157 -0.6150
  266TMC3    O2 4087   2.965   0.859  16.116  0.0779 -0.6283  0.2461
  267MPD2     C 4088   0.390   2.276   0.363  0.6544 -0.1059  0.4104
  267MPD2    C1 4089   0.482   2.359   0.301 -0.0850 -0.3816 -0.7639
  267MPD2    C2 4090   0.483   2.362   0.165 -0.0771 -0.1632  0.3737
  267MPD2    C3 4091   0.392   2.286   0.092  1.0588  0.0508 -0.1806
  267MPD2    C4 4092   0.294   2.220   0.158  0.6093  1.5597  0.4899
  267MPD2    C5 4093   0.295   2.212   0.294 -0.3704 -0.8266 -0.0100
  267MPD2     H 4094   0.566   2.406   0.111  0.0569  0.7855  1.3555
  267MPD2    H1 4095   0.221   2.158   0.106 -0.1494  0.2774  3.0603
  267MPD2    H2 4096   0.406   2.258   0.468  2.1898  1.5054  0.4617
  267MPD2    H3 4097   0.227   2.144   0.345 -0.4188 -0.2540  0.7024
  267MPD2     N 4098   0.389   2.271  17.724 -0.3954 -0.0808 -0.3448
  267MPD2    H5 4099   0.309   2.223  17.684 -1.7414  1.7314  0.1408
  267MPD2    N1 4100   0.588   2.423   0.369  0.7978  0.1498  0.1808
  267MPD2    H7 4101   0.646   2.484   0.313 -0.7636  1.1827 -0.3018
  268TMC3    C1 4102   0.758   2.466   0.518 -0.4131  0.0373 -0.7279
  268TMC3    C2 4103   0.769   2.592   0.475  0.1689  0.5910 -0.3350
  268TMC3    C3 4104   0.897   2.641   0.462  0.5558  0.2408  0.0977
  268TMC3    C4 4105   0.863   2.390   0.557  0.7356  0.3573  0.4629
  268TMC3    C5 4106   0.986   2.453   0.556 -0.4113  0.7740 -0.1952
  268TMC3    C6 4107   1.011   2.568   0.486  0.2374 -0.5816 -0.2202
  268TMC3     C 4108   0.638   2.394   0.492 -0.1236 -0.6318  0.0324
  268TMC3     O 4109   0.615   2.300   0.567  0.1664 -0.4091 -0.2231
  268TMC3     H 4110   0.686   2.659   0.456 -1.6007 -1.1463  1.2388
  268TMC3    H1 4111   0.837   2.298   0.608  0.8408  0.0674 -0.0048
  268TMC3    H2 4112   1.104   2.623   0.490  1.0207 -2.0075  0.9184
  268TMC3    C7 4113   1.096   2.362   0.582  0.4912 -0.5298  0.3343
  268TMC3    C8 4114   0.909   2.787   0.422  0.0455 -0.3410  0.1731
  268TMC3    O1 4115   1.079   2.273   0.668  0.3569 -0.3584 -0.3795
  268TMC3    O2 4116   0.811   2.858   0.429  0.2389  0.0914  0.1918
  269MPD2     C 4117   0.892   1.012  15.572 -0.8587 -0.4136  0.4683
  269MPD2    C1 4118   0.801   1.046  15.666 -0.4402  0.5261  0.7067
  269MPD2    C2 4119   0.755   1.178  15.681  0.4213  0.4492 -0.0895
  269MPD2    C3 4120   0.815   1.270  15.608 -0.2278 -0.0772 -0.1212
  269MPD2    C4 4121   0.903   1.237  15.504 -0.4802 -0.6346  0.4854
  269MPD2    C5 4122   0.946   1.107  15.487 -0.3781 -0.4813  0.2023
  269MPD2     H 4123   0.682   1.198  15.759 -1.7193  0.0892 -1.9858
  269MPD2    H1 4124   0.942   1.308  15.431 -0.8317 -0.4163  0.5092
  269MPD2    H2 4125   0.938   0.914  15.579 -1.4321 -0.6918  0.3675
  269MPD2    H3 4126   1.013   1.071  15.410 -0.9061 -2.3806  0.6341
  269MPD2     N 4127   0.775   1.398  15.641  0.6715 -0.7987 -0.4453
  269MPD2    H5 4128   0.704   1.408  15.713  0.2260 -2.0364 -0.7007
  269MPD2    N1 4129   0.766   0.939  15.752 -0.5968  0.1102 -0.4948
  269MPD2    H7 4130   0.817   0.851  15.745 -0.7158 -0.0543  0.6395
  270TMC3    C1 4131   0.641   0.790  15.867  0.2111  0.3111  0.5496
  270TMC3    C2 4132   0.524   0.715  15.855  0.4358  0.7202  0.1536
  270TMC3    C3 4133   0.505   0.600  15.915 -0.1541  0.0625 -0.3539
  270TMC3    C4 4134   0.751   0.737  15.931  0.2495  0.2135  0.7785
  270TMC3    C5 4135   0.730   0.621  15.997 -0.2771 -1.2026 -0.2989
  270TMC3    C6 4136   0.609   0.555  15.995  0.1645 -0.2780  0.5182
  270TMC3     C 4137   0.649   0.927  15.821  0.1878 -0.1507  0.1650
  270TMC3     O 4138   0.553   1.000  15.841 -0.0038 -0.1752 -0.4927
  270TMC3     H 4139   0.441   0.770  15.812 -0.4145  1.2170  2.4322
  270TMC3    H1 4140   0.842   0.796  15.929  1.1499 -1.1806  1.0470
  270TMC3    H2 4141   0.603   0.463  16.052  0.4145  0.2964  1.4634
  270TMC3    C7 4142   0.839   0.534  15.956 -0.5183  0.4179  0.6419
  270TMC3    C8 4143   0.461   0.483  15.837  0.2167  0.2063  0.4077
  270TMC3    O1 4144   0.947   0.583  15.928  0.1543  0.0855  0.4560
  270TMC3    O2 4145   0.490   0.375  15.887 -0.7257  0.1921  0.0372
  271MPD2     C 4146   4.568   0.888  13.894 -0.5703 -0.1109  0.0117
  271MPD2    C1 4147   4.505   0.864  14.013 -0.4551 -0.0616  0.1559
  271MPD2    C2 4148   4.368   0.851  14.008 -0.5954 -0.0880 -0.7055
  271MPD2    C3 4149   4.292   0.869  13.894 -0.4459  1.1157  0.0737
  271MPD2    C4 4150   4.365   0.895  13.780  0.0354  0.0801  0.2725
  271MPD2    C5 4151   4.501   0.913  13.784 -0.2103  0.2704 -0.0693
  271MPD2     H 4152   4.317   0.842  14.103 -1.1055 -1.1286 -1.0760
  271MPD2    H1 4153   4.314   0.903  13.684 -1.8035 -1.7402  1.1143
  271MPD2    H2 4154   4.677   0.896  13.889 -0.5301 -1.7839 -1.4699
  271MPD2    H3 4155   4.556   0.928  13.692  0.5554 -0.1069  0.3375
  271MPD2     N 4156   4.152   0.877  13.887  0.5969 -0.0390  0.1660
  271MPD2    H5 4157   4.108   0.913  13.803  0.0358 -0.6977  0.1766
  271MPD2    N1 4158   4.571   0.855  14.142 -0.2883  0.1069  0.5720
  271MPD2    H7 4159   4.517   0.822  14.221  1.5446 -0.5680  1.5495
  272TMC3    C1 4160   0.017   0.853  14.289 -0.1959 -0.2543  0.1746
  272TMC3    C2 4161   0.153   0.864  14.302  0.1241  0.0454 -0.4550
  272TMC3    C3 4162   0.211   0.811  14.407 -0.4395  0.0235 -0.2376
  272TMC3    C4 4163   4.681   0.818  14.391  0.0912 -0.5842 -0.6887
  272TMC3    C5 4164   4.739   0.770  14.501 -0.3229 -0.5097  0.6498
  272TMC3    C6 4165   0.130   0.765  14.506 -0.1427 -0.0700 -0.2873
  272TMC3     C 4166   4.704   0.891  14.159  0.4500  0.0880  0.1350
  272TMC3     O 4167   0.044   0.933  14.082  0.0449 -0.0136  0.0366
  272TMC3     H 4168   0.214   0.916  14.228  0.1887  1.9667  0.9371
  272TMC3    H1 4169   4.573   0.809  14.383  0.0754  0.1055 -1.2750
  272TMC3    H2 4170   0.171   0.729  14.600  0.2654  0.1738 -0.3690
  272TMC3    C7 4171   4.666   0.794  14.626  0.4803 -0.3730  0.3208
  272TMC3    C8 4172   0.355   0.802  14.420  0.7484  0.2089 -0.5908
  272TMC3    O1 4173   4.545   0.784  14.619 -0.5435 -0.6561 -0.7100
  272TMC3    O2 4174   0.419   0.882  14.356 -0.1898  0.6505 -0.4329
  273MPD2     C 4175   1.526   3.334  12.088 -0.6383  0.0391  0.2312
  273MPD2    C1 4176   1.619   3.439  12.060  0.2747 -0.0313  0.2613
  273MPD2    C2 4177   1.624   3.501  11.938 -0.3994  0.5418  0.1594
  273MPD2    C3 4178   1.514   3.472  11.846  0.0597 -0.4881 -0.0489
  273MPD2    C4 4179   1.434   3.368  11.878  0.1174  0.2281  0.5493
  273MPD2    C5 4180   1.431   3.295  11.994 -0.1624 -0.2487 -0.5190
  273MPD2     H 4181   1.699   3.578  11.925  0.6870 -0.3968  0.8476
  273MPD2    H1 4182   1.357   3.334  11.809 -0.4308 -1.7739  2.1743
  273MPD2    H2 4183   1.537   3.273  12.176  0.3954 -1.1321 -0.7177
  273MPD2    H3 4184   1.355   3.218  12.005 -0.9371  0.3328 -1.7785
  273MPD2     N 4185   1.493   3.539  11.732  0.1635 -0.0535 -0.0385
  273MPD2    H5 4186   1.402   3.529  11.687 -0.3938  2.7740  0.4461
  273MPD2    N1 4187   1.692   3.488  12.174  0.8748  0.7552  0.2308
  273MPD2    H7 4188   1.684   3.440  12.263  3.2429  2.2699  1.2405
  274TMC3    C1 4189   1.564   3.660  11.538 -0.3397 -0.2881  0.7817
  274TMC3    C2 4190   1.432   3.695  11.510 -0.0105 -0.3724 -0.4912
  274TMC3    C3 4191   1.411   3.824  11.466 -0.5527  1.1126  0.3628
  274TMC3    C4 4192   1.660   3.751  11.507  0.1961  0.2585  0.0402
  274TMC3    C5 4193   1.636   3.878  11.477 -0.6114 -0.4088  0.3322
  274TMC3    C6 4194   1.510   3.914  11.440  0.1566  0.4360  0.0651
  274TMC3     C 4195   1.591   3.624  11.676 -0.6907 -0.2554 -0.2904
  274TMC3     O 4196   1.700   3.655  11.723  0.5479  0.5455  0.6511
  274TMC3     H 4197   1.347   3.635  11.540 -1.4756  1.6084 -0.6395
  274TMC3    H1 4198   1.764   3.723  11.519  0.2608 -0.1028 -1.3711
  274TMC3    H2 4199   1.484   4.019  11.427 -2.1576  0.0747  1.8371
  274TMC3    C7 4200   1.712   3.976  11.548 -0.3660 -0.1605  0.0037
  274TMC3    C8 4201   1.284   3.860  11.409 -0.2084  0.0433  0.0450
  274TMC3    O1 4202   1.681   4.090  11.515  0.0984  0.5133 -0.9655
  274TMC3    O2 4203   1.283   3.939  11.313  0.2089  0.0646 -0.3793
  275MPD2     C 4204   1.537   1.966  14.527 -0.0763 -0.7214 -0.0948
  275MPD2    C1 4205   1.526   1.845  14.586 -0.1874 -0.3820 -0.0504
  275MPD2    C2 4206   1.400   1.793  14.615 -0.4883  0.6295  0.1495
  275MPD2    C3 4207   1.284   1.857  14.570 -0.5943  0.6874 -0.5310
  275MPD2    C4 4208   1.298   1.972  14.497 -0.3704 -0.2010  0.1128
  275MPD2    C5 4209   1.422   2.028  14.489  0.1729  0.4346  0.2443
  275MPD2     H 4210   1.385   1.705  14.676  1.9378 -0.2051 -0.4546
  275MPD2    H1 4211   1.205   2.016  14.462 -0.5306  1.3454  2.5295
  275MPD2    H2 4212   1.629   2.022  14.513  0.1692 -1.5682 -1.8864
  275MPD2    H3 4213   1.429   2.130  14.454 -2.3382  1.0418  1.4846
  275MPD2     N 4214   1.152   1.800  14.576  0.4770  0.3719 -0.5057
  275MPD2    H5 4215   1.072   1.855  14.547  0.2202 -1.1761 -2.7846
  275MPD2    N1 4216   1.650   1.775  14.621 -0.0037 -0.8225 -0.4916
  275MPD2    H7 4217   1.637   1.686  14.669 -0.9449 -0.6777 -0.4704
  276TMC3    C1 4218   1.880   1.728  14.665 -0.0970  0.5763 -0.1601
  276TMC3    C2 4219   1.835   1.623  14.733  0.8841  0.0728 -0.1973
  276TMC3    C3 4220   1.907   1.582  14.843  0.6448 -0.2342 -0.4892
  276TMC3    C4 4221   2.005   1.789  14.704 -0.4796 -0.6536  0.4590
  276TMC3    C5 4222   2.081   1.736  14.808  0.3179  0.1130 -0.5330
  276TMC3    C6 4223   2.023   1.644  14.886  0.3689 -0.6895 -0.0313
  276TMC3     C 4224   1.778   1.813  14.595 -0.4662 -0.2440 -0.2567
  276TMC3     O 4225   1.824   1.913  14.539  0.9098  0.2413 -0.1900
  276TMC3     H 4226   1.740   1.573  14.718  0.5196  0.4949  0.7463
  276TMC3    H1 4227   2.027   1.878  14.646 -1.1195  0.1485  1.4537
  276TMC3    H2 4228   2.072   1.609  14.976  0.0752 -1.0345 -0.0043
  276TMC3    C7 4229   2.166   1.832  14.877 -0.4901 -0.6716 -0.1617
  276TMC3    C8 4230   1.837   1.524  14.948 -0.5021  0.3741  0.2431
  276TMC3    O1 4231   2.201   1.792  14.987 -0.1008 -0.1367  0.0580
  276TMC3    O2 4232   1.853   1.569  15.060  0.4243 -0.3425 -0.1610
  277MPD2     C 4233   3.378   1.117  13.188 -1.0574  0.2406 -0.0548
  277MPD2    C1 4234   3.259   1.119  13.255  0.5458  0.3546  0.2636
  277MPD2    C2 4235   3.233   1.027  13.354  0.8982 -0.5934  0.3261
  277MPD2    C3 4236   3.301   0.905  13.361  0.2970  0.5883 -0.0800
  277MPD2    C4 4237   3.422   0.901  13.289  0.4126 -0.5212  0.0976
  277MPD2    C5 4238   3.459   1.013  13.217  0.2492 -0.3674 -0.3881
  277MPD2     H 4239   3.142   1.029  13.412  0.2086  0.3925 -0.7955
  277MPD2    H1 4240   3.485   0.813  13.288 -1.5273 -1.9141  1.1747
  277MPD2    H2 4241   3.394   1.198  13.117  1.8679 -0.8375 -0.6333
  277MPD2    H3 4242   3.551   1.013  13.160  0.8522  0.0957  0.5910
  277MPD2     N 4243   3.248   0.799  13.439  0.4109  0.1536 -0.3546
  277MPD2    H5 4244   3.163   0.831  13.483  0.4278 -0.1886 -0.0707
  277MPD2    N1 4245   3.164   1.218  13.215 -0.0643  0.0720 -0.1942
  277MPD2    H7 4246   3.205   1.290  13.156  0.9816 -0.5281 -0.2149
  278TMC3    C1 4247   3.198   0.577  13.495 -0.4395 -0.5936 -0.5304
  278TMC3    C2 4248   3.190   0.453  13.450  0.8145 -0.6317  0.3909
  278TMC3    C3 4249   3.087   0.374  13.500  0.5689 -0.0451 -0.2104
  278TMC3    C4 4250   3.099   0.627  13.579  0.0103  0.1627  0.4696
  278TMC3    C5 4251   3.005   0.545  13.623 -0.3265  0.2023 -0.1269
  278TMC3    C6 4252   2.991   0.418  13.580 -0.0039  0.0201 -0.6449
  278TMC3     C 4253   3.294   0.664  13.432 -0.2944  0.3195  0.3540
  278TMC3     O 4254   3.384   0.620  13.362  0.6452  0.0707  0.2209
  278TMC3     H 4255   3.279   0.408  13.409  0.2135  0.4892 -2.1119
  278TMC3    H1 4256   3.092   0.732  13.606 -2.4843 -0.9725  4.1757
  278TMC3    H2 4257   2.926   0.343  13.623  1.6885 -0.0781  1.7889
  278TMC3    C7 4258   2.901   0.611  13.703 -0.2996  0.2203  0.3821
  278TMC3    C8 4259   3.072   0.237  13.452 -0.2139  0.1003 -0.7271
  278TMC3    O1 4260   2.946   0.704  13.772  0.2724 -0.1979  0.2751
  278TMC3    O2 4261   3.175   0.191  13.398  0.1199 -0.2589  0.4307
  279MPD2     C 4262   2.634   1.365   0.383 -0.2549 -0.4034  0.0456
  279MPD2    C1 4263   2.667   1.247   0.312  0.0694  0.6565 -0.1143
  279MPD2    C2 4264   2.700   1.254   0.175  0.8886  0.3584 -0.6344
  279MPD2    C3 4265   2.668   1.378   0.113  0.4844 -0.9695 -0.3282
  279MPD2    C4 4266   2.628   1.487   0.187 -0.6983 -0.5110 -0.1148
  279MPD2    C5 4267   2.607   1.484   0.321  0.6654 -0.1922  0.0560
  279MPD2     H 4268   2.727   1.162   0.123 -1.7790  0.2709 -1.8709
  279MPD2    H1 4269   2.598   1.575   0.131 -0.4619 -0.2273  0.2045
  279MPD2    H2 4270   2.628   1.371   0.491  0.6026  2.5295 -0.0652
  279MPD2    H3 4271   2.574   1.573   0.374 -0.1535 -2.0160  2.6487
  279MPD2     N 4272   2.654   1.377  17.741  0.4944  0.0851  0.4988
  279MPD2    H5 4273   2.641   1.460  17.685  2.3055 -0.4554 -0.7194
  279MPD2    N1 4274   2.674   1.129   0.384  0.1227 -0.0037 -0.7950
  279MPD2    H7 4275   2.645   1.125   0.482  1.7707 -0.4997 -0.3270
  280TMC3    C1 4276   2.709   0.904   0.432 -0.0368 -0.0102 -0.4724
  280TMC3    C2 4277   2.794   0.795   0.416 -0.7519 -0.8186 -0.2627
  280TMC3    C3 4278   2.732   0.671   0.417  0.3504 -0.5425 -0.4097
  280TMC3    C4 4279   2.571   0.888   0.446  0.1326  0.0306 -0.3557
  280TMC3    C5 4280   2.525   0.762   0.425  0.5016  0.3747  0.2585
  280TMC3    C6 4281   2.603   0.647   0.425  0.6054 -0.2587 -0.2285
  280TMC3     C 4282   2.748   1.019   0.349 -0.1379  0.4349 -0.2429
  280TMC3     O 4283   2.826   1.004   0.251  0.1821 -0.4093 -0.2004
  280TMC3     H 4284   2.897   0.817   0.389 -1.0402  0.4717 -0.3166
  280TMC3    H1 4285   2.505   0.974   0.453  1.4332  1.1199 -1.5195
  280TMC3    H2 4286   2.558   0.554   0.393  2.0636 -1.2859  0.6702
  280TMC3    C7 4287   2.388   0.740   0.447 -0.2892  0.3066  0.6687
  280TMC3    C8 4288   2.818   0.554   0.380  0.2279 -0.7495 -0.0281
  280TMC3    O1 4289   2.352   0.630   0.492  0.2605 -0.0240  0.2030
  280TMC3    O2 4290   2.755   0.452   0.375 -0.3466  0.1158  0.4754
  281TMC3    C1 4291   1.223   1.142  13.854 -0.1114  0.1713  0.1293
  281TMC3    C2 4292   1.334   1.225  13.824  0.1776 -0.4625  0.3155
  281TMC3    C3 4293   1.425   1.172  13.737 -0.0221  0.0429 -0.5153
  281TMC3    C4 4294   1.210   1.017  13.813 -0.1358 -0.3367  0.3072
  281TMC3    C5 4295   1.305   0.972  13.724  0.5347 -0.1722  0.4136
  281TMC3    C6 4296   1.418   1.042  13.691  0.4891  0.1822 -0.5943
  281TMC3     C 4297   1.101   1.202  13.893  0.3167  0.9715  0.7493
  281TMC3     O 4298   1.024   1.131  13.958 -0.7966 -0.6054 -0.1627
  281TMC3     H 4299   1.347   1.325  13.864  2.5092 -0.5902 -0.1380
  281TMC3    H1 4300   1.120   0.957  13.819 -0.2292 -0.3448 -1.0887
  281TMC3    H2 4301   1.486   1.004  13.615 -0.4563 -0.6975 -0.9988
  281TMC3    C7 4302   1.274   0.859  13.647 -0.5160 -0.3505  0.1067
  281TMC3    C8 4303   1.557   1.243  13.721  0.5392  0.1658 -0.2805
  281TMC3    O1 4304   1.314   0.861  13.531  0.5046 -0.7066  0.3494
  281TMC3    O2 4305   1.652   1.197  13.782 -0.6121 -0.2829 -0.5161
  282MPD2     C 4306   2.803   2.312  14.880  0.0314 -0.7008 -0.3190
  282MPD2    C1 4307   2.747   2.411  14.955 -0.3476 -0.0285  0.2701
  282MPD2    C2 4308   2.662   2.502  14.899 -0.2575 -0.1122 -0.0959
  282MPD2    C3 4309   2.616   2.480  14.768 -0.2129 -0.5049 -0.2360
  282MPD2    C4 4310   2.656   2.363  14.699  0.2725  0.4279  0.2576
  282MPD2    C5 4311   2.753   2.288  14.753  0.6850  0.0178 -0.7478
  282MPD2     H 4312   2.635   2.582  14.967  1.7661  1.7110 -1.4116
  282MPD2    H1 4313   2.612   2.325  14.607 -1.0317 -1.5510  1.6903
  282MPD2    H2 4314   2.880   2.250  14.923 -0.1361 -0.3509  0.4777
  282MPD2    H3 4315   2.787   2.196  14.706  0.6037 -0.0372 -0.6982
  282MPD2     N 4316   2.515   2.557  14.704 -0.1597  0.1472 -0.0185
  282MPD2    H5 4317   2.480   2.521  14.615 -1.8162 -0.7456  1.0071
  282MPD2    N1 4318   2.787   2.431  15.094  0.2524  0.3366  0.3101
  282MPD2    H7 4319   2.745   2.514  15.135 -0.6767 -1.5832  3.2786
  283TMC3    C1 4320   2.884   2.390  15.308  0.5062  0.2248 -0.3316
  283TMC3    C2 4321   2.912   2.519  15.331 -0.0148 -0.6931  0.2037
  283TMC3    C3 4322   2.946   2.548  15.462 -0.5925  0.3935  0.6811
  283TMC3    C4 4323   2.886   2.300  15.410  1.1489 -0.2550  0.0022
  283TMC3    C5 4324   2.909   2.335  15.535  0.2365 -0.1592  0.5162
  283TMC3    C6 4325   2.936   2.464  15.568  0.4547 -0.2152 -0.2314
  283TMC3     C 4326   2.864   2.340  15.173 -0.2190  0.0478  0.0379
  283TMC3     O 4327   2.897   2.222  15.149  0.3939 -0.5315  0.8174
  283TMC3     H 4328   2.939   2.578  15.243 -2.9529  1.3540  0.6838
  283TMC3    H1 4329   2.869   2.195  15.389  0.2422  0.0311 -0.6911
  283TMC3    H2 4330   2.964   2.499  15.667 -2.4026  0.3225  0.3955
  283TMC3    C7 4331   2.886   2.255  15.649  0.1538  0.4224  0.4871
  283TMC3    C8 4332   3.010   2.672  15.491  0.6869  0.6497  0.9281
  283TMC3    O1 4333   2.875   2.327  15.753  0.4067 -0.0014 -0.1819
  283TMC3    O2 4334   3.077   2.682  15.593 -0.2932 -0.1858  0.4135
  284MPD2     C 4335   0.955   1.543  12.469 -0.1066  0.2406  0.4737
  284MPD2    C1 4336   1.075   1.581  12.408  0.3549 -0.3703  0.1833
  284MPD2    C2 4337   1.190   1.512  12.442 -0.2231 -0.2962  0.6140
  284MPD2    C3 4338   1.183   1.391  12.518 -0.5760  0.2428  0.4903
  284MPD2    C4 4339   1.059   1.347  12.565  1.0143  0.0082  0.2853
  284MPD2    C5 4340   0.949   1.426  12.544  0.4079  0.2703 -1.3084
  284MPD2     H 4341   1.285   1.548  12.404  0.1819 -0.9479  0.9997
  284MPD2    H1 4342   1.045   1.249  12.608 -0.5023  0.7426  1.4582
  284MPD2    H2 4343   0.863   1.587  12.433  0.8826  1.8465 -0.0671
  284MPD2    H3 4344   0.855   1.383  12.577  0.3732  0.9436 -0.5462
  284MPD2     N 4345   1.302   1.315  12.543  0.4378 -0.7003  0.7461
  284MPD2    H5 4346   1.299   1.216  12.564  2.0640 -1.3745 -2.1618
  284MPD2    N1 4347   1.088   1.689  12.312  0.4910  0.2636 -0.1403
  284MPD2    H7 4348   1.180   1.703  12.270  0.6879  0.6943  0.4340
  285TMC3    C1 4349   1.011   1.871  12.192 -0.5580 -0.2716 -1.0218
  285TMC3    C2 4350   1.006   1.802  12.073 -0.2480 -0.1957  0.7545
  285TMC3    C3 4351   0.967   1.868  11.960  0.5565  0.4374  0.2312
  285TMC3    C4 4352   0.979   2.007  12.202 -0.4478  0.2269 -0.7036
  285TMC3    C5 4353   0.929   2.063  12.088  0.2345  0.0758 -0.2719
  285TMC3    C6 4354   0.911   1.992  11.973 -0.3236  0.5306  0.8189
  285TMC3     C 4355   0.995   1.793  12.304 -0.7076 -0.1740  0.3304
  285TMC3     O 4356   0.905   1.820  12.385 -0.3616  0.2187 -0.3988
  285TMC3     H 4357   1.053   1.707  12.050 -0.0430 -0.1615  1.0391
  285TMC3    H1 4358   0.960   2.045  12.302  3.0705  0.8977 -0.2874
  285TMC3    H2 4359   0.871   2.036  11.882  1.0460  0.4788  0.1872
  285TMC3    C7 4360   0.954   2.204  12.059 -0.7396 -0.8072 -0.8390
  285TMC3    C8 4361   0.979   1.801  11.829 -0.2495  0.2606 -0.1525
  285TMC3    O1 4362   0.927   2.242  11.948  0.3948 -0.3332 -0.2116
  285TMC3    O2 4363   0.974   1.681  11.821  0.9309  0.3121  0.6671
  286MPD2     C 4364   1.886   0.665   1.661 -0.3445  0.5265 -0.5284
  286MPD2    C1 4365   1.830   0.648   1.534  0.6903  0.6407  0.3367
  286MPD2    C2 4366   1.869   0.539   1.464  0.2794  0.5767  0.1887
  286MPD2    C3 4367   1.967   0.457   1.512  1.1857 -0.3599  0.6562
  286MPD2    C4 4368   2.013   0.466   1.637  0.1423 -0.4356 -0.6785
  286MPD2    C5 4369   1.981   0.577   1.710 -0.0680 -0.3536  0.0719
  286MPD2     H 4370   1.841   0.519   1.362  0.0465  0.2954  0.3082
  286MPD2    H1 4371   2.079   0.384   1.663  1.2044  0.1287 -1.5876
  286MPD2    H2 4372   1.865   0.752   1.722 -0.3412 -0.5955  1.0990
  286MPD2    H3 4373   2.021   0.590   1.810  0.3465 -0.0967 -0.1297
  286MPD2     N 4374   2.019   0.352   1.443 -0.1822 -0.4510  0.4226
  286MPD2    H5 4375   2.094   0.304   1.492  1.0373 -0.2567 -1.2942
  286MPD2    N1 4376   1.733   0.737   1.478 -0.3310  0.3393  0.5015
  286MPD2    H7 4377   1.706   0.730   1.381 -0.0633  1.2300  0.3602
  287TMC3    C1 4378   2.056   0.186   1.270 -0.4289  0.0501  0.3035
  287TMC3    C2 4379   2.025   0.137   1.144  0.3520  0.4932 -0.2109
  287TMC3    C3 4380   2.097   0.029   1.103  0.5417  0.6256  0.1625
  287TMC3    C4 4381   2.167   0.146   1.336  0.5418  0.6407 -0.3352
  287TMC3    C5 4382   2.236   0.034   1.291 -0.6419  0.7087  0.3161
  287TMC3    C6 4383   2.196   4.714   1.178  0.0453  0.2603 -1.0195
  287TMC3     C 4384   1.983   0.305   1.314  0.0280 -0.1184 -0.0711
  287TMC3     O 4385   1.891   0.342   1.240 -0.2190 -0.0339  0.5140
  287TMC3     H 4386   1.952   0.186   1.080  0.5565 -2.1900 -2.4480
  287TMC3    H1 4387   2.208   0.193   1.425  0.4612  1.2914 -0.6459
  287TMC3    H2 4388   2.249   4.625   1.145 -1.0454 -0.9487  0.5111
  287TMC3    C7 4389   2.363   4.737   1.354  0.1932 -0.1653  0.1644
  287TMC3    C8 4390   2.091   4.732   0.971  0.4424  0.3475  0.5391
  287TMC3    O1 4391   2.412   0.067   1.441  0.5458 -0.0833 -0.1703
  287TMC3    O2 4392   1.977   4.735   0.912  0.1527  0.2919  0.1453
  288TMC3    C1 4393   3.696   0.279  14.701 -0.3066 -0.6956  0.9493
  288TMC3    C2 4394   3.560   0.289  14.713 -0.5586 -0.0568 -0.7513
  288TMC3    C3 4395   3.490   0.386  14.634  0.4556 -0.1662 -0.5296
  288TMC3    C4 4396   3.765   0.360  14.614  0.7173 -0.5374  0.5421
  288TMC3    C5 4397   3.695   0.459  14.548 -1.0300 -0.2375  0.0900
  288TMC3    C6 4398   3.562   0.477  14.560 -0.3067 -0.5349  0.2778
  288TMC3     C 4399   3.765   0.194  14.793 -0.1423 -0.0998  0.4141
  288TMC3     O 4400   3.694   0.113  14.856  0.5377 -0.6651 -0.8640
  288TMC3     H 4401   3.517   0.231  14.793  0.5047  0.8699  0.4951
  288TMC3    H1 4402   3.871   0.342  14.600  0.4481 -1.4358 -0.3444
  288TMC3    H2 4403   3.511   0.569  14.535 -0.3117 -0.0748  1.9393
  288TMC3    C7 4404   3.763   0.508  14.433 -0.3130  0.0559  0.1917
  288TMC3    C8 4405   3.366   0.435  14.691  0.0706 -0.3143 -0.6318
  288TMC3    O1 4406   3.885   0.511  14.423 -0.4143  0.3121 -0.5538
  288TMC3    O2 4407   3.356   0.552  14.710  0.3522 -0.1948 -0.4389
  289MPD2     C 4408   3.112   4.104  14.544  0.1230  0.2875 -0.2297
  289MPD2    C1 4409   3.136   4.235  14.494 -0.7428 -0.1169  0.6314
  289MPD2    C2 4410   3.052   4.293  14.398  0.2297 -0.1300 -0.2819
  289MPD2    C3 4411   2.956   4.214  14.342 -0.3025 -1.0198 -0.0943
  289MPD2    C4 4412   2.930   4.086  14.395  0.2786  0.1278 -0.7070
  289MPD2    C5 4413   3.012   4.028  14.489  0.2231  0.0320 -0.2586
  289MPD2     H 4414   3.070   4.389  14.351 -3.0875 -0.3643 -1.9921
  289MPD2    H1 4415   2.859   4.022  14.344  0.0926  1.8211 -2.5413
  289MPD2    H2 4416   3.171   4.062  14.626 -0.3757  0.9097  0.4469
  289MPD2    H3 4417   2.994   3.926  14.523 -0.1894  1.1009  2.7497
  289MPD2     N 4418   2.874   4.244  14.222 -0.1848  0.2463  0.5187
  289MPD2    H5 4419   2.821   4.170  14.176  1.3516 -0.7836  0.4062
  289MPD2    N1 4420   3.237   4.311  14.556  0.5016 -0.5575  0.3965
  289MPD2    H7 4421   3.279   4.259  14.633  2.1222  2.8572  1.7957
  290TMC3    C1 4422   2.875   4.356  14.018  0.9611 -0.3907  0.1478
  290TMC3    C2 4423   2.915   4.469  13.957 -0.3279  0.2862 -0.3242
  290TMC3    C3 4424   2.896   4.485  13.820 -0.4224 -0.3354  0.1488
  290TMC3    C4 4425   2.797   4.272  13.950  0.4215  0.6494 -0.7177
  290TMC3    C5 4426   2.768   4.298  13.819  0.1007  1.1564 -0.2599
  290TMC3    C6 4427   2.816   4.403  13.744  0.0893 -1.0169  0.1372
  290TMC3     C 4428   2.873   4.368  14.157  0.2072  0.7115  0.1602
  290TMC3     O 4429   2.904   4.475  14.207 -0.2017 -0.4138 -0.3778
  290TMC3     H 4430   2.990   4.535  13.997 -1.4369  1.2237  0.1802
  290TMC3    H1 4431   2.756   4.184  13.997  0.4779  0.7866 -0.4057
  290TMC3    H2 4432   2.796   4.411  13.638  0.7161  2.1799  0.2742
  290TMC3    C7 4433   2.691   4.199  13.747 -0.7860 -0.8765  0.0343
  290TMC3    C8 4434   2.965   4.596  13.765  0.3501  1.0800  0.1389
  290TMC3    O1 4435   2.689   4.222  13.628  0.5823  0.2756  0.2784
  290TMC3    O2 4436   3.079   4.579  13.729 -0.3939 -0.0513 -0.4990
  291MPD2     C 4437   2.490   4.237   0.314  0.2720 -0.2926 -0.5052
  291MPD2    C1 4438   2.566   4.157   0.398 -0.3104 -0.1334  0.0817
  291MPD2    C2 4439   2.664   4.225   0.471 -0.1230 -0.3979  0.5947
  291MPD2    C3 4440   2.691   4.364   0.463  0.0284 -0.2887  0.2266
  291MPD2    C4 4441   2.608   4.438   0.383  0.4140  0.6074 -0.5880
  291MPD2    C5 4442   2.507   4.374   0.310  0.6611 -0.5460 -0.1585
  291MPD2     H 4443   2.730   4.166   0.534  1.1327  1.2940  0.8481
  291MPD2    H1 4444   2.613   4.545   0.366  0.6100  0.6410 -0.3173
  291MPD2    H2 4445   2.415   4.192   0.250  0.6260 -0.5385 -0.7412
  291MPD2    H3 4446   2.444   4.429   0.242  0.6731 -1.7189 -1.1250
  291MPD2     N 4447   2.801   4.428   0.513 -0.0540  0.4149 -0.2786
  291MPD2    H5 4448   2.804   4.529   0.503  1.9970  0.3890  0.1331
  291MPD2    N1 4449   2.558   4.017   0.404  0.1362  0.8067  0.2873
  291MPD2    H7 4450   2.574   3.974   0.495 -1.3872  2.2148  1.2060
  292TMC3    C1 4451   2.460   3.821   0.346 -0.9201 -0.0292  0.6633
  292TMC3    C2 4452   2.365   3.832   0.452 -0.7014  1.0758 -1.0065
  292TMC3    C3 4453   2.258   3.740   0.451 -0.1423  0.6702 -0.4099
  292TMC3    C4 4454   2.441   3.734   0.247 -0.1631 -0.4304  0.2435
  292TMC3    C5 4455   2.332   3.647   0.248  0.3336 -0.2037  0.2031
  292TMC3    C6 4456   2.245   3.650   0.351  0.1940  0.1049 -0.5160
  292TMC3     C 4457   2.504   3.944   0.303  0.1472  0.0644  0.2735
  292TMC3     O 4458   2.497   3.965   0.182 -0.2217 -0.2980  0.1441
  292TMC3     H 4459   2.357   3.912   0.525 -1.2933 -0.4351  0.5689
  292TMC3    H1 4460   2.511   3.736   0.164  0.2996  0.8363  0.6574
  292TMC3    H2 4461   2.168   3.576   0.367 -0.2373  0.7827  0.5740
  292TMC3    C7 4462   2.322   3.546   0.141  0.0045 -0.6791 -0.6312
  292TMC3    C8 4463   2.153   3.742   0.561 -0.0206 -0.7318 -0.1869
  292TMC3    O1 4464   2.407   3.521   0.053  0.1468  0.5432  0.2331
  292TMC3    O2 4465   2.198   3.763   0.671  0.1177 -0.2980  0.1040
  293MPD2     C 4466   4.196   4.693  13.151  0.8736 -0.5429 -0.6440
  293MPD2    C1 4467   4.215   0.083  13.126 -0.8908 -0.0218  0.3070
  293MPD2    C2 4468   4.301   0.151  13.206  0.5159 -0.1388  0.5142
  293MPD2    C3 4469   4.383   0.087  13.295  0.1073 -0.1400 -0.0977
  293MPD2    C4 4470   4.375   4.695  13.307 -0.5535 -0.1317  0.7017
  293MPD2    C5 4471   4.281   4.626  13.228 -0.6270  0.2524 -0.1762
  293MPD2     H 4472   4.306   0.259  13.199 -0.0204 -0.0730  1.1678
  293MPD2    H1 4473   4.437   4.644  13.379  0.1595 -3.2194 -2.0858
  293MPD2    H2 4474   4.121   4.641  13.093 -0.9854  4.0861 -2.4446
  293MPD2    H3 4475   4.276   4.521  13.253  1.2379 -0.0056 -0.9554
  293MPD2     N 4476   4.467   0.168  13.375 -0.0984  0.3694 -1.0149
  293MPD2    H5 4477   4.472   0.266  13.348  1.4803  0.5273 -0.1497
  293MPD2    N1 4478   4.147   0.142  13.017 -0.8946  0.1963 -0.4962
  293MPD2    H7 4479   4.078   0.083  12.973  0.0103 -1.7666  0.7388
  294TMC3    C1 4480   4.065   0.303  12.866  0.6236 -0.7319  0.2057
  294TMC3    C2 4481   4.030   0.215  12.768 -0.2037 -0.3002 -0.1082
  294TMC3    C3 4482   3.955   0.260  12.663 -0.1802 -0.2217 -0.6470
  294TMC3    C4 4483   4.035   0.438  12.857 -0.9761  0.2361  0.2389
  294TMC3    C5 4484   3.952   0.470  12.756 -0.6712 -0.3415  0.6543
  294TMC3    C6 4485   3.916   0.387  12.653 -0.2190  0.0724  0.8243
  294TMC3     C 4486   4.163   0.276  12.972  0.4032  0.1388 -0.8516
  294TMC3     O 4487   4.218   0.364  13.027  0.1640 -0.0372  0.2904
  294TMC3     H 4488   4.064   0.112  12.772 -1.3902 -0.8094 -2.8939
  294TMC3    H1 4489   4.028   0.493  12.950 -0.8260  0.0192  0.3770
  294TMC3    H2 4490   3.851   0.421  12.574 -0.2508 -3.2486 -0.5690
  294TMC3    C7 4491   3.919   0.610  12.745 -0.4085 -0.0023  0.8455
  294TMC3    C8 4492   3.945   0.174  12.547  0.4828 -0.2003 -0.4194
  294TMC3    O1 4493   3.933   0.681  12.844  0.4176 -0.0514  0.6511
  294TMC3    O2 4494   3.933   0.053  12.565 -0.6039 -0.3210 -0.2393
  295MPD2     C 4495   3.966   4.263   1.281  0.0958 -0.2761  0.0514
  295MPD2    C1 4496   4.076   4.344   1.287 -0.1947 -0.3675  0.5852
  295MPD2    C2 4497   4.079   4.452   1.375 -0.2080 -0.2668  1.0234
  295MPD2    C3 4498   3.966   4.483   1.458 -0.6084  0.2523 -0.2768
  295MPD2    C4 4499   3.858   4.395   1.456 -0.5423 -0.1792 -0.5044
  295MPD2    C5 4500   3.863   4.290   1.369  0.5306 -0.2945  0.0240
  295MPD2     H 4501   4.168   4.514   1.380  0.5666 -1.1817 -1.1425
  295MPD2    H1 4502   3.770   4.409   1.518  1.8033 -0.3058  2.8717
  295MPD2    H2 4503   3.960   4.173   1.221 -0.3645  0.5756 -1.2041
  295MPD2    H3 4504   3.777   4.224   1.360  1.4752 -1.1830 -2.6084
  295MPD2     N 4505   3.962   4.600   1.541  0.1842  0.0317 -0.5921
  295MPD2    H5 4506   3.877   4.609   1.596  0.3858  1.1254 -0.4647
  295MPD2    N1 4507   4.193   4.326   1.208  1.3972 -0.3620  0.5455
  295MPD2    H7 4508   4.266   4.396   1.222  1.1841 -0.2713  1.1631
  296TMC3    C1 4509   4.052   0.051   1.654  0.1044 -0.8251 -0.2395
  296TMC3    C2 4510   4.168   0.120   1.694 -0.1024  0.4696 -0.5358
  296TMC3    C3 4511   4.144   0.216   1.784  0.3260  0.1860  0.5482
  296TMC3    C4 4512   3.922   0.074   1.709 -0.1749  0.3188 -0.4491
  296TMC3    C5 4513   3.910   0.166   1.804 -0.3660  0.5988 -0.2385
  296TMC3    C6 4514   4.018   0.244   1.836 -0.9214  0.2679  0.2462
  296TMC3     C 4515   4.070   4.688   1.556 -0.1756 -0.6996 -0.3838
  296TMC3     O 4516   4.181   4.694   1.505 -0.7471 -0.9050  0.2132
  296TMC3     H 4517   4.271   0.096   1.670  0.4668  0.3463  2.0087
  296TMC3    H1 4518   3.835   0.022   1.671 -0.6183  0.2206  0.7026
  296TMC3    H2 4519   4.002   0.316   1.915 -1.1192  0.2478  0.2233
  296TMC3    C7 4520   3.777   0.191   1.858  0.1013 -0.2635  0.2521
  296TMC3    C8 4521   4.253   0.298   1.814 -0.0802  0.4004 -0.1127
  296TMC3    O1 4522   3.755   0.302   1.902  0.2996  0.4928  0.1097
  296TMC3    O2 4523   4.366   0.249   1.817  0.4154 -0.1491 -0.1166
  297MPD2     C 4524   2.302   1.127  16.675 -0.1353 -0.0957  0.4782
  297MPD2    C1 4525   2.254   1.195  16.560 -0.6264  0.1069 -0.8534
  297MPD2    C2 4526   2.327   1.295  16.507  0.1998 -0.3522  0.0900
  297MPD2    C3 4527   2.451   1.339  16.552 -0.6081  0.3585 -0.2796
  297MPD2    C4 4528   2.488   1.292  16.673  0.1812 -0.2430  0.3093
  297MPD2    C5 4529   2.417   1.178  16.729  0.7599  0.3196  0.4558
  297MPD2     H 4530   2.290   1.334  16.412  2.5941 -0.7108 -0.9876
  297MPD2    H1 4531   2.577   1.326  16.724  0.0985 -0.1567  0.3982
  297MPD2    H2 4532   2.246   1.041  16.709  0.4286 -1.0093 -0.9084
  297MPD2    H3 4533   2.456   1.123  16.813  0.4898  0.9636  1.0025
  297MPD2     N 4534   2.513   1.452  16.489  0.5264  0.6777 -0.3627
  297MPD2    H5 4535   2.457   1.494  16.415 -0.8680 -3.3282 -1.5822
  297MPD2    N1 4536   2.130   1.164  16.497 -0.0237 -0.7611 -0.5795
  297MPD2    H7 4537   2.109   1.217  16.413 -1.3352  0.3859  0.4856
  298TMC3    C1 4538   1.906   1.099  16.484  0.3866 -0.3713  0.1591
  298TMC3    C2 4539   1.929   1.091  16.353  0.9176 -0.5551 -0.5790
  298TMC3    C3 4540   1.842   1.155  16.268  0.4363  0.0964 -0.2589
  298TMC3    C4 4541   1.809   1.179  16.531  0.6107  0.1986  0.4685
  298TMC3    C5 4542   1.727   1.246  16.444  0.2820  0.1225 -0.2679
  298TMC3    C6 4543   1.744   1.232  16.310 -0.0100 -0.0091  0.1513
  298TMC3     C 4544   2.030   1.084  16.554 -0.2484  0.3908 -0.2923
  298TMC3     O 4545   2.036   1.012  16.649 -0.1249  0.3619 -0.3856
  298TMC3     H 4546   2.001   1.019  16.315  2.0708 -0.0212  0.6469
  298TMC3    H1 4547   1.805   1.198  16.638 -0.6375 -2.1652  0.8330
  298TMC3    H2 4548   1.679   1.280  16.237 -0.1925  1.1643  1.0937
  298TMC3    C7 4549   1.689   1.379  16.495 -0.6183 -0.0923 -0.5176
  298TMC3    C8 4550   1.848   1.118  16.125  0.2608  0.7255  0.2902
  298TMC3    O1 4551   1.684   1.391  16.618  0.2908  0.5442 -0.8687
  298TMC3    O2 4552   1.957   1.073  16.086 -0.3362 -0.1605 -0.5361
  299MPD2     C 4553   1.685   0.894  10.835  0.0376  0.0471  0.2589
  299MPD2    C1 4554   1.720   1.012  10.773 -0.2796 -0.1945 -0.5002
  299MPD2    C2 4555   1.666   1.034  10.647  0.4444  0.6274  0.4939
  299MPD2    C3 4556   1.593   0.940  10.584 -0.7258 -0.5872  0.0606
  299MPD2    C4 4557   1.569   0.827  10.649  0.8141 -0.4431  0.2039
  299MPD2    C5 4558   1.604   0.807  10.776  0.1870 -0.0005 -0.3084
  299MPD2     H 4559   1.696   1.120  10.588 -0.2120 -0.3136 -1.1988
  299MPD2    H1 4560   1.503   0.749  10.614  0.9181 -0.9683  1.2051
  299MPD2    H2 4561   1.725   0.844  10.922 -1.8034  0.4752  1.3483
  299MPD2    H3 4562   1.583   0.716  10.831  1.6316 -0.2185 -0.0985
  299MPD2     N 4563   1.537   0.953  10.455 -0.8975  0.2332  0.4503
  299MPD2    H5 4564   1.486   0.873  10.419 -1.7744  0.7787  0.4648
  299MPD2    N1 4565   1.798   1.108  10.837 -0.4225  0.0489 -0.0275
  299MPD2    H7 4566   1.835   1.079  10.927  0.3208  1.1731  0.0302
  300TMC3    C1 4567   1.429   1.064  10.276 -0.1922 -0.0222 -0.0799
  300TMC3    C2 4568   1.462   1.118  10.154  0.4554 -0.4603  0.2726
  300TMC3    C3 4569   1.359   1.192  10.084  0.0026 -0.5919 -0.3828
  300TMC3    C4 4570   1.304   1.077  10.325  0.0860  0.2182 -0.0171
  300TMC3    C5 4571   1.206   1.146  10.256 -0.5078 -0.5518  0.0561
  300TMC3    C6 4572   1.233   1.198  10.128  0.0139  0.2656 -0.8280
  300TMC3     C 4573   1.534   1.062  10.376 -0.3497  0.4383 -0.9359
  300TMC3     O 4574   1.593   1.166  10.398  0.6970  0.1284  0.4938
  300TMC3     H 4575   1.562   1.122  10.114 -0.9360  1.8297 -3.0228
  300TMC3    H1 4576   1.293   1.048  10.429  0.3304  0.7134  0.1506
  300TMC3    H2 4577   1.169   1.266  10.074  0.0901  0.0936 -1.1358
  300TMC3    C7 4578   1.118   1.238  10.323  0.1041 -0.1630 -0.4148
  300TMC3    C8 4579   1.410   1.322  10.044  0.4163 -0.5584 -0.0358
  300TMC3    O1 4580   1.037   1.299  10.257  0.2728 -0.3965  0.1523
  300TMC3    O2 4581   1.497   1.381  10.108  0.0550  0.4077 -0.3655
  301MPD2     C 4582   4.476   2.743   1.339  0.2655  0.2618  0.2702
  301MPD2    C1 4583   4.361   2.753   1.277  0.4612 -0.6452 -0.0242
  301MPD2    C2 4584   4.337   2.674   1.170  0.6287 -0.0912 -0.8208
  301MPD2    C3 4585   4.424   2.570   1.134  0.1564  0.7578  0.2640
  301MPD2    C4 4586   4.542   2.560   1.204  0.6157  0.2637  0.1168
  301MPD2    C5 4587   4.563   2.649   1.304  0.6523  0.2958 -0.0051
  301MPD2     H 4588   4.246   2.688   1.113  1.2793 -0.6235 -1.9828
  301MPD2    H1 4589   4.614   2.483   1.178  1.4191  1.2678 -0.6744
  301MPD2    H2 4590   4.501   2.808   1.422 -1.4412 -1.3942  2.0661
  301MPD2    H3 4591   4.656   2.641   1.360 -0.2944 -1.6322  1.3118
  301MPD2     N 4592   4.396   2.467   1.042 -0.0773  0.1670  0.0544
  301MPD2    H5 4593   4.466   2.394   1.029  1.2170  1.5786 -0.8056
  301MPD2    N1 4594   4.258   2.840   1.313  0.3868 -0.0224 -0.4760
  301MPD2    H7 4595   4.170   2.842   1.262  0.7062  0.7625 -0.9975
  302TMC3    C1 4596   4.266   2.306   0.916  0.4167 -0.4422  0.0947
  302TMC3    C2 4597   4.347   2.209   0.954  0.2860 -0.0816 -0.6304
  302TMC3    C3 4598   4.302   2.082   0.924  0.0325  0.2427 -0.7382
  302TMC3    C4 4599   4.149   2.287   0.840  0.3391 -0.4783  0.4277
  302TMC3    C5 4600   4.119   2.156   0.812 -0.2822  0.0462 -0.0165
  302TMC3    C6 4601   4.192   2.049   0.858 -0.2881  0.4406 -0.1392
  302TMC3     C 4602   4.276   2.446   0.971 -0.3138  0.5835  0.4645
  302TMC3     O 4603   4.186   2.529   0.953 -0.5623  0.4030 -0.1215
  302TMC3     H 4604   4.422   2.226   1.031  0.8076  1.8126 -1.5467
  302TMC3    H1 4605   4.086   2.371   0.812  0.7042 -0.6484 -0.9312
  302TMC3    H2 4606   4.160   1.946   0.848  0.4301  0.2083 -0.0851
  302TMC3    C7 4607   3.977   2.113   0.809 -0.2599  0.0863  0.0567
  302TMC3    C8 4608   4.392   1.977   0.938  0.6219  0.1647  0.4075
  302TMC3    O1 4609   3.939   2.031   0.890 -0.2567  0.1687  0.0837
  302TMC3    O2 4610   4.456   1.974   1.037 -0.0711  0.4444  0.3634
  303MPD2     C 4611   0.565   0.727  10.638  0.5575 -0.0093 -0.3735
  303MPD2    C1 4612   0.442   0.688  10.678  0.0066 -0.1793 -0.3897
  303MPD2    C2 4613   0.355   0.616  10.593 -0.0532  0.3908  0.6481
  303MPD2    C3 4614   0.394   0.577  10.467  0.4547 -0.0451  0.2863
  303MPD2    C4 4615   0.518   0.620  10.428 -0.5269 -0.2803  0.7472
  303MPD2    C5 4616   0.597   0.694  10.515 -0.8548 -0.5195  0.2670
  303MPD2     H 4617   0.262   0.588  10.641 -0.1231 -0.9580 -0.2779
  303MPD2    H1 4618   0.550   0.582  10.331 -0.8027  0.4674  0.3667
  303MPD2    H2 4619   0.638   0.776  10.701  1.1755 -2.0911  0.5551
  303MPD2    H3 4620   0.700   0.717  10.493  0.3575 -0.7183  5.8068
  303MPD2     N 4621   0.311   0.500  10.375 -0.0137 -0.5507 -0.0715
  303MPD2    H5 4622   0.347   0.487  10.281 -2.3530 -0.5904 -0.9562
  303MPD2    N1 4623   0.411   0.719  10.817 -0.1386  0.0480  0.3507
  303MPD2    H7 4624   0.494   0.750  10.866  1.1915  2.1795 -3.2896
  304TMC3    C1 4625   0.289   0.735  11.018 -0.6622 -0.5169 -0.0638
  304TMC3    C2 4626   0.163   0.743  11.072  0.2334 -0.7084 -0.4418
  304TMC3    C3 4627   0.135   0.705  11.204  0.1672 -0.1562  0.1584
  304TMC3    C4 4628   0.386   0.670  11.097 -0.2357  0.0554  0.2330
  304TMC3    C5 4629   0.349   0.612  11.207  0.6765 -0.2681  0.8465
  304TMC3    C6 4630   0.232   0.644  11.272 -0.4465 -0.2070 -0.0862
  304TMC3     C 4631   0.288   0.712  10.879 -0.8808  0.9259 -0.4093
  304TMC3     O 4632   0.186   0.730  10.820  0.1525 -0.4880  0.1258
  304TMC3     H 4633   0.089   0.797  11.014  3.9416 -1.5925 -6.0316
  304TMC3    H1 4634   0.479   0.646  11.048 -0.8226  0.2388 -0.9684
  304TMC3    H2 4635   0.223   0.613  11.376  0.3460 -1.1000 -0.2853
  304TMC3    C7 4636   0.383   0.474  11.205  0.1104 -0.1648 -0.2320
  304TMC3    C8 4637   0.010   0.630  11.215  0.1764  0.1784  0.0802
  304TMC3    O1 4638   0.499   0.445  11.167 -0.2216  0.4342 -0.1863
  304TMC3    O2 4639   0.038   0.524  11.263 -0.1610  0.1884  0.2919
  305MPD2     C 4640   2.621   2.656  14.363 -0.3344 -0.3068 -0.5156
  305MPD2    C1 4641   2.738   2.577  14.375  0.3924  0.1462 -0.6243
  305MPD2    C2 4642   2.758   2.475  14.284  0.0946 -0.0845  0.4297
  305MPD2    C3 4643   2.660   2.439  14.188  0.2212 -0.2430  0.4061
  305MPD2    C4 4644   2.547   2.521  14.177 -0.1610  0.5156 -0.5286
  305MPD2    C5 4645   2.525   2.622  14.270  0.4270 -0.4345 -0.2630
  305MPD2     H 4646   2.847   2.412  14.281 -1.4172 -2.0909 -2.2665
  305MPD2    H1 4647   2.467   2.512  14.105 -0.8294 -1.5690  0.5040
  305MPD2    H2 4648   2.597   2.733  14.436 -1.1472  0.4111 -1.5341
  305MPD2    H3 4649   2.429   2.672  14.272  0.1635 -0.9736  0.5999
  305MPD2     N 4650   2.685   2.330  14.099  0.5702 -0.0013  0.4443
  305MPD2    H5 4651   2.773   2.281  14.105  1.2069  1.7130  5.0653
  305MPD2    N1 4652   2.835   2.614  14.474 -0.1798  0.1301  0.3229
  305MPD2    H7 4653   2.807   2.694  14.530 -2.6324 -0.1052 -0.5466
  306TMC3    C1 4654   2.987   2.596  14.639  0.0981 -0.4633 -0.2215
  306TMC3    C2 4655   3.036   2.507  14.732  0.3834 -0.2867 -0.0378
  306TMC3    C3 4656   3.083   2.559  14.850  0.4588  0.3980  1.0354
  306TMC3    C4 4657   2.981   2.729  14.658  0.0933 -0.0313 -0.0333
  306TMC3    C5 4658   3.029   2.780  14.782  0.3923 -0.5639  0.7570
  306TMC3    C6 4659   3.069   2.695  14.877 -0.3939  0.2494  0.4314
  306TMC3     C 4660   2.932   2.534  14.517  0.3606  0.0520 -0.3393
  306TMC3     O 4661   2.954   2.417  14.494 -0.2644  0.4326 -0.2228
  306TMC3     H 4662   3.053   2.402  14.711  0.8360 -0.2083 -0.0589
  306TMC3    H1 4663   2.953   2.798  14.578  0.6061 -0.0917 -0.2628
  306TMC3    H2 4664   3.103   2.738  14.971 -0.2296  2.3674 -0.6110
  306TMC3    C7 4665   3.041   2.927  14.790 -0.1350  0.5489  1.0009
  306TMC3    C8 4666   3.134   2.470  14.949 -0.4180  0.2907 -0.1702
  306TMC3    O1 4667   2.985   2.992  14.703  0.0599 -0.1321  0.0433
  306TMC3    O2 4668   3.119   2.350  14.929 -0.8156  0.1147  0.1748
  307MPD2     C 4669   1.322   0.616   0.530 -0.3047 -0.1900 -0.6304
  307MPD2    C1 4670   1.283   0.739   0.478 -0.0462  0.7142  0.0083
  307MPD2    C2 4671   1.226   0.827   0.571  0.8114  0.4227 -0.9922
  307MPD2    C3 4672   1.214   0.794   0.706 -0.3719 -0.1079  0.0369
  307MPD2    C4 4673   1.260   0.673   0.750  0.4417  0.5006 -0.1136
  307MPD2    C5 4674   1.311   0.580   0.665 -0.3566  0.7008  0.0302
  307MPD2     H 4675   1.193   0.923   0.532 -0.7332 -0.3609 -1.6113
  307MPD2    H1 4676   1.254   0.639   0.853 -1.2304  1.4581  0.1121
  307MPD2    H2 4677   1.361   0.543   0.459 -1.7829 -1.2372 -0.3643
  307MPD2    H3 4678   1.345   0.481   0.694 -2.3207 -0.7013 -2.5144
  307MPD2     N 4679   1.148   0.889   0.784 -0.6450  0.0813 -0.2500
  307MPD2    H5 4680   1.111   0.970   0.735 -3.7689 -0.2744  1.5057
  307MPD2    N1 4681   1.295   0.781   0.343  0.1550  0.2709  0.8925
  307MPD2    H7 4682   1.273   0.879   0.327  1.6133  0.5768  0.7881
  308TMC3    C1 4683   0.852   1.007   1.133 -0.4079 -0.4628  0.2241
  308TMC3    C2 4684   0.836   1.133   1.082  0.3031 -0.5938 -0.3404
  308TMC3    C3 4685   0.904   1.168   0.975 -0.4883 -1.2842  0.1431
  308TMC3    C4 4686   0.942   0.923   1.079 -0.6412  0.7219 -0.3436
  308TMC3    C5 4687   1.026   0.970   0.977  0.7801 -0.3604  0.3931
  308TMC3    C6 4688   1.005   1.092   0.922  0.4588  0.0504 -0.0072
  308TMC3     C 4689   0.727   0.933   1.143  0.0842 -0.4077 -0.5118
  308TMC3     O 4690   0.732   0.822   1.194  0.3148  0.2928 -0.2140
  308TMC3     H 4691   0.770   1.200   1.136 -0.3032 -0.2652 -1.4945
  308TMC3    H1 4692   0.949   0.817   1.101 -1.2766  1.0660  1.4943
  308TMC3    H2 4693   1.041   1.113   0.822  1.4134 -1.7026 -0.0251
  308TMC3    C7 4694   1.117   0.871   0.920  0.3445 -0.3312  0.0863
  308TMC3    C8 4695   0.822   1.262   0.890 -0.1014  0.4679  0.3389
  308TMC3    O1 4696   1.160   0.787   0.995  0.0163 -0.2942  0.2203
  308TMC3    O2 4697   0.704   1.226   0.896  0.0636 -0.2536  0.3561
  309MPD2     C 4698   0.287   1.432  17.453 -0.3006 -0.5334 -0.0046
  309MPD2    C1 4699   0.200   1.460  17.352  0.5641  0.0697 -0.1260
  309MPD2    C2 4700   0.063   1.443  17.367  0.3580 -0.3292  0.1409
  309MPD2    C3 4701   0.013   1.405  17.492 -0.5318  0.3251  0.6703
  309MPD2    C4 4702   0.103   1.376  17.597 -0.0832 -0.5497 -0.8949
  309MPD2    C5 4703   0.237   1.390  17.577  0.1381  0.1280 -0.2100
  309MPD2     H 4704   4.735   1.464  17.289  1.1766  0.1932 -0.4689
  309MPD2    H1 4705   0.069   1.336  17.692 -0.4222 -0.7085 -1.0800
  309MPD2    H2 4706   0.396   1.435  17.455 -0.3367  0.8019  0.0304
  309MPD2    H3 4707   0.312   1.370  17.652  0.2085 -0.2887 -0.3924
  309MPD2     N 4708   4.617   1.397  17.513 -0.6641  0.5092 -0.2043
  309MPD2    H5 4709   4.561   1.430  17.435 -0.4983 -2.3374 -1.5344
  309MPD2    N1 4710   0.247   1.510  17.231  0.7990 -0.8497  0.1811
  309MPD2    H7 4711   0.175   1.539  17.166  0.0798  0.1654  1.4191
  310TMC3    C1 4712   0.408   1.545  17.057  0.4895 -0.8106 -0.1233
  310TMC3    C2 4713   0.315   1.596  16.980  0.0171  0.8997 -0.8514
  310TMC3    C3 4714   0.334   1.594  16.842 -0.4813 -0.7919  0.3092
  310TMC3    C4 4715   0.531   1.508  17.006  0.9901  0.2442 -0.0265
  310TMC3    C5 4716   0.549   1.514  16.872 -0.2782  0.2458  0.4138
  310TMC3    C6 4717   0.452   1.556  16.784 -0.2908  0.1399 -0.6556
  310TMC3     C 4718   0.378   1.501  17.193 -0.9988  0.0832 -0.1891
  310TMC3     O 4719   0.471   1.458  17.252 -0.2343 -0.2114  0.5400
  310TMC3     H 4720   0.232   1.655  17.017 -2.5687 -2.6171 -1.0616
  310TMC3    H1 4721   0.607   1.455  17.062 -0.0992 -1.9154 -0.5954
  310TMC3    H2 4722   0.469   1.559  16.677 -1.9877  0.9628 -0.8893
  310TMC3    C7 4723   0.675   1.474  16.820  0.2892  0.4682 -0.4206
  310TMC3    C8 4724   0.224   1.610  16.752 -0.3835 -0.4263 -0.3667
  310TMC3    O1 4725   0.740   1.393  16.886 -0.3221 -0.5326 -0.4320
  310TMC3    O2 4726   0.118   1.585  16.807  0.2852  0.0163  0.4715
  311MPD2     C 4727   1.846   1.983  12.788 -0.4137 -0.1812 -0.2674
  311MPD2    C1 4728   1.842   2.090  12.870  0.1586 -0.2482  0.7956
  311MPD2    C2 4729   1.725   2.123  12.933  0.4369  0.0916 -0.0828
  311MPD2    C3 4730   1.605   2.059  12.913 -0.0866 -0.0637  0.5284
  311MPD2    C4 4731   1.610   1.959  12.816 -0.2181  0.5126 -0.4023
  311MPD2    C5 4732   1.731   1.922  12.756 -0.3591  0.1516  0.0144
  311MPD2     H 4733   1.728   2.199  13.009 -0.3656  0.5521 -0.5131
  311MPD2    H1 4734   1.522   1.911  12.773 -1.2002 -0.1281  2.3550
  311MPD2    H2 4735   1.935   1.949  12.735 -0.9946 -0.5502 -1.0104
  311MPD2    H3 4736   1.727   1.839  12.686 -1.4338  0.8647 -0.7655
  311MPD2     N 4737   1.490   2.104  12.983 -0.0930 -0.0140 -0.3982
  311MPD2    H5 4738   1.498   2.203  13.006  0.4347  0.1884 -1.4268
  311MPD2    N1 4739   1.965   2.168  12.895 -0.1092 -1.2748  0.5708
  311MPD2    H7 4740   1.960   2.237  12.968  0.1237  0.3715 -0.9732
  312TMC3    C1 4741   1.261   2.094  13.025 -0.0490 -0.4432 -0.1504
  312TMC3    C2 4742   1.138   2.026  13.030 -0.4624 -0.3272  0.7572
  312TMC3    C3 4743   1.026   2.091  13.067 -0.1012  0.5252  0.2018
  312TMC3    C4 4744   1.263   2.227  13.065  0.1610  0.2093  0.1043
  312TMC3    C5 4745   1.143   2.285  13.109  0.4542  0.4470 -0.2310
  312TMC3    C6 4746   1.023   2.223  13.102 -0.0016 -0.1459 -0.8304
  312TMC3     C 4747   1.378   2.028  12.987 -0.5809 -0.5247 -0.1958
  312TMC3     O 4748   1.375   1.910  12.953  0.6470  0.1902  0.0316
  312TMC3     H 4749   1.130   1.920  13.011  2.2364 -0.3583 -0.2274
  312TMC3    H1 4750   1.355   2.282  13.077  1.1974 -1.3603 -0.6774
  312TMC3    H2 4751   0.933   2.270  13.139 -0.1555 -1.1488  0.0643
  312TMC3    C7 4752   1.132   2.426  13.122 -0.3312 -0.1385  0.4665
  312TMC3    C8 4753   0.903   2.022  13.058 -0.0509  1.1638 -0.5469
  312TMC3    O1 4754   1.023   2.468  13.088 -0.0244 -0.0184  0.6714
  312TMC3    O2 4755   0.903   1.899  13.069 -0.4675  0.4762  0.1498
  313MPD2     C 4756   0.600   2.017  11.721 -0.3584  0.2367  0.3930
  313MPD2    C1 4757   0.646   1.986  11.598 -0.2108  0.5189 -1.0401
  313MPD2    C2 4758   0.668   1.848  11.576  0.5528  0.6169 -0.1396
  313MPD2    C3 4759   0.656   1.759  11.679 -0.4037  0.2136  0.2890
  313MPD2    C4 4760   0.610   1.797  11.801  0.2632 -0.4875  0.2171
  313MPD2    C5 4761   0.592   1.932  11.832 -0.8371 -0.1989 -0.4202
  313MPD2     H 4762   0.703   1.808  11.481 -1.4716  2.7410 -1.7478
  313MPD2    H1 4763   0.619   1.737  11.890 -0.2186 -1.0801 -0.1389
  313MPD2    H2 4764   0.584   2.121  11.745  0.7446  0.2413  1.0884
  313MPD2    H3 4765   0.560   1.960  11.932 -0.5590  0.2390 -0.4555
  313MPD2     N 4766   0.679   1.624  11.647  0.0659 -0.6106  0.1954
  313MPD2    H5 4767   0.706   1.596  11.553 -1.1704  1.7645 -0.8779
  313MPD2    N1 4768   0.675   2.075  11.494 -0.1507  0.7152 -0.1326
  313MPD2    H7 4769   0.703   2.033  11.406 -0.8289  0.9001 -0.4418
  314TMC3    C1 4770   0.720   2.272  11.391  0.7573  0.2530 -0.2979
  314TMC3    C2 4771   0.827   2.356  11.392  0.0962 -0.3358  0.0445
  314TMC3    C3 4772   0.899   2.362  11.276  0.1614 -0.0070 -0.0131
  314TMC3    C4 4773   0.696   2.193  11.286 -0.2284  0.0198 -0.2907
  314TMC3    C5 4774   0.772   2.199  11.174  0.2664 -0.0375  0.1134
  314TMC3    C6 4775   0.879   2.278  11.168 -0.6382 -0.9102  0.1832
  314TMC3     C 4776   0.678   2.213  11.508 -0.6674  0.0000 -0.7023
  314TMC3     O 4777   0.669   2.274  11.618 -0.1059 -0.3936  0.2516
  314TMC3     H 4778   0.862   2.413  11.477 -0.2149 -0.9913  0.6098
  314TMC3    H1 4779   0.594   2.156  11.278 -1.0955  2.2594  0.4983
  314TMC3    H2 4780   0.952   2.268  11.088  1.3179 -2.2185  2.1498
  314TMC3    C7 4781   0.761   2.071  11.106  0.6045 -0.0830 -0.0303
  314TMC3    C8 4782   1.030   2.426  11.268  0.1016 -0.5382 -0.2494
  314TMC3    O1 4783   0.721   1.983  11.184  0.2805  0.7748 -0.0526
  314TMC3    O2 4784   1.070   2.476  11.163 -0.2384 -0.2573 -0.8997
  315MPD2     C 4785   1.482   0.627  17.456  0.2451 -0.1925  0.9240
  315MPD2    C1 4786   1.518   0.636  17.588  0.1442 -0.7179 -0.8132
  315MPD2    C2 4787   1.554   0.752  17.646  1.3450 -0.1961 -0.2620
  315MPD2    C3 4788   1.563   0.867  17.570 -0.0513 -0.1700 -0.3416
  315MPD2    C4 4789   1.530   0.852  17.433  0.5519 -0.0698  0.6396
  315MPD2    C5 4790   1.501   0.732  17.383 -0.0019 -0.4703  0.6492
  315MPD2     H 4791   1.573   0.747  17.752  0.1024 -1.4500 -0.0957
  315MPD2    H1 4792   1.520   0.938  17.367  1.7900 -0.7993 -0.4960
  315MPD2    H2 4793   1.462   0.529  17.413  0.3796 -0.8952  2.4515
  315MPD2    H3 4794   1.488   0.730  17.276 -0.0156 -0.3787  0.6487
  315MPD2     N 4795   1.609   0.987  17.635  0.0226 -0.4032  0.2213
  315MPD2    H5 4796   1.649   0.974  17.727 -0.0142  0.2941  0.3326
  315MPD2    N1 4797   1.532   0.525  17.670  0.5316 -0.0998 -0.3308
  315MPD2    H7 4798   1.576   0.546  17.759 -1.9720  0.0560  0.8591
  316TMC3    C1 4799   1.730   1.186  17.644 -0.0606  0.4173  0.5228
  316TMC3    C2 4800   1.800   1.129  17.748  0.8757 -0.0859 -0.6222
  316TMC3    C3 4801   1.880   1.218   0.050 -0.2318 -0.6413  0.8983
  316TMC3    C4 4802   1.738   1.316  17.602 -0.4381  0.4995 -0.0103
  316TMC3    C5 4803   1.809   1.401  17.683  0.2626 -0.7858 -0.6650
  316TMC3    C6 4804   1.883   1.353   0.022  0.5812 -0.1573 -0.2485
  316TMC3     C 4805   1.645   1.098  17.566  0.0938 -0.0779  0.2163
  316TMC3     O 4806   1.618   1.132  17.450  0.0413 -0.0899 -0.1361
  316TMC3     H 4807   1.811   1.022  17.765 -0.7747 -0.3318 -1.0387
  316TMC3    H1 4808   1.666   1.353  17.530 -0.2592 -2.9708 -2.0084
  316TMC3    H2 4809   1.937   1.420   0.087  0.2785  2.0022 -2.2463
  316TMC3    C7 4810   1.759   1.535  17.700 -0.4975 -0.2865  0.8110
  316TMC3    C8 4811   1.964   1.164   0.159  0.0338  0.7628  0.6208
  316TMC3    O1 4812   1.738   1.573   0.040  0.2606 -0.3994  0.3541
  316TMC3    O2 4813   2.045   1.245   0.208  0.1663 -0.4825  0.1903
  317MPD2     C 4814   3.073   4.345  12.990 -0.3734  0.5313 -0.1245
  317MPD2    C1 4815   3.142   4.235  12.959  0.1504 -0.0142 -0.0063
  317MPD2    C2 4816   3.174   4.148  13.059 -0.7227  0.5586  0.3504
  317MPD2    C3 4817   3.133   4.171  13.190  0.2987  0.5448 -0.7905
  317MPD2    C4 4818   3.050   4.270  13.220 -0.2807 -0.0385  0.1626
  317MPD2    C5 4819   3.019   4.359  13.121 -0.3365  0.6997  0.0484
  317MPD2     H 4820   3.239   4.063  13.039  0.6121  2.1194 -1.9660
  317MPD2    H1 4821   3.023   4.284  13.324 -1.4794 -2.0240  0.1382
  317MPD2    H2 4822   3.027   4.410  12.916 -0.9947 -0.6702 -0.8003
  317MPD2    H3 4823   2.953   4.443  13.138 -1.9824 -0.5541 -0.0508
  317MPD2     N 4824   3.162   4.071  13.279  0.2947  0.0874  0.5799
  317MPD2    H5 4825   3.198   3.988  13.232  1.6573  0.6520  0.6178
  317MPD2    N1 4826   3.190   4.206  12.827  0.7542 -0.0691  0.2833
  317MPD2    H7 4827   3.228   4.114  12.807 -1.3043 -0.8261 -0.1644
  318TMC3    C1 4828   3.175   3.932  13.454 -0.0977  0.3527 -0.6475
  318TMC3    C2 4829   3.146   3.831  13.364 -0.1615 -1.2741  0.3654
  318TMC3    C3 4830   3.203   3.707  13.376  0.3955 -0.0833  0.1360
  318TMC3    C4 4831   3.265   3.911  13.557  0.0408 -0.2639  0.3032
  318TMC3    C5 4832   3.321   3.786  13.567 -0.7892  0.0187 -0.2832
  318TMC3    C6 4833   3.297   3.687  13.477  0.1660 -0.3598 -0.0981
  318TMC3     C 4834   3.143   4.066  13.412 -0.0433  0.7310  0.2239
  318TMC3     O 4835   3.136   4.161  13.487  0.1022  0.0433  0.3396
  318TMC3     H 4836   3.072   3.855  13.289 -0.3851 -3.0314  0.0059
  318TMC3    H1 4837   3.284   3.996  13.621  1.0963 -0.2161 -0.0631
  318TMC3    H2 4838   3.345   3.590  13.486 -1.6588 -1.4183 -1.6531
  318TMC3    C7 4839   3.453   3.791  13.628 -0.1077 -0.4645 -0.6195
  318TMC3    C8 4840   3.201   3.624  13.262 -0.4728  0.3213 -0.0993
  318TMC3    O1 4841   3.495   3.904  13.648  0.2029 -0.0444 -0.4439
  318TMC3    O2 4842   3.304   3.592  13.209  0.1569  0.2801  0.3068
  319MPD2     C 4843   4.264   0.458  16.485  0.1036  0.2427  0.2623
  319MPD2    C1 4844   4.208   0.367  16.571 -0.1932  0.8012 -0.2637
  319MPD2    C2 4845   4.098   0.295  16.532  0.7514  0.0923  0.1132
  319MPD2    C3 4846   4.040   0.313  16.409 -0.5221  0.0872 -0.7016
  319MPD2    C4 4847   4.092   0.401  16.326  0.2955 -0.0665  0.5220
  319MPD2    C5 4848   4.196   0.482  16.367  0.0381  0.0160 -0.6967
  319MPD2     H 4849   4.050   0.245  16.615  0.3735  1.1716  0.5443
  319MPD2    H1 4850   4.046   0.410  16.228 -1.5128 -1.1560  1.2546
  319MPD2    H2 4851   4.356   0.510  16.508 -1.7433  2.8575  1.7572
  319MPD2    H3 4852   4.229   0.554  16.293  1.4686  0.7775  0.6652
  319MPD2     N 4853   3.909   0.260  16.381  0.1789 -0.0978 -0.3558
  319MPD2    H5 4854   3.866   0.301  16.299  0.8460  0.8546 -0.2242
  319MPD2    N1 4855   4.260   0.341  16.703 -0.0084 -0.5116  0.0673
  319MPD2    H7 4856   4.233   0.256  16.751  0.0768  0.0545  1.1328
  320TMC3    C1 4857   3.713   0.145  16.411  0.1561 -0.0163 -0.2478
  320TMC3    C2 4858   3.654   0.256  16.346 -0.3031  0.2466 -0.6989
  320TMC3    C3 4859   3.542   0.230  16.278 -0.1584 -0.4805 -0.8387
  320TMC3    C4 4860   3.659   0.023  16.411 -0.3505  0.5396  0.1639
  320TMC3    C5 4861   3.537   0.003  16.353 -0.0316  0.3749  0.3995
  320TMC3    C6 4862   3.476   0.106  16.288  0.2821  0.2226  0.7910
  320TMC3     C 4863   3.843   0.166  16.458 -0.9524  0.0174 -0.7912
  320TMC3     O 4864   3.884   0.093  16.552 -0.2605 -0.4932 -0.2670
  320TMC3     H 4865   3.691   0.358  16.349 -2.9722  1.2040  0.0718
  320TMC3    H1 4866   3.710   4.685  16.463 -0.1961  0.6502  0.1866
  320TMC3    H2 4867   3.385   0.092  16.230  0.8416 -0.0324 -0.0241
  320TMC3    C7 4868   3.505   4.614  16.322  0.6079  0.2062  0.6382
  320TMC3    C8 4869   3.477   0.335  16.203 -0.6006 -0.1562 -0.0311
  320TMC3    O1 4870   3.438   4.607  16.218 -0.7349 -0.3697  0.4639
  320TMC3    O2 4871   3.543   0.440  16.206  0.0312  0.0280 -0.3884
  321TMC3    C1 4872   4.353   0.368  16.912 -0.7148  0.5064  0.0483
  321TMC3    C2 4873   4.251   0.290  16.961  0.3034 -0.6354 -0.1758
  321TMC3    C3 4874   4.214   0.303  17.091  0.2727 -0.2296 -0.1299
  321TMC3    C4 4875   4.423   0.457  16.994  0.5047  0.3579  0.5793
  321TMC3    C5 4876   4.384   0.464  17.127 -0.0332  0.1555  0.4602
  321TMC3    C6 4877   4.273   0.401  17.169 -0.2676 -0.1351 -0.6829
  321TMC3     C 4878   4.363   0.404  16.765 -0.3723 -0.1278  0.3568
  321TMC3     O 4879   4.440   0.491  16.732 -0.3485 -0.0705  0.5059
  321TMC3     H 4880   4.198   0.214  16.904 -2.4725 -0.5051  2.2679
  321TMC3    H1 4881   4.503   0.522  16.958  0.8410  0.4959  1.5596
  321TMC3    H2 4882   4.227   0.433  17.262 -1.1973 -0.3070 -1.0942
  321TMC3    C7 4883   4.486   0.460  17.232 -0.3170 -0.4840  0.4208
  321TMC3    C8 4884   4.183   0.181  17.159  0.6248  0.1752  0.5405
  321TMC3    O1 4885   4.444   0.400  17.328 -0.0616  0.2464 -0.4936
  321TMC3    O2 4886   4.117   0.099  17.102  0.5433  0.3592  0.7148
  322MPD2     C 4887   2.586   1.852  14.236 -0.2342  0.5514  0.3817
  322MPD2    C1 4888   2.730   1.843  14.223  0.7947 -0.3435  0.0482
  322MPD2    C2 4889   2.780   1.788  14.105 -0.8559 -0.8636  0.9159
  322MPD2    C3 4890   2.704   1.737  14.001  0.4065 -0.0892 -0.6106
  322MPD2    C4 4891   2.570   1.750  14.021  0.3469  0.5111 -0.7821
  322MPD2    C5 4892   2.510   1.801  14.136 -0.2749  0.3315 -1.0854
  322MPD2     H 4893   2.885   1.764  14.104 -0.9680 -0.9827 -3.9228
  322MPD2    H1 4894   2.495   1.728  13.945 -1.8019  0.8693  1.2201
  322MPD2    H2 4895   2.540   1.893  14.324 -1.9790  0.3361 -0.4362
  322MPD2    H3 4896   2.402   1.802  14.142 -0.2155 -0.1529  0.1333
  322MPD2     N 4897   2.765   1.683  13.879 -0.0700  0.0494 -0.4846
  322MPD2    H5 4898   2.698   1.635  13.819 -0.6400  3.0775 -2.2283
  322MPD2    N1 4899   2.821   1.879  14.318 -0.2736 -0.0975 -0.1610
  322MPD2    H7 4900   2.918   1.860  14.296  0.3029  2.3769  0.2646
  323TMC3    C1 4901   2.902   1.954  14.525 -0.2182  0.4110 -0.2783
  323TMC3    C2 4902   2.974   2.073  14.508 -0.1436  0.3377  0.3873
  323TMC3    C3 4903   3.088   2.078  14.580  0.5380 -0.0323  0.3098
  323TMC3    C4 4904   2.922   1.861  14.632  0.1096 -0.4727 -0.2198
  323TMC3    C5 4905   3.028   1.886  14.713 -0.4203  0.0915  0.6887
  323TMC3    C6 4906   3.106   1.996  14.694  0.4246  0.5004 -0.2927
  323TMC3     C 4907   2.787   1.933  14.438  0.0788  0.6178 -0.2175
  323TMC3     O 4908   2.681   1.977  14.484  0.1476  0.3206  0.4301
  323TMC3     H 4909   2.954   2.138  14.423  1.2252  0.3411  0.0772
  323TMC3    H1 4910   2.864   1.771  14.648  0.1450 -0.7545 -1.6809
  323TMC3    H2 4911   3.190   2.023  14.757 -0.9922 -1.4297  2.4296
  323TMC3    C7 4912   3.095   1.773  14.785 -0.4772  0.6584  0.3063
  323TMC3    C8 4913   3.204   2.159  14.534  0.5354 -0.7210  0.4060
  323TMC3    O1 4914   3.059   1.660  14.748  0.1374 -0.7081  0.0549
  323TMC3    O2 4915   3.313   2.122  14.584  0.1493 -0.2350 -0.2183
  324MPD2     C 4916   4.617   2.758  14.239  0.8203 -0.5764  0.9373
  324MPD2    C1 4917   4.595   2.894  14.269 -0.4047 -0.2065 -1.1718
  324MPD2    C2 4918   4.485   2.959  14.200  0.1372  0.2305 -0.4683
  324MPD2    C3 4919   4.403   2.885  14.119  0.3897  0.1932 -0.2846
  324MPD2    C4 4920   4.431   2.754  14.093 -0.7848  0.0554 -0.0497
  324MPD2    C5 4921   4.550   2.699  14.141  0.0366 -0.5622  0.0126
  324MPD2     H 4922   4.469   3.066  14.211  3.6872  0.8058 -1.0671
  324MPD2    H1 4923   4.369   2.692  14.029 -0.4505  0.4812 -0.7859
  324MPD2    H2 4924   4.699   2.710  14.291  0.7945 -0.9019  0.6754
  324MPD2    H3 4925   4.577   2.604  14.097  1.1833 -0.5423  0.6779
  324MPD2     N 4926   4.288   2.952  14.059  0.4013  0.3567  0.2652
  324MPD2    H5 4927   4.237   2.894  13.994  1.7307  0.5684 -0.9518
  324MPD2    N1 4928   4.680   2.965  14.352  0.0802 -0.1176  0.9028
  324MPD2    H7 4929   4.661   3.063  14.370  2.0362 -0.2400  3.7111
  325TMC3    C1 4930   4.124   3.117  14.009  0.6277  0.6867 -0.9563
  325TMC3    C2 4931   4.032   3.026  14.007 -0.0851 -0.1248 -0.2254
  325TMC3    C3 4932   3.904   3.069  13.988 -0.3711  0.2687  0.0296
  325TMC3    C4 4933   4.092   3.249  14.015 -0.6969  0.3731 -0.1348
  325TMC3    C5 4934   3.966   3.290  14.008  0.4165 -0.3042  0.3201
  325TMC3    C6 4935   3.871   3.204  13.993  0.4217  0.0235  0.0912
  325TMC3     C 4936   4.248   3.081  14.073  0.6449 -0.4805  0.2223
  325TMC3     O 4937   4.299   3.170  14.141 -0.1241 -0.1219 -0.8864
  325TMC3     H 4938   4.060   2.921  14.008  0.7994  0.1155 -0.4493
  325TMC3    H1 4939   4.180   3.313  14.013 -0.6218  0.2025 -2.1425
  325TMC3    H2 4940   3.770   3.234  13.968  0.4691 -1.0923 -1.4213
  325TMC3    C7 4941   3.932   3.412  14.081  0.6723 -0.6167 -0.0290
  325TMC3    C8 4942   3.809   2.961  13.958  0.1931 -0.1462 -0.1721
  325TMC3    O1 4943   3.818   3.407  14.119 -0.3843  0.4135  0.9260
  325TMC3    O2 4944   3.841   2.845  13.937  0.5602 -0.0475  1.0497
  326MPD2     C 4945   1.086   4.514  10.823  0.5624  0.1201 -0.3621
  326MPD2    C1 4946   1.136   4.389  10.853 -0.6508  0.1466  0.5721
  326MPD2    C2 4947   1.260   4.373  10.914  0.4444 -0.8111 -1.2760
  326MPD2    C3 4948   1.348   4.477  10.931 -0.2608  0.8128 -0.1595
  326MPD2    C4 4949   1.294   4.609  10.908 -0.3935 -0.5140 -0.0952
  326MPD2    C5 4950   1.171   4.622  10.849  0.7600  0.1870 -0.2311
  326MPD2     H 4951   1.298   4.275  10.941  1.7013 -0.0037 -0.1288
  326MPD2    H1 4952   1.355   4.697  10.927  0.9579 -1.7859  1.3705
  326MPD2    H2 4953   0.992   4.533  10.772 -0.7385 -0.7354  1.7040
  326MPD2    H3 4954   1.136   4.723  10.830 -0.5891 -0.3597 -0.7423
  326MPD2     N 4955   1.480   4.454  10.978  0.3552 -0.0153 -0.0537
  326MPD2    H5 4956   1.528   4.536  11.015  0.8725 -1.0162  1.4847
  326MPD2    N1 4957   1.054   4.275  10.845  0.1925  0.1243 -0.1659
  326MPD2    H7 4958   1.077   4.191  10.897 -0.1962 -1.1005 -1.9379
  327TMC3    C1 4959   0.840   4.168  10.787 -0.1221  0.2327 -0.0893
  327TMC3    C2 4960   0.716   4.232  10.767 -0.2606  0.0018  0.3391
  327TMC3    C3 4961   0.611   4.168  10.827 -0.3050  0.1200 -0.8579
  327TMC3    C4 4962   0.852   4.061  10.864  0.3773 -0.1797 -0.0883
  327TMC3    C5 4963   0.740   4.002  10.921  0.3676  0.2837  0.7984
  327TMC3    C6 4964   0.617   4.047  10.891 -0.5858 -0.7303  0.2249
  327TMC3     C 4965   0.946   4.265  10.756 -0.0743 -0.6987 -0.3415
  327TMC3     O 4966   0.933   4.345  10.663 -0.3692 -0.2644  0.3441
  327TMC3     H 4967   0.718   4.323  10.708  2.5498 -0.5888 -0.4625
  327TMC3    H1 4968   0.948   4.019  10.892  2.0224  1.8084 -2.6910
  327TMC3    H2 4969   0.528   3.994  10.923 -0.7408  0.0895  1.1794
  327TMC3    C7 4970   0.755   3.896  11.030 -0.5118  0.0276  0.2722
  327TMC3    C8 4971   0.486   4.241  10.853 -0.1009 -0.4791 -0.3309
  327TMC3    O1 4972   0.660   3.825  11.048  0.0369 -0.4652  0.4288
  327TMC3    O2 4973   0.393   4.171  10.886  0.3790 -0.0037 -0.0448
  328MPD2     C 4974   3.644   4.276  17.158  0.0552 -0.5421 -0.0721
  328MPD2    C1 4975   3.591   4.150  17.130 -0.4567 -0.1826 -0.4369
  328MPD2    C2 4976   3.548   4.125  17.000 -0.2754 -0.5232 -0.6540
  328MPD2    C3 4977   3.533   4.230  16.908  0.0809 -0.1635  1.1426
  328MPD2    C4 4978   3.578   4.350  16.947 -0.6207  0.1707 -0.0223
  328MPD2    C5 4979   3.631   4.367  17.067 -0.0289  0.5005 -0.6414
  328MPD2     H 4980   3.502   4.028  16.980  1.6420 -1.0527 -2.4445
  328MPD2    H1 4981   3.566   4.433  16.879 -0.6054 -0.1056 -0.3661
  328MPD2    H2 4982   3.671   4.312  17.256 -1.1331 -3.3537  1.2669
  328MPD2    H3 4983   3.663   4.467  17.096 -0.8935  0.4294  0.5616
  328MPD2     N 4984   3.459   4.218  16.789 -0.1457  0.3113 -0.3211
  328MPD2    H5 4985   3.453   4.309  16.744  0.1294  0.5429  0.1142
  328MPD2    N1 4986   3.578   4.061  17.241  0.6808  0.6214 -0.1856
  328MPD2    H7 4987   3.612   4.091  17.332  2.6368  0.6600 -0.9183
  329TMC3    C1 4988   3.531   3.876  17.378 -0.6859  0.4625 -0.0323
  329TMC3    C2 4989   3.587   3.960  17.470 -0.5514 -0.8395 -0.3959
  329TMC3    C3 4990   3.524   3.963  17.592 -0.2824  0.2757  0.4764
  329TMC3    C4 4991   3.425   3.795  17.404 -0.5210  0.0863 -0.3030
  329TMC3    C5 4992   3.368   3.803  17.529  0.3186  0.0730  0.3049
  329TMC3    C6 4993   3.418   3.885  17.632  0.7349  0.0575 -0.9487
  329TMC3     C 4994   3.524   3.931  17.242  0.6610  0.3869 -0.5306
  329TMC3     O 4995   3.455   3.879  17.156  0.4935  0.7571 -0.1648
  329TMC3     H 4996   3.684   4.004  17.452 -1.0880  0.7834  0.6970
  329TMC3    H1 4997   3.371   3.741  17.328 -0.8284 -0.4476  0.2958
  329TMC3    H2 4998   3.395   3.876  17.738  0.9007  0.5814 -0.8664
  329TMC3    C7 4999   3.243   3.735  17.546  0.2970  0.2077 -0.1890
  329TMC3    C8 5000   3.576   4.058  17.686  0.4626  0.7988  0.0290
  329TMC3    O1 5001   3.206   3.653  17.460 -0.4777  0.6073 -0.0060
  329TMC3    O2 5002   3.678   4.113  17.649 -1.0029  0.4202 -0.4725
  330TMC3    C1 5003   1.294   3.694   9.796  0.0290 -0.7611  0.0938
  330TMC3    C2 5004   1.236   3.594   9.719  0.1662 -0.0562 -0.2910
  330TMC3    C3 5005   1.290   3.471   9.727  0.3247 -0.5170  0.7663
  330TMC3    C4 5006   1.405   3.675   9.873  0.4815 -0.2367  0.3411
  330TMC3    C5 5007   1.461   3.552   9.874 -0.1484  1.0481  0.0445
  330TMC3    C6 5008   1.402   3.448   9.795  0.0884  0.1496  0.7925
  330TMC3     C 5009   1.233   3.831   9.801 -1.2681 -0.3884 -0.8346
  330TMC3     O 5010   1.286   3.917   9.866  0.0772  0.7199  0.1718
  330TMC3     H 5011   1.157   3.603   9.645  0.4567  1.8390 -0.3717
  330TMC3    H1 5012   1.443   3.753   9.938 -0.1507  0.3380  0.0132
  330TMC3    H2 5013   1.449   3.351   9.790  1.1114  0.6574  0.6784
  330TMC3    C7 5014   1.525   3.522   9.998  0.6351  0.4017 -0.7084
  330TMC3    C8 5015   1.253   3.376   9.627 -0.2106 -0.0228 -0.2829
  330TMC3    O1 5016   1.497   3.409  10.035 -0.3161 -0.0698  0.5591
  330TMC3    O2 5017   1.248   3.409   9.513 -0.3557  0.2990 -0.3499
  331MPD2     C 5018   4.351   2.234  12.993 -0.3778 -0.5386 -0.2155
  331MPD2    C1 5019   4.221   2.226  12.938 -0.6530  0.1456 -0.1340
  331MPD2    C2 5020   4.130   2.144  13.003 -0.0334 -0.6878 -0.3879
  331MPD2    C3 5021   4.165   2.063  13.114  0.6202  0.3054  0.4612
  331MPD2    C4 5022   4.302   2.077  13.153 -0.7747  0.1281 -0.1723
  331MPD2    C5 5023   4.395   2.151  13.090  0.0135  0.2693  0.9352
  331MPD2     H 5024   4.026   2.142  12.972  0.3624  2.2166 -1.8948
  331MPD2    H1 5025   4.335   2.003  13.225 -1.0444 -1.8963 -2.1234
  331MPD2    H2 5026   4.423   2.305  12.954  2.2340 -2.5484  0.9480
  331MPD2    H3 5027   4.499   2.160  13.118  0.0584 -0.8582  1.1564
  331MPD2     N 5028   4.072   1.981  13.165 -0.2180 -0.0409 -0.7493
  331MPD2    H5 5029   4.000   1.960  13.097  1.8424 -0.1894 -2.8721
  331MPD2    N1 5030   4.194   2.314  12.833 -0.0887  0.5368 -0.3384
  331MPD2    H7 5031   4.273   2.376  12.822  0.4897 -0.2802 -0.7822
  332TMC3    C1 5032   4.003   1.783  13.280 -0.4469  0.7269  0.1026
  332TMC3    C2 5033   3.880   1.774  13.221  0.4282  0.1728 -0.0879
  332TMC3    C3 5034   3.807   1.655  13.227  0.5166 -0.3797  0.4190
  332TMC3    C4 5035   4.054   1.670  13.336 -0.2307 -0.4770 -0.8840
  332TMC3    C5 5036   3.987   1.547  13.332 -0.1750 -0.4562 -0.7064
  332TMC3    C6 5037   3.861   1.541  13.282 -0.1200  0.5200  0.8133
  332TMC3     C 5038   4.085   1.901  13.280  0.0564 -0.3407 -0.0288
  332TMC3     O 5039   4.171   1.915  13.366 -0.2268 -0.3393  0.1418
  332TMC3     H 5040   3.833   1.863  13.179 -1.2229 -0.6070  0.1284
  332TMC3    H1 5041   4.155   1.674  13.374 -1.0628  1.3064  1.2107
  332TMC3    H2 5042   3.813   1.444  13.279 -0.1612  0.6168 -1.2902
  332TMC3    C7 5043   4.060   1.422  13.356 -0.3024  0.5874 -0.3304
  332TMC3    C8 5044   3.697   1.629  13.141 -0.1206 -0.2702 -0.2121
  332TMC3    O1 5045   3.999   1.325  13.406  0.5112 -0.0244 -0.1819
  332TMC3    O2 5046   3.613   1.549  13.167  0.0775 -0.1627 -0.4449
  333MPD2     C 5047   3.875   2.934  11.288 -0.5013  0.0324 -0.9500
  333MPD2    C1 5048   3.977   2.845  11.291  0.2452 -0.9057 -0.5790
  333MPD2    C2 5049   3.977   2.739  11.372 -0.1878  0.6636 -0.1335
  333MPD2    C3 5050   3.865   2.720  11.453 -0.5593 -0.4211 -0.2020
  333MPD2    C4 5051   3.757   2.800  11.447 -0.3959  0.1674 -0.4409
  333MPD2    C5 5052   3.755   2.904  11.354  0.4251 -0.4811 -0.3415
  333MPD2     H 5053   4.062   2.672  11.373  0.3874  1.4246  1.5691
  333MPD2    H1 5054   3.663   2.791  11.501  0.2870 -1.7247  0.4069
  333MPD2    H2 5055   3.876   3.015  11.216 -0.8057 -0.1732 -1.1880
  333MPD2    H3 5056   3.665   2.963  11.341  0.2281 -0.4998  0.8835
  333MPD2     N 5057   3.862   2.596  11.525 -0.1538 -0.3781  0.2403
  333MPD2    H5 5058   3.943   2.534  11.522 -0.1564 -0.3178 -1.1182
  333MPD2    N1 5059   4.095   2.878  11.214  0.6237  0.1299  0.3262
  333MPD2    H7 5060   4.093   2.961  11.156  3.2075 -0.2212 -0.2828
  334TMC3    C1 5061   4.319   2.869  11.131  0.0550 -0.0125 -0.8001
  334TMC3    C2 5062   4.427   2.787  11.096  0.3352  0.1800 -0.4076
  334TMC3    C3 5063   4.538   2.847  11.035  0.4399 -0.3917  0.1568
  334TMC3    C4 5064   4.320   2.999  11.094  0.8859  0.3081  0.1778
  334TMC3    C5 5065   4.421   3.052  11.027  0.1107 -0.7336  0.2261
  334TMC3    C6 5066   4.533   2.976  10.992  1.0520  0.0242 -0.5174
  334TMC3     C 5067   4.210   2.811  11.208 -0.0841 -0.1973  0.3538
  334TMC3     O 5068   4.238   2.703  11.268  0.2241 -0.2071 -0.6874
  334TMC3     H 5069   4.426   2.683  11.128 -0.9194  0.8059  1.5683
  334TMC3    H1 5070   4.237   3.064  11.120  0.3815  0.3533 -1.5301
  334TMC3    H2 5071   4.618   3.025  10.946  1.2553  1.0439  0.9503
  334TMC3    C7 5072   4.410   3.194  10.976 -0.1375 -0.2485  0.7001
  334TMC3    C8 5073   4.645   2.760  10.989 -0.1468  0.9817  0.0069
  334TMC3    O1 5074   4.514   3.243  10.936 -0.7347  0.0455 -0.0989
  334TMC3    O2 5075   4.630   2.643  11.005 -0.8805 -1.0729  0.5932
  335TMC3    C1 5076   3.915   3.722  17.455  0.0293 -0.0229  0.8162
  335TMC3    C2 5077   3.876   3.685  17.332 -0.3482  0.4416  0.1104
  335TMC3    C3 5078   3.917   3.750  17.216 -0.2828 -0.2023  0.5915
  335TMC3    C4 5079   4.025   3.812  17.458  0.5085 -1.0669 -0.5097
  335TMC3    C5 5080   4.053   3.888  17.350  0.1235  0.2914  0.2441
  335TMC3    C6 5081   4.004   3.861  17.225 -0.6716 -1.1699  0.6756
  335TMC3     C 5082   3.818   3.725  17.560 -0.1916  0.2865  0.1334
  335TMC3     O 5083   3.719   3.663  17.532 -0.4495 -0.3406 -0.2919
  335TMC3     H 5084   3.803   3.604  17.330 -2.3743  2.3322 -1.7271
  335TMC3    H1 5085   4.074   3.824  17.553 -1.3106  0.2667  0.2492
  335TMC3    H2 5086   4.022   3.919  17.136  0.5787 -1.4497  0.7483
  335TMC3    C7 5087   4.179   3.964  17.343  0.3089 -0.5793 -0.2136
  335TMC3    C8 5088   3.835   3.746  17.098  0.3204  0.7796 -0.4548
  335TMC3    O1 5089   4.253   3.928  17.251  0.1870  0.2650  0.3486
  335TMC3    O2 5090   3.843   3.848  17.035  0.1650  0.2801 -0.0173
  336MPD2     C 5091   4.048   1.791  16.519  0.0174 -0.2451 -0.1873
  336MPD2    C1 5092   4.025   1.710  16.414 -0.6080  0.9383 -0.0658
  336MPD2    C2 5093   4.068   1.578  16.426 -0.1774  0.3085  0.2177
  336MPD2    C3 5094   4.114   1.528  16.547  0.0722 -0.6047 -0.7191
  336MPD2    C4 5095   4.132   1.612  16.652  0.0645  1.2459  0.2076
  336MPD2    C5 5096   4.111   1.744  16.632 -0.9787  0.6029  0.5560
  336MPD2     H 5097   4.071   1.520  16.334 -3.0730  0.9067 -0.2447
  336MPD2    H1 5098   4.182   1.577  16.742  0.4594 -1.0970 -0.9291
  336MPD2    H2 5099   4.043   1.900  16.516 -2.8129 -0.4601 -2.4215
  336MPD2    H3 5100   4.121   1.821  16.709  0.3192  0.1066  0.8833
  336MPD2     N 5101   4.151   1.394  16.569 -0.2221 -0.6488 -0.6580
  336MPD2    H5 5102   4.178   1.367  16.663  0.6960  0.0726 -0.7246
  336MPD2    N1 5103   3.991   1.752  16.287  0.2298  0.5060  0.1690
  336MPD2    H7 5104   4.016   1.693  16.208  0.9512 -0.9594  1.5051
  337TMC3    C1 5105   3.900   1.893  16.125 -0.0339 -0.7461  0.6106
  337TMC3    C2 5106   3.790   1.971  16.097 -0.7359 -0.8751 -0.5571
  337TMC3    C3 5107   3.765   1.987  15.958  0.5812 -0.6545  0.3691
  337TMC3    C4 5108   3.987   1.840  16.032 -0.1287 -0.2152  0.3387
  337TMC3    C5 5109   3.963   1.873  15.898 -0.1661 -0.3088 -0.2930
  337TMC3    C6 5110   3.853   1.949  15.864  0.0194 -0.0964 -0.1765
  337TMC3     C 5111   3.919   1.866  16.267 -0.3578  0.0595 -0.0336
  337TMC3     O 5112   3.873   1.937  16.351 -0.3619 -0.0087 -0.1403
  337TMC3     H 5113   3.719   1.997  16.175  0.3042 -1.1303  0.4777
  337TMC3    H1 5114   4.074   1.787  16.068 -1.5781 -2.7198  0.1598
  337TMC3    H2 5115   3.831   1.968  15.760 -1.7720 -0.2508  0.1660
  337TMC3    C7 5116   4.043   1.825  15.791  0.3888  0.6590  0.4044
  337TMC3    C8 5117   3.644   2.049  15.907  0.8647 -0.0996 -0.7904
  337TMC3    O1 5118   3.992   1.830  15.680 -0.2484 -0.4877 -0.1371
  337TMC3    O2 5119   3.576   2.104  15.991  0.3034  0.0262  0.0486
  338MPD2     C 5120   4.570   1.603   1.246  0.0541  0.5120  0.8064
  338MPD2    C1 5121   4.496   1.608   1.132 -0.5476  0.2094 -0.9877
  338MPD2    C2 5122   4.377   1.676   1.135 -0.0622  0.1152 -0.2401
  338MPD2    C3 5123   4.324   1.737   1.248  0.7433  0.3439  0.3882
  338MPD2    C4 5124   4.391   1.722   1.367  0.2325  0.1128 -0.2902
  338MPD2    C5 5125   4.517   1.653   1.362  0.1274 -1.1183  0.1042
  338MPD2     H 5126   4.320   1.671   1.043  1.0682 -0.7687 -0.8917
  338MPD2    H1 5127   4.357   1.747   1.466  0.9316  0.1504 -0.0588
  338MPD2    H2 5128   4.664   1.549   1.254  0.0908  0.9975  3.5882
  338MPD2    H3 5129   4.571   1.641   1.456  0.8706 -0.1958 -0.2087
  338MPD2     N 5130   4.189   1.777   1.239 -0.3498  0.0487 -0.6279
  338MPD2    H5 5131   4.138   1.746   1.157 -0.8048  3.7268 -1.7224
  338MPD2    N1 5132   4.530   1.536   1.014 -0.3025  0.1986 -0.2154
  338MPD2    H7 5133   4.459   1.534   0.942  0.6310  0.5390 -1.1381
  339TMC3    C1 5134   3.971   1.816   1.302  0.0742  0.8141  0.0440
  339TMC3    C2 5135   3.898   1.719   1.365 -1.0358  0.0480 -0.5700
  339TMC3    C3 5136   3.829   1.620   1.296  0.2731 -0.6833 -0.3017
  339TMC3    C4 5137   3.970   1.824   1.163 -0.5255  0.2348 -0.6780
  339TMC3    C5 5138   3.904   1.725   1.103 -0.8093 -0.2677  0.4628
  339TMC3    C6 5139   3.835   1.619   1.159 -0.6648 -0.0018  0.1114
  339TMC3     C 5140   4.113   1.813   1.345 -0.3398  0.0889  0.1430
  339TMC3     O 5141   4.148   1.819   1.462 -0.2843  0.1288 -0.5147
  339TMC3     H 5142   3.885   1.729   1.472 -1.1561 -2.8169 -0.3142
  339TMC3    H1 5143   4.032   1.890   1.103  2.5150  1.0508  3.4129
  339TMC3    H2 5144   3.792   1.538   1.101 -1.3759  1.2711 -1.1433
  339TMC3    C7 5145   3.944   1.712   0.966  0.3301 -0.5245 -0.3729
  339TMC3    C8 5146   3.749   1.531   1.373  0.2878 -0.6886 -0.5130
  339TMC3    O1 5147   4.061   1.733   0.941  0.0825  0.4074 -0.0006
  339TMC3    O2 5148   3.685   1.577   1.467 -0.2343 -0.0156 -0.2921
  340MPD2     C 5149   4.247   4.104  10.648  0.1291  0.0245  1.0826
  340MPD2    C1 5150   4.212   3.991  10.580 -0.5766 -0.1144 -0.5973
  340MPD2    C2 5151   4.293   3.877  10.576  0.4062 -0.2122 -0.1691
  340MPD2    C3 5152   4.423   3.888  10.629  0.9284  0.2296 -0.5942
  340MPD2    C4 5153   4.460   4.009  10.685 -0.2065  0.3524 -0.0772
  340MPD2    C5 5154   4.371   4.110  10.700 -0.4141  0.1219 -0.0338
  340MPD2     H 5155   4.255   3.781  10.543 -2.1040  1.0424 -0.9031
  340MPD2    H1 5156   4.558   4.021  10.729 -0.2434 -0.1572  0.1439
  340MPD2    H2 5157   4.177   4.186  10.658 -0.1580  0.0055 -0.8738
  340MPD2    H3 5158   4.399   4.206  10.742 -0.5518  0.0972  0.1146
  340MPD2     N 5159   4.526   3.796  10.608  0.6375 -0.5516 -0.0671
  340MPD2    H5 5160   4.619   3.832  10.629  0.4981 -1.0993  1.4731
  340MPD2    N1 5161   4.095   3.994  10.507 -0.1396  0.5248  0.0692
  340MPD2    H7 5162   4.063   4.088  10.488  3.4702  1.6805 -0.2698
  341TMC3    C1 5163   3.933   3.926  10.350 -0.4965  0.3483  0.3109
  341TMC3    C2 5164   3.873   3.816  10.295 -0.3918  0.5995  0.4291
  341TMC3    C3 5165   3.860   3.810  10.162 -0.5176 -0.4293  0.0982
  341TMC3    C4 5166   3.966   4.036  10.273  0.0464  0.1657 -0.8543
  341TMC3    C5 5167   3.955   4.019  10.134  0.2411  0.2877  0.1381
  341TMC3    C6 5168   3.904   3.908  10.080 -0.3936  0.1114 -0.0010
  341TMC3     C 5169   4.033   3.885  10.449 -0.1806 -0.1866  0.1108
  341TMC3     O 5170   4.050   3.768  10.472  0.3730 -0.2516  0.1075
  341TMC3     H 5171   3.839   3.736  10.359  0.0907 -0.3981 -0.5584
  341TMC3    H1 5172   4.002   4.129  10.315  0.5638 -0.3431 -0.1732
  341TMC3    H2 5173   3.895   3.906   9.972 -1.5518  0.4839  0.0852
  341TMC3    C7 5174   4.059   4.078  10.056 -0.9078  0.8330 -0.6251
  341TMC3    C8 5175   3.833   3.684  10.100  0.0676 -0.0152  0.0454
  341TMC3    O1 5176   4.106   4.005   9.970 -0.6417  0.0790  0.3206
  341TMC3    O2 5177   3.815   3.683   9.980 -0.0611 -0.3072  0.1678
  342MPD2     C 5178   2.159   2.328  17.457 -0.1910  0.1101 -0.7213
  342MPD2    C1 5179   2.278   2.326  17.383  0.1365  1.0250 -0.0165
  342MPD2    C2 5180   2.323   2.445  17.314 -0.4684 -0.7788 -0.5401
  342MPD2    C3 5181   2.258   2.563  17.355 -0.3662 -0.1322 -0.3957
  342MPD2    C4 5182   2.156   2.566  17.447  0.4060  0.3901 -0.2441
  342MPD2    C5 5183   2.104   2.449  17.491 -0.6905 -0.8261 -0.3504
  342MPD2     H 5184   2.394   2.445  17.233  0.0160  1.5234 -0.1092
  342MPD2    H1 5185   2.131   2.661  17.492 -0.7721  0.0305 -0.1587
  342MPD2    H2 5186   2.116   2.236  17.494 -0.0486  1.5462  3.0791
  342MPD2    H3 5187   2.011   2.451  17.546 -0.5617  0.0859 -0.1595
  342MPD2     N 5188   2.309   2.686  17.317  0.5173 -0.6117  0.3423
  342MPD2    H5 5189   2.259   2.769  17.346  1.8896  0.3376 -0.0149
  342MPD2    N1 5190   2.349   2.214  17.344 -0.5834 -0.3867  0.3419
  342MPD2    H7 5191   2.424   2.219  17.276 -2.3633  0.6163 -1.5574
  343TMC3    C1 5192   2.394   1.982  17.304  0.1325  0.6779  0.1404
  343TMC3    C2 5193   2.414   2.003  17.169  0.3678  0.2529  0.3499
  343TMC3    C3 5194   2.467   1.896  17.098 -0.6869 -0.4253  0.2209
  343TMC3    C4 5195   2.418   1.863  17.370 -0.6159  0.1222  0.3418
  343TMC3    C5 5196   2.445   1.762  17.284 -0.5358 -0.5266 -0.3280
  343TMC3    C6 5197   2.486   1.775  17.153  0.0252 -0.0658 -0.8035
  343TMC3     C 5198   2.323   2.084  17.379 -0.1289  0.1857 -0.4640
  343TMC3     O 5199   2.259   2.049  17.477 -0.2190 -0.0616 -0.0476
  343TMC3     H 5200   2.393   2.099  17.124  0.6586 -0.3232 -1.0196
  343TMC3    H1 5201   2.394   1.854  17.476  0.5458  0.6059  0.6455
  343TMC3    H2 5202   2.501   1.686  17.092 -0.1668  0.2695 -1.3419
  343TMC3    C7 5203   2.408   1.630  17.332 -0.0090 -0.0514 -0.2284
  343TMC3    C8 5204   2.576   1.938  17.017 -0.2690 -0.3205 -0.4478
  343TMC3    O1 5205   2.388   1.541  17.248  0.3670 -0.4606 -0.0390
  343TMC3    O2 5206   2.614   2.054  17.031 -0.6172  0.5894 -0.7173
  344MPD2     C 5207   2.029   1.978  10.959  0.4183 -0.3820  0.7731
  344MPD2    C1 5208   2.120   1.880  10.993 -0.1924 -0.4622  0.4084
  344MPD2    C2 5209   2.238   1.921  11.062  0.3162  0.4269  0.5092
  344MPD2    C3 5210   2.278   2.054  11.061 -0.8077 -0.0305 -0.1935
  344MPD2    C4 5211   2.183   2.147  11.013 -0.6600 -0.1127 -1.0592
  344MPD2    C5 5212   2.059   2.114  10.976  0.5682 -0.1405  0.4051
  344MPD2     H 5213   2.307   1.849  11.103  1.9280  2.1544  0.8602
  344MPD2    H1 5214   2.207   2.252  11.025 -0.3989 -0.4929  1.7118
  344MPD2    H2 5215   1.934   1.955  10.913  0.4817  0.9424 -0.0090
  344MPD2    H3 5216   1.999   2.196  10.940 -2.3442 -2.6199 -0.4059
  344MPD2     N 5217   2.397   2.104  11.127  0.1213 -0.1491  0.3177
  344MPD2    H5 5218   2.417   2.202  11.111  0.0065 -0.0387  0.8409
  344MPD2    N1 5219   2.105   1.738  10.966  0.0372 -0.2964 -0.0600
  344MPD2    H7 5220   2.177   1.679  11.006 -1.2378 -0.3395  2.1124
  345TMC3    C1 5221   2.625   2.080  11.213 -0.2931  0.5367  0.0367
  345TMC3    C2 5222   2.641   2.214  11.193  0.5768  1.1898  0.1956
  345TMC3    C3 5223   2.772   2.264  11.183 -0.1623  0.3389  0.0921
  345TMC3    C4 5224   2.735   1.994  11.195  0.4419  0.3585  0.4338
  345TMC3    C5 5225   2.857   2.044  11.162  0.4188  0.1628  0.2947
  345TMC3    C6 5226   2.879   2.177  11.168  0.8218  0.3896  0.4037
  345TMC3     C 5227   2.486   2.025  11.208  0.0696 -0.7037 -0.7879
  345TMC3     O 5228   2.469   1.908  11.240 -0.7195 -0.2857  0.1354
  345TMC3     H 5229   2.560   2.286  11.182 -0.8701 -0.6322 -0.9866
  345TMC3    H1 5230   2.710   1.889  11.201  0.2380  0.3690 -0.2161
  345TMC3    H2 5231   2.981   2.209  11.147  0.2403  1.6468 -0.5301
  345TMC3    C7 5232   2.901   1.999  11.035 -0.7447 -0.0662  0.5660
  345TMC3    C8 5233   2.788   2.403  11.150 -0.6595 -0.1383 -0.6308
  345TMC3    O1 5234   2.953   2.087  10.965 -0.6175  0.3532  0.5881
  345TMC3    O2 5235   2.713   2.462  11.076  0.6018  0.5927  0.6551
  346MPD2     C 5236   2.826   3.556  14.498 -0.8198 -0.5982  0.6965
  346MPD2    C1 5237   2.921   3.491  14.421  0.0508 -0.0551 -0.0285
  346MPD2    C2 5238   3.059   3.495  14.461  0.4685 -0.2184 -0.1702
  346MPD2    C3 5239   3.090   3.575  14.575  0.0964  0.1173 -0.0423
  346MPD2    C4 5240   2.993   3.652  14.634  0.5141 -0.6029  0.4506
  346MPD2    C5 5241   2.863   3.644  14.596 -0.3650 -0.0294  0.7227
  346MPD2     H 5242   3.135   3.441  14.404 -1.7356 -2.0527 -1.3555
  346MPD2    H1 5243   3.015   3.724  14.712  0.9442 -1.0315  0.7303
  346MPD2    H2 5244   2.723   3.558  14.466 -0.3844 -0.7638 -0.7362
  346MPD2    H3 5245   2.801   3.723  14.636 -1.2721 -0.0724 -0.6213
  346MPD2     N 5246   3.223   3.587  14.617 -0.2101 -0.0982 -0.5813
  346MPD2    H5 5247   3.293   3.549  14.554  1.4938  0.6375  0.8644
  346MPD2    N1 5248   2.871   3.428  14.309  0.3156 -0.1770  0.7421
  346MPD2    H7 5249   2.771   3.443  14.296  0.4204 -0.2094 -0.1074
  347TMC3    C1 5250   3.414   3.624  14.752  0.3578 -0.7758 -0.0500
  347TMC3    C2 5251   3.488   3.593  14.635  0.1108  0.6057 -0.2506
  347TMC3    C3 5252   3.622   3.614  14.641  0.9875 -0.5969 -0.6957
  347TMC3    C4 5253   3.469   3.688  14.855 -0.3676 -0.3185  0.3492
  347TMC3    C5 5254   3.603   3.711  14.851 -0.5347 -0.3399  0.1957
  347TMC3    C6 5255   3.685   3.667  14.752 -0.4124  0.1670  0.0382
  347TMC3     C 5256   3.270   3.634  14.743  1.1430  0.3679  0.4071
  347TMC3     O 5257   3.203   3.668  14.836 -0.1034 -0.2492  0.3662
  347TMC3     H 5258   3.441   3.534  14.557  1.4684 -2.0236  0.9235
  347TMC3    H1 5259   3.404   3.724  14.934  0.1186 -0.4689  0.8190
  347TMC3    H2 5260   3.792   3.685  14.760 -0.8054  1.1020  3.0841
  347TMC3    C7 5261   3.654   3.781  14.967 -0.1011 -0.2865 -0.1997
  347TMC3    C8 5262   3.720   3.580  14.538 -1.0368 -0.0704  0.2752
  347TMC3    O1 5263   3.569   3.782  15.057 -0.2353  0.2226 -0.2759
  347TMC3    O2 5264   3.680   3.503  14.447  0.0970  0.0183 -0.1173
  348MPD2     C 5265   1.626   2.827  12.086 -1.1789 -0.7179  0.3494
  348MPD2    C1 5266   1.754   2.864  12.048  0.1780  1.4076  0.1814
  348MPD2    C2 5267   1.773   2.945  11.942  0.2613  0.0627 -0.2828
  348MPD2    C3 5268   1.672   3.004  11.873 -0.4453  0.0626 -0.0892
  348MPD2    C4 5269   1.545   2.960  11.905  0.1200 -0.4137  0.4173
  348MPD2    C5 5270   1.519   2.867  12.009 -0.1982 -0.4094 -0.2503
  348MPD2     H 5271   1.876   2.972  11.918  0.4184 -1.2900 -1.1328
  348MPD2    H1 5272   1.454   2.989  11.855  0.6833  0.2103 -0.2470
  348MPD2    H2 5273   1.615   2.770  12.178 -0.9077 -1.7576 -0.2579
  348MPD2    H3 5274   1.418   2.829  12.022  0.1439 -1.0579  0.4954
  348MPD2     N 5275   1.706   3.090  11.766 -0.4317 -0.0263 -0.3712
  348MPD2    H5 5276   1.804   3.106  11.747 -0.6974 -2.9260 -4.1007
  348MPD2    N1 5277   1.875   2.816  12.115  0.4777  0.0571  0.2291
  348MPD2    H7 5278   1.960   2.835  12.063 -0.0954 -2.4805 -1.6725
  349TMC3    C1 5279   2.023   2.668  12.226  0.0732  1.2448  0.5123
  349TMC3    C2 5280   1.993   2.556  12.295 -0.6790  0.1553 -0.4714
  349TMC3    C3 5281   1.999   2.432  12.227  1.0591  0.3299 -0.7229
  349TMC3    C4 5282   2.082   2.665  12.104 -0.3245 -0.1789  0.0001
  349TMC3    C5 5283   2.076   2.552  12.028 -0.7193 -0.4383 -0.1695
  349TMC3    C6 5284   2.038   2.436  12.095 -0.6128  0.3586  0.1176
  349TMC3     C 5285   1.893   2.736  12.230 -0.6901 -0.0671 -0.1742
  349TMC3     O 5286   1.809   2.709  12.317  0.5995 -0.4404 -0.3306
  349TMC3     H 5287   1.957   2.551  12.397 -1.7050 -0.0643 -0.8419
  349TMC3    H1 5288   2.104   2.762  12.060  2.1273 -0.7920 -0.1463
  349TMC3    H2 5289   2.044   2.356  12.022  0.8787  0.0941  0.5290
  349TMC3    C7 5290   1.987   2.570  11.907 -0.1132  0.6532  0.1654
  349TMC3    C8 5291   1.994   2.309  12.302 -0.0534 -0.9081 -0.6080
  349TMC3    O1 5292   1.880   2.519  11.927  0.1052  0.1602  0.6403
  349TMC3    O2 5293   1.973   2.305  12.427  0.3938  0.0526 -0.2610
  350MPD2     C 5294   0.993   1.049  10.930 -0.4190 -0.0498 -0.3720
  350MPD2    C1 5295   0.865   1.090  10.922  1.1294 -0.1985 -0.4178
  350MPD2    C2 5296   0.808   1.142  11.034  0.6627  0.1791  1.2649
  350MPD2    C3 5297   0.868   1.149  11.154 -0.1362 -0.5913 -0.0095
  350MPD2    C4 5298   1.001   1.105  11.158 -0.1598  0.4180  0.3617
  350MPD2    C5 5299   1.061   1.046  11.052 -0.1358  0.1824 -0.7835
  350MPD2     H 5300   0.707   1.179  11.038  1.3294  2.3189 -2.0032
  350MPD2    H1 5301   1.051   1.103  11.255  0.4308 -2.0838  0.0139
  350MPD2    H2 5302   1.050   1.014  10.845 -0.6503 -2.2994  0.3994
  350MPD2    H3 5303   1.160   1.002  11.062 -0.9958 -1.1097  2.0791
  350MPD2     N 5304   0.795   1.197  11.270 -0.1514  0.0826 -0.1518
  350MPD2    H5 5305   0.695   1.217  11.264  0.3415  1.8889 -2.0147
  350MPD2    N1 5306   0.790   1.072  10.806 -0.2622 -0.3626 -0.9960
  350MPD2    H7 5307   0.704   1.126  10.811  1.0375  1.3105  3.0561
  351TMC3    C1 5308   0.759   1.044  10.573  0.3705  0.4891 -0.1739
  351TMC3    C2 5309   0.815   0.992  10.458  0.0947 -0.4913  0.2996
  351TMC3    C3 5310   0.783   1.058  10.343 -1.3377 -0.3832 -0.1473
  351TMC3    C4 5311   0.673   1.146  10.573  0.4841  0.3903 -0.1557
  351TMC3    C5 5312   0.631   1.191  10.452 -1.1519  0.0520 -0.1788
  351TMC3    C6 5313   0.691   1.159  10.329 -0.9488  0.6338  0.8863
  351TMC3     C 5314   0.838   1.012  10.694 -0.5905  0.4659  0.5321
  351TMC3     O 5315   0.915   0.918  10.689  0.1006  0.5059 -0.1399
  351TMC3     H 5316   0.895   0.919  10.462  0.4466 -0.2854 -2.5666
  351TMC3    H1 5317   0.616   1.171  10.662  1.2880  1.0287  0.1834
  351TMC3    H2 5318   0.659   1.210  10.239  0.7266 -0.0523 -0.0969
  351TMC3    C7 5319   0.500   1.255  10.446  0.8149 -0.2428  0.5667
  351TMC3    C8 5320   0.857   1.015  10.224  0.5015 -0.1934 -0.6179
  351TMC3    O1 5321   0.423   1.224  10.538 -0.9226 -0.1387  0.5895
  351TMC3    O2 5322   0.900   0.901  10.220  0.5273 -0.1860 -0.3118
  352MPD2     C 5323   4.212   3.727   1.047 -0.2715  0.1746 -0.1183
  352MPD2    C1 5324   4.101   3.654   1.023  0.1433 -0.8101  0.2884
  352MPD2    C2 5325   4.090   3.540   1.103 -0.3501 -0.6151  0.4702
  352MPD2    C3 5326   4.181   3.500   1.203 -0.2337 -0.3940  0.7199
  352MPD2    C4 5327   4.298   3.573   1.216  0.1283  0.0158  0.0799
  352MPD2    C5 5328   4.305   3.687   1.138  0.0576  0.1960  0.3539
  352MPD2     H 5329   4.006   3.478   1.073  1.2200 -1.8834 -1.3511
  352MPD2    H1 5330   4.366   3.557   1.299 -0.1252  0.5033  0.3836
  352MPD2    H2 5331   4.223   3.817   0.987  2.3583  0.5772  0.9601
  352MPD2    H3 5332   4.387   3.757   1.145  0.3979 -0.0475 -1.2173
  352MPD2     N 5333   4.164   3.392   1.295 -0.2179  0.0211 -0.1683
  352MPD2    H5 5334   4.244   3.370   1.354 -1.1783  1.3757  1.6153
  352MPD2    N1 5335   4.029   3.670   0.901  0.8382 -0.2840  0.5075
  352MPD2    H7 5336   4.053   3.750   0.842  0.3367 -0.3967  0.1474
  353TMC3    C1 5337   4.049   3.225   1.434  0.5664  0.4352 -0.4722
  353TMC3    C2 5338   4.159   3.141   1.416  0.1478  0.4443 -0.7463
  353TMC3    C3 5339   4.145   3.011   1.422  0.8431 -0.0126 -0.0097
  353TMC3    C4 5340   3.929   3.166   1.466 -0.0779 -0.1209  0.2408
  353TMC3    C5 5341   3.919   3.030   1.476  1.0189  0.6787  0.2043
  353TMC3    C6 5342   4.024   2.945   1.446  0.0374  0.2426 -0.2161
  353TMC3     C 5343   4.043   3.337   1.335 -0.1737 -0.1947  0.4358
  353TMC3     O 5344   3.933   3.355   1.280  0.1631  0.2812  0.4056
  353TMC3     H 5345   4.259   3.184   1.414  0.0181  0.7327 -1.0861
  353TMC3    H1 5346   3.848   3.238   1.461  0.0409 -0.0773 -0.9957
  353TMC3    H2 5347   4.013   2.837   1.438  1.5789  0.0766 -0.1381
  353TMC3    C7 5348   3.802   2.972   1.412  0.0766  0.1723  0.2080
  353TMC3    C8 5349   4.268   2.934   1.410 -0.2410  0.5480 -0.0049
  353TMC3    O1 5350   3.811   2.873   1.339  0.4234  0.1687 -0.4364
  353TMC3    O2 5351   4.356   2.971   1.487 -0.5824 -0.0139 -0.0757
  354TMC3    C1 5352   1.177   3.968  14.060  0.0681  0.6740 -0.4108
  354TMC3    C2 5353   1.213   4.093  14.019  0.2063  0.0372  0.5896
  354TMC3    C3 5354   1.270   4.117  13.894 -0.4588  0.5617  0.3812
  354TMC3    C4 5355   1.215   3.862  13.980  0.5849 -0.4557  0.1102
  354TMC3    C5 5356   1.270   3.886  13.856  1.1229  0.4426  0.3762
  354TMC3    C6 5357   1.304   4.007  13.817 -0.2773  0.0159 -0.2879
  354TMC3     C 5358   1.130   3.939  14.194 -0.1034 -0.3141  0.0470
  354TMC3     O 5359   1.086   3.826  14.220  0.9231  0.2203 -0.5069
  354TMC3     H 5360   1.184   4.185  14.069 -0.4690 -1.5132  3.0302
  354TMC3    H1 5361   1.171   3.767  14.009 -0.0986 -0.9478 -2.5269
  354TMC3    H2 5362   1.376   4.015  13.736  1.2214  0.2375  1.0686
  354TMC3    C7 5363   1.278   3.769  13.773 -0.7781  0.0270 -0.3315
  354TMC3    C8 5364   1.333   4.250  13.867  0.7148 -0.4193 -0.0185
  354TMC3    O1 5365   1.292   3.660  13.830 -0.6135  0.2907 -0.0638
  354TMC3    O2 5366   1.335   4.329  13.959  0.4829  0.2625 -0.5324
  355MPD2     C 5367   1.301   0.275  12.133 -0.1381  0.6292  0.3022
  355MPD2    C1 5368   1.410   0.263  12.046  0.4232 -0.0374 -0.5638
  355MPD2    C2 5369   1.502   0.161  12.056  0.2307 -0.4119 -0.7067
  355MPD2    C3 5370   1.502   0.080  12.170 -0.3053  0.3596  0.3524
  355MPD2    C4 5371   1.383   0.083  12.242  0.2170 -0.1984  0.5903
  355MPD2    C5 5372   1.291   0.184  12.234  0.4936  0.2235  0.6172
  355MPD2     H 5373   1.585   0.140  11.989  0.1749  0.3807 -1.0239
  355MPD2    H1 5374   1.373   0.019  12.328  1.9524  0.4950  1.3036
  355MPD2    H2 5375   1.220   0.346  12.122 -0.0751  0.9403  1.8908
  355MPD2    H3 5376   1.205   0.189  12.301 -1.0187 -1.6693 -1.1673
  355MPD2     N 5377   1.602   4.730  12.196  0.6701  0.4012  0.3836
  355MPD2    H5 5378   1.583   4.654  12.259  1.3915  0.0420  0.1762
  355MPD2    N1 5379   1.435   0.363  11.945 -0.7894  0.0327 -0.3186
  355MPD2    H7 5380   1.387   0.450  11.966 -2.3053 -1.1523  1.1021
  356TMC3    C1 5381   1.797   0.113  12.150 -0.1488  0.6139 -0.4179
  356TMC3    C2 5382   1.861   0.162  12.037 -0.8424  0.0582  0.0556
  356TMC3    C3 5383   1.900   0.293  12.026  0.1922  0.4967 -0.0305
  356TMC3    C4 5384   1.775   0.195  12.258  0.6413 -1.0441  0.5683
  356TMC3    C5 5385   1.811   0.321  12.253  0.0670 -0.7886 -0.6100
  356TMC3    C6 5386   1.861   0.373  12.130 -0.3956  0.0447  0.0826
  356TMC3     C 5387   1.735   4.731  12.148  0.6925  0.0667 -0.7441
  356TMC3     O 5388   1.811   4.632  12.146 -0.0732 -0.3264  0.4914
  356TMC3     H 5389   1.858   0.098  11.949  2.2943  0.2305 -0.1903
  356TMC3    H1 5390   1.710   0.160  12.337 -3.0792  2.0445 -1.1129
  356TMC3    H2 5391   1.898   0.475  12.132  1.5173 -0.6417 -0.1958
  356TMC3    C7 5392   1.841   0.375  12.385 -0.6754 -0.4288  0.0425
  356TMC3    C8 5393   1.916   0.338  11.889 -0.6068  0.2512 -0.4303
  356TMC3    O1 5394   1.860   0.288  12.470  0.3093  0.1075  0.6517
  356TMC3    O2 5395   1.927   0.247  11.806  0.5540  0.3080 -0.3063
  357MPD2     C 5396   0.758   4.607  17.750  0.3530 -0.1515  0.2400
  357MPD2    C1 5397   0.847   4.711  17.733 -0.4045  0.0338 -0.8113
  357MPD2    C2 5398   0.799   0.096  17.747 -0.5827 -0.3670  0.1606
  357MPD2    C3 5399   0.670   0.120   0.018  0.4675  0.6668  0.5967
  357MPD2    C4 5400   0.594   0.012   0.047  0.2785  0.3135  0.0108
  357MPD2    C5 5401   0.636   4.630   0.036 -0.3180 -0.2824 -0.1376
  357MPD2     H 5402   0.862   0.184  17.742 -0.1998 -0.6923 -0.8054
  357MPD2    H1 5403   0.499   0.024   0.096 -0.1936  0.6639 -0.9795
  357MPD2    H2 5404   0.786   4.502  17.747 -0.8194 -0.4068 -1.4698
  357MPD2    H3 5405   0.573   4.543   0.048  0.1030 -0.9541 -2.7454
  357MPD2     N 5406   0.612   0.246   0.027  0.0142 -0.0481  0.2883
  357MPD2    H5 5407   0.525   0.242   0.080  0.6170  0.0622  1.2899
  357MPD2    N1 5408   0.969   4.673  17.679  0.2159  0.6477 -0.5675
  357MPD2    H7 5409   0.987   4.575  17.657  2.6002  0.9106  0.1860
  358TMC3    C1 5410   1.193   4.705  17.619 -0.2953 -0.4359 -0.1590
  358TMC3    C2 5411   1.166   4.635  17.508  0.3206  0.1816  0.1322
  358TMC3    C3 5412   1.274   4.594  17.437  0.9803  0.0868  0.5246
  358TMC3    C4 5413   1.318   4.728  17.666  0.3546 -0.8716 -0.1286
  358TMC3    C5 5414   1.422   4.667  17.608  0.0437 -0.0614  0.1824
  358TMC3    C6 5415   1.403   4.601  17.488 -0.3164  0.1195  0.2616
  358TMC3     C 5416   1.079   0.018  17.692 -0.2259 -0.2517 -0.5301
  358TMC3     O 5417   1.082   0.117  17.761 -0.4703 -0.3361  0.2320
  358TMC3     H 5418   1.067   4.603  17.477  0.9348 -3.7473  2.2521
  358TMC3    H1 5419   1.343   0.045  17.752  1.3072  0.5670 -1.4208
  358TMC3    H2 5420   1.483   4.534  17.459  0.4834  1.0032  0.4617
  358TMC3    C7 5421   1.551   4.658  17.679 -1.0058  0.2216  0.8671
  358TMC3    C8 5422   1.249   4.531  17.305  0.2470 -0.1109  0.1677
  358TMC3    O1 5423   1.649   4.631  17.613  0.6172  0.0504  0.3119
  358TMC3    O2 5424   1.141   4.551  17.251  0.0599  0.0966 -0.4069
  359MPD2     C 5425   1.428   3.789  12.758  0.8034 -0.3472  0.5251
  359MPD2    C1 5426   1.435   3.706  12.652  0.3051  0.6774 -0.0002
  359MPD2    C2 5427   1.323   3.633  12.626 -0.5266 -0.1323 -0.3141
  359MPD2    C3 5428   1.207   3.646  12.695  0.2388  0.6415 -1.0992
  359MPD2    C4 5429   1.207   3.732  12.801 -0.0646  0.1368 -0.1038
  359MPD2    C5 5430   1.321   3.796  12.838 -0.2282  0.0572  0.0808
  359MPD2     H 5431   1.333   3.576  12.534 -2.5476 -0.7803 -0.1236
  359MPD2    H1 5432   1.122   3.754  12.865  1.0385 -0.1231  1.4538
  359MPD2    H2 5433   1.506   3.855  12.795  0.0716  0.1840  1.1109
  359MPD2    H3 5434   1.321   3.871  12.916 -2.4285  1.1030 -0.8863
  359MPD2     N 5435   1.100   3.564  12.677  0.1655  0.5792 -0.3561
  359MPD2    H5 5436   1.006   3.588  12.708 -0.3323 -3.2547  1.0977
  359MPD2    N1 5437   1.542   3.712  12.566 -0.5070  0.0032  0.2766
  359MPD2    H7 5438   1.533   3.669  12.474 -1.1660  0.1574  0.2703
  360TMC3    C1 5439   1.770   3.725  12.493 -0.4623 -0.2616 -0.1326
  360TMC3    C2 5440   1.895   3.783  12.519  0.3637 -0.3454 -0.5407
  360TMC3    C3 5441   1.988   3.769  12.420 -0.0195 -0.3778 -0.6908
  360TMC3    C4 5442   1.745   3.634  12.396  0.7255  0.0520  0.4630
  360TMC3    C5 5443   1.841   3.626  12.300 -0.1507 -0.7503 -0.1040
  360TMC3    C6 5444   1.959   3.691  12.312 -0.5772 -0.5581  0.1772
  360TMC3     C 5445   1.668   3.773  12.585  0.5432 -0.4666 -0.2254
  360TMC3     O 5446   1.705   3.836  12.685 -0.8513  0.2902 -0.0969
  360TMC3     H 5447   1.915   3.851  12.601  0.1596 -0.4546 -0.4016
  360TMC3    H1 5448   1.652   3.585  12.374  0.4428  0.4039  0.8765
  360TMC3    H2 5449   2.035   3.679  12.236 -2.0278 -1.4362 -1.1360
  360TMC3    C7 5450   1.796   3.581  12.171  0.1980 -0.2470  0.1518
  360TMC3    C8 5451   2.080   3.882  12.388 -0.0084 -1.1400  0.6838
  360TMC3    O1 5452   1.846   3.642  12.074  0.1489 -0.0192 -0.7352
  360TMC3    O2 5453   2.075   3.974  12.466  0.3580 -0.0651 -0.3347
  361MPD2     C 5454   3.362   2.302  16.275  0.2959  0.6828  0.3809
  361MPD2    C1 5455   3.330   2.374  16.392 -0.4034 -0.6068  0.0212
  361MPD2    C2 5456   3.396   2.334  16.515  0.1256 -0.0574 -0.7203
  361MPD2    C3 5457   3.497   2.240  16.514 -0.2626  0.5924 -0.5191
  361MPD2    C4 5458   3.523   2.174  16.399  0.4093 -0.4108 -0.3067
  361MPD2    C5 5459   3.453   2.201  16.282 -0.1130 -0.6735  0.3709
  361MPD2     H 5460   3.378   2.393  16.603  1.1859 -0.0423 -0.5133
  361MPD2    H1 5461   3.588   2.088  16.393  1.3718  0.2205  1.0268
  361MPD2    H2 5462   3.312   2.312  16.179 -0.5056  1.7387  0.9170
  361MPD2    H3 5463   3.472   2.147  16.189 -0.9146 -0.9067  0.3353
  361MPD2     N 5464   3.557   2.190  16.636 -0.0794 -0.7411 -0.7033
  361MPD2    H5 5465   3.601   2.100  16.619 -0.1723 -0.2791 -3.3959
  361MPD2    N1 5466   3.220   2.466  16.400  0.1962  0.1208  0.4601
  361MPD2    H7 5467   3.194   2.499  16.492 -1.2914  1.3996 -0.4125
  362TMC3    C1 5468   3.032   2.599  16.330 -0.2437 -0.3575  0.6742
  362TMC3    C2 5469   2.977   2.585  16.456  0.0832 -0.7961  0.0613
  362TMC3    C3 5470   2.875   2.673  16.486 -0.4772  0.0548  0.2211
  362TMC3    C4 5471   2.979   2.673  16.235  0.0933  0.3450  1.0510
  362TMC3    C5 5472   2.868   2.751  16.269  0.1987  0.0815 -0.4162
  362TMC3    C6 5473   2.824   2.756  16.395 -0.5819 -0.0194 -0.1936
  362TMC3     C 5474   3.148   2.517  16.291 -0.1272  0.2030  0.2317
  362TMC3     O 5475   3.185   2.518  16.176  0.2700 -0.0674 -0.0917
  362TMC3     H 5476   3.027   2.529  16.533 -2.6558 -0.9051  1.7448
  362TMC3    H1 5477   3.024   2.673  16.137 -0.7713 -2.4737  0.6565
  362TMC3    H2 5478   2.734   2.812  16.417 -0.9061  0.3473 -2.4696
  362TMC3    C7 5479   2.813   2.846  16.178 -0.2402  0.1505  0.1466
  362TMC3    C8 5480   2.804   2.649  16.608  0.2546 -0.0322 -0.5048
  362TMC3    O1 5481   2.759   2.946  16.228 -0.3149  0.2665  0.3297
  362TMC3    O2 5482   2.823   2.544  16.669 -0.3296 -0.7649 -0.2036
  363TMC3    C1 5483   1.210   0.809   9.093 -0.5750 -0.3476  0.5682
  363TMC3    C2 5484   1.251   0.760   9.219  0.1876  0.1615 -0.0091
  363TMC3    C3 5485   1.184   0.796   9.336 -0.4340 -0.3694 -0.3080
  363TMC3    C4 5486   1.115   0.901   9.083 -0.6013  0.1216 -0.5799
  363TMC3    C5 5487   1.052   0.932   9.197 -0.6161 -0.3033 -0.9559
  363TMC3    C6 5488   1.080   0.882   9.325 -0.5246 -0.4468  0.2570
  363TMC3     C 5489   1.301   0.783   8.984  0.5182  0.4198  0.6283
  363TMC3     O 5490   1.404   0.724   9.008 -0.5256 -0.3031 -0.3276
  363TMC3     H 5491   1.329   0.686   9.229  0.3854  0.4709  0.7233
  363TMC3    H1 5492   1.099   0.951   8.988  0.3917  0.5332 -0.5285
  363TMC3    H2 5493   1.019   0.913   9.409 -0.8615  1.3559 -0.6415
  363TMC3    C7 5494   0.925   1.007   9.186 -0.4795  0.1793  0.9166
  363TMC3    C8 5495   1.237   0.765   9.465 -0.6388 -0.6681 -0.7446
  363TMC3    O1 5496   0.870   1.039   9.292 -0.1992 -0.0587  0.5216
  363TMC3    O2 5497   1.182   0.831   9.554  0.2780  0.6224  0.0789
  364MPD2     C 5498   0.194   4.660  10.800  0.2855 -0.3962  0.1555
  364MPD2    C1 5499   0.322   4.701  10.828  0.0545 -1.1967  0.2521
  364MPD2    C2 5500   0.422   4.599  10.841 -0.1360  0.2324 -1.1280
  364MPD2    C3 5501   0.391   4.467  10.831 -0.8113  0.4649  0.0015
  364MPD2    C4 5502   0.260   4.432  10.820  0.6834  0.7091 -0.0363
  364MPD2    C5 5503   0.160   4.529  10.806  0.2121  0.0981 -0.0330
  364MPD2     H 5504   0.529   4.620  10.848  0.0235 -0.9431 -0.0877
  364MPD2    H1 5505   0.232   4.327  10.819  0.8348  0.6658  0.1495
  364MPD2    H2 5506   0.127   4.743  10.783  0.7380 -0.1496 -0.4353
  364MPD2    H3 5507   0.058   4.502  10.780  1.1906 -3.1631 -0.5060
  364MPD2     N 5508   0.497   4.375  10.836 -0.0960 -0.1995  0.2365
  364MPD2    H5 5509   0.589   4.413  10.814  0.4973 -0.7681  1.7255
  364MPD2    N1 5510   0.360   0.095  10.824  0.2730 -0.4701  0.5582
  364MPD2    H7 5511   0.305   0.167  10.777  1.9582  0.4744  0.0020
  365TMC3    C1 5512   0.510   0.274  10.805 -1.0867  0.1031  0.5782
  365TMC3    C2 5513   0.528   0.256  10.669  0.4505 -0.1491 -0.2657
  365TMC3    C3 5514   0.627   0.334  10.605 -0.3297  0.3168  0.9720
  365TMC3    C4 5515   0.609   0.338  10.878 -0.0131 -0.2941  0.1823
  365TMC3    C5 5516   0.697   0.418  10.812  0.8343  0.5568  0.0578
  365TMC3    C6 5517   0.702   0.427  10.673  0.0827  0.2337  0.0899
  365TMC3     C 5518   0.481   0.144  10.864 -0.2869  0.7255  1.1545
  365TMC3     O 5519   0.570   0.087  10.927 -0.1139 -0.6973  0.1994
  365TMC3     H 5520   0.463   0.189  10.615  0.7038  0.2389 -1.0452
  365TMC3    H1 5521   0.605   0.332  10.986  0.0186 -3.0122  0.0463
  365TMC3    H2 5522   0.780   0.482  10.622 -0.7064  2.2451  1.0323
  365TMC3    C7 5523   0.777   0.522  10.884  0.6167  0.2931  0.0052
  365TMC3    C8 5524   0.666   0.284  10.474  0.2260 -0.8564  0.5879
  365TMC3    O1 5525   0.865   0.579  10.825  0.0190  0.3521  0.6815
  365TMC3    O2 5526   0.736   0.359  10.408 -0.3629  0.2974 -0.0202
  366MPD2     C 5527   3.713   0.311  15.711  0.3048 -0.0459 -0.0846
  366MPD2    C1 5528   3.809   0.417  15.710  0.1770 -0.2073 -0.3486
  366MPD2    C2 5529   3.944   0.378  15.694 -0.6253 -0.3015  0.5765
  366MPD2    C3 5530   3.978   0.251  15.639  0.3712 -0.5513  0.6916
  366MPD2    C4 5531   3.875   0.154  15.618 -0.1511  0.2376  0.7108
  366MPD2    C5 5532   3.751   0.184  15.671  0.4873 -0.7491 -0.1855
  366MPD2     H 5533   4.019   0.454  15.714 -0.2678 -0.0386 -1.7664
  366MPD2    H1 5534   3.889   0.052  15.587  0.2735  0.8802 -1.1834
  366MPD2    H2 5535   3.607   0.317  15.734 -0.0206  0.2453 -1.7019
  366MPD2    H3 5536   3.673   0.109  15.668 -1.5781  1.2680  2.2169
  366MPD2     N 5537   4.110   0.214  15.591 -0.1627 -0.6019 -0.3251
  366MPD2    H5 5538   4.126   0.116  15.570 -1.8377 -1.1340  0.8911
  366MPD2    N1 5539   3.777   0.544  15.749  0.2542  0.0114  0.2974
  366MPD2    H7 5540   3.851   0.613  15.757  1.4066 -1.2530  0.5585
  367TMC3    C1 5541   3.646   0.743  15.719  0.1362 -0.2380 -0.0919
  367TMC3    C2 5542   3.753   0.814  15.742 -0.2408 -0.8186 -0.3170
  367TMC3    C3 5543   3.770   0.934  15.685  0.4010 -0.1675 -0.3841
  367TMC3    C4 5544   3.541   0.797  15.649  0.3161  0.0388  0.6023
  367TMC3    C5 5545   3.555   0.920  15.594 -0.3629 -0.3585 -0.5094
  367TMC3    C6 5546   3.672   0.991  15.606  0.0508 -0.0893  0.0449
  367TMC3     C 5547   3.651   0.597  15.752 -0.5566  0.0354 -0.5318
  367TMC3     O 5548   3.545   0.533  15.745  0.0701 -0.4726  0.4917
  367TMC3     H 5549   3.821   0.778  15.818 -1.3731  1.6452  1.8766
  367TMC3    H1 5550   3.446   0.746  15.639  0.5580 -0.2248 -0.3450
  367TMC3    H2 5551   3.696   1.071  15.537 -2.9999 -0.1477 -1.0808
  367TMC3    C7 5552   3.449   0.976  15.504  0.1951  0.0496  1.2737
  367TMC3    C8 5553   3.860   1.027  15.753  0.7130 -0.4809  0.3208
  367TMC3    O1 5554   3.478   1.082  15.462  0.0146  0.5849  0.0894
  367TMC3    O2 5555   3.949   0.973  15.822  0.1463 -0.1032 -0.0315
  368MPD2     C 5556   4.208   2.591  13.060  0.2726  0.2352  0.0920
  368MPD2    C1 5557   4.184   2.688  12.965  0.2525  0.2386 -0.4391
  368MPD2    C2 5558   4.294   2.767  12.923 -0.2572 -0.3050  0.3275
  368MPD2    C3 5559   4.411   2.748  12.984 -0.2145 -0.4083  0.9699
  368MPD2    C4 5560   4.429   2.660  13.082 -0.1329 -0.7029 -0.2055
  368MPD2    C5 5561   4.327   2.576  13.128 -0.1014  0.6301 -0.1642
  368MPD2     H 5562   4.279   2.837  12.842  2.0194  1.5243  1.4763
  368MPD2    H1 5563   4.533   2.639  13.107  0.3409 -0.8511 -2.3460
  368MPD2    H2 5564   4.122   2.532  13.089  0.7386 -1.4504 -2.0202
  368MPD2    H3 5565   4.345   2.492  13.194 -3.7980  0.0568  0.0859
  368MPD2     N 5566   4.525   2.818  12.945 -0.3248 -0.0105  0.0551
  368MPD2    H5 5567   4.617   2.787  12.976  0.1437  1.0660 -0.2408
  368MPD2    N1 5568   4.058   2.717  12.910 -0.3924  0.0837 -0.1476
  368MPD2    H7 5569   4.060   2.779  12.830 -2.0859 -0.1129 -0.3314
  369TMC3    C1 5570   3.833   2.780  12.936  0.0910 -0.3540  0.8525
  369TMC3    C2 5571   3.865   2.909  12.924  0.0266  0.5632  1.3406
  369TMC3    C3 5572   3.772   3.008  12.955  0.7413  0.5846  0.6926
  369TMC3    C4 5573   3.705   2.745  12.982  0.0038  0.0200  0.2468
  369TMC3    C5 5574   3.615   2.846  13.007 -0.1440  0.2580  0.8995
  369TMC3    C6 5575   3.647   2.980  12.990  0.3940  0.8988 -0.2797
  369TMC3     C 5576   3.936   2.682  12.961 -0.4944 -0.5099  0.3254
  369TMC3     O 5577   3.909   2.590  13.034  0.5957  0.2479 -0.0940
  369TMC3     H 5578   3.967   2.935  12.899 -0.3784  3.0610  2.2556
  369TMC3    H1 5579   3.663   2.647  13.001  0.5647 -0.3539 -0.4795
  369TMC3    H2 5580   3.577   3.059  13.014 -0.5025 -0.3487  1.2088
  369TMC3    C7 5581   3.485   2.813  13.044  0.3663 -0.5969  0.5566
  369TMC3    C8 5582   3.819   3.140  12.967  0.0334 -0.8174  0.2276
  369TMC3    O1 5583   3.457   2.853  13.156  0.3170  0.2194 -0.1344
  369TMC3    O2 5584   3.750   3.227  12.912 -0.6114 -0.7956  0.6487
  370TMC3    C1 5585   3.747   3.124  15.945 -0.6852 -0.4780 -0.3168
  370TMC3    C2 5586   3.729   3.040  16.052 -0.5426 -0.3701  0.3151
  370TMC3    C3 5587   3.826   2.955  16.093  0.4384  1.2011 -0.3694
  370TMC3    C4 5588   3.863   3.112  15.874 -0.3927  0.1174 -0.3260
  370TMC3    C5 5589   3.958   3.025  15.909 -0.3131 -0.0753 -0.1894
  370TMC3    C6 5590   3.938   2.946  16.018  0.6091 -0.4750 -0.2685
  370TMC3     C 5591   3.719   3.263  15.992  0.7879 -0.4419 -0.0541
  370TMC3     O 5592   3.640   3.267  16.087 -0.0297  1.0415  0.2038
  370TMC3     H 5593   3.628   3.021  16.086 -0.1056 -0.4815  1.5816
  370TMC3    H1 5594   3.871   3.158  15.777  0.2335 -1.2784 -0.9339
  370TMC3    H2 5595   4.003   2.868  16.055  1.6321  0.2587 -0.5235
  370TMC3    C7 5596   4.064   2.989  15.811  0.2124  0.8481  0.9686
  370TMC3    C8 5597   3.859   2.987  16.236 -0.2146 -0.4220  0.5622
  370TMC3    O1 5598   4.066   3.052  15.708 -0.0090 -0.2155  0.2665
  370TMC3    O2 5599   3.976   2.962  16.276 -0.0053  0.4519 -0.2578
  371TMC3    C1 5600   0.745   1.629  15.613  0.4629  0.8654 -0.0111
  371TMC3    C2 5601   0.652   1.625  15.711 -0.2092 -0.2439 -0.6146
  371TMC3    C3 5602   0.592   1.742  15.761 -0.6930  0.1635 -0.2216
  371TMC3    C4 5603   0.791   1.750  15.569 -0.3481  0.1808 -1.2575
  371TMC3    C5 5604   0.738   1.868  15.629  0.3401  0.2714  0.1608
  371TMC3    C6 5605   0.630   1.868  15.713 -0.4719  0.3366  0.0193
  371TMC3     C 5606   0.809   1.507  15.567 -0.0259 -0.1563 -0.9190
  371TMC3     O 5607   0.887   1.518  15.474  0.0073  0.0747  0.0182
  371TMC3     H 5608   0.614   1.538  15.763 -0.2840  0.3620  0.3415
  371TMC3    H1 5609   0.863   1.762  15.488  0.3358  0.1629 -0.6562
  371TMC3    H2 5610   0.577   1.958  15.742  0.5330  1.3404 -1.2609
  371TMC3    C7 5611   0.799   1.991  15.584  0.5423  0.3873 -0.0121
  371TMC3    C8 5612   0.461   1.727  15.825 -0.1693  0.5654 -0.1217
  371TMC3    O1 5613   0.729   2.092  15.592 -0.6396  0.3995 -0.0919
  371TMC3    O2 5614   0.410   1.618  15.810  0.5101  0.4205  0.0496
  372MPD2     C 5615   0.046   3.220  13.004  0.9358  0.0287 -0.2902
  372MPD2    C1 5616   0.161   3.153  13.050  0.5996  0.1749 -0.1079
  372MPD2    C2 5617   0.146   3.046  13.134 -0.2557 -1.0381 -1.1262
  372MPD2    C3 5618   0.030   2.995  13.182 -0.2154  0.0954 -0.3206
  372MPD2    C4 5619   4.664   3.072  13.142 -0.2664 -0.4439  0.4812
  372MPD2    C5 5620   4.672   3.180  13.062  0.2889 -0.7349 -0.2682
  372MPD2     H 5621   0.234   2.989  13.159  0.4716  0.8215  0.5295
  372MPD2    H1 5622   4.565   3.041  13.176 -0.7703 -0.6760 -1.2212
  372MPD2    H2 5623   0.053   3.305  12.937  0.7778 -0.1730 -0.5591
  372MPD2    H3 5624   4.577   3.213  13.022  0.4117 -0.4226 -0.3002
  372MPD2     N 5625   0.035   2.881  13.264  0.1837  0.1072 -0.0784
  372MPD2    H5 5626   0.125   2.864  13.307  0.4093  1.3998 -0.0345
  372MPD2    N1 5627   0.294   3.170  12.996 -0.0222 -0.1068  0.1231
  372MPD2    H7 5628   0.367   3.123  13.049 -1.4750  0.2594  2.4346
  373TMC3    C1 5629   4.698   2.733  13.433  0.4280 -0.5020  0.6129
  373TMC3    C2 5630   4.592   2.710  13.518 -0.1934 -0.2050  1.1021
  373TMC3    C3 5631   4.593   2.597  13.599 -0.4968 -0.1187  0.3930
  373TMC3    C4 5632   0.062   2.642  13.421 -0.5922 -0.4584 -0.6400
  373TMC3    C5 5633   0.052   2.527  13.500 -0.0142  0.0601 -0.6915
  373TMC3    C6 5634   4.693   2.499  13.586  0.5499 -0.0289  0.2165
  373TMC3     C 5635   4.669   2.828  13.321 -0.5004 -0.0433 -0.1495
  373TMC3     O 5636   4.549   2.851  13.310  0.0942 -0.1106 -0.3955
  373TMC3     H 5637   4.510   2.780  13.523 -0.6369 -0.7036  0.8893
  373TMC3    H1 5638   0.134   2.656  13.341 -0.2282 -0.4301 -0.3015
  373TMC3    H2 5639   4.671   2.396  13.613  1.8965 -0.1348  0.8827
  373TMC3    C7 5640   0.172   2.444  13.501  0.5709 -0.4829 -0.3142
  373TMC3    C8 5641   4.472   2.571  13.682  0.5523 -0.6103  0.8936
  373TMC3    O1 5642   0.265   2.462  13.427 -0.1578 -0.6346 -0.1153
  373TMC3    O2 5643   4.365   2.599  13.624  0.4998  0.2635  0.4013
  374TMC3    C1 5644   0.738   3.137   9.743 -0.3273 -0.6843  0.1451
  374TMC3    C2 5645   0.778   3.256   9.794 -0.3266  0.4816 -0.3523
  374TMC3    C3 5646   0.807   3.359   9.705  0.3224  0.2778  0.5033
  374TMC3    C4 5647   0.727   3.109   9.611 -0.1703  0.1619 -0.4498
  374TMC3    C5 5648   0.759   3.207   9.526  0.1604 -0.0895  0.9494
  374TMC3    C6 5649   0.789   3.339   9.570 -0.0244 -0.3518  0.0021
  374TMC3     C 5650   0.695   3.031   9.830  0.2357  0.0670 -0.2457
  374TMC3     O 5651   0.613   2.955   9.784 -0.0584  0.1412  0.6624
  374TMC3     H 5652   0.777   3.277   9.901 -1.6397 -0.0930 -0.2510
  374TMC3    H1 5653   0.691   3.014   9.572  0.8352  0.6382 -2.5429
  374TMC3    H2 5654   0.782   3.425   9.506 -0.8059 -0.5825 -0.2295
  374TMC3    C7 5655   0.722   3.186   9.392 -0.5576  0.2062  0.6511
  374TMC3    C8 5656   0.826   3.498   9.763  0.2313 -0.0058 -0.3266
  374TMC3    O1 5657   0.671   3.081   9.356  0.0252  0.5533  0.2213
  374TMC3    O2 5658   0.804   3.591   9.686 -0.1960  0.3620  0.1716
  375MPD2     C 5659   0.712   3.867  17.278  0.0906  0.6313 -0.3370
  375MPD2    C1 5660   0.633   3.884  17.165 -0.5016 -0.2061 -0.6264
  375MPD2    C2 5661   0.678   3.838  17.037  0.4912  0.6026  0.3696
  375MPD2    C3 5662   0.809   3.788  17.019 -0.3049  0.1511 -0.0209
  375MPD2    C4 5663   0.880   3.764  17.132 -0.1031 -0.4348  0.0314
  375MPD2    C5 5664   0.832   3.802  17.256  0.1103 -0.1324 -0.5052
  375MPD2     H 5665   0.612   3.846  16.952 -1.1193  0.4245  1.6120
  375MPD2    H1 5666   0.967   3.699  17.134 -1.6616 -2.5179  0.4147
  375MPD2    H2 5667   0.684   3.917  17.370 -0.5237 -0.4666  0.0725
  375MPD2    H3 5668   0.904   3.791  17.337 -1.4147 -1.9968  0.5773
  375MPD2     N 5669   0.868   3.763  16.896  0.0942  0.0374  0.1840
  375MPD2    H5 5670   0.948   3.701  16.890  1.1216  1.0541  3.4429
  375MPD2    N1 5671   0.508   3.951  17.170  0.1232 -0.2730 -0.6041
  375MPD2    H7 5672   0.453   3.951  17.085  1.2333 -1.0067 -1.3082
  376TMC3    C1 5673   0.885   3.754  16.665  0.4334  0.0126 -0.1680
  376TMC3    C2 5674   1.010   3.703  16.678  0.6008  0.3809 -0.5233
  376TMC3    C3 5675   1.072   3.639  16.582 -0.6598 -0.4564 -0.2224
  376TMC3    C4 5676   0.817   3.732  16.552 -0.1240  0.5767 -0.3458
  376TMC3    C5 5677   0.887   3.679  16.442 -0.6867  0.2382 -0.4514
  376TMC3    C6 5678   1.013   3.636  16.459  0.4010  0.3456  0.6336
  376TMC3     C 5679   0.813   3.805  16.783 -0.3504  0.2107 -0.6835
  376TMC3     O 5680   0.722   3.882  16.764  0.4453 -0.1784  0.1702
  376TMC3     H 5681   1.056   3.730  16.772  2.8632  0.2271 -1.5665
  376TMC3    H1 5682   0.715   3.767  16.543 -0.4775 -0.3190  0.1229
  376TMC3    H2 5683   1.063   3.580  16.381 -1.9025 -1.6608  0.6110
  376TMC3    C7 5684   0.858   3.728  16.311  0.5581  0.3301 -0.0895
  376TMC3    C8 5685   1.215   3.645  16.573 -0.6014  0.4162 -0.4779
  376TMC3    O1 5686   0.938   3.689  16.225  0.2096 -0.0400 -0.3346
  376TMC3    O2 5687   1.265   3.609  16.468  0.2050 -0.0885 -0.1788
  377MPD2     C 5688   3.082   2.824  12.530 -0.4153  0.0351 -0.2783
  377MPD2    C1 5689   3.183   2.868  12.614  0.9622  0.3759  0.5811
  377MPD2    C2 5690   3.157   2.904  12.744  1.1401 -0.1817 -0.2399
  377MPD2    C3 5691   3.031   2.891  12.791 -0.3709 -0.7663  0.0561
  377MPD2    C4 5692   2.924   2.851  12.709  0.6742 -0.8254  0.3632
  377MPD2    C5 5693   2.953   2.817  12.577 -0.1835  0.0814  0.2073
  377MPD2     H 5694   3.233   2.929  12.817  0.7074  3.2484 -0.9712
  377MPD2    H1 5695   2.824   2.840  12.749 -0.3540  0.8854 -1.7828
  377MPD2    H2 5696   3.110   2.788  12.431 -1.1678 -0.5067 -0.2958
  377MPD2    H3 5697   2.874   2.778  12.514 -0.7549  1.0968  0.2863
  377MPD2     N 5698   2.999   2.931  12.927  0.2335  0.5812 -0.5226
  377MPD2    H5 5699   2.910   2.905  12.968 -0.9027  3.1787 -1.3375
  377MPD2    N1 5700   3.316   2.873  12.558  1.0638 -0.3788  0.1209
  377MPD2    H7 5701   3.326   2.856  12.459 -0.6365 -2.0618  0.2485
  378TMC3    C1 5702   3.605   3.047  12.334 -0.4229  0.1339 -0.3716
  378TMC3    C2 5703   3.507   3.010  12.419  0.1366 -0.7181 -0.0896
  378TMC3    C3 5704   3.535   2.959  12.545 -0.1713  0.7318  0.2262
  378TMC3    C4 5705   3.734   3.041  12.365  0.0542 -0.1831 -0.2364
  378TMC3    C5 5706   3.758   2.983  12.487 -0.6507  0.2396  0.2267
  378TMC3    C6 5707   3.669   2.946  12.583  0.0567 -0.6422  0.0676
  378TMC3     C 5708   3.556   3.092  12.202  0.6278  0.6420  0.1741
  378TMC3     O 5709   3.442   3.058  12.169 -0.1715 -0.2164  0.2726
  378TMC3     H 5710   3.404   3.009  12.388 -0.5354  0.6508  2.0976
  378TMC3    H1 5711   3.812   3.063  12.293 -0.0093 -1.2988 -0.6572
  378TMC3    H2 5712   3.693   2.917  12.684  1.5750  0.6517  0.0763
  378TMC3    C7 5713   3.901   2.956  12.525 -0.1364  0.1000  0.5718
  378TMC3    C8 5714   3.425   2.908  12.630  0.6486  0.0484  0.4184
  378TMC3    O1 5715   3.913   2.862  12.594  0.0820  0.2506 -0.6371
  378TMC3    O2 5716   3.447   2.916  12.749 -0.3284 -0.6310  0.0197
  379MPD2     C 5717   4.737   1.772  16.322 -0.1786  0.4999 -0.0322
  379MPD2    C1 5718   4.701   1.678  16.413  0.0771  0.3814 -0.1704
  379MPD2    C2 5719   0.038   1.653  16.524  0.1862 -0.1375  0.3081
  379MPD2    C3 5720   0.161   1.715  16.533  0.1401  0.4627  0.0032
  379MPD2    C4 5721   0.205   1.803  16.431 -0.1925  0.0492  0.0086
  379MPD2    C5 5722   0.115   1.837  16.329 -0.1619  0.0208  0.2943
  379MPD2     H 5723   0.014   1.581  16.601  0.6125 -0.9229 -0.2946
  379MPD2    H1 5724   0.306   1.842  16.427 -0.5193  0.6649 -2.7097
  379MPD2    H2 5725   4.669   1.803  16.243 -1.4652 -0.6744  0.6067
  379MPD2    H3 5726   0.131   1.917  16.258 -0.5117 -1.3649 -1.3346
  379MPD2     N 5727   0.256   1.682  16.639  0.2434  0.4134  0.2777
  379MPD2    H5 5728   0.348   1.723  16.627  0.2845 -0.3458 -2.1117
  379MPD2    N1 5729   4.589   1.599  16.372  0.6205 -0.5852 -0.2487
  379MPD2    H7 5730   4.544   1.624  16.284 -0.0227  2.0675  0.8375
  380TMC3    C1 5731   4.508   1.387  16.307 -0.5061 -0.0986 -0.0889
  380TMC3    C2 5732   4.568   1.284  16.242 -0.0518  0.4900 -0.3593
  380TMC3    C3 5733   4.515   1.227  16.125 -0.5257 -0.4116 -0.4147
  380TMC3    C4 5734   4.391   1.447  16.253  0.2411 -0.1034  0.5980
  380TMC3    C5 5735   4.332   1.383  16.153 -0.9772  0.2248  0.2268
  380TMC3    C6 5736   4.397   1.280  16.081 -0.3577  0.8703  0.5590
  380TMC3     C 5737   4.571   1.467  16.411  0.6897  0.7907 -0.3113
  380TMC3     O 5738   4.644   1.404  16.486  0.1062 -0.0137 -0.0785
  380TMC3     H 5739   4.662   1.245  16.280  0.5972  2.6570  0.2484
  380TMC3    H1 5740   4.349   1.520  16.321 -0.0855  0.1291  0.1475
  380TMC3    H2 5741   4.360   1.220  15.999 -0.4012 -0.1822  1.3503
  380TMC3    C7 5742   4.212   1.438  16.098 -0.3893  0.1361 -0.1885
  380TMC3    C8 5743   4.607   1.204  16.018 -0.6159  0.6641 -0.4218
  380TMC3    O1 5744   4.182   1.555  16.128 -0.6554 -0.2823 -0.0699
  380TMC3    O2 5745   4.570   1.222  15.902  0.2838 -0.8723 -0.2847
  381TMC3    C1 5746   4.284   2.486  16.349 -0.6243  0.4272 -0.2608
  381TMC3    C2 5747   4.335   2.596  16.287  0.6152 -0.2173  0.6950
  381TMC3    C3 5748   4.284   2.720  16.318 -0.1898 -0.3935 -1.0755
  381TMC3    C4 5749   4.173   2.496  16.433  0.5426 -0.3946  0.2129
  381TMC3    C5 5750   4.129   2.618  16.465 -0.3440 -0.1039  0.0197
  381TMC3    C6 5751   4.183   2.729  16.409  0.0703  0.1664 -0.4268
  381TMC3     C 5752   4.334   2.356  16.303 -0.4572 -0.0975  0.1992
  381TMC3     O 5753   4.388   2.357  16.191  0.1117  0.5414 -0.0790
  381TMC3     H 5754   4.424   2.587  16.226 -0.4305 -0.0437 -0.8337
  381TMC3    H1 5755   4.147   2.406  16.487  0.1216 -1.0807 -1.1422
  381TMC3    H2 5756   4.144   2.824  16.445 -1.5985  0.4915 -3.1392
  381TMC3    C7 5757   4.088   2.624  16.609  0.8297 -0.4509  0.3140
  381TMC3    C8 5758   4.344   2.834  16.250  0.6093  0.0244 -0.0066
  381TMC3    O1 5759   4.159   2.564  16.689  0.3810 -0.4469  0.1156
  381TMC3    O2 5760   4.454   2.816  16.197 -0.0497 -0.2649 -0.2093
  382MPD2     C 5761   3.951   0.491  16.970 -0.5145 -0.0241 -0.3566
  382MPD2    C1 5762   3.879   0.537  17.081 -0.7251 -0.2712  0.1907
  382MPD2    C2 5763   3.779   0.458  17.130  0.5840  0.2974  0.3215
  382MPD2    C3 5764   3.754   0.331  17.079  0.1318  1.0872 -0.6361
  382MPD2    C4 5765   3.812   0.300  16.961 -0.0587  0.5266  0.0262
  382MPD2    C5 5766   3.911   0.381  16.910  0.7086  0.0437  0.2548
  382MPD2     H 5767   3.721   0.488  17.216  1.7275 -2.0582  1.9087
  382MPD2    H1 5768   3.799   0.206  16.908 -1.5975  0.0971  1.1563
  382MPD2    H2 5769   4.041   0.542  16.939 -1.5068  1.0784 -1.4418
  382MPD2    H3 5770   3.961   0.358  16.817 -2.3971 -1.6091 -1.0159
  382MPD2     N 5771   3.650   0.248  17.126 -0.0423  0.2952 -0.1798
  382MPD2    H5 5772   3.641   0.158  17.079  0.6097 -0.0541  0.3696
  382MPD2    N1 5773   3.902   0.665  17.142 -0.8897  0.0257  0.7811
  382MPD2    H7 5774   3.852   0.693  17.226  0.3415  0.0203  1.5105
  383TMC3    C1 5775   3.468   0.161  17.250  0.2301  0.6634 -0.0930
  383TMC3    C2 5776   3.448   0.061  17.159 -0.1032 -0.2182 -0.4577
  383TMC3    C3 5777   3.361   4.709  17.203 -0.4802  0.0678 -0.5531
  383TMC3    C4 5778   3.412   0.167  17.375  0.7840  0.2198 -0.4021
  383TMC3    C5 5779   3.332   0.062  17.408 -0.0241  0.4102  0.7288
  383TMC3    C6 5780   3.296   4.707  17.321 -0.6995  0.2871 -0.1152
  383TMC3     C 5781   3.548   0.275  17.216  0.0586  0.4670 -0.0076
  383TMC3     O 5782   3.523   0.376  17.277  0.2508  0.1274 -0.2692
  383TMC3     H 5783   3.486   0.069  17.058 -2.2039  0.6087 -1.1788
  383TMC3    H1 5784   3.434   0.247  17.445  1.1296 -1.3150  1.2605
  383TMC3    H2 5785   3.221   4.635  17.350 -0.8416  1.2853  1.9553
  383TMC3    C7 5786   3.257   0.062  17.538  0.2728 -0.5381 -0.6105
  383TMC3    C8 5787   3.311   4.611  17.109  0.1651  0.5926  0.2243
  383TMC3    O1 5788   3.237   0.161  17.603 -0.2038  0.1220 -0.1453
  383TMC3    O2 5789   3.320   4.635  16.989 -0.7502  0.5378  0.1873
  384MPD2     C 5790   0.789   1.186  12.372 -0.4063 -0.7043  0.2337
  384MPD2    C1 5791   0.787   1.131  12.502  0.1995 -0.0453  0.2907
  384MPD2    C2 5792   0.891   1.044  12.540 -0.0432  1.0290  0.3622
  384MPD2    C3 5793   0.991   1.011  12.456 -0.8845  0.2679 -0.2747
  384MPD2    C4 5794   0.991   1.072  12.327 -0.5014 -0.0234  0.6150
  384MPD2    C5 5795   0.895   1.154  12.291  0.1755  0.0138  0.0472
  384MPD2     H 5796   0.891   1.003  12.640 -1.0109 -1.0117 -0.4752
  384MPD2    H1 5797   1.058   1.044  12.247 -0.2771 -2.4062  1.6182
  384MPD2    H2 5798   0.713   1.253  12.334 -0.6558 -1.0507  0.1186
  384MPD2    H3 5799   0.904   1.190  12.189 -1.8705 -1.6251 -0.7103
  384MPD2     N 5800   1.086   0.920  12.504  0.3463  0.2045 -0.4205
  384MPD2    H5 5801   1.072   0.866  12.589  0.2282  1.4136  0.3288
  384MPD2    N1 5802   0.698   1.158  12.607  0.0684  0.4517  0.2701
  384MPD2    H7 5803   0.707   1.123  12.702  0.1551 -0.0022  0.0936
  385TMC3    C1 5804   1.228   0.737  12.487 -0.1856 -0.4088  0.0867
  385TMC3    C2 5805   1.195   0.627  12.413 -0.3511 -0.1791 -0.2488
  385TMC3    C3 5806   1.151   0.518  12.483 -0.7230  0.0878  0.9182
  385TMC3    C4 5807   1.233   0.738  12.623  0.5193 -0.8856  0.6900
  385TMC3    C5 5808   1.175   0.629  12.688  1.3454 -0.5184  0.3735
  385TMC3    C6 5809   1.145   0.516  12.618 -0.0026  0.9081 -0.1202
  385TMC3     C 5810   1.183   0.858  12.426  0.2146 -0.3374 -0.3986
  385TMC3     O 5811   1.210   0.879  12.310  0.4431  1.0461 -0.1150
  385TMC3     H 5812   1.201   0.627  12.305  0.3155 -1.7771 -0.1986
  385TMC3    H1 5813   1.261   0.825  12.682  0.2000 -1.2212  1.3338
  385TMC3    H2 5814   1.097   0.433  12.669  0.1852 -0.8274 -2.8022
  385TMC3    C7 5815   1.064   0.682  12.762 -1.0922  0.6001 -0.6341
  385TMC3    C8 5816   1.080   0.413  12.414 -0.3842  0.6103 -0.0812
  385TMC3    O1 5817   1.042   0.800  12.748 -0.3528  0.1273 -0.8163
  385TMC3    O2 5818   1.065   0.310  12.476  0.0185  0.0279 -0.2141
  386TMC3    C1 5819   0.397   3.680  11.995 -0.4659  0.5759 -0.1187
  386TMC3    C2 5820   0.412   3.765  11.892  0.8168 -0.7962 -0.7043
  386TMC3    C3 5821   0.312   3.854  11.861 -0.1914 -0.3167  0.4467
  386TMC3    C4 5822   0.286   3.663  12.072  0.2435 -0.0126  0.6503
  386TMC3    C5 5823   0.183   3.743  12.027  0.3764  0.1772  0.3205
  386TMC3    C6 5824   0.192   3.848  11.938 -0.0780  0.0971  0.8406
  386TMC3     C 5825   0.510   3.588  11.999 -0.1059 -0.6338  0.3367
  386TMC3     O 5826   0.615   3.634  11.964  0.7204  0.2666  0.0990
  386TMC3     H 5827   0.498   3.761  11.826  0.6547 -0.1152 -0.9529
  386TMC3    H1 5828   0.279   3.593  12.154  0.9837 -1.9082 -0.8901
  386TMC3    H2 5829   0.109   3.916  11.918 -1.3934 -1.4647  0.9931
  386TMC3    C7 5830   0.051   3.713  12.081  0.4595  0.1130 -0.1659
  386TMC3    C8 5831   0.301   3.928  11.733 -0.7197  0.0031 -0.2909
  386TMC3    O1 5832   0.047   3.643  12.182 -0.0877  0.8107 -0.7624
  386TMC3    O2 5833   0.202   3.996  11.719 -0.3800  0.0311  0.4402
  387MPD2     C 5834   2.337   2.676   9.973  0.0559  0.0033 -0.6980
  387MPD2    C1 5835   2.441   2.701  10.057 -0.1752 -0.4896 -0.0016
  387MPD2    C2 5836   2.505   2.597  10.122 -0.1331 -0.4247 -0.1481
  387MPD2    C3 5837   2.475   2.468  10.088 -0.8888 -0.3869  0.3692
  387MPD2    C4 5838   2.363   2.443  10.009  0.2657  0.4265  0.2352
  387MPD2    C5 5839   2.291   2.549   9.959 -0.0444  0.3302  0.1817
  387MPD2     H 5840   2.586   2.606  10.193  0.6201  0.2097 -1.1007
  387MPD2    H1 5841   2.337   2.341   9.985 -1.4734  0.5826  1.4709
  387MPD2    H2 5842   2.276   2.757   9.933 -1.3083 -1.5444 -1.7868
  387MPD2    H3 5843   2.196   2.535   9.910  1.2182 -1.6075 -1.7230
  387MPD2     N 5844   2.560   2.371  10.149  0.0949 -0.5147  0.1613
  387MPD2    H5 5845   2.628   2.409  10.215  1.3576 -1.4757 -0.5882
  387MPD2    N1 5846   2.490   2.834  10.081 -0.1395 -0.2939  0.2140
  387MPD2    H7 5847   2.546   2.837  10.166  0.0159  1.6606  0.0556
  388TMC3    C1 5848   2.603   3.031  10.038 -0.0558  0.3008 -0.2306
  388TMC3    C2 5849   2.587   3.166  10.027  0.2087 -0.1913 -0.3591
  388TMC3    C3 5850   2.676   3.246  10.100 -1.1821 -0.5523  0.6432
  388TMC3    C4 5851   2.719   2.975  10.089  0.6258 -0.3426  0.0709
  388TMC3    C5 5852   2.805   3.058  10.150 -0.3444  0.3915 -0.4139
  388TMC3    C6 5853   2.794   3.196  10.147 -0.5165 -0.4576 -0.4646
  388TMC3     C 5854   2.495   2.941  10.002  0.1524 -0.9186 -0.9239
  388TMC3     O 5855   2.430   2.959   9.901 -0.0000  0.5157 -0.1599
  388TMC3     H 5856   2.495   3.201   9.981  0.5824 -0.1015 -1.0442
  388TMC3    H1 5857   2.724   2.867  10.098  3.7194 -0.2890 -0.9524
  388TMC3    H2 5858   2.868   3.262  10.190 -2.3779  0.4866  1.3191
  388TMC3    C7 5859   2.932   3.010  10.204 -0.2934  0.5996  0.7201
  388TMC3    C8 5860   2.651   3.389  10.101 -0.1517 -0.3789 -0.0823
  388TMC3    O1 5861   2.994   3.084  10.283  0.0757 -0.5962  0.2157
  388TMC3    O2 5862   2.585   3.429  10.012 -0.6091  0.4470  0.3203
  389MPD2     C 5863   1.288   2.160  11.007  0.0258  0.1154 -0.4919
  389MPD2    C1 5864   1.294   2.033  10.960  0.3569  0.3753 -0.2732
  389MPD2    C2 5865   1.303   1.926  11.050  0.1031 -0.5551 -0.4058
  389MPD2    C3 5866   1.315   1.955  11.184 -0.4736  0.7351 -0.4732
  389MPD2    C4 5867   1.312   2.083  11.230 -0.2647 -0.4085  0.3437
  389MPD2    C5 5868   1.295   2.185  11.139 -1.2467  0.1928  0.4269
  389MPD2     H 5869   1.320   1.825  11.014 -0.3542  0.3880 -3.2174
  389MPD2    H1 5870   1.311   2.118  11.333 -0.1349 -0.6687  0.4332
  389MPD2    H2 5871   1.277   2.245  10.941  2.2848  0.7027 -0.1069
  389MPD2    H3 5872   1.289   2.290  11.166 -0.6874  0.1867  0.5550
  389MPD2     N 5873   1.335   1.861  11.283 -0.3882 -0.6202 -0.8328
  389MPD2    H5 5874   1.343   1.894  11.378  1.1279  1.0107 -1.5287
  389MPD2    N1 5875   1.308   2.021  10.822  0.4810  0.2686 -0.0261
  389MPD2    H7 5876   1.318   2.108  10.770  0.1401 -1.3882 -2.8707
  390TMC3    C1 5877   1.398   1.672  11.391 -0.3538  0.2464  0.2359
  390TMC3    C2 5878   1.480   1.564  11.403 -0.1320  1.9521 -0.3247
  390TMC3    C3 5879   1.572   1.552  11.502 -0.1583  0.3219 -0.4192
  390TMC3    C4 5880   1.382   1.753  11.500  0.2841 -0.7646 -0.0243
  390TMC3    C5 5881   1.460   1.724  11.609  0.0975 -0.1656  0.1951
  390TMC3    C6 5882   1.567   1.643  11.605  0.2550  0.5604  0.0281
  390TMC3     C 5883   1.370   1.725  11.263 -0.3951  0.8678  0.0302
  390TMC3     O 5884   1.399   1.654  11.169 -0.0522 -0.0254 -0.0768
  390TMC3     H 5885   1.475   1.484  11.330  3.3553  0.4182  1.1406
  390TMC3    H1 5886   1.304   1.827  11.514 -0.0652 -1.1470  0.0651
  390TMC3    H2 5887   1.632   1.638  11.692 -0.9374 -1.8448  0.8188
  390TMC3    C7 5888   1.426   1.792  11.728 -0.1992 -0.5016  0.0668
  390TMC3    C8 5889   1.593   1.415  11.550 -0.2202  0.5199  0.1051
  390TMC3    O1 5890   1.408   1.910  11.720  0.1346  1.0454  0.3495
  390TMC3    O2 5891   1.509   1.328  11.524  0.1846 -0.1192  0.0122
  391MPD2     C 5892   1.334   3.020  11.094  0.1376  0.1935 -0.3193
  391MPD2    C1 5893   1.440   3.110  11.105 -0.5575 -0.0010 -0.0296
  391MPD2    C2 5894   1.439   3.217  11.021 -0.3717 -0.2087  0.0841
  391MPD2    C3 5895   1.343   3.237  10.922  0.3328 -0.5709  0.2611
  391MPD2    C4 5896   1.232   3.156  10.922 -0.0803 -0.0065  0.6261
  391MPD2    C5 5897   1.227   3.058  11.019 -0.2009 -0.0690 -0.6466
  391MPD2     H 5898   1.522   3.285  11.037 -1.8303  1.5143  0.3293
  391MPD2    H1 5899   1.147   3.171  10.857  0.1241  1.8238  0.7915
  391MPD2    H2 5900   1.329   2.928  11.151 -2.0444  1.5874  1.7083
  391MPD2    H3 5901   1.146   2.986  11.009  0.1884 -1.0501  3.1649
  391MPD2     N 5902   1.366   3.342  10.825 -0.2790 -0.4178  0.3720
  391MPD2    H5 5903   1.454   3.392  10.835  0.4308 -1.2315 -1.9835
  391MPD2    N1 5904   1.533   3.097  11.214  0.4945  0.3294  0.1782
  391MPD2    H7 5905   1.520   3.024  11.283  2.5911  0.5356  0.7790
  392TMC3    C1 5906   1.300   3.485  10.642  0.6362 -0.0280  0.2603
  392TMC3    C2 5907   1.241   3.464  10.520  0.5372 -0.2578 -0.3208
  392TMC3    C3 5908   1.283   3.547  10.424 -0.9314 -0.2735 -0.0482
  392TMC3    C4 5909   1.399   3.571  10.670 -0.0789  0.6195 -0.2640
  392TMC3    C5 5910   1.436   3.648  10.566 -0.8544  0.2951  0.8996
  392TMC3    C6 5911   1.371   3.642  10.441  0.6795  0.1599  0.0998
  392TMC3     C 5912   1.262   3.383  10.738  0.2619  0.0579 -0.7308
  392TMC3     O 5913   1.158   3.330  10.709  0.0156  0.5090  0.4227
  392TMC3     H 5914   1.156   3.398  10.508 -0.6490  1.2325 -0.0946
  392TMC3    H1 5915   1.444   3.568  10.769 -1.2089  0.5379  0.2454
  392TMC3    H2 5916   1.410   3.696  10.356 -3.2448  0.5787 -1.4360
  392TMC3    C7 5917   1.538   3.742  10.588 -0.4294 -0.5959  0.5767
  392TMC3    C8 5918   1.212   3.532  10.298 -0.4368  0.2665  0.4692
  392TMC3    O1 5919   1.558   3.750  10.708  0.0833  0.0787 -0.4718
  392TMC3    O2 5920   1.159   3.421  10.279  0.4545 -0.2596  0.3060
  393TMC3    C1 5921   4.543   1.325  10.882 -0.4434  0.1810  0.0651
  393TMC3    C2 5922   4.438   1.268  10.820 -0.1669  0.5406  0.4137
  393TMC3    C3 5923   4.422   1.132  10.827  1.0529  0.0286  0.8363
  393TMC3    C4 5924   4.628   1.254  10.964 -0.3698  0.1245 -0.4041
  393TMC3    C5 5925   4.603   1.119  10.979 -0.8497  0.2955 -0.1585
  393TMC3    C6 5926   4.498   1.050  10.912 -0.5653  0.2479  0.2260
  393TMC3     C 5927   4.597   1.450  10.830 -0.2548 -0.4549  0.1195
  393TMC3     O 5928   4.529   1.498  10.742 -0.4858 -0.5199 -0.0068
  393TMC3     H 5929   4.375   1.332  10.760 -3.8646 -2.1964  1.3378
  393TMC3    H1 5930   4.700   1.303  11.029  0.7817 -1.5230 -0.4355
  393TMC3    H2 5931   4.476   0.945  10.929 -1.9955  0.5767  0.3670
  393TMC3    C7 5932   4.673   1.032  11.072 -0.0539  0.7223 -0.8590
  393TMC3    C8 5933   4.288   1.077  10.800  0.4602 -0.2104 -0.0670
  393TMC3    O1 5934   4.605   0.940  11.111  0.0295  0.3701  0.7141
  393TMC3    O2 5935   4.194   1.152  10.826  0.1601  0.7803 -0.0488
  394TMC3    C1 5936   1.331   1.923  10.624 -0.1449 -0.1806  0.1613
  394TMC3    C2 5937   1.289   1.831  10.528  0.7002  0.5650 -0.1180
  394TMC3    C3 5938   1.321   1.850  10.393 -0.1909 -0.0380 -0.4737
  394TMC3    C4 5939   1.425   2.015  10.588 -0.6698  0.2483  0.9665
  394TMC3    C5 5940   1.452   2.032  10.456 -0.3295  0.3942  0.1520
  394TMC3    C6 5941   1.404   1.953  10.358  0.4887  0.2314  0.3332
  394TMC3     C 5942   1.304   1.900  10.762 -0.2167 -0.1258  0.4172
  394TMC3     O 5943   1.267   1.793  10.806  0.1233  0.2278 -0.7954
  394TMC3     H 5944   1.242   1.739  10.559  0.8510  0.2116 -0.9543
  394TMC3    H1 5945   1.474   2.077  10.663  0.2039  0.3463  0.3181
  394TMC3    H2 5946   1.408   1.974  10.252  0.1235  0.9281  0.4618
  394TMC3    C7 5947   1.556   2.132  10.420  0.0591  0.0045  0.1460
  394TMC3    C8 5948   1.285   1.744  10.300 -0.4489 -0.0600  0.7568
  394TMC3    O1 5949   1.566   2.156  10.297 -0.1053  0.2996 -0.2706
  394TMC3    O2 5950   1.273   1.632  10.343  0.2925  0.5039  0.5705
  395TMC3    C1 5951   1.914   3.850  14.365  0.1111  0.7592  0.2981
  395TMC3    C2 5952   1.784   3.891  14.333 -0.7545  0.0636 -0.0464
  395TMC3    C3 5953   1.752   4.022  14.351  0.0598  0.4512  0.3125
  395TMC3    C4 5954   2.009   3.946  14.375 -0.0419 -0.5286 -0.0863
  395TMC3    C5 5955   1.978   4.080  14.379 -0.3103  0.1885 -0.1651
  395TMC3    C6 5956   1.848   4.117  14.369  0.1808 -0.0104  0.3432
  395TMC3     C 5957   1.912   3.748  14.474 -0.1915 -0.1373  0.2095
  395TMC3     O 5958   1.990   3.757  14.568  0.1462 -0.2540  0.2432
  395TMC3     H 5959   1.702   3.825  14.306  0.5998 -1.3471 -0.7087
  395TMC3    H1 5960   2.097   3.910  14.428  1.1095 -0.0982 -1.7104
  395TMC3    H2 5961   1.827   4.220  14.394  0.8302  0.2129 -0.0264
  395TMC3    C7 5962   2.080   4.175  14.396  0.0263 -0.2929 -0.5636
  395TMC3    C8 5963   1.666   4.031  14.466 -0.0575  0.1743  0.5482
  395TMC3    O1 5964   2.047   4.277  14.457 -0.0702 -0.0882  0.1352
  395TMC3    O2 5965   1.692   4.116  14.549  0.0424  0.4197  0.0264
  396MPD2     C 5966   2.638   0.264  17.121 -0.5917  0.3477 -0.0466
  396MPD2    C1 5967   2.530   0.178  17.106  0.3723 -0.0435  0.4262
  396MPD2    C2 5968   2.411   0.237  17.072  0.1049  0.2555  0.3504
  396MPD2    C3 5969   2.403   0.380  17.055  0.4279  1.0802 -0.0523
  396MPD2    C4 5970   2.522   0.456  17.053  0.1563  0.1161  0.2369
  396MPD2    C5 5971   2.637   0.397  17.081  0.2850 -0.7358  0.5463
  396MPD2     H 5972   2.327   0.169  17.069  0.1459  0.2234 -0.1028
  396MPD2    H1 5973   2.520   0.562  17.029 -1.2491  0.4377  1.7664
  396MPD2    H2 5974   2.735   0.222  17.145  0.7746  3.1951 -0.5724
  396MPD2    H3 5975   2.730   0.453  17.084  0.6822 -1.4075  0.7384
  396MPD2     N 5976   2.283   0.449  17.023 -0.0127 -0.5278 -0.5133
  396MPD2    H5 5977   2.301   0.547  17.005  1.4503 -0.6737  0.1234
  396MPD2    N1 5978   2.544   0.042  17.146  0.3851 -0.4521  0.4030
  396MPD2    H7 5979   2.464   4.726  17.164 -1.4636  2.0837  0.5449
  397TMC3    C1 5980   2.657   4.574  17.170  0.0612  0.3522  0.1775
  397TMC3    C2 5981   2.669   4.491  17.063  0.1512 -0.3393 -0.4107
  397TMC3    C3 5982   2.581   4.388  17.047  0.1534  0.5079 -0.2559
  397TMC3    C4 5983   2.553   4.551  17.262 -0.5760  0.4880  0.1858
  397TMC3    C5 5984   2.468   4.442  17.243 -0.4056 -0.2217  0.5292
  397TMC3    C6 5985   2.491   4.354  17.143  0.4271 -0.3747 -0.0270
  397TMC3     C 5986   2.662   4.717  17.125  0.0414 -0.0593 -0.6611
  397TMC3     O 5987   2.753   0.003  17.046  0.5606  1.3839  0.0985
  397TMC3     H 5988   2.719   4.528  16.974  0.2716  1.2015  0.2891
  397TMC3    H1 5989   2.554   4.611  17.352  1.5713 -1.7253  1.6569
  397TMC3    H2 5990   2.417   4.279  17.116  0.0329 -0.1124  0.3175
  397TMC3    C7 5991   2.381   4.399  17.349 -0.6107 -0.7261  0.2419
  397TMC3    C8 5992   2.523   4.387  16.914  0.0667  0.1033 -0.6203
  397TMC3    O1 5993   2.381   4.465  17.452 -0.2513  0.2105 -0.1731
  397TMC3    O2 5994   2.438   4.301  16.892  0.2460 -0.5250  0.2303
  398MPD2     C 5995   0.451   1.756   0.266  0.0964 -0.6799  0.1326
  398MPD2    C1 5996   0.550   1.660   0.276  0.0203 -0.5359  0.3418
  398MPD2    C2 5997   0.677   1.710   0.284  0.1413 -0.2310 -0.2131
  398MPD2    C3 5998   0.705   1.848   0.289 -0.5248 -0.1627 -0.6591
  398MPD2    C4 5999   0.601   1.931   0.283  0.6848 -0.4818  0.7163
  398MPD2    C5 6000   0.477   1.890   0.276  0.1600 -0.0402 -0.2464
  398MPD2     H 6001   0.759   1.643   0.304 -1.2813 -2.0554 -0.4946
  398MPD2    H1 6002   0.609   2.039   0.283 -1.0760 -0.3599  0.1320
  398MPD2    H2 6003   0.348   1.725   0.257 -0.3350  0.0356  2.5965
  398MPD2    H3 6004   0.393   1.959   0.267  2.0979  1.9465 -2.9249
  398MPD2     N 6005   0.840   1.881   0.287  0.8820  0.2192  1.3852
  398MPD2    H5 6006   0.912   1.814   0.263 -1.1073 -0.7475 -1.8014
  398MPD2    N1 6007   0.538   1.516   0.269 -0.0613 -0.4386 -0.1326
  398MPD2    H7 6008   0.624   1.463   0.280  0.0434 -0.5064 -1.2487
  399TMC3    C1 6009   0.430   1.309   0.212 -1.2359  0.0860  0.6236
  399TMC3    C2 6010   0.535   1.246   0.275 -0.2530  0.2833 -0.2109
  399TMC3    C3 6011   0.522   1.107   0.280 -0.0389  0.4541 -0.2607
  399TMC3    C4 6012   0.328   1.246   0.142 -0.9489  0.0473 -0.2977
  399TMC3    C5 6013   0.323   1.112   0.155 -0.1339 -0.2170  0.2595
  399TMC3    C6 6014   0.413   1.044   0.232  0.1857 -0.4038 -0.2188
  399TMC3     C 6015   0.421   1.453   0.227 -0.3967  0.2386 -0.8210
  399TMC3     O 6016   0.317   1.508   0.193 -0.7567 -0.2196  0.3640
  399TMC3     H 6017   0.618   1.292   0.327  0.1037 -0.8393  0.2050
  399TMC3    H1 6018   0.242   1.299   0.106 -1.9793 -0.9445  0.6822
  399TMC3    H2 6019   0.403   0.937   0.246 -0.0742 -0.6710 -2.5290
  399TMC3    C7 6020   0.229   1.026   0.088 -0.3645  0.6771  0.7019
  399TMC3    C8 6021   0.624   1.024   0.326  0.5041 -0.2483 -0.3378
  399TMC3    O1 6022   0.185   0.922   0.140  0.0838 -0.4858  0.0298
  399TMC3    O2 6023   0.703   1.078   0.402 -0.7085  0.5226 -0.3275
  400TMC3    C1 6024   3.318   4.130  16.624 -0.4165 -0.4431  0.5575
  400TMC3    C2 6025   3.247   4.021  16.580 -0.3733 -0.4607  0.0356
  400TMC3    C3 6026   3.160   4.037  16.476 -0.4208 -0.2614  0.0514
  400TMC3    C4 6027   3.293   4.251  16.572  0.1122  0.4308 -1.1557
  400TMC3    C5 6028   3.209   4.259  16.461 -0.0826  0.0029 -0.0483
  400TMC3    C6 6029   3.136   4.151  16.418 -0.3969 -0.1622 -0.5575
  400TMC3     C 6030   3.412   4.104  16.731 -0.2270 -0.4411 -0.5091
  400TMC3     O 6031   3.417   3.989  16.779  0.5249  0.9040  0.0355
  400TMC3     H 6032   3.280   3.928  16.624 -0.8551 -0.5657  0.1717
  400TMC3    H1 6033   3.351   4.336  16.606  1.9082 -0.7815 -1.2138
  400TMC3    H2 6034   3.077   4.155  16.327 -1.0021  0.5286 -0.1389
  400TMC3    C7 6035   3.182   4.387  16.395  0.4906  0.5871  0.4017
  400TMC3    C8 6036   3.044   3.955  16.506  0.3251 -0.5684  0.0313
  400TMC3    O1 6037   3.142   4.383  16.278  0.2966 -0.1104  0.1796
  400TMC3    O2 6038   3.004   3.956  16.622 -0.3433  0.5108  0.4001
  401MPD2     C 6039   1.497   3.233  17.702 -0.4880 -0.4715 -0.0506
  401MPD2    C1 6040   1.504   3.186   0.062  0.1431 -0.3430 -0.5900
  401MPD2    C2 6041   1.591   3.091   0.103 -0.6767 -0.0503 -0.5226
  401MPD2    C3 6042   1.669   3.025   0.007  0.1933 -0.2850 -0.0710
  401MPD2    C4 6043   1.638   3.048  17.642 -0.5099 -0.0304 -0.0367
  401MPD2    C5 6044   1.563   3.157  17.603 -0.3920  0.3644  0.3748
  401MPD2     H 6045   1.591   3.068   0.208 -0.8704  0.6416 -0.3685
  401MPD2    H1 6046   1.692   3.001  17.561  0.7762 -0.1909  0.9043
  401MPD2    H2 6047   1.438   3.321  17.681  0.6973  0.0364 -1.2023
  401MPD2    H3 6048   1.556   3.176  17.497 -2.2500 -0.3713  0.3564
  401MPD2     N 6049   1.768   2.931   0.046 -0.3443 -0.7207  0.4570
  401MPD2    H5 6050   1.764   2.905   0.144  0.3558  0.7935  0.8869
  401MPD2    N1 6051   1.426   3.241   0.167 -0.1715 -0.7771 -0.0672
  401MPD2    H7 6052   1.426   3.197   0.259  1.5058  0.0417  0.3182
  402TMC3    C1 6053   1.964   2.804   0.037  0.6356 -0.3198 -0.1625
  402TMC3    C2 6054   1.929   2.732   0.147 -0.2107 -0.5366 -0.1938
  402TMC3    C3 6055   2.015   2.639   0.192  0.3742  0.1936  0.2862
  402TMC3    C4 6056   2.080   2.784  17.738 -0.0684  0.3037  0.0119
  402TMC3    C5 6057   2.166   2.690   0.016  0.6749  0.1815  0.2894
  402TMC3    C6 6058   2.135   2.616   0.129  0.2348 -0.0973 -0.1006
  402TMC3     C 6059   1.864   2.880  17.738  0.3131 -0.3468  0.1110
  402TMC3     O 6060   1.887   2.902  17.622  0.1602  0.4406 -0.2639
  402TMC3     H 6061   1.833   2.749   0.195 -0.1610 -3.4719  0.9171
  402TMC3    H1 6062   2.110   2.847  17.655  0.8768 -0.6322 -0.3771
  402TMC3    H2 6063   2.206   2.544   0.168  0.2679 -0.2515 -0.4364
  402TMC3    C7 6064   2.297   2.681  17.720 -0.8997 -0.0426 -0.5358
  402TMC3    C8 6065   1.992   2.553   0.308 -0.2736  0.0462  0.1374
  402TMC3    O1 6066   2.315   2.752  17.623 -0.4483  0.0612  0.4648
  402TMC3    O2 6067   2.086   2.481   0.343 -0.2464 -0.4044 -0.3039
  403MPD2     C 6068   4.652   0.801  13.270  0.6075 -0.0770  0.1454
  403MPD2    C1 6069   4.676   0.758  13.397  0.2610 -0.1016 -0.5454
  403MPD2    C2 6070   0.038   0.820  13.471 -0.2362 -0.3291  0.4472
  403MPD2    C3 6071   0.091   0.934  13.424 -0.2908  0.0626 -0.3537
  403MPD2    C4 6072   0.072   0.974  13.292  0.7789  0.5667  0.2523
  403MPD2    C5 6073   4.734   0.894  13.218  0.3734 -0.0938 -0.7595
  403MPD2     H 6074   0.077   0.793  13.568  0.3562 -3.9425 -0.7981
  403MPD2    H1 6075   0.114   1.063  13.247  0.9394 -0.1613 -1.0539
  403MPD2    H2 6076   4.570   0.767  13.207  0.3808  0.5834  0.0812
  403MPD2    H3 6077   4.717   0.930  13.117 -0.2734 -0.6266 -0.8413
  403MPD2     N 6078   0.176   1.005  13.508  0.0534  0.3070  0.2303
  403MPD2    H5 6079   0.216   0.954  13.586 -0.7569 -0.5246  0.1019
  403MPD2    N1 6080   4.598   0.653  13.450 -0.1630  0.7203 -0.2100
  403MPD2    H7 6081   4.524   0.603  13.401 -0.0322 -0.3633  0.7152
  404TMC3    C1 6082   4.537   0.474  13.592  0.2538  0.0765 -0.4151
  404TMC3    C2 6083   4.537   0.451  13.723  0.0414 -0.4196 -0.3302
  404TMC3    C3 6084   4.585   0.328  13.761 -0.3890  0.1410  0.3888
  404TMC3    C4 6085   4.567   0.381  13.494  0.0563  0.1146  0.5099
  404TMC3    C5 6086   4.593   0.251  13.544  0.1139 -0.2632 -0.0547
  404TMC3    C6 6087   4.613   0.232  13.675 -0.3800 -0.1236 -0.0810
  404TMC3     C 6088   4.610   0.605  13.577 -0.4845 -0.9080 -0.6045
  404TMC3     O 6089   4.678   0.642  13.670 -0.3246 -0.1088  0.3411
  404TMC3     H 6090   4.522   0.533  13.792  1.2070 -0.6782  0.2389
  404TMC3    H1 6091   4.556   0.398  13.387  0.8504  0.7147  0.5198
  404TMC3    H2 6092   4.633   0.133  13.715  1.0612  0.2658  0.1312
  404TMC3    C7 6093   4.555   0.135  13.471  0.2199  1.0140  0.0460
  404TMC3    C8 6094   4.656   0.323  13.888 -0.7471 -0.6848 -0.2066
  404TMC3    O1 6095   4.586   0.025  13.521  0.0021 -0.6373  0.4100
  404TMC3    O2 6096   4.742   0.240  13.903  0.5493  0.2151  0.0330
  405MPD2     C 6097   4.729   1.927  14.954  0.1500  0.3353  0.5334
  405MPD2    C1 6098   4.719   1.820  14.867  0.4133 -0.1747  0.0331
  405MPD2    C2 6099   4.642   1.834  14.752  0.3675 -0.3397  0.3657
  405MPD2    C3 6100   4.563   1.943  14.738 -0.1206  0.8291 -0.2223
  405MPD2    C4 6101   4.567   2.044  14.828  0.4485  0.8451 -0.2562
  405MPD2    C5 6102   4.657   2.045  14.928 -0.7630  0.6469  0.0205
  405MPD2     H 6103   4.622   1.751  14.685 -0.9389 -1.3362  2.0116
  405MPD2    H1 6104   4.506   2.133  14.816 -1.5983 -0.5548 -0.0349
  405MPD2    H2 6105   0.037   1.917  15.048 -2.5650  2.3473  2.2487
  405MPD2    H3 6106   4.665   2.123  15.003  0.8673 -0.1609  0.6943
  405MPD2     N 6107   4.474   1.925  14.621  0.2573 -0.2019  0.5288
  405MPD2    H5 6108   4.470   1.832  14.582 -0.5203 -0.8276  2.0968
  405MPD2    N1 6109   0.040   1.696  14.892  0.0659 -0.3725 -0.9958
  405MPD2    H7 6110   0.082   1.668  14.980 -1.9993  1.1432  0.4728
  406TMC3    C1 6111   4.058   1.927  14.467 -0.8243  0.7680  0.4229
  406TMC3    C2 6112   4.084   1.797  14.423  0.5284  0.4911  0.2194
  406TMC3    C3 6113   4.216   1.763  14.401  0.6001  1.2432  0.1376
  406TMC3    C4 6114   4.157   2.016  14.502  0.4481 -0.2242  0.1551
  406TMC3    C5 6115   4.284   1.970  14.478  0.4632  0.2655  0.6015
  406TMC3    C6 6116   4.315   1.845  14.433  0.3455  0.0891  0.6206
  406TMC3     C 6117   3.948   1.940  14.557 -0.4433  0.2485 -0.6910
  406TMC3     O 6118   3.968   2.006  14.659  0.4960 -0.6337 -0.3158
  406TMC3     H 6119   4.010   1.719  14.414  1.0507  0.0371 -0.1521
  406TMC3    H1 6120   4.144   2.116  14.542  2.3346  0.1316 -0.1226
  406TMC3    H2 6121   4.414   1.822  14.394  0.3634  1.8250 -0.3406
  406TMC3    C7 6122   4.378   2.018  14.581  1.1994 -0.0098 -0.0367
  406TMC3    C8 6123   4.238   1.620  14.390  0.1977  0.3148  0.0983
  406TMC3    O1 6124   4.369   2.134  14.622 -0.3483 -0.4444  0.0861
  406TMC3    O2 6125   4.149   1.547  14.347  0.1816 -0.2537  0.2445
  407MPD2     C 6126   2.114   3.399   9.850 -0.1982 -0.2508  0.1963
  407MPD2    C1 6127   2.238   3.439   9.898  1.0878 -0.2187  0.0437
  407MPD2    C2 6128   2.254   3.540   9.993  0.4666  0.5930 -0.5350
  407MPD2    C3 6129   2.139   3.617  10.038 -0.9905  0.0279 -0.7634
  407MPD2    C4 6130   2.017   3.576   9.988 -0.8651  0.3731  0.4340
  407MPD2    C5 6131   2.009   3.477   9.891  0.4524  0.6019 -0.0109
  407MPD2     H 6132   2.354   3.569  10.021  0.9371 -1.9223  0.3730
  407MPD2    H1 6133   1.931   3.619  10.038  0.2429  1.4523  1.4314
  407MPD2    H2 6134   2.105   3.314   9.783  0.3518  0.6687 -1.0643
  407MPD2    H3 6135   1.915   3.453   9.844 -0.5763  1.9492  1.3812
  407MPD2     N 6136   2.147   3.733  10.121  0.1233 -0.6393  0.2953
  407MPD2    H5 6137   2.062   3.783  10.145  0.9496  0.8984 -0.0375
  407MPD2    N1 6138   2.364   3.385   9.854 -0.0886 -1.0063  0.4773
  407MPD2    H7 6139   2.445   3.424   9.902 -0.3454  0.5069 -0.3351
  408TMC3    C1 6140   2.530   3.285   9.720  0.2194 -0.1412  0.3149
  408TMC3    C2 6141   2.603   3.168   9.716  0.4283  0.3693 -0.3290
  408TMC3    C3 6142   2.738   3.175   9.721 -0.1694  0.3514 -0.1725
  408TMC3    C4 6143   2.592   3.408   9.729 -0.0150  0.7213  0.1837
  408TMC3    C5 6144   2.729   3.411   9.731  0.0082  0.5540 -0.3499
  408TMC3    C6 6145   2.798   3.294   9.726 -0.2228 -0.2555  0.0414
  408TMC3     C 6146   2.389   3.289   9.752  0.0489 -0.1454  0.7822
  408TMC3     O 6147   2.323   3.198   9.701 -0.1633  0.1587  0.3518
  408TMC3     H 6148   2.556   3.073   9.735  0.4354  0.5635  0.6482
  408TMC3    H1 6149   2.540   3.502   9.741  0.6136  0.6585  3.2970
  408TMC3    H2 6150   2.905   3.304   9.714 -0.5792  0.7128 -2.3361
  408TMC3    C7 6151   2.810   3.531   9.749  0.3124 -0.0778  0.1429
  408TMC3    C8 6152   2.808   3.053   9.749  0.3705  0.0935  0.3857
  408TMC3    O1 6153   2.929   3.521   9.761 -0.7175  0.5405  0.2946
  408TMC3    O2 6154   2.747   2.946   9.750  0.0046  0.2426  0.0870
  409MPD2     C 6155   2.291   3.734  16.608 -0.2676  0.0381 -0.2970
  409MPD2    C1 6156   2.375   3.755  16.708  0.2119  0.2062 -0.9863
  409MPD2    C2 6157   2.438   3.876  16.718 -0.4148  0.0834 -0.5960
  409MPD2    C3 6158   2.427   3.966  16.611 -0.1055 -0.0813 -0.1439
  409MPD2    C4 6159   2.339   3.945  16.511  0.3428 -0.6003 -0.3855
  409MPD2    C5 6160   2.275   3.825  16.513  0.0291 -0.0583  0.1536
  409MPD2     H 6161   2.480   3.907  16.812 -1.1469  0.7628 -0.4908
  409MPD2    H1 6162   2.323   4.014  16.429 -0.1785  0.3375  0.5136
  409MPD2    H2 6163   2.237   3.641  16.593 -1.9024  1.3940 -2.8943
  409MPD2    H3 6164   2.204   3.807  16.433  1.1521 -2.3410 -0.3415
  409MPD2     N 6165   2.516   4.075  16.613 -0.1798 -0.2564 -0.2087
  409MPD2    H5 6166   2.488   4.150  16.551 -0.0308  1.8583  2.2506
  409MPD2    N1 6167   2.389   3.661  16.810 -0.4400 -1.5626 -0.1148
  409MPD2    H7 6168   2.431   3.683  16.900 -1.2045 -1.5091  0.2338
  410TMC3    C1 6169   2.701   4.213  16.651  0.3052 -0.3548  0.5478
  410TMC3    C2 6170   2.832   4.213  16.681 -0.1673  0.3988 -0.2583
  410TMC3    C3 6171   2.900   4.325  16.641  0.3641 -0.2613  0.5675
  410TMC3    C4 6172   2.640   4.320  16.581  0.2230 -0.6268  0.4369
  410TMC3    C5 6173   2.721   4.418  16.535  0.5937  0.8608  0.2241
  410TMC3    C6 6174   2.851   4.430  16.573 -0.1213  0.2010 -0.3680
  410TMC3     C 6175   2.624   4.099  16.692 -0.1949 -0.4161  0.5526
  410TMC3     O 6176   2.675   4.023  16.773  0.4133 -0.0205 -0.2143
  410TMC3     H 6177   2.869   4.125  16.733 -0.6548  0.3831  0.0720
  410TMC3    H1 6178   2.533   4.326  16.564 -0.1004 -2.0745  1.9949
  410TMC3    H2 6179   2.907   4.521  16.554  1.0911 -0.4155  0.2850
  410TMC3    C7 6180   2.659   4.525  16.462 -0.3027 -0.3732 -0.5183
  410TMC3    C8 6181   3.012   4.348  16.726 -0.0882  0.1108  0.8631
  410TMC3    O1 6182   2.723   4.629  16.446 -0.2352  0.4687  0.2095
  410TMC3    O2 6183   3.043   4.466  16.740  0.1479 -0.0953  0.5725
  411MPD2     C 6184   2.952   0.486  14.559  0.0592 -0.9104  0.3207
  411MPD2    C1 6185   2.810   0.488  14.558 -0.1891  0.4780  0.4172
  411MPD2    C2 6186   2.737   0.404  14.473  0.3887 -0.2679 -0.2488
  411MPD2    C3 6187   2.805   0.307  14.405 -0.3619  0.0443  0.1162
  411MPD2    C4 6188   2.944   0.304  14.403 -0.1938  0.1757  0.3533
  411MPD2    C5 6189   3.011   0.396  14.479 -0.2524 -1.3745  0.4075
  411MPD2     H 6190   2.629   0.408  14.469  0.4549  0.5711 -1.0094
  411MPD2    H1 6191   2.991   0.214  14.365  1.9742  1.1124  0.8239
  411MPD2    H2 6192   3.011   0.555  14.618 -0.3436 -0.1719 -0.1449
  411MPD2    H3 6193   3.119   0.397  14.486 -0.2666  1.8695  0.2869
  411MPD2     N 6194   2.739   0.205  14.338  0.6580 -0.0875 -0.4904
  411MPD2    H5 6195   2.792   0.122  14.314  1.5059  0.5634 -0.8761
  411MPD2    N1 6196   2.739   0.581  14.641 -0.0009 -0.5885 -0.0534
  411MPD2    H7 6197   2.800   0.627  14.708  1.1124  0.2685 -1.6732
  412TMC3    C1 6198   2.578   0.047  14.286 -0.9240  0.3769  0.5680
  412TMC3    C2 6199   2.470   4.727  14.347  0.8113 -0.6005  0.4618
  412TMC3    C3 6200   2.410   4.625  14.282 -0.5627 -0.3198  0.4002
  412TMC3    C4 6201   2.639   0.005  14.174 -0.3484  0.4912  0.2686
  412TMC3    C5 6202   2.575   4.646  14.118  0.4393 -0.5288 -0.1159
  412TMC3    C6 6203   2.466   4.583  14.170 -0.8643 -1.1604  0.5338
  412TMC3     C 6204   2.604   0.178  14.331  0.0955  0.3311  0.5981
  412TMC3     O 6205   2.502   0.231  14.374  0.1673  0.2824 -0.9827
  412TMC3     H 6206   2.427   0.030  14.434  2.6048  0.3275  0.8554
  412TMC3    H1 6207   2.710   0.064  14.118 -1.7150  0.4677 -1.5000
  412TMC3    H2 6208   2.435   4.491  14.123 -0.2099 -1.9582  1.6504
  412TMC3    C7 6209   2.559   4.652  13.976 -0.0917 -0.3388  0.6100
  412TMC3    C8 6210   2.268   4.623  14.272 -0.0225  0.0390  0.2679
  412TMC3    O1 6211   2.656   4.649  13.903  0.2866 -0.2639 -0.2246
  412TMC3    O2 6212   2.229   4.607  14.160  0.3962  0.0795 -0.1085
  413MPD2     C 6213   3.744   2.797  15.771  0.4090 -1.1732  0.4235
  413MPD2    C1 6214   3.791   2.849  15.656 -0.2593 -0.4988 -0.2646
  413MPD2    C2 6215   3.904   2.794  15.598  0.6633  0.0301 -0.4801
  413MPD2    C3 6216   3.963   2.682  15.656 -0.5007 -0.4043 -0.0396
  413MPD2    C4 6217   3.915   2.635  15.778  0.0680 -0.5928 -0.3126
  413MPD2    C5 6218   3.806   2.694  15.838  0.0336 -0.1392 -0.3455
  413MPD2     H 6219   3.950   2.826  15.506  0.2533 -0.5357 -0.8884
  413MPD2    H1 6220   3.947   2.545  15.829 -2.1643 -0.7762  0.7509
  413MPD2    H2 6221   3.663   2.847  15.823  1.3632 -1.5529  2.2691
  413MPD2    H3 6222   3.778   2.650  15.933  2.7131  0.0793  0.5505
  413MPD2     N 6223   4.068   2.620  15.586  0.2689  0.0843 -0.0038
  413MPD2    H5 6224   4.100   2.661  15.499  1.5672 -0.0899  0.3872
  413MPD2    N1 6225   3.726   2.962  15.604 -0.4878  0.2265 -0.2834
  413MPD2    H7 6226   3.634   2.978  15.644 -0.1241  0.8446  0.3126
  414TMC3    C1 6227   4.260   2.478  15.557 -0.5897 -0.5283  0.5803
  414TMC3    C2 6228   4.371   2.427  15.617  0.0984  0.2185 -0.5741
  414TMC3    C3 6229   4.476   2.384  15.542  0.2758  0.2154 -0.1082
  414TMC3    C4 6230   4.242   2.480  15.424  0.1934  0.4338 -0.2649
  414TMC3    C5 6231   4.345   2.430  15.347 -0.7596 -0.2762 -0.2082
  414TMC3    C6 6232   4.464   2.391  15.405 -0.0867 -0.5647 -0.2258
  414TMC3     C 6233   4.162   2.542  15.649  0.1589  0.8287 -0.1203
  414TMC3     O 6234   4.175   2.514  15.766 -0.8320 -0.2402 -0.2378
  414TMC3     H 6235   4.383   2.405  15.723 -1.0684 -1.4623 -0.7953
  414TMC3    H1 6236   4.148   2.516  15.383 -0.7226 -0.4328  1.0581
  414TMC3    H2 6237   4.543   2.336  15.355  0.8289 -2.2513  3.0418
  414TMC3    C7 6238   4.325   2.433  15.206 -0.0693 -0.7599 -0.3490
  414TMC3    C8 6239   4.563   2.282  15.597 -0.5899 -0.7702 -0.3241
  414TMC3    O1 6240   4.219   2.453  15.154  0.5993 -0.2404  0.5990
  414TMC3    O2 6241   4.514   2.181  15.644  0.2500  0.2343  0.0301
  415TMC3    C1 6242   0.126   0.378  10.286 -0.2339  0.4091  0.0406
  415TMC3    C2 6243   0.165   0.402  10.159  0.3300  0.0864 -0.1653
  415TMC3    C3 6244   0.130   0.311  10.066  0.8424 -0.3109  0.1591
  415TMC3    C4 6245   0.046   0.268  10.319 -0.8941  0.0076 -0.5998
  415TMC3    C5 6246   0.009   0.184  10.214  0.3392 -0.2937 -0.6517
  415TMC3    C6 6247   0.048   0.206  10.087  0.1035  0.4486  0.2597
  415TMC3     C 6248   0.181   0.455  10.395 -0.3845 -1.3904  0.6682
  415TMC3     O 6249   0.123   0.449  10.502  0.2183  0.4156  0.1467
  415TMC3     H 6250   0.204   0.503  10.147 -0.9269  0.5541 -0.3607
  415TMC3    H1 6251   0.032   0.255  10.426  0.6832 -1.1408 -0.5320
  415TMC3    H2 6252   0.009   0.139  10.011  2.2227 -1.0763  0.5279
  415TMC3    C7 6253   4.695   0.049  10.252  0.0221 -0.2347 -0.6683
  415TMC3    C8 6254   0.168   0.337   9.927 -0.4580 -0.8903  1.1873
  415TMC3    O1 6255   4.682   4.709  10.161  0.2587  0.2292 -0.1395
  415TMC3    O2 6256   0.125   0.261   9.844 -0.3449 -0.2140 -0.2938
  416MPD2     C 6257   1.814   4.135  12.021  0.9655  0.4530 -0.3781
  416MPD2    C1 6258   1.725   4.183  11.929  0.1429  0.2342  0.1646
  416MPD2    C2 6259   1.713   4.122  11.805  0.6442 -0.6882  0.0116
  416MPD2    C3 6260   1.775   4.002  11.781 -0.7094 -0.2422  0.8780
  416MPD2    C4 6261   1.854   3.945  11.882  0.0389 -0.5680  0.0749
  416MPD2    C5 6262   1.879   4.019  12.000 -0.0029 -0.0564  0.5772
  416MPD2     H 6263   1.649   4.162  11.727  1.7720  0.7436 -0.1812
  416MPD2    H1 6264   1.923   3.864  11.867  1.0875 -0.3060  3.6916
  416MPD2    H2 6265   1.822   4.185  12.117  1.1762  0.0090 -0.1647
  416MPD2    H3 6266   1.939   3.980  12.082 -0.1595  2.4155  1.8730
  416MPD2     N 6267   1.779   3.933  11.658 -0.1026  0.2665 -0.1821
  416MPD2    H5 6268   1.815   3.839  11.664 -0.3257 -0.0096 -3.1298
  416MPD2    N1 6269   1.647   4.292  11.969  0.2751 -0.1234  0.1421
  416MPD2    H7 6270   1.655   4.321  12.065 -0.8820  0.5799  0.0318
  417TMC3    C1 6271   1.473   4.467  11.955 -0.1118  0.2544  0.7662
  417TMC3    C2 6272   1.423   4.414  12.073 -0.3049 -0.0624 -0.0574
  417TMC3    C3 6273   1.311   4.475  12.129 -0.1931 -0.2564 -0.1220
  417TMC3    C4 6274   1.402   4.563  11.891 -0.5999  0.1791 -0.1830
  417TMC3    C5 6275   1.304   4.633  11.951  0.1287  0.1620  0.1074
  417TMC3    C6 6276   1.259   4.585  12.074  0.0825 -0.8134 -0.9794
  417TMC3     C 6277   1.554   4.368  11.884  0.2871 -0.0753 -0.1324
  417TMC3     O 6278   1.539   4.358  11.765  0.1243  0.2197  0.0654
  417TMC3     H 6279   1.461   4.327  12.125 -0.7945  0.6749  1.5390
  417TMC3    H1 6280   1.441   4.601  11.797  0.9299 -0.9043  0.0135
  417TMC3    H2 6281   1.184   4.645  12.124  2.4781  2.3413 -1.1181
  417TMC3    C7 6282   1.225   4.732  11.875 -0.1051  0.3915  0.0951
  417TMC3    C8 6283   1.259   4.432  12.258 -0.3011  0.3042  0.2445
  417TMC3    O1 6284   1.294   0.056  11.802 -0.2823 -0.0691  0.1773
  417TMC3    O2 6285   1.176   4.500  12.309 -0.3429  0.0746  0.3616
  418TMC3    C1 6286   1.173   1.848   0.224 -0.3120  0.1771 -0.2219
  418TMC3    C2 6287   1.074   1.947   0.213 -0.1298  0.2108  0.6884
  418TMC3    C3 6288   1.031   2.002   0.330 -0.0484  0.0295 -0.1048
  418TMC3    C4 6289   1.215   1.795   0.342 -0.1840 -0.2095  0.2801
  418TMC3    C5 6290   1.166   1.856   0.450 -0.1547  0.3097  0.2697
  418TMC3    C6 6291   1.074   1.955   0.450 -0.6007  0.3218 -0.2012
  418TMC3     C 6292   1.229   1.801   0.100  1.0203 -0.1297 -1.1242
  418TMC3     O 6293   1.240   1.877   0.002 -0.5413  0.0104  0.0908
  418TMC3     H 6294   1.035   1.972   0.115 -0.3904  0.5384  0.8728
  418TMC3    H1 6295   1.302   1.730   0.344 -0.0236 -0.1046 -3.5449
  418TMC3    H2 6296   1.028   1.999   0.538 -0.7054  1.8332 -1.0084
  418TMC3    C7 6297   1.122   1.760   0.552  0.1658 -0.1182 -0.0531
  418TMC3    C8 6298   0.884   2.008   0.327 -0.1794 -0.0422 -0.3216
  418TMC3    O1 6299   1.200   1.678   0.601  0.1122 -0.4600  0.0446
  418TMC3    O2 6300   0.816   2.098   0.373 -0.2748 -0.1683  0.4085
  419MPD2     C 6301   3.577   4.014  12.571 -0.3775  0.4427  0.9540
  419MPD2    C1 6302   3.602   4.146  12.539 -0.2461 -0.5544 -0.5589
  419MPD2    C2 6303   3.588   4.243  12.632  0.0713  0.1913  0.0221
  419MPD2    C3 6304   3.537   4.213  12.754 -0.0676 -0.5554  0.2624
  419MPD2    C4 6305   3.506   4.083  12.782 -0.3556 -0.5854  0.7507
  419MPD2    C5 6306   3.537   3.979  12.695 -0.1183 -0.5167  0.4538
  419MPD2     H 6307   3.608   4.347  12.606  0.8021 -0.5534 -2.4067
  419MPD2    H1 6308   3.475   4.053  12.882 -0.6711  0.8671  1.0970
  419MPD2    H2 6309   3.610   3.936  12.503  0.3173  0.4663  1.2667
  419MPD2    H3 6310   3.512   3.876  12.717 -1.5918  0.5830  3.9747
  419MPD2     N 6311   3.521   4.324  12.842 -0.2578  0.2150  0.0656
  419MPD2    H5 6312   3.530   4.415  12.797 -0.5178  0.7682  1.1486
  419MPD2    N1 6313   3.662   4.187  12.414 -0.1427 -0.1046 -0.9325
  419MPD2    H7 6314   3.713   4.275  12.418 -0.1602 -0.0629 -1.5978
  420TMC3    C1 6315   3.429   4.441  13.031 -0.5871 -0.5436  0.3168
  420TMC3    C2 6316   3.377   4.538  12.953  0.3578 -0.2405 -0.0249
  420TMC3    C3 6317   3.328   4.648  13.019  0.4372 -0.0856  0.5233
  420TMC3    C4 6318   3.411   4.435  13.174  0.1216 -0.4150 -0.0069
  420TMC3    C5 6319   3.361   4.548  13.230  0.1505  0.7375 -0.2178
  420TMC3    C6 6320   3.320   4.661  13.159 -0.0547 -0.3860  1.1152
  420TMC3     C 6321   3.481   4.313  12.974 -0.6260  0.4914  0.3319
  420TMC3     O 6322   3.472   4.208  13.036 -0.0794  0.0842  0.1134
  420TMC3     H 6323   3.375   4.526  12.845  0.7303 -2.2737  0.1836
  420TMC3    H1 6324   3.457   4.352  13.226  1.0535  0.7962  1.1062
  420TMC3    H2 6325   3.279   0.002  13.212  1.2654  0.1539  1.2684
  420TMC3    C7 6326   3.354   4.550  13.378  0.4559 -0.5174 -0.3061
  420TMC3    C8 6327   3.269   0.007  12.945  0.0422 -0.9110 -0.4498
  420TMC3    O1 6328   3.333   4.445  13.442  0.3197  0.0712  0.0733
  420TMC3    O2 6329   3.185   0.073  13.001  0.5751 -0.3376 -0.1278
  421TMC3    C1 6330   0.302   1.182  13.591 -0.2117  0.0628  0.2211
  421TMC3    C2 6331   0.272   1.297  13.655 -0.0854 -0.1142 -0.0443
  421TMC3    C3 6332   0.362   1.353  13.745 -0.4178  0.7784 -0.1720
  421TMC3    C4 6333   0.411   1.114  13.640 -0.2027 -0.2061 -0.1769
  421TMC3    C5 6334   0.508   1.177  13.715 -0.0811  0.6235  0.1699
  421TMC3    C6 6335   0.486   1.300  13.763 -0.0741  0.2511  0.2969
  421TMC3     C 6336   0.212   1.134  13.489  0.3373  0.5379 -0.1860
  421TMC3     O 6337   0.171   1.218  13.412 -0.3783  0.1927  0.6248
  421TMC3     H 6338   0.183   1.351  13.624  0.9740  0.6849 -1.7376
  421TMC3    H1 6339   0.429   1.025  13.580 -2.1046  2.0126 -4.0468
  421TMC3    H2 6340   0.554   1.343  13.836 -2.3465  1.8589  1.4881
  421TMC3    C7 6341   0.611   1.097  13.781 -0.0019 -0.0144  0.5292
  421TMC3    C8 6342   0.302   1.433  13.848  0.2259 -1.1366 -0.1150
  421TMC3    O1 6343   0.679   1.155  13.862 -0.3544  0.1630  0.0284
  421TMC3    O2 6344   0.374   1.514  13.905  0.5781  0.1869 -0.4287
  422TMC3    C1 6345   2.408   2.282  12.870 -0.3673 -0.2291  0.3416
  422TMC3    C2 6346   2.396   2.388  12.947  0.1703  0.4908  0.1607
  422TMC3    C3 6347   2.275   2.437  12.980  0.2515  0.5306  0.0920
  422TMC3    C4 6348   2.308   2.197  12.850  0.3823 -0.1768 -0.1477
  422TMC3    C5 6349   2.187   2.243  12.881  0.2842 -0.7585 -0.0341
  422TMC3    C6 6350   2.164   2.365  12.944 -0.5291  0.0883 -0.6248
  422TMC3     C 6351   2.465   2.323  12.742  0.1860 -0.6526  0.8465
  422TMC3     O 6352   2.534   2.422  12.744 -0.6328  0.4569 -0.2486
  422TMC3     H 6353   2.487   2.445  12.965  0.9297 -1.3179  1.9072
  422TMC3    H1 6354   2.318   2.102  12.798  0.4327  0.1995 -0.8158
  422TMC3    H2 6355   2.065   2.399  12.972  0.4641  2.4274  0.0869
  422TMC3    C7 6356   2.081   2.162  12.824  0.3753 -0.4347  0.0975
  422TMC3    C8 6357   2.283   2.577  12.935  0.3370  0.6300  0.4834
  422TMC3    O1 6358   2.117   2.089  12.738  0.3588 -0.3674 -0.3405
  422TMC3    O2 6359   2.350   2.660  12.993  0.2672  0.4429 -0.4662
  423MPD2     C 6360   4.122   3.567   0.133 -1.0051 -0.2172 -0.2751
  423MPD2    C1 6361   3.988   3.537   0.160 -0.9058 -0.6648  0.3628
  423MPD2    C2 6362   3.908   3.469   0.057  0.2776  0.3323  0.2425
  423MPD2    C3 6363   3.959   3.430  17.707  0.7490  0.2418 -0.4023
  423MPD2    C4 6364   4.089   3.483  17.680 -0.0870  0.1062  0.1796
  423MPD2    C5 6365   4.167   3.545   0.006 -0.6347 -0.4841 -0.1700
  423MPD2     H 6366   3.805   3.447   0.080  0.1616 -1.1601 -1.6969
  423MPD2    H1 6367   4.141   3.455  17.589 -0.0313  0.5500  0.0756
  423MPD2    H2 6368   4.182   3.622   0.204 -0.5364  1.1987 -1.7974
  423MPD2    H3 6369   4.267   3.577  17.752 -0.6760 -2.1080 -2.3438
  423MPD2     N 6370   3.879   3.374  17.608  0.1175 -0.7447  0.2978
  423MPD2    H5 6371   3.931   3.346  17.526  1.4224 -2.1475  1.5977
  423MPD2    N1 6372   3.924   3.566   0.287 -0.2442 -0.3205 -0.0818
  423MPD2    H7 6373   3.823   3.556   0.289 -0.6351  2.8719 -4.2549
  424TMC3    C1 6374   3.893   3.622   0.513 -0.2317  0.5224 -0.0872
  424TMC3    C2 6375   3.942   3.645   0.640 -0.3618 -0.3719  0.7172
  424TMC3    C3 6376   3.852   3.645   0.744  0.1526 -0.2453 -0.0080
  424TMC3    C4 6377   3.759   3.614   0.492 -0.1925 -0.7899 -0.3838
  424TMC3    C5 6378   3.676   3.619   0.598 -0.2906 -0.0447 -0.0094
  424TMC3    C6 6379   3.718   3.618   0.726 -0.0235 -0.2342 -0.4372
  424TMC3     C 6380   3.986   3.599   0.400 -0.0548 -0.1173 -0.0856
  424TMC3     O 6381   4.103   3.626   0.416  0.4315  0.0579  0.0410
  424TMC3     H 6382   4.049   3.633   0.654 -0.6599 -1.5726  1.9698
  424TMC3    H1 6383   3.719   3.616   0.391 -1.7288  3.0412  0.2826
  424TMC3    H2 6384   3.658   3.608   0.816 -0.4424  1.2494 -0.5437
  424TMC3    C7 6385   3.537   3.626   0.566 -0.2187  0.4110  0.0298
  424TMC3    C8 6386   3.911   3.605   0.871  0.6258 -0.1788  0.0152
  424TMC3    O1 6387   3.511   3.625   0.443  0.8810 -0.1131 -0.7348
  424TMC3    O2 6388   3.832   3.570   0.954  0.3558 -0.1202  0.1551
  425MPD2     C 6389   3.220   2.846  17.550  0.0599  0.3162  0.1304
  425MPD2    C1 6390   3.178   2.798  17.429  0.1140 -0.0078  0.1951
  425MPD2    C2 6391   3.055   2.837  17.386 -0.0247 -0.1719 -0.6912
  425MPD2    C3 6392   2.967   2.905  17.460  0.2118 -0.3613 -0.2516
  425MPD2    C4 6393   3.008   2.955  17.580  0.3279  0.0874 -0.7520
  425MPD2    C5 6394   3.140   2.931  17.627 -0.1032  0.4646 -0.0137
  425MPD2     H 6395   3.021   2.809  17.287 -1.8232 -0.3043 -0.0451
  425MPD2    H1 6396   2.941   3.007  17.648  0.4770 -0.2584 -0.3399
  425MPD2    H2 6397   3.317   2.826  17.595 -0.0087  1.1060  0.6179
  425MPD2    H3 6398   3.173   2.963  17.725  0.8292 -0.0492 -0.1565
  425MPD2     N 6399   2.835   2.923  17.409  0.6870 -0.0789  0.1640
  425MPD2    H5 6400   2.830   2.901  17.310 -0.3736 -1.9163  0.6342
  425MPD2    N1 6401   3.265   2.705  17.356 -0.1930  0.0741  0.7479
  425MPD2    H7 6402   3.351   2.668  17.395  0.7895  2.3127  0.7321
  426TMC3    C1 6403   3.288   2.516  17.224 -0.1910 -0.1263 -0.3173
  426TMC3    C2 6404   3.279   2.458  17.103  0.0193  0.9792  0.1369
  426TMC3    C3 6405   3.291   2.319  17.099 -0.1733 -0.4055  0.2615
  426TMC3    C4 6406   3.310   2.443  17.344  0.6307 -0.5331  0.5502
  426TMC3    C5 6407   3.299   2.309  17.336 -0.4072  0.1872  0.4148
  426TMC3    C6 6408   3.305   2.245  17.213 -0.2032  0.4403 -0.7858
  426TMC3     C 6409   3.239   2.654  17.236 -0.3749 -0.1725 -0.1771
  426TMC3     O 6410   3.170   2.704  17.145 -0.2478  0.2191  0.4799
  426TMC3     H 6411   3.264   2.524  17.019  0.1001 -0.9557 -1.3982
  426TMC3    H1 6412   3.328   2.497  17.437  0.2370 -1.1637  0.9831
  426TMC3    H2 6413   3.302   2.137  17.204  1.5420  0.4938 -2.0826
  426TMC3    C7 6414   3.302   2.226  17.456  0.3538 -0.7134 -0.9154
  426TMC3    C8 6415   3.277   2.242  16.973  0.1125  0.5583  0.7012
  426TMC3    O1 6416   3.335   2.108  17.455  0.4604  0.2317  0.5829
  426TMC3    O2 6417   3.326   2.126  16.975  0.0985 -0.1970 -0.4099
  427MPD2     C 6418   1.384   0.165  15.323 -0.0437 -0.3324 -0.2896
  427MPD2    C1 6419   1.375   0.051  15.239 -0.5433 -0.1518 -0.7881
  427MPD2    C2 6420   1.264   0.039  15.160 -0.0422 -0.1895  1.0314
  427MPD2    C3 6421   1.163   0.130  15.165  0.6423 -0.1792  0.0973
  427MPD2    C4 6422   1.163   0.229  15.260  0.1632  0.4142  1.1224
  427MPD2    C5 6423   1.272   0.250  15.336 -0.7202  0.0927  0.3418
  427MPD2     H 6424   1.263   4.698  15.093  0.3182 -1.3546  2.4834
  427MPD2    H1 6425   1.086   0.306  15.264  1.3010  1.5195  1.9747
  427MPD2    H2 6426   1.469   0.202  15.380  0.3681  1.8194 -2.3029
  427MPD2    H3 6427   1.277   0.334  15.405  2.0863 -0.3755  0.7298
  427MPD2     N 6428   1.066   0.135  15.069  0.4234 -0.0841 -0.1353
  427MPD2    H5 6429   0.989   0.197  15.094  1.7771  1.7328 -0.4497
  427MPD2    N1 6430   1.485   4.702  15.226  0.2148  0.4117 -0.4636
  427MPD2    H7 6431   1.475   4.625  15.161  1.6568 -1.8458  1.9646
  428TMC3    C1 6432   1.706   4.627  15.244 -0.1010  0.6153 -0.0083
  428TMC3    C2 6433   1.661   4.496  15.246  0.5464  0.1367 -1.1386
  428TMC3    C3 6434   1.752   4.405  15.288 -0.0654  0.6333 -0.0838
  428TMC3    C4 6435   1.832   4.663  15.285 -0.2505 -0.7048 -0.3712
  428TMC3    C5 6436   1.913   4.569  15.328 -0.0566 -0.6988  0.3549
  428TMC3    C6 6437   1.877   4.443  15.335 -0.7109  0.5879  0.1804
  428TMC3     C 6438   1.613   4.731  15.265 -0.3198 -0.5753  0.2434
  428TMC3     O 6439   1.660   0.089  15.314 -0.0843 -0.5083 -0.0370
  428TMC3     H 6440   1.557   4.477  15.220 -0.0094  1.3320  0.1961
  428TMC3    H1 6441   1.860   0.023  15.265 -1.2194  0.0020  2.0131
  428TMC3    H2 6442   1.950   4.370  15.367  0.5237  2.7412  2.2823
  428TMC3    C7 6443   2.047   4.598  15.355  0.2991 -0.1288 -0.1788
  428TMC3    C8 6444   1.700   4.267  15.321  0.9058 -0.0474  0.6350
  428TMC3    O1 6445   2.093   4.549  15.457 -0.5370  0.0532 -0.4254
  428TMC3    O2 6446   1.595   4.249  15.267  0.4751  0.2586  0.4742
  429MPD2     C 6447   2.790   4.735  17.536 -0.2230 -0.8436  0.0565
  429MPD2    C1 6448   2.862   4.656  17.444  0.5102 -0.1430 -0.2044
  429MPD2    C2 6449   2.943   4.725  17.348  0.1954  0.9147 -0.7640
  429MPD2    C3 6450   2.944   0.123  17.337  0.9571 -0.3202 -0.1016
  429MPD2    C4 6451   2.862   0.188  17.427  0.1627  0.3113  0.6385
  429MPD2    C5 6452   2.791   0.123  17.522  0.2239 -0.4097 -0.7163
  429MPD2     H 6453   2.998   4.669  17.274 -1.4377 -0.0171 -1.2743
  429MPD2    H1 6454   2.882   0.291  17.452  0.2447  0.3596  0.3754
  429MPD2    H2 6455   2.736   4.693  17.620  0.3393 -1.4834  0.0957
  429MPD2    H3 6456   2.746   0.181  17.602 -0.8527  0.3225 -1.8503
  429MPD2     N 6457   3.035   0.180  17.243  0.7011 -0.5440 -0.6091
  429MPD2    H5 6458   3.064   0.114  17.172 -0.4061  0.4131 -1.9747
  429MPD2    N1 6459   2.865   4.514  17.443 -0.0856 -0.0515  0.3742
  429MPD2    H7 6460   2.928   4.473  17.375 -1.1666  0.1141 -0.7405
  430TMC3    C1 6461   3.054   0.326  17.067  1.2466 -0.2689  0.2739
  430TMC3    C2 6462   3.001   0.441  17.022 -0.2294  0.5740  0.3408
  430TMC3    C3 6463   3.028   0.484  16.894 -0.2388 -0.2291  0.3922
  430TMC3    C4 6464   3.149   0.251  16.991  0.1724 -0.1178 -0.3812
  430TMC3    C5 6465   3.164   0.292  16.859 -0.3540 -0.1034 -0.1921
  430TMC3    C6 6466   3.112   0.411  16.816  0.9014  0.0271 -0.0731
  430TMC3     C 6467   3.033   0.313  17.213  0.1635  0.3416  0.1532
  430TMC3     O 6468   3.003   0.411  17.285 -0.5439 -0.2162 -0.2859
  430TMC3     H 6469   2.939   0.507  17.082 -2.6138 -1.5770  0.2192
  430TMC3    H1 6470   3.192   0.162  17.035 -1.3658  0.2517  1.8830
  430TMC3    H2 6471   3.124   0.440  16.712 -1.9933 -1.5738 -0.8269
  430TMC3    C7 6472   3.194   0.188  16.759 -0.4302 -0.9284 -0.4207
  430TMC3    C8 6473   2.923   0.543  16.830 -0.2426  0.6077  0.7258
  430TMC3    O1 6474   3.248   0.089  16.809 -0.5415  0.3505  0.6008
  430TMC3    O2 6475   2.903   0.499  16.717  0.9248 -0.0898 -0.0996
  431MPD2     C 6476   4.080   0.231  12.207  0.1241 -0.3265  0.5834
  431MPD2    C1 6477   3.999   0.170  12.303 -0.1618 -0.1507  0.1840
  431MPD2    C2 6478   3.936   0.055  12.270 -0.6776 -0.5378  0.3284
  431MPD2    C3 6479   3.958   4.742  12.137  0.2894  0.3320 -0.3432
  431MPD2    C4 6480   4.025   0.066  12.040  0.1222  0.0104 -0.1569
  431MPD2    C5 6481   4.085   0.184  12.078 -0.1230 -0.8481 -0.2010
  431MPD2     H 6482   3.865   0.015  12.342 -1.4959  0.6214  0.1684
  431MPD2    H1 6483   4.023   0.024  11.941  2.1931 -0.9070  0.2071
  431MPD2    H2 6484   4.131   0.324  12.230  0.6780 -0.5838  0.3848
  431MPD2    H3 6485   4.131   0.242  11.999 -1.2817 -2.4933 -2.0921
  431MPD2     N 6486   3.918   4.612  12.103 -0.4630 -0.2256  0.0164
  431MPD2    H5 6487   3.937   4.583  12.008  0.1375 -0.0980  0.0965
  431MPD2    N1 6488   3.992   0.237  12.433 -0.4699 -0.1664  0.4477
  431MPD2    H7 6489   4.041   0.326  12.444 -1.0425  0.3385 -1.0677
  432TMC3    C1 6490   3.819   4.399  12.126 -0.1408  0.2095 -0.5137
  432TMC3    C2 6491   3.931   4.339  12.065 -0.0579 -0.3530  0.3838
  432TMC3    C3 6492   3.938   4.205  12.059 -0.9380 -0.1372  0.8977
  432TMC3    C4 6493   3.727   4.323  12.197 -0.3791 -0.0502  0.2345
  432TMC3    C5 6494   3.743   4.183  12.199  0.9859 -0.3686 -0.1250
  432TMC3    C6 6495   3.858   4.127  12.135  0.1545  0.2939  0.1002
  432TMC3     C 6496   3.830   4.534  12.178 -0.1024  0.7466 -0.5152
  432TMC3     O 6497   3.761   4.565  12.278  0.2583  0.8429 -0.2541
  432TMC3     H 6498   4.008   4.400  12.020 -2.1740  2.8201  1.0998
  432TMC3    H1 6499   3.633   4.367  12.229  1.3355  3.7948 -0.0065
  432TMC3    H2 6500   3.881   4.025  12.162  1.7617  0.6380 -0.0012
  432TMC3    C7 6501   3.668   4.110  12.302  0.0638  0.6872  0.6439
  432TMC3    C8 6502   4.073   4.156  12.076 -0.1394 -0.4141  0.6119
  432TMC3    O1 6503   3.638   3.993  12.282  0.1797  0.3129  0.2065
  432TMC3    O2 6504   4.138   4.134  11.975  0.3487  0.1360 -0.0391
  433MPD2     C 6505   2.280   3.917  10.878  0.4458 -0.6734 -0.5893
  433MPD2    C1 6506   2.279   3.794  10.936 -0.1228 -0.5458 -0.8460
  433MPD2    C2 6507   2.333   3.779  11.066 -0.4964  0.1066  1.0802
  433MPD2    C3 6508   2.363   3.888  11.146  0.5908  0.0117  0.2586
  433MPD2    C4 6509   2.359   4.013  11.090 -0.7650 -0.4190 -0.0716
  433MPD2    C5 6510   2.336   4.019  10.957 -0.1281 -0.5653 -0.2040
  433MPD2     H 6511   2.344   3.680  11.110  3.3417  0.3828  0.7540
  433MPD2    H1 6512   2.390   4.103  11.141  2.3729 -1.4701 -0.1136
  433MPD2    H2 6513   2.255   3.925  10.773 -1.6605  0.1262 -0.0360
  433MPD2    H3 6514   2.355   4.115  10.911 -1.0570 -0.8242 -1.1530
  433MPD2     N 6515   2.408   3.854  11.273 -0.6134  0.1812  0.1219
  433MPD2    H5 6516   2.404   3.755  11.295  2.5714 -0.2139 -1.0170
  433MPD2    N1 6517   2.257   3.676  10.857 -0.3394 -0.1762 -0.2629
  433MPD2    H7 6518   2.262   3.687  10.756 -2.8178  1.0805 -0.2371
  434TMC3    C1 6519   2.291   3.459  10.778 -0.7743 -0.3565 -0.3488
  434TMC3    C2 6520   2.379   3.358  10.795 -0.5971  0.3510  0.6653
  434TMC3    C3 6521   2.350   3.241  10.739 -0.2349 -0.2254 -0.0270
  434TMC3    C4 6522   2.173   3.450  10.705 -0.3757  0.0097 -0.6557
  434TMC3    C5 6523   2.146   3.329  10.654 -0.3792 -0.5859 -0.6684
  434TMC3    C6 6524   2.235   3.224  10.673 -0.3050 -0.7249  0.4196
  434TMC3     C 6525   2.274   3.544  10.896  0.6694  0.1826 -0.6570
  434TMC3     O 6526   2.283   3.492  11.009  0.4672  0.5609 -0.0737
  434TMC3     H 6527   2.466   3.370  10.858  1.5535  1.7754 -2.6127
  434TMC3    H1 6528   2.106   3.534  10.698 -0.1997  0.1029 -1.1679
  434TMC3    H2 6529   2.217   3.132  10.618  0.9416 -2.3182  2.6546
  434TMC3    C7 6530   2.072   3.337  10.531  0.1458 -0.7454 -0.0786
  434TMC3    C8 6531   2.419   3.124  10.787 -0.5259  0.1003  0.1540
  434TMC3    O1 6532   2.059   3.448  10.480 -0.5070  0.0543 -0.1747
  434TMC3    O2 6533   2.526   3.149  10.839  0.1602 -0.4575 -0.2650
  435MPD2     C 6534   4.284   2.964  15.089  0.0969 -0.1013  0.1873
  435MPD2    C1 6535   4.245   3.058  15.182  0.5589 -0.2613  0.3223
  435MPD2    C2 6536   4.332   3.087  15.283 -0.2482  0.4516  0.2035
  435MPD2    C3 6537   4.459   3.034  15.288 -0.6106 -0.3763  0.1207
  435MPD2    C4 6538   4.496   2.938  15.196  0.0648 -0.6211  0.1949
  435MPD2    C5 6539   4.401   2.902  15.099 -0.2219  0.1796 -0.9790
  435MPD2     H 6540   4.301   3.165  15.353  2.5153  2.0878 -0.3885
  435MPD2    H1 6541   4.597   2.898  15.190  1.1699  2.2701 -0.5647
  435MPD2    H2 6542   4.213   2.922  15.018  0.7133 -0.8251  0.0016
  435MPD2    H3 6543   4.419   2.827  15.024 -0.0187 -1.6128  0.8698
  435MPD2     N 6544   4.547   3.079  15.385  0.4975  0.3214 -0.3111
  435MPD2    H5 6545   4.511   3.154  15.443 -0.5105 -0.3932 -0.0054
  435MPD2    N1 6546   4.114   3.118  15.189  0.3226  0.1316 -0.3868
  435MPD2    H7 6547   4.089   3.168  15.274 -2.1207 -0.4441 -0.7691
  436TMC3    C1 6548   3.838   3.408  15.182  0.5183 -0.0632 -0.0914
  436TMC3    C2 6549   3.926   3.306  15.190 -0.7620 -0.4592  0.1504
  436TMC3    C3 6550   3.911   3.211  15.097  0.1268  0.3235 -0.0800
  436TMC3    C4 6551   3.743   3.422  15.092  0.3511  0.0645  0.1245
  436TMC3    C5 6552   3.732   3.320  14.999 -0.4420 -0.8362 -0.3557
  436TMC3    C6 6553   3.821   3.216  14.992  0.0409 -0.5803  0.3756
  436TMC3     C 6554   3.871   3.518  15.263  0.2465 -0.0737 -0.2002
  436TMC3     O 6555   3.990   3.547  15.273 -0.8625  0.2649 -0.1612
  436TMC3     H 6556   3.997   3.307  15.272 -0.2325 -2.0620 -0.2849
  436TMC3    H1 6557   3.684   3.513  15.096  0.6854  0.2844  0.0397
  436TMC3    H2 6558   3.821   3.141  14.913 -1.4067 -1.9206  1.6296
  436TMC3    C7 6559   3.616   3.319  14.911  0.3890 -0.0830  0.1586
  436TMC3    C8 6560   4.029   3.120  15.080  0.1046 -0.0958  0.2221
  436TMC3    O1 6561   3.528   3.393  14.955 -0.3801 -0.5755  0.7476
  436TMC3    O2 6562   4.039   3.066  14.971 -0.1018 -0.4265  0.2759
  437TMC3    C1 6563   3.356   0.815  12.664 -0.8176  0.5968 -0.2015
  437TMC3    C2 6564   3.384   0.742  12.555 -0.2816  0.0890 -0.4172
  437TMC3    C3 6565   3.443   0.804  12.455 -0.0047  0.5385  0.2772
  437TMC3    C4 6566   3.401   0.945  12.683 -0.7161 -0.6255 -1.2070
  437TMC3    C5 6567   3.456   1.003  12.575  0.0151 -0.1550 -0.0386
  437TMC3    C6 6568   3.466   0.938  12.456  0.3635  0.1136 -0.0567
  437TMC3     C 6569   3.298   0.748  12.776  0.1367  0.2541 -0.5470
  437TMC3     O 6570   3.323   0.627  12.779 -0.3679  0.4186  0.2355
  437TMC3     H 6571   3.348   0.640  12.556  0.6176 -0.2431 -1.4906
  437TMC3    H1 6572   3.371   1.012  12.763 -0.7005 -1.9682 -0.0742
  437TMC3    H2 6573   3.525   0.988  12.379 -2.0394  0.2775 -1.7735
  437TMC3    C7 6574   3.536   1.120  12.588 -0.1628  0.0714 -0.0143
  437TMC3    C8 6575   3.510   0.730  12.348 -0.2807  0.0452 -0.2775
  437TMC3    O1 6576   3.552   1.202  12.499 -0.0888  0.7598 -0.0181
  437TMC3    O2 6577   3.506   0.774  12.235 -0.0867  0.2079 -0.0846
  438MPD2     C 6578   1.101   1.907  16.701 -0.0669 -0.0876 -0.0943
  438MPD2    C1 6579   1.159   1.793  16.746  0.3047 -0.7348 -0.1548
  438MPD2    C2 6580   1.177   1.779  16.880  0.0673  0.1516  0.0711
  438MPD2    C3 6581   1.120   1.867  16.977  0.4698 -0.4866 -0.7779
  438MPD2    C4 6582   1.048   1.968  16.925 -0.0664 -0.4919  0.4373
  438MPD2    C5 6583   1.060   2.001  16.793  0.2130 -0.4891  0.6316
  438MPD2     H 6584   1.207   1.682  16.917 -1.2389 -1.0675 -2.0988
  438MPD2    H1 6585   0.999   2.037  16.992  1.6298 -1.8761  3.0720
  438MPD2    H2 6586   1.084   1.932  16.597 -0.4581  1.4440  0.3394
  438MPD2    H3 6587   1.004   2.084  16.752 -0.1214 -0.9664  0.1268
  438MPD2     N 6588   1.137   1.847  17.118  0.3383 -0.0876 -0.1544
  438MPD2    H5 6589   1.067   1.896  17.173  1.3682  1.7256 -0.4558
  438MPD2    N1 6590   1.208   1.686  16.666  0.0514  0.7058  0.0939
  438MPD2    H7 6591   1.267   1.620  16.716  1.6503  2.0976  0.0353
  439TMC3    C1 6592   1.239   1.527  16.508 -0.0318  0.1446  0.5645
  439TMC3    C2 6593   1.246   1.492  16.377 -0.2398 -1.0017  0.3556
  439TMC3    C3 6594   1.319   1.377  16.358 -0.9549  0.1243  0.1688
  439TMC3    C4 6595   1.270   1.441  16.610  0.4602  0.1673 -1.0731
  439TMC3    C5 6596   1.356   1.330  16.577  0.3762 -0.2313 -0.2908
  439TMC3    C6 6597   1.378   1.294  16.451 -0.0470 -0.2970  0.5389
  439TMC3     C 6598   1.183   1.659  16.537  0.1880 -0.5908  0.3745
  439TMC3     O 6599   1.127   1.725  16.448  0.4712  0.1460  1.5145
  439TMC3     H 6600   1.228   1.565  16.299 -0.2620  0.4818  1.7688
  439TMC3    H1 6601   1.236   1.461  16.711  0.8419 -0.5019 -0.8084
  439TMC3    H2 6602   1.448   1.221  16.412  1.1142  2.1655 -1.9783
  439TMC3    C7 6603   1.421   1.255  16.685  0.3760 -0.3105  0.2251
  439TMC3    C8 6604   1.331   1.322  16.221 -0.1904  0.2256  0.1929
  439TMC3    O1 6605   1.422   1.308  16.797  0.4936  0.2550  0.4667
  439TMC3    O2 6606   1.414   1.239  16.201 -0.0516  0.2676  0.6187
  440MPD2     C 6607   4.149   1.728  15.217 -0.3299  0.7134 -0.1167
  440MPD2    C1 6608   4.233   1.817  15.291 -0.0969 -0.0459  0.2805
  440MPD2    C2 6609   4.366   1.779  15.311 -0.0966 -0.3657 -0.5354
  440MPD2    C3 6610   4.421   1.658  15.267 -0.6733 -0.2931  0.0327
  440MPD2    C4 6611   4.339   1.568  15.204 -0.5402 -0.1103 -0.3620
  440MPD2    C5 6612   4.210   1.607  15.183  0.8798 -0.4165  0.2287
  440MPD2     H 6613   4.429   1.844  15.372 -2.6029  1.2509  0.3284
  440MPD2    H1 6614   4.382   1.473  15.172 -2.1618 -0.4847 -1.4276
  440MPD2    H2 6615   4.043   1.735  15.196 -0.2041 -0.7745 -1.2051
  440MPD2    H3 6616   4.156   1.534  15.125  0.2336 -1.3980  2.0526
  440MPD2     N 6617   4.550   1.618  15.277 -0.1288  0.3745  0.2137
  440MPD2    H5 6618   4.577   1.522  15.258  1.8853  0.4363  2.7440
  440MPD2    N1 6619   4.181   1.935  15.342 -0.0132  0.4267  0.0448
  440MPD2    H7 6620   4.245   1.988  15.400 -0.0162  1.1112 -0.5743
  441TMC3    C1 6621   0.026   1.658  15.347  0.5633 -0.5375 -0.2659
  441TMC3    C2 6622   0.128   1.742  15.348  0.7572 -0.3845  0.3139
  441TMC3    C3 6623   0.241   1.712  15.423 -0.0830 -0.5868 -0.3695
  441TMC3    C4 6624   0.020   1.563  15.449 -0.6979 -0.0748 -0.4286
  441TMC3    C5 6625   0.129   1.540  15.532 -0.0970  0.3070  0.2718
  441TMC3    C6 6626   0.244   1.609  15.514 -0.4451 -0.2575  0.0046
  441TMC3     C 6627   4.650   1.714  15.311  0.4972  0.0609 -0.2160
  441TMC3     O 6628   4.646   1.832  15.323 -0.1601 -0.6141 -0.4444
  441TMC3     H 6629   0.125   1.806  15.260  2.0107  2.3604  2.2440
  441TMC3    H1 6630   4.673   1.509  15.474 -0.3850 -0.3662  0.0775
  441TMC3    H2 6631   0.325   1.611  15.586 -1.0367 -2.2376  0.7396
  441TMC3    C7 6632   0.100   1.448  15.637  0.8118 -1.0619  0.0203
  441TMC3    C8 6633   0.287   1.833  15.489  1.1547  0.1161 -0.8620
  441TMC3    O1 6634   4.742   1.382  15.631 -0.3342 -0.4710 -0.3185
  441TMC3    O2 6635   0.401   1.831  15.530  0.2155  0.1546  0.2226
  442MPD2     C 6636   2.664   2.487  16.319  0.7438  0.1621  0.3649
  442MPD2    C1 6637   2.576   2.419  16.402 -0.1926  0.1856 -0.3665
  442MPD2    C2 6638   2.592   2.280  16.410 -0.1548  0.2451 -0.3264
  442MPD2    C3 6639   2.694   2.217  16.341  0.4401 -0.5828  1.2276
  442MPD2    C4 6640   2.773   2.290  16.251 -0.1174  0.2797  0.0925
  442MPD2    C5 6641   2.748   2.420  16.233  0.5599 -0.8701 -0.4513
  442MPD2     H 6642   2.527   2.220  16.472  1.8768 -0.0530  1.5165
  442MPD2    H1 6643   2.855   2.248  16.195 -1.6996  1.4334 -3.0825
  442MPD2    H2 6644   2.654   2.591  16.291 -0.3506  1.0656  4.1397
  442MPD2    H3 6645   2.797   2.470  16.150  0.9207 -0.1936  0.1723
  442MPD2     N 6646   2.721   2.079  16.345  0.6706 -0.0192  0.2703
  442MPD2    H5 6647   2.793   2.047  16.281  0.5035 -1.6765  0.8993
  442MPD2    N1 6648   2.466   2.477  16.471 -0.0246 -0.0271  0.0314
  442MPD2    H7 6649   2.396   2.416  16.513  0.2261 -0.1520  0.2680
  443TMC3    C1 6650   2.341   2.651  16.560  0.1768  0.0649 -0.0332
  443TMC3    C2 6651   2.263   2.756  16.522  0.1883 -0.2971  0.0969
  443TMC3    C3 6652   2.137   2.764  16.579 -0.1122  0.3425  0.3131
  443TMC3    C4 6653   2.300   2.565  16.658 -0.0925 -0.0519 -0.1489
  443TMC3    C5 6654   2.177   2.584  16.714  0.1514 -0.8147 -0.2968
  443TMC3    C6 6655   2.099   2.683  16.675  0.6233 -0.4240  0.5540
  443TMC3     C 6656   2.441   2.610  16.468 -0.2566  0.6951 -0.1479
  443TMC3     O 6657   2.506   2.705  16.427 -0.0251  0.3215 -0.0255
  443TMC3     H 6658   2.295   2.823  16.442 -1.7736 -0.3622 -0.7204
  443TMC3    H1 6659   2.362   2.495  16.713  0.4219  0.6867  0.2036
  443TMC3    H2 6660   2.005   2.704  16.726  0.4375 -0.2690  0.1491
  443TMC3    C7 6661   2.151   2.538  16.846  0.1584 -0.8767 -0.0430
  443TMC3    C8 6662   2.030   2.853  16.535 -0.4087  0.1113 -0.0170
  443TMC3    O1 6663   2.189   2.420  16.862 -0.2569 -0.0720 -0.5181
  443TMC3    O2 6664   1.935   2.874  16.608  0.3015  0.3518 -0.4300
  444MPD2     C 6665   2.842   1.939  16.882 -0.0971  0.3369  0.1230
  444MPD2    C1 6666   2.765   1.827  16.899 -0.3605 -0.1462  0.1033
  444MPD2    C2 6667   2.813   1.717  16.846 -0.2886 -0.0412  0.4317
  444MPD2    C3 6668   2.945   1.706  16.790 -0.7950 -0.2718 -0.4082
  444MPD2    C4 6669   3.020   1.824  16.783  0.4415  0.6156  0.4681
  444MPD2    C5 6670   2.965   1.937  16.832 -0.2563 -0.0810  0.4222
  444MPD2     H 6671   2.750   1.629  16.849  0.1590 -0.4651 -2.4541
  444MPD2    H1 6672   3.121   1.822  16.743  0.6087  0.0683  0.9314
  444MPD2    H2 6673   2.815   2.040  16.910  0.1030  0.0471  1.3436
  444MPD2    H3 6674   3.020   2.030  16.825 -1.2451  0.4684 -0.1838
  444MPD2     N 6675   2.989   1.577  16.741  0.7501 -0.6378  0.0334
  444MPD2    H5 6676   2.918   1.505  16.739 -1.0806  1.1794 -0.1568
  444MPD2    N1 6677   2.637   1.834  16.957  0.1663 -0.2440  0.3257
  444MPD2    H7 6678   2.595   1.741  16.960 -0.5656  0.0876  0.2552
  445TMC3    C1 6679   3.106   1.419  16.619 -0.2337  0.1721 -0.7329
  445TMC3    C2 6680   2.985   1.371  16.569  0.3567 -0.0858 -0.2233
  445TMC3    C3 6681   2.991   1.239  16.519  0.5887  0.4323 -0.3508
  445TMC3    C4 6682   3.223   1.353  16.624  0.0608  0.9089 -0.1686
  445TMC3    C5 6683   3.222   1.222  16.592 -0.2942 -0.1693  0.3845
  445TMC3    C6 6684   3.103   1.164  16.538  0.5855  0.3971 -0.4524
  445TMC3     C 6685   3.110   1.545  16.688  0.2447  0.3073 -0.1731
  445TMC3     O 6686   3.208   1.616  16.689  0.3394  0.1840 -0.3125
  445TMC3     H 6687   2.902   1.438  16.549 -0.6171 -1.5298 -1.0325
  445TMC3    H1 6688   3.313   1.399  16.663  2.0673 -2.5995 -0.6392
  445TMC3    H2 6689   3.106   1.065  16.495 -1.3213  0.7872 -1.4675
  445TMC3    C7 6690   3.346   1.153  16.590  0.5322  0.0144  0.3363
  445TMC3    C8 6691   2.869   1.174  16.468 -0.0348 -0.5310  0.1096
  445TMC3    O1 6692   3.447   1.225  16.594  0.3051  0.4116  0.5074
  445TMC3    O2 6693   2.785   1.244  16.422  0.0040 -0.3471 -0.3214
  446MPD2     C 6694   2.168   2.941  11.310  0.3400  0.5160 -0.2785
  446MPD2    C1 6695   2.132   3.021  11.204 -0.6183 -0.0007 -0.2896
  446MPD2    C2 6696   2.212   3.119  11.163  0.4771 -0.2722 -0.3587
  446MPD2    C3 6697   2.341   3.134  11.217 -0.0178  0.8772 -0.1287
  446MPD2    C4 6698   2.382   3.058  11.326 -0.0095  1.2433 -0.3826
  446MPD2    C5 6699   2.289   2.969  11.369 -0.3324  0.4699 -0.5275
  446MPD2     H 6700   2.184   3.179  11.077 -0.5844  1.6767  1.3486
  446MPD2    H1 6701   2.475   3.060  11.383  0.1442 -0.4679 -0.5592
  446MPD2    H2 6702   2.102   2.867  11.353  2.3680 -1.4094 -0.5269
  446MPD2    H3 6703   2.326   2.906  11.449 -0.9808 -2.0918 -2.2502
  446MPD2     N 6704   2.430   3.223  11.153  0.0849 -0.0720  0.8694
  446MPD2    H5 6705   2.394   3.279  11.076  0.7484 -0.6133  0.1669
  446MPD2    N1 6706   2.009   3.002  11.139  0.1822 -0.1202  0.7413
  446MPD2    H7 6707   1.978   3.080  11.083  1.2683  1.4652  2.3425
  447TMC3    C1 6708   2.639   3.301  11.078  0.0063  0.2043  0.2373
  447TMC3    C2 6709   2.597   3.426  11.053 -0.0389  0.2288 -0.6031
  447TMC3    C3 6710   2.700   3.509  10.997  0.0493 -0.6769 -0.3219
  447TMC3    C4 6711   2.752   3.242  11.025 -0.5757 -0.2776 -0.0015
  447TMC3    C5 6712   2.847   3.327  10.974  0.0472  0.3692 -0.1003
  447TMC3    C6 6713   2.824   3.460  10.962  0.0375  0.4294  0.2614
  447TMC3     C 6714   2.565   3.212  11.169  0.4715 -0.3932  0.4167
  447TMC3     O 6715   2.634   3.136  11.230  0.1119  0.2817  0.4554
  447TMC3     H 6716   2.516   3.474  11.106 -1.2342 -2.2692 -0.1692
  447TMC3    H1 6717   2.779   3.142  11.058  0.6989 -0.2086 -0.8296
  447TMC3    H2 6718   2.894   3.530  10.919  2.7046 -1.5324  1.3295
  447TMC3    C7 6719   2.982   3.279  10.973  0.5202 -0.1692  0.5654
  447TMC3    C8 6720   2.695   3.651  11.012  0.0158  0.0527 -0.0264
  447TMC3    O1 6721   3.012   3.172  11.024 -0.2725 -0.2396 -0.9711
  447TMC3    O2 6722   2.725   3.706  11.116  0.2691  0.1570  0.4074
  448TMC3    C1 6723   1.228   3.050  17.328 -0.5073 -0.5114  0.6447
  448TMC3    C2 6724   1.324   2.987  17.264 -0.2394  0.2611  0.0190
  448TMC3    C3 6725   1.404   2.900  17.343 -0.1222  0.4839 -0.2388
  448TMC3    C4 6726   1.200   3.027  17.464 -0.3718  0.1267 -0.3604
  448TMC3    C5 6727   1.279   2.941  17.529 -0.7005  0.0474 -0.0593
  448TMC3    C6 6728   1.377   2.875  17.471  0.1699  0.1296  0.6521
  448TMC3     C 6729   1.118   3.101  17.247  0.5514  0.0924  0.0319
  448TMC3     O 6730   1.061   3.201  17.286  0.4284  0.3124 -0.6147
  448TMC3     H 6731   1.338   2.994  17.156  0.9536  0.2600  0.1718
  448TMC3    H1 6732   1.117   3.081  17.507 -0.5904 -1.1353  0.8191
  448TMC3    H2 6733   1.441   2.807  17.526  0.8887  2.0042  2.1397
  448TMC3    C7 6734   1.251   2.909  17.668 -0.0654 -0.7061  0.7796
  448TMC3    C8 6735   1.476   2.794  17.274 -0.3991  0.0813  0.5155
  448TMC3    O1 6736   1.299   2.812  17.727 -0.2669  0.0208  0.1557
  448TMC3    O2 6737   1.465   2.683  17.324  0.1879  0.1923  0.2980
  449MPD2     C 6738   2.273   1.523  14.029 -0.6256 -0.2976 -0.4363
  449MPD2    C1 6739   2.139   1.549  14.009 -0.1003 -0.3355 -0.1984
  449MPD2    C2 6740   2.046   1.473  14.060 -0.6195  0.3270  0.0063
  449MPD2    C3 6741   2.081   1.358  14.126  0.3175  0.2956  1.0220
  449MPD2    C4 6742   2.208   1.320  14.140  0.4559 -1.0433  0.0617
  449MPD2    C5 6743   2.306   1.409  14.097 -0.0014  0.3453 -0.6104
  449MPD2     H 6744   1.940   1.496  14.063 -0.7459 -0.4711  1.5651
  449MPD2    H1 6745   2.235   1.231  14.196  0.4476 -1.3580 -0.4328
  449MPD2    H2 6746   2.353   1.585  13.989  1.9694 -2.4109  1.4517
  449MPD2    H3 6747   2.411   1.396  14.122  0.0725  0.5640 -0.8091
  449MPD2     N 6748   1.970   1.297  14.190 -0.3708 -0.5917  0.1694
  449MPD2    H5 6749   1.883   1.347  14.176 -0.5749 -0.2370  2.7460
  449MPD2    N1 6750   2.108   1.666  13.931 -0.4671 -0.1595  0.2231
  449MPD2    H7 6751   2.007   1.672  13.920 -0.5155  1.2492  1.5678
  450TMC3    C1 6752   2.108   1.845  13.765 -0.3114 -0.3729 -0.3992
  450TMC3    C2 6753   2.126   1.792  13.637 -0.1006 -0.4649 -0.2436
  450TMC3    C3 6754   2.015   1.770  13.561 -0.3992  0.2862 -0.3107
  450TMC3    C4 6755   1.977   1.871  13.808  0.4032 -0.4524 -0.1807
  450TMC3    C5 6756   1.874   1.829  13.737 -0.2024  0.8420 -0.0257
  450TMC3    C6 6757   1.892   1.778  13.607  0.0660 -0.3727 -0.5575
  450TMC3     C 6758   2.188   1.751  13.852 -0.0946  0.2090 -0.7225
  450TMC3     O 6759   2.305   1.728  13.815 -0.3141  0.5092  0.1653
  450TMC3     H 6760   2.229   1.782  13.605  0.3538  0.4633  0.9538
  450TMC3    H1 6761   1.946   1.909  13.905  3.0001  4.0707 -1.1344
  450TMC3    H2 6762   1.804   1.737  13.558 -0.0639  0.8182 -1.3129
  450TMC3    C7 6763   1.779   1.762  13.826  0.4459  0.4059  0.1027
  450TMC3    C8 6764   2.046   1.663  13.468 -0.1856 -0.1387 -0.4410
  450TMC3    O1 6765   1.839   1.695  13.906 -0.5311  0.1549 -0.6731
  450TMC3    O2 6766   1.963   1.576  13.461 -0.4626 -0.4214 -0.0593
  451MPD2     C 6767   3.652   4.530   1.091  0.0962 -0.2125  0.2073
  451MPD2    C1 6768   3.758   4.621   1.062  0.4271 -0.0237  0.2328
  451MPD2    C2 6769   3.871   4.573   1.006  0.3222 -0.0252  0.3515
  451MPD2    C3 6770   3.874   4.444   0.958 -0.1640  0.3846  0.1651
  451MPD2    C4 6771   3.767   4.359   0.975 -0.4670  0.0144  0.5250
  451MPD2    C5 6772   3.655   4.401   1.049 -0.9299 -0.0627 -0.7563
  451MPD2     H 6773   3.948   4.646   0.983  1.2240 -0.6270  1.4649
  451MPD2    H1 6774   3.764   4.256   0.943  3.0867  0.4761 -1.1964
  451MPD2    H2 6775   3.573   4.572   1.153  0.3722 -1.9850  1.7595
  451MPD2    H3 6776   3.574   4.335   1.077  0.0735 -2.1706 -2.8547
  451MPD2     N 6777   3.984   4.400   0.889 -0.0556  0.5367  0.5306
  451MPD2    H5 6778   3.971   4.320   0.827  1.0818 -0.1748  1.2092
  451MPD2    N1 6779   3.730   0.020   1.076  0.0283 -1.1508  0.6167
  451MPD2    H7 6780   3.637   0.043   1.111  0.0186 -2.3786  1.3828
  452TMC3    C1 6781   4.146   4.455   0.727 -0.7541 -0.0599  0.7723
  452TMC3    C2 6782   4.131   4.327   0.673  0.4153 -0.1300 -0.3417
  452TMC3    C3 6783   4.150   4.328   0.536 -0.3253 -0.1727  0.0353
  452TMC3    C4 6784   4.178   4.576   0.663 -0.4756 -0.4631  0.3356
  452TMC3    C5 6785   4.192   4.570   0.528 -0.3383  0.0528 -0.4790
  452TMC3    C6 6786   4.186   4.445   0.469 -0.3528 -0.0311 -1.1642
  452TMC3     C 6787   4.103   4.474   0.866 -0.2075 -0.2342  0.0083
  452TMC3     O 6788   4.141   4.577   0.923 -0.0817 -0.4399  0.2228
  452TMC3     H 6789   4.113   4.233   0.724  0.0048  0.8975  1.3857
  452TMC3    H1 6790   4.192   4.670   0.714  1.2399 -1.7152  2.1540
  452TMC3    H2 6791   4.185   4.436   0.361 -0.8810 -0.9667 -1.0805
  452TMC3    C7 6792   4.205   4.687   0.439  0.1783  0.7743  0.4889
  452TMC3    C8 6793   4.133   4.210   0.452  0.0675 -0.5722  0.1723
  452TMC3    O1 6794   4.232   4.664   0.321  0.1362 -0.8355 -0.0327
  452TMC3    O2 6795   4.228   4.198   0.376  0.1193  0.3397  0.3525
  453TMC3    C1 6796   4.556   2.102  12.081  0.2173  0.0942  0.5104
  453TMC3    C2 6797   4.483   1.982  12.080 -0.0341  0.0911 -0.0156
  453TMC3    C3 6798   4.348   2.001  12.074  0.5408 -0.2781  0.2319
  453TMC3    C4 6799   4.504   2.228  12.086 -0.6324 -0.1301  0.2052
  453TMC3    C5 6800   4.372   2.235  12.084 -0.1286 -0.8415  0.0721
  453TMC3    C6 6801   4.298   2.123  12.072 -0.4132 -0.1958 -0.0217
  453TMC3     C 6802   4.697   2.089  12.062 -0.1122  0.1855 -0.2309
  453TMC3     O 6803   0.006   1.991  12.109 -0.2852  0.0004  0.2078
  453TMC3     H 6804   4.528   1.884  12.071  0.2893  0.2780 -0.3971
  453TMC3    H1 6805   4.564   2.318  12.097  0.6928 -0.9892  0.0591
  453TMC3    H2 6806   4.190   2.136  12.076 -0.2829  1.2235 -1.0906
  453TMC3    C7 6807   4.326   2.373  12.067  0.1094  0.0633  0.4998
  453TMC3    C8 6808   4.257   1.889  12.087  0.3668  1.1445  0.9638
  453TMC3    O1 6809   4.411   2.461  12.067 -0.3589 -0.5968  0.5611
  453TMC3    O2 6810   4.144   1.910  12.042  0.6539 -0.0840 -0.2539
  454MPD2     C 6811   3.721   1.270  16.183 -0.3476 -0.4628  0.3200
  454MPD2    C1 6812   3.635   1.334  16.097 -0.5430  1.3061  0.3232
  454MPD2    C2 6813   3.611   1.467  16.106  0.3927  0.1334 -0.1010
  454MPD2    C3 6814   3.672   1.544  16.206  0.3141  0.4567 -0.1654
  454MPD2    C4 6815   3.759   1.482  16.293  1.1078 -0.0288 -0.3052
  454MPD2    C5 6816   3.787   1.346  16.279  0.6274  0.8047  0.4549
  454MPD2     H 6817   3.534   1.514  16.047 -0.0304 -0.2758  0.1241
  454MPD2    H1 6818   3.815   1.538  16.366  1.8314 -0.6184 -0.4084
  454MPD2    H2 6819   3.751   1.166  16.176 -1.0703 -0.5387 -1.7420
  454MPD2    H3 6820   3.863   1.294  16.336  0.2746 -1.6769 -1.3254
  454MPD2     N 6821   3.625   1.675  16.236  0.0110 -0.4760 -0.7728
  454MPD2    H5 6822   3.650   1.711  16.328  1.1946  0.3222 -1.3984
  454MPD2    N1 6823   3.573   1.270  15.990  0.3396 -0.2455  0.4903
  454MPD2    H7 6824   3.520   1.320  15.919  1.5915  1.4631  0.7583
  455TMC3    C1 6825   3.426   1.779  16.217  0.1752  0.5401 -0.1581
  455TMC3    C2 6826   3.441   1.831  16.345 -0.1439 -0.0021 -0.8161
  455TMC3    C3 6827   3.329   1.819  16.428 -0.5685  0.8367 -0.0150
  455TMC3    C4 6828   3.313   1.710  16.181  0.8978  0.6584  0.7076
  455TMC3    C5 6829   3.215   1.689  16.272 -0.1061  0.2872 -0.7586
  455TMC3    C6 6830   3.226   1.737  16.396 -0.6938  0.3926 -0.3029
  455TMC3     C 6831   3.547   1.741  16.149  0.8414  0.3788 -0.1539
  455TMC3     O 6832   3.539   1.732  16.025  0.3703  0.5407  0.0776
  455TMC3     H 6833   3.522   1.900  16.367  0.3144 -0.8571  0.1976
  455TMC3    H1 6834   3.308   1.675  16.079  1.4416 -0.3757  1.0369
  455TMC3    H2 6835   3.151   1.723  16.474 -1.1951  1.7310 -0.5481
  455TMC3    C7 6836   3.151   1.561  16.253 -0.5694  0.0867  0.6147
  455TMC3    C8 6837   3.309   1.905  16.538 -0.2919 -0.2431  0.4717
  455TMC3    O1 6838   3.035   1.546  16.285  0.7913 -1.2781  0.1353
  455TMC3    O2 6839   3.405   1.915  16.612  0.1441 -0.7448  0.3035
  456MPD2     C 6840   1.566   1.668  16.298 -0.0458  0.2582 -0.5770
  456MPD2    C1 6841   1.599   1.597  16.408 -0.2706  0.6232  0.2854
  456MPD2    C2 6842   1.573   1.656  16.530 -0.7165 -0.1528 -0.2757
  456MPD2    C3 6843   1.522   1.781  16.533  0.3897 -0.4012 -1.3792
  456MPD2    C4 6844   1.483   1.850  16.425 -0.0168  0.2183  0.0544
  456MPD2    C5 6845   1.512   1.791  16.299  0.0820  0.0101 -0.5169
  456MPD2     H 6846   1.599   1.599  16.619  0.2952 -0.7641 -0.9496
  456MPD2    H1 6847   1.433   1.946  16.427 -0.9066 -0.1968 -1.9299
  456MPD2    H2 6848   1.583   1.634  16.197  3.3247 -1.4338  0.5656
  456MPD2    H3 6849   1.487   1.834  16.203  0.6269 -2.1937 -1.6332
  456MPD2     N 6850   1.521   1.839  16.658 -0.2798  0.4361  1.1212
  456MPD2    H5 6851   1.550   1.772  16.729 -1.1566 -0.3602  0.7268
  456MPD2    N1 6852   1.656   1.469  16.395 -0.6050 -0.5931 -0.5491
  456MPD2    H7 6853   1.681   1.444  16.299  2.2053  1.4076 -0.3480
  457TMC3    C1 6854   1.482   2.009  16.827 -0.8591  0.0526  0.1810
  457TMC3    C2 6855   1.497   2.142  16.846 -0.1524  0.1582 -0.5359
  457TMC3    C3 6856   1.520   2.189  16.974  0.5643  0.4027 -0.0904
  457TMC3    C4 6857   1.519   1.921  16.928  0.1331  0.5992  0.2151
  457TMC3    C5 6858   1.540   1.965  17.047  0.7148 -0.5777  0.5948
  457TMC3    C6 6859   1.538   2.097  17.080  0.1808 -0.3757  0.2965
  457TMC3     C 6860   1.489   1.973  16.685 -0.4879 -0.3294 -0.3246
  457TMC3     O 6861   1.467   2.064  16.608 -0.0774  0.1180  0.2657
  457TMC3     H 6862   1.486   2.219  16.771  1.3277 -0.8385 -1.7741
  457TMC3    H1 6863   1.551   1.818  16.918 -0.5645  0.4238 -0.2632
  457TMC3    H2 6864   1.568   2.141  17.174 -0.4229 -2.2564  1.3540
  457TMC3    C7 6865   1.583   1.875  17.156 -0.4980  0.0665  0.2272
  457TMC3    C8 6866   1.528   2.324  17.015  0.2437  0.2955  0.3825
  457TMC3    O1 6867   1.630   1.764  17.131  0.2315  0.9227  0.3619
  457TMC3    O2 6868   1.475   2.355  17.120  0.5288  0.3638  0.3280
  458MPD2     C 6869   3.833   1.406  12.882  0.0314  0.3173  0.3520
  458MPD2    C1 6870   3.844   1.273  12.927 -0.5835 -0.2791 -0.3292
  458MPD2    C2 6871   3.763   1.175  12.863 -0.6945  0.1271  0.0202
  458MPD2    C3 6872   3.677   1.209  12.762  0.1664 -0.2632  0.0375
  458MPD2    C4 6873   3.662   1.340  12.730 -0.7817 -0.0969  0.2622
  458MPD2    C5 6874   3.742   1.433  12.778 -0.6057  0.6064 -0.8962
  458MPD2     H 6875   3.773   1.071  12.891 -0.9056  0.0737 -0.1037
  458MPD2    H1 6876   3.588   1.376  12.660  0.4752  1.4348 -0.2761
  458MPD2    H2 6877   3.898   1.483  12.922  1.7020 -1.2717  0.7251
  458MPD2    H3 6878   3.742   1.533  12.735 -1.4064  0.8057 -0.4483
  458MPD2     N 6879   3.595   1.113  12.709 -0.6120  0.0204 -0.3946
  458MPD2    H5 6880   3.607   1.026  12.761  0.6132  1.9722  2.5595
  458MPD2    N1 6881   3.940   1.229  13.023 -0.0665  0.1479 -0.6614
  458MPD2    H7 6882   4.028   1.279  13.035 -0.4862  0.9292 -0.8053
  459TMC3    C1 6883   4.050   1.085  13.153  0.1862  0.3353  0.3532
  459TMC3    C2 6884   4.172   1.123  13.102  0.1786 -0.0598  0.3211
  459TMC3    C3 6885   4.270   1.031  13.107  0.8253  0.0238  0.4978
  459TMC3    C4 6886   4.038   0.955  13.209 -0.3869 -0.1676  0.3606
  459TMC3    C5 6887   4.148   0.872  13.214  0.5340  0.3742  0.2853
  459TMC3    C6 6888   4.268   0.905  13.161  0.9541 -0.5661 -0.5448
  459TMC3     C 6889   3.927   1.115  13.090  0.0877  0.6390  0.0476
  459TMC3     O 6890   3.834   1.038  13.107  0.4028 -0.0736  0.7053
  459TMC3     H 6891   4.187   1.220  13.056 -1.6852  0.1279  0.1043
  459TMC3    H1 6892   3.952   0.936  13.272  0.2985  0.5383  1.5207
  459TMC3    H2 6893   4.354   0.839  13.164  0.7135 -0.8450  0.4498
  459TMC3    C7 6894   4.133   0.730  13.244  0.3212  0.2254  0.6182
  459TMC3    C8 6895   4.397   1.063  13.044  0.2850  0.0256  0.1451
  459TMC3    O1 6896   4.221   0.671  13.301 -0.0520  0.0206  0.1447
  459TMC3    O2 6897   4.480   0.974  13.054 -0.3617  0.0391  0.4397
  460MPD2     C 6898   2.658   3.952  10.925 -0.6615 -0.5809 -0.2375
  460MPD2    C1 6899   2.633   3.837  10.855  0.0628  0.1152 -0.1311
  460MPD2    C2 6900   2.598   3.848  10.726  0.8386 -0.3387 -0.2305
  460MPD2    C3 6901   2.584   3.968  10.667  0.1173 -0.1104 -0.3813
  460MPD2    C4 6902   2.599   4.081  10.738  0.1305  0.3839 -0.6546
  460MPD2    C5 6903   2.655   4.072  10.860  0.1656  0.2429 -0.3924
  460MPD2     H 6904   2.574   3.762  10.666 -2.5442  0.0163  0.6386
  460MPD2    H1 6905   2.584   4.179  10.694  0.2162  1.5250  1.8889
  460MPD2    H2 6906   2.677   3.955  11.032 -0.6883  0.0420 -0.2496
  460MPD2    H3 6907   2.669   4.162  10.918  0.3600 -0.9971  1.5038
  460MPD2     N 6908   2.520   3.970  10.542 -0.2194  0.2689  0.3176
  460MPD2    H5 6909   2.503   3.878  10.504  1.1652 -0.7685  2.2171
  460MPD2    N1 6910   2.653   3.705  10.895  0.0375  0.3259 -0.8301
  460MPD2    H7 6911   2.627   3.627  10.834  1.9278  0.1536 -1.4251
  461TMC3    C1 6912   2.408   4.049  10.346 -0.1387  0.3182  1.7010
  461TMC3    C2 6913   2.360   3.917  10.332 -0.2619 -0.3158  0.0625
  461TMC3    C3 6914   2.277   3.892  10.234  0.1801 -0.4692  0.0134
  461TMC3    C4 6915   2.350   4.146  10.270 -0.8293  0.0440  1.0855
  461TMC3    C5 6916   2.261   4.116  10.177 -0.2925 -0.6868  0.2286
  461TMC3    C6 6917   2.222   3.991  10.158  0.1787  0.7272 -0.6557
  461TMC3     C 6918   2.494   4.077  10.458 -0.3782 -0.3335  0.6308
  461TMC3     O 6919   2.534   4.194  10.458 -0.4345 -0.1748  0.0369
  461TMC3     H 6920   2.401   3.831  10.385 -2.7864 -0.8721  1.1176
  461TMC3    H1 6921   2.379   4.248  10.292  0.2791 -0.0465  0.0208
  461TMC3    H2 6922   2.176   3.969  10.063  1.2226  0.0387 -1.0013
  461TMC3    C7 6923   2.191   4.224  10.114  0.6963  0.3223 -0.3797
  461TMC3    C8 6924   2.262   3.757  10.192 -0.4130 -0.1338 -0.0384
  461TMC3    O1 6925   2.090   4.187  10.056  0.1351 -0.5575 -0.1849
  461TMC3    O2 6926   2.351   3.675  10.224  0.2775  0.3654  0.7434
  462TMC3    C1 6927   3.087   4.678   0.617 -0.1797 -0.3270 -0.1218
  462TMC3    C2 6928   3.210   4.647   0.554  0.5917 -0.4091  0.2596
  462TMC3    C3 6929   3.230   4.513   0.515  0.5787  0.5493  0.3281
  462TMC3    C4 6930   2.996   4.582   0.642  0.9648  0.1096  0.1476
  462TMC3    C5 6931   3.020   4.451   0.597 -1.0893 -0.3631  0.5026
  462TMC3    C6 6932   3.139   4.414   0.535 -0.1376  0.4851  0.3028
  462TMC3     C 6933   3.076   0.058   0.690  1.2524  0.2136  0.3379
  462TMC3     O 6934   3.004   0.054   0.793 -0.1247  0.2743  0.0612
  462TMC3     H 6935   3.291   4.718   0.539 -1.3658  1.3308 -2.0644
  462TMC3    H1 6936   2.900   4.602   0.688  0.5172  0.0003 -0.7520
  462TMC3    H2 6937   3.152   4.315   0.493 -1.5310  0.1447  0.6896
  462TMC3    C7 6938   2.907   4.362   0.574  0.1342  1.1081  0.0784
  462TMC3    C8 6939   3.353   4.488   0.451  0.3815  0.2040 -0.0143
  462TMC3    O1 6940   2.934   4.242   0.579  0.3685 -0.2810  0.1843
  462TMC3    O2 6941   3.433   4.580   0.445  0.2307  0.5496  0.0366
  463MPD2     C 6942   2.428   4.207   1.710  0.0015 -0.6799 -1.1693
  463MPD2    C1 6943   2.532   4.111   1.698 -0.4115 -0.2265 -0.8038
  463MPD2    C2 6944   2.646   4.126   1.773 -0.0503 -0.6170 -0.3057
  463MPD2    C3 6945   2.669   4.241   1.840 -0.3036  0.1234  0.3783
  463MPD2    C4 6946   2.575   4.339   1.849 -0.0220 -0.4225  0.9496
  463MPD2    C5 6947   2.459   4.321   1.780  0.2109  0.2849 -0.2375
  463MPD2     H 6948   2.721   4.049   1.761 -0.3821 -0.9191 -0.4418
  463MPD2    H1 6949   2.595   4.429   1.907 -0.9541  0.2784  0.1808
  463MPD2    H2 6950   2.333   4.208   1.658 -0.1757  0.2116 -0.8221
  463MPD2    H3 6951   2.385   4.400   1.781  0.0251  0.1346 -1.9179
  463MPD2     N 6952   2.796   4.260   1.901 -0.6120 -0.0735 -0.3201
  463MPD2    H5 6953   2.809   4.354   1.936  0.1254 -0.5247  0.6116
  463MPD2    N1 6954   2.520   4.002   1.614  0.3691 -0.1017  0.3483
  463MPD2    H7 6955   2.600   3.939   1.611  1.5786  1.3343  2.8418
  464TMC3    C1 6956   2.422   3.823   1.505  0.2324 -0.4595 -0.6910
  464TMC3    C2 6957   2.319   3.765   1.441  0.3666  0.2330 -0.6016
  464TMC3    C3 6958   2.351   3.665   1.353  0.0990 -0.1007  0.0856
  464TMC3    C4 6959   2.549   3.770   1.495 -0.6768  0.3069  0.0248
  464TMC3    C5 6960   2.574   3.672   1.410 -0.9208  0.8398 -0.0769
  464TMC3    C6 6961   2.480   3.614   1.337  0.8808  0.2925 -0.2188
  464TMC3     C 6962   2.402   3.951   1.568  0.4007  0.3243  0.3214
  464TMC3     O 6963   2.284   3.987   1.578 -0.4070  0.8622  0.3202
  464TMC3     H 6964   2.224   3.818   1.443  0.3340  0.1667 -0.4075
  464TMC3    H1 6965   2.631   3.799   1.559 -0.0223  0.0915 -0.7245
  464TMC3    H2 6966   2.488   3.520   1.284 -2.9263 -0.1946  0.0616
  464TMC3    C7 6967   2.714   3.651   1.375 -0.5337 -0.9997  0.2480
  464TMC3    C8 6968   2.257   3.591   1.263 -0.0781 -0.5057 -0.0997
  464TMC3    O1 6969   2.786   3.749   1.363 -0.3907  0.3719 -1.0335
  464TMC3    O2 6970   2.301   3.535   1.161  0.8415 -0.0370 -0.1880
  465MPD2     C 6971   0.663   1.866  17.067  0.6798  0.1437 -0.2608
  465MPD2    C1 6972   0.538   1.859  17.129 -0.3742  0.7064 -0.5933
  465MPD2    C2 6973   0.423   1.895  17.058  0.3645 -0.4622 -0.6541
  465MPD2    C3 6974   0.435   1.939  16.929  0.7736 -0.5492 -0.7669
  465MPD2    C4 6975   0.563   1.934  16.867  0.1001  0.7768  0.4027
  465MPD2    C5 6976   0.673   1.894  16.937 -0.2119 -0.4577  0.0631
  465MPD2     H 6977   0.329   1.887  17.111 -0.0672  2.3894 -0.9945
  465MPD2    H1 6978   0.570   1.948  16.760  2.1300  1.5228  0.6387
  465MPD2    H2 6979   0.757   1.844  17.117  0.3803  0.7418  0.5612
  465MPD2    H3 6980   0.768   1.894  16.884  0.1096 -2.1708  0.6501
  465MPD2     N 6981   0.315   1.971  16.862  0.0203  0.0012  0.3869
  465MPD2    H5 6982   0.231   1.950  16.913  1.5624  0.3949  3.0867
  465MPD2    N1 6983   0.521   1.825  17.266 -0.2558 -0.1985 -0.5835
  465MPD2    H7 6984   0.432   1.844  17.312 -0.1890  0.1149 -0.5842
  466TMC3    C1 6985   4.694   2.004  16.682 -0.1269  0.1374  0.5771
  466TMC3    C2 6986   4.681   2.109  16.596 -0.0424 -1.1102  0.2139
  466TMC3    C3 6987   0.047   2.177  16.557 -0.6983 -0.2908 -0.4208
  466TMC3    C4 6988   0.074   1.972  16.724 -0.3469 -0.4431 -0.3233
  466TMC3    C5 6989   0.183   2.050  16.691 -0.3398 -0.2636 -0.1347
  466TMC3    C6 6990   0.169   2.151  16.602 -0.2096  0.4727  0.6988
  466TMC3     C 6991   4.576   1.941  16.742 -0.4401  0.6927 -0.0211
  466TMC3     O 6992   4.477   2.007  16.769  0.1678 -0.0983  0.1076
  466TMC3     H 6993   4.585   2.128  16.549 -0.5391 -3.1533  0.4129
  466TMC3    H1 6994   0.085   1.885  16.788  0.7003 -2.4316 -3.1797
  466TMC3    H2 6995   0.254   2.218  16.591 -0.7191  1.2370  1.3828
  466TMC3    C7 6996   0.312   2.015  16.731 -0.4646  0.2188  0.0803
  466TMC3    C8 6997   0.036   2.303  16.494  0.1188 -0.2548 -0.6895
  466TMC3    O1 6998   0.404   2.039  16.655  0.0160 -0.4853 -0.1545
  466TMC3    O2 6999   0.132   2.350  16.429  0.1355  0.2401 -0.0877
  467TMC3    C1 7000   1.268   4.730  14.094  0.3570  0.3941 -0.0117
  467TMC3    C2 7001   1.232   0.119  14.105  0.2577  0.2221  0.2202
  467TMC3    C3 7002   1.143   0.161  14.013 -0.7770 -0.3572  0.8740
  467TMC3    C4 7003   1.197   4.638  14.024  0.0983 -0.2640 -0.1957
  467TMC3    C5 7004   1.084   4.682  13.963 -0.0441 -0.2303  0.0180
  467TMC3    C6 7005   1.059   0.074  13.943  0.0756 -0.3387  0.1299
  467TMC3     C 7006   1.408   4.694  14.129  0.2471 -0.4409  0.2230
  467TMC3     O 7007   1.475   4.639  14.045 -0.5461 -0.2852 -0.0796
  467TMC3     H 7008   1.295   0.197  14.146 -0.1477  0.0235  1.2248
  467TMC3    H1 7009   1.237   4.541  13.998 -0.8611 -0.2043 -1.9496
  467TMC3    H2 7010   0.970   0.107  13.891  1.4393  1.1934 -1.2182
  467TMC3    C7 7011   0.977   4.589  13.970  0.0181 -0.1553  0.1080
  467TMC3    C8 7012   1.157   0.295  13.957 -0.1786  0.3040  0.1325
  467TMC3    O1 7013   0.996   4.465  13.968  0.5934 -0.1383  0.0360
  467TMC3    O2 7014   1.221   0.380  14.024 -0.4353 -0.2052  0.0343
  468MPD2     C 7015   4.166   3.624  10.836 -0.3873  0.3990 -0.1316
  468MPD2    C1 7016   4.288   3.616  10.902 -0.0560  0.5321 -0.9167
  468MPD2    C2 7017   4.331   3.489  10.930 -0.2403  0.2184 -0.7550
  468MPD2    C3 7018   4.254   3.374  10.921 -0.0946  0.1728 -0.6235
  468MPD2    C4 7019   4.128   3.383  10.866 -0.6117  0.1677 -0.2646
  468MPD2    C5 7020   4.091   3.508  10.820  0.1085 -0.4667 -0.0341
  468MPD2     H 7021   4.426   3.478  10.981 -1.9697 -0.8742  2.2815
  468MPD2    H1 7022   4.062   3.299  10.843 -0.6104 -0.5263  2.2620
  468MPD2    H2 7023   4.125   3.716  10.795  0.7004  0.0205 -2.0888
  468MPD2    H3 7024   3.993   3.520  10.776  0.1757  0.4332  0.0628
  468MPD2     N 7025   4.279   3.241  10.972  0.3087 -0.6198  0.0684
  468MPD2    H5 7026   4.201   3.178  10.982  1.4788 -2.4256 -1.9660
  468MPD2    N1 7027   4.362   3.731  10.935  0.1097 -0.2352 -0.1688
  468MPD2    H7 7028   4.451   3.715  10.982 -0.6332  1.5048  1.8491
  469TMC3    C1 7029   4.411   3.943  11.032 -0.0225  1.0036  0.5589
  469TMC3    C2 7030   4.547   3.916  11.034  0.8918 -0.1585  0.4913
  469TMC3    C3 7031   4.626   3.990  11.115 -1.0774  0.4799  0.0628
  469TMC3    C4 7032   4.364   4.055  11.093  0.6090 -0.1555  0.4171
  469TMC3    C5 7033   4.451   4.131  11.171  0.2879  0.2555  0.3264
  469TMC3    C6 7034   4.579   4.102  11.186 -0.1162  0.9960 -1.3816
  469TMC3     C 7035   4.317   3.860  10.948  0.6093 -0.3366 -0.8231
  469TMC3     O 7036   4.205   3.909  10.928  0.0639 -0.4143 -0.1379
  469TMC3     H 7037   4.582   3.822  10.994  1.2603  1.5722 -3.2611
  469TMC3    H1 7038   4.258   4.080  11.086  0.1115 -2.3234  0.0499
  469TMC3    H2 7039   4.649   4.164  11.240  0.3531 -0.5076 -0.2775
  469TMC3    C7 7040   4.384   4.236  11.241  0.3049  0.0623  0.1552
  469TMC3    C8 7041   0.015   3.941  11.139 -0.2157  0.1843 -0.3497
  469TMC3    O1 7042   4.276   4.280  11.203 -0.8352  0.4394  1.0131
  469TMC3    O2 7043   0.051   3.855  11.059  0.6052 -0.2474 -0.0244
  470TMC3    C1 7044   2.154   4.166   0.745 -0.1424 -0.6033  0.8003
  470TMC3    C2 7045   2.253   4.245   0.794 -0.5876 -0.8726 -0.3829
  470TMC3    C3 7046   2.244   4.268   0.927  0.0924 -0.8330 -1.0724
  470TMC3    C4 7047   2.044   4.125   0.811 -0.1374  0.9567  1.2728
  470TMC3    C5 7048   2.033   4.161   0.941  0.2607  0.9856 -0.0414
  470TMC3    C6 7049   2.128   4.238   1.002 -0.1929 -0.3226 -0.2366
  470TMC3     C 7050   2.177   4.137   0.604  0.4127 -0.1530 -0.6414
  470TMC3     O 7051   2.287   4.130   0.559 -0.1292 -0.1184 -0.2375
  470TMC3     H 7052   2.328   4.288   0.729 -0.1954 -0.2166  0.5090
  470TMC3    H1 7053   1.967   4.059   0.774  1.2495  0.4312 -0.7020
  470TMC3    H2 7054   2.121   4.268   1.106 -0.5012 -3.1444  0.5537
  470TMC3    C7 7055   1.899   4.190   0.979  0.2373 -0.1014 -0.1389
  470TMC3    C8 7056   2.348   4.341   0.985  0.3029 -0.0450  0.0384
  470TMC3    O1 7057   1.805   4.129   0.925  0.2384 -0.5406 -0.3274
  470TMC3    O2 7058   2.328   4.408   1.086  0.1699 -0.3634 -0.1525
  471MPD2     C 7059   2.456   0.743  16.812  0.1187  0.6389 -0.7622
  471MPD2    C1 7060   2.507   0.625  16.755  0.5113 -0.1730 -0.0912
  471MPD2    C2 7061   2.640   0.597  16.778 -0.4993  0.2040  0.4298
  471MPD2    C3 7062   2.716   0.659  16.872  0.0407 -0.4272 -0.3936
  471MPD2    C4 7063   2.659   0.778  16.929  0.7059  0.1465  0.0906
  471MPD2    C5 7064   2.533   0.821  16.898 -0.3782  0.8787 -0.1290
  471MPD2     H 7065   2.675   0.500  16.745  2.1649  0.2088  3.2121
  471MPD2    H1 7066   2.712   0.844  16.997  1.1289  0.1307 -0.2233
  471MPD2    H2 7067   2.355   0.778  16.798 -0.1124 -0.0808 -0.9174
  471MPD2    H3 7068   2.485   0.902  16.952 -1.0893 -0.6637  1.5194
  471MPD2     N 7069   2.851   0.628  16.905 -0.1695 -0.8417 -1.3489
  471MPD2    H5 7070   2.892   0.684  16.979 -0.4610 -2.2214 -0.1531
  471MPD2    N1 7071   2.436   0.530  16.674 -0.1277 -0.3674 -0.3672
  471MPD2    H7 7072   2.475   0.438  16.660  0.7344 -0.0094 -0.2960
  472TMC3    C1 7073   2.283   0.451  16.523 -0.7424 -0.3153 -0.1375
  472TMC3    C2 7074   2.156   0.442  16.489  0.7441  0.7378 -1.1090
  472TMC3    C3 7075   2.132   0.393  16.364  0.0980  0.1697 -0.6559
  472TMC3    C4 7076   2.390   0.421  16.437 -0.3516 -0.2169  0.4264
  472TMC3    C5 7077   2.359   0.372  16.312 -0.0948  1.1766 -0.0609
  472TMC3    C6 7078   2.231   0.364  16.274 -0.1074 -0.3696  0.6153
  472TMC3     C 7079   2.310   0.549  16.624  0.4258  0.4868 -0.3779
  472TMC3     O 7080   2.223   0.628  16.656 -0.2726 -0.0856 -0.0352
  472TMC3     H 7081   2.075   0.453  16.560  1.0835  1.1603 -0.7893
  472TMC3    H1 7082   2.497   0.432  16.453 -0.7280  0.3554  2.5802
  472TMC3    H2 7083   2.203   0.349  16.171 -1.5774 -0.1571  0.9832
  472TMC3    C7 7084   2.428   0.248  16.284  0.3492  0.1656  0.1058
  472TMC3    C8 7085   2.009   0.324  16.325 -0.2654  0.0874 -0.3036
  472TMC3    O1 7086   2.550   0.229  16.306 -0.5202 -0.1173  0.1288
  472TMC3    O2 7087   2.020   0.232  16.242 -0.5495 -0.5552 -0.2432
  473MPD2     C 7088   2.147   2.606  13.958  0.4084  0.2954  0.3811
  473MPD2    C1 7089   2.118   2.700  13.864 -0.5196 -0.2106  0.2116
  473MPD2    C2 7090   2.149   2.833  13.882 -0.2262  0.1040  0.2956
  473MPD2    C3 7091   2.215   2.871  13.996 -0.4847 -0.3952 -0.5990
  473MPD2    C4 7092   2.255   2.784  14.087 -0.0641 -0.3332 -0.4122
  473MPD2    C5 7093   2.221   2.650  14.071 -0.4005  0.4556 -0.5378
  473MPD2     H 7094   2.105   2.906  13.815  0.5443  1.4285  1.2423
  473MPD2    H1 7095   2.323   2.828  14.160  1.2804  1.3188 -2.6698
  473MPD2    H2 7096   2.119   2.502  13.960  2.0950 -0.2668 -4.3024
  473MPD2    H3 7097   2.254   2.570  14.136 -2.1840  0.0479 -0.1080
  473MPD2     N 7098   2.258   3.000  14.016 -0.4234 -0.9042 -0.1325
  473MPD2    H5 7099   2.282   3.023  14.112  2.5695 -2.9653 -0.3753
  473MPD2    N1 7100   2.074   2.675  13.730  0.6584  0.0371  0.9065
  473MPD2    H7 7101   2.053   2.752  13.668  0.2509 -0.5131  0.3600
  474TMC3    C1 7102   2.316   3.224  13.973  0.2810 -0.1245 -1.2501
  474TMC3    C2 7103   2.288   3.337  13.903  0.0995  0.1537 -0.5537
  474TMC3    C3 7104   2.339   3.457  13.938  0.3627  0.1405 -0.5910
  474TMC3    C4 7105   2.395   3.233  14.084 -1.2488 -0.0232  0.1697
  474TMC3    C5 7106   2.455   3.352  14.118 -0.7212  0.2734 -0.0119
  474TMC3    C6 7107   2.441   3.463  14.038  0.6958  0.0940 -0.7999
  474TMC3     C 7108   2.271   3.096  13.925  0.8085 -0.1381 -0.0482
  474TMC3     O 7109   2.240   3.083  13.807 -0.5897  0.3374  0.1967
  474TMC3     H 7110   2.217   3.335  13.821 -1.1891  1.7349  0.5191
  474TMC3    H1 7111   2.404   3.143  14.143  2.0443  2.1573  3.0199
  474TMC3    H2 7112   2.484   3.558  14.068  0.4611 -0.2182  0.5176
  474TMC3    C7 7113   2.549   3.359  14.229 -0.2523  0.8268  0.0342
  474TMC3    C8 7114   2.334   3.560  13.838 -0.2538  0.3466 -0.1172
  474TMC3    O1 7115   2.602   3.469  14.255 -0.4597 -0.8550  0.6435
  474TMC3    O2 7116   2.273   3.536  13.735 -0.5264 -0.0770 -0.7296
  475MPD2     C 7117   0.188   0.999  11.510  0.3125 -0.0107 -0.7124
  475MPD2    C1 7118   0.271   1.067  11.422  0.5219 -0.0314 -0.0519
  475MPD2    C2 7119   0.216   1.088  11.293  0.3244  0.6502 -0.2618
  475MPD2    C3 7120   0.087   1.052  11.260 -0.2194  0.6148 -0.1877
  475MPD2    C4 7121   0.010   0.986  11.361  0.1027  0.2334 -0.1529
  475MPD2    C5 7122   0.062   0.952  11.482  0.0709  0.4108  0.1798
  475MPD2     H 7123   0.273   1.143  11.220 -2.1146  1.0637 -1.8464
  475MPD2    H1 7124   4.653   0.949  11.344 -0.2688 -0.1921  2.8907
  475MPD2    H2 7125   0.226   0.984  11.611  1.3299  0.2322 -1.0561
  475MPD2    H3 7126   0.009   0.898  11.559 -1.1578  0.6933 -0.4806
  475MPD2     N 7127   0.044   1.084  11.126 -0.0471 -0.1427 -0.6041
  475MPD2    H5 7128   0.092   1.158  11.076 -0.6064  1.6262  1.4740
  475MPD2    N1 7129   0.402   1.109  11.451  0.6210  0.0304 -0.5689
  475MPD2    H7 7130   0.467   1.140  11.380  1.1344 -0.8059 -0.4703
  476TMC3    C1 7131   0.559   1.214  11.582 -0.1579 -0.2903  0.6416
  476TMC3    C2 7132   0.644   1.194  11.481  0.4465  0.8341 -0.4126
  476TMC3    C3 7133   0.751   1.271  11.483 -0.2206  0.1046 -0.2149
  476TMC3    C4 7134   0.574   1.314  11.674  0.1583  0.1711 -0.0291
  476TMC3    C5 7135   0.678   1.395  11.666 -0.2106 -1.0310  0.5052
  476TMC3    C6 7136   0.780   1.374  11.570 -0.0373 -0.1439  0.4685
  476TMC3     C 7137   0.438   1.138  11.582  0.3206  0.6142  0.5602
  476TMC3     O 7138   0.368   1.142  11.686 -0.0720  0.2051 -0.4841
  476TMC3     H 7139   0.636   1.100  11.428 -3.2406  0.8570  0.1067
  476TMC3    H1 7140   0.503   1.331  11.754 -1.8272  0.1785 -1.8001
  476TMC3    H2 7141   0.878   1.420  11.576 -0.2026  0.1438  0.9336
  476TMC3    C7 7142   0.659   1.518  11.733  0.0758  0.5354 -0.0122
  476TMC3    C8 7143   0.857   1.229  11.395 -0.4303  0.7213 -0.1986
  476TMC3    O1 7144   0.604   1.505  11.843  0.2488  0.1307 -0.7400
  476TMC3    O2 7145   0.966   1.206  11.449  0.0213  0.1520  0.4200
  477MPD2     C 7146   2.937   2.828  11.962 -0.2488  0.6622  0.6016
  477MPD2    C1 7147   2.883   2.715  11.898 -0.7905  0.4961  0.0396
  477MPD2    C2 7148   2.845   2.600  11.965  0.1405  0.0308  0.5408
  477MPD2    C3 7149   2.846   2.615  12.104 -0.3920  0.4159  0.1181
  477MPD2    C4 7150   2.902   2.725  12.172 -1.1039  1.1639 -0.2040
  477MPD2    C5 7151   2.948   2.833  12.102 -0.3430  0.5636  0.9173
  477MPD2     H 7152   2.802   2.511  11.921  1.2973  0.4082 -1.3483
  477MPD2    H1 7153   2.912   2.734  12.280 -0.3195  0.5306 -0.2252
  477MPD2    H2 7154   2.970   2.916  11.908 -1.5407  1.7784  1.6479
  477MPD2    H3 7155   2.992   2.922  12.146  2.4930 -0.6218  0.4549
  477MPD2     N 7156   2.817   2.498  12.170  0.9359  0.0827 -0.4502
  477MPD2    H5 7157   2.786   2.424  12.108 -1.5283  0.4583  0.3258
  477MPD2    N1 7158   2.877   2.730  11.762 -0.3629 -0.0124 -0.2317
  477MPD2    H7 7159   2.920   2.811  11.719 -1.9281  1.4161  0.8840
  478TMC3    C1 7160   2.852   2.669  11.536 -0.4876  0.0472 -0.1828
  478TMC3    C2 7161   2.940   2.769  11.507  0.1893 -0.9001 -0.9943
  478TMC3    C3 7162   2.901   2.858  11.413 -0.0140 -0.1841  0.1377
  478TMC3    C4 7163   2.742   2.653  11.463 -0.6956 -0.3421  0.1257
  478TMC3    C5 7164   2.708   2.737  11.364  0.5256 -0.3335  0.4296
  478TMC3    C6 7165   2.782   2.848  11.347  0.2929 -0.5448 -0.2011
  478TMC3     C 7166   2.837   2.629  11.673 -0.7824  0.4348 -0.3487
  478TMC3     O 7167   2.770   2.528  11.695  0.2166 -0.1502 -0.0153
  478TMC3     H 7168   3.041   2.775  11.548  0.0864 -0.7823 -0.7642
  478TMC3    H1 7169   2.669   2.575  11.481  0.9431 -1.7089  0.8778
  478TMC3    H2 7170   2.758   2.935  11.286  0.4882 -0.7518 -0.5709
  478TMC3    C7 7171   2.592   2.700  11.281  0.2168  0.3110 -0.0127
  478TMC3    C8 7172   2.982   2.985  11.395  0.8252 -0.7879  0.0926
  478TMC3    O1 7173   2.539   2.593  11.301 -0.1887  0.2241 -0.5033
  478TMC3    O2 7174   3.102   2.984  11.417  0.6716 -0.0356  0.2994
  479MPD2     C 7175   2.261   0.069  15.150 -0.2243  0.1428  0.2335
  479MPD2    C1 7176   2.225   4.739  15.256 -0.2128 -0.7115  0.0311
  479MPD2    C2 7177   2.320   4.702  15.350 -0.3926  0.4822  0.0775
  479MPD2    C3 7178   2.452   0.004  15.342 -0.3045 -0.1776  0.4505
  479MPD2    C4 7179   2.486   0.086  15.233 -0.3891 -0.1631  0.0714
  479MPD2    C5 7180   2.387   0.118  15.143 -0.1064  0.1460  0.7345
  479MPD2     H 7181   2.301   4.630  15.429 -1.2395 -0.0816 -0.6380
  479MPD2    H1 7182   2.585   0.127  15.215  0.5638 -2.2052  0.6352
  479MPD2    H2 7183   2.188   0.088  15.071 -0.6084  0.0346  0.5659
  479MPD2    H3 7184   2.409   0.183  15.058 -0.3512  0.8923  1.2449
  479MPD2     N 7185   2.560   4.718  15.431  0.3787 -0.2768  0.4686
  479MPD2    H5 7186   2.651   4.709  15.386 -0.9008 -1.3992 -1.8499
  479MPD2    N1 7187   2.097   4.676  15.254  0.1153 -0.4379 -0.6006
  479MPD2    H7 7188   2.044   4.675  15.168  0.1121 -1.8041 -0.5823
  480TMC3    C1 7189   2.239   4.724  15.751 -0.2531 -0.1413  0.1909
  480TMC3    C2 7190   2.175   0.088  15.696 -0.4780  0.7287 -0.1378
  480TMC3    C3 7191   2.257   0.170  15.616  0.2779  0.7466 -0.3726
  480TMC3    C4 7192   2.370   4.685  15.732  0.3376 -0.2362  0.5965
  480TMC3    C5 7193   2.443   0.017  15.640  0.0175 -0.4848  0.1111
  480TMC3    C6 7194   2.383   0.127  15.584 -0.1846  0.3471  0.1748
  480TMC3     C 7195   2.166   4.636  15.840  0.4637  0.4011  0.5720
  480TMC3     O 7196   2.198   4.520  15.858  0.0315  0.1281  0.2543
  480TMC3     H 7197   2.068   0.101  15.692 -0.4810  0.3427 -1.2040
  480TMC3    H1 7198   2.411   4.593  15.773  1.3534 -0.4090 -0.7980
  480TMC3    H2 7199   2.444   0.188  15.519 -0.1014  2.0716  1.8716
  480TMC3    C7 7200   2.543   4.683  15.565 -0.3643  0.6171  1.0882
  480TMC3    C8 7201   2.190   0.220  15.499  0.2483  0.1164 -0.1477
  480TMC3    O1 7202   2.609   4.614  15.639 -0.1506 -0.4522  0.7187
  480TMC3    O2 7203   2.078   0.176  15.480 -0.1737  0.2177  0.6778
  481MPD2     C 7204   3.839   4.408  14.326 -0.4089  0.5645  0.3072
  481MPD2    C1 7205   3.726   4.343  14.374 -0.1358  0.0784 -0.0971
  481MPD2    C2 7206   3.724   4.305  14.510  1.2184  0.0529  0.3319
  481MPD2    C3 7207   3.832   4.327  14.596 -0.3825 -0.0735 -0.4126
  481MPD2    C4 7208   3.943   4.394  14.538  0.2814 -0.1719 -0.5416
  481MPD2    C5 7209   3.948   4.437  14.404  0.0845  0.6200 -0.3084
  481MPD2     H 7210   3.631   4.264  14.547  0.9824  0.5196  0.2574
  481MPD2    H1 7211   4.027   4.429  14.597 -1.0619  1.9905  0.0790
  481MPD2    H2 7212   3.842   4.442  14.223 -1.1849  1.3263  0.5371
  481MPD2    H3 7213   4.028   4.496  14.361  0.0373  0.0434 -1.2041
  481MPD2     N 7214   3.830   4.302  14.733 -0.1499  0.0353  0.9324
  481MPD2    H5 7215   3.905   4.338  14.791  1.0067 -2.4526  0.9938
  481MPD2    N1 7216   3.618   4.314  14.279  0.2519  0.3156  0.5017
  481MPD2    H7 7217   3.643   4.359  14.191  0.1317  0.3277  0.4740
  482TMC3    C1 7218   3.400   4.260  14.217 -0.1110 -0.7699  0.5096
  482TMC3    C2 7219   3.323   4.148  14.189 -0.1405 -0.0110  0.0836
  482TMC3    C3 7220   3.229   4.164  14.089  0.0020 -0.0871 -0.3127
  482TMC3    C4 7221   3.395   4.380  14.143  0.0403 -0.3568  0.2192
  482TMC3    C5 7222   3.300   4.393  14.051 -0.3609  0.1907  0.7852
  482TMC3    C6 7223   3.218   4.285  14.033  0.6839  0.5270 -0.1729
  482TMC3     C 7224   3.505   4.244  14.311  0.0934  0.3071  0.6620
  482TMC3     O 7225   3.482   4.173  14.406 -0.0145  0.1078 -0.0370
  482TMC3     H 7226   3.334   4.058  14.248  2.7050  0.3611  0.0918
  482TMC3    H1 7227   3.458   4.465  14.167 -0.9172  0.6591 -0.8300
  482TMC3    H2 7228   3.141   4.296  13.957  0.4905 -1.5946 -0.2885
  482TMC3    C7 7229   3.350   4.446  13.930  0.4467 -0.0589 -0.0854
  482TMC3    C8 7230   3.179   4.044  14.023 -0.3864  0.3988  0.0525
  482TMC3    O1 7231   3.385   4.361  13.847 -0.2114 -0.3322  0.4627
  482TMC3    O2 7232   3.167   3.941  14.086  0.3663 -0.2883  0.2066
  483TMC3    C1 7233   1.305   3.399   0.288  0.7481 -0.9309  0.5234
  483TMC3    C2 7234   1.359   3.519   0.329 -0.1528  0.5526 -0.4455
  483TMC3    C3 7235   1.395   3.536   0.458 -0.4336  0.5274  0.7975
  483TMC3    C4 7236   1.294   3.290   0.373 -0.6540 -0.7703  0.0987
  483TMC3    C5 7237   1.321   3.318   0.504  0.3421 -0.9239  1.0792
  483TMC3    C6 7238   1.376   3.438   0.550  0.0532  0.2608  0.7099
  483TMC3     C 7239   1.359   3.364   0.158 -0.0672 -1.1813 -0.5405
  483TMC3     O 7240   1.360   3.451   0.069  0.3348 -0.5465  0.4497
  483TMC3     H 7241   1.370   3.596   0.253  1.6229  0.5132 -0.2401
  483TMC3    H1 7242   1.263   3.192   0.337 -2.2075 -0.1995 -0.1107
  483TMC3    H2 7243   1.408   3.452   0.653  1.2476  1.0816  0.2332
  483TMC3    C7 7244   1.348   3.202   0.584  0.4477 -0.4600 -0.0253
  483TMC3    C8 7245   1.519   3.604   0.471 -0.3362 -0.2583 -0.2027
  483TMC3    O1 7246   1.450   3.202   0.654  0.4818 -0.0144 -0.3405
  483TMC3    O2 7247   1.577   3.613   0.362  0.2083 -0.3656 -0.2633
  484MPD2     C 7248   4.530   1.391  12.958 -0.8446 -0.1968 -0.8330
  484MPD2    C1 7249   4.533   1.258  12.964 -0.1034  0.1386 -0.4236
  484MPD2    C2 7250   4.644   1.192  12.916  0.3721  0.0207  0.0729
  484MPD2    C3 7251   0.007   1.267  12.880 -0.0192  0.2687  0.1224
  484MPD2    C4 7252   0.001   1.405  12.872  0.6467  0.3710 -1.3216
  484MPD2    C5 7253   4.631   1.471  12.909  0.5226  0.5615  0.1398
  484MPD2     H 7254   4.637   1.084  12.903  1.6711 -0.1443  0.7931
  484MPD2    H1 7255   0.085   1.468  12.844  1.6355 -0.4566 -0.2166
  484MPD2    H2 7256   4.448   1.449  12.998 -0.1133 -0.0871  0.4933
  484MPD2    H3 7257   4.631   1.580  12.907 -0.9249  0.5416 -0.8461
  484MPD2     N 7258   0.137   1.215  12.830  0.0090 -0.0917  0.2554
  484MPD2    H5 7259   0.202   1.288  12.803  0.5992 -1.7057 -2.6975
  484MPD2    N1 7260   4.409   1.197  13.000  0.2883  0.2559 -0.3311
  484MPD2    H7 7261   4.334   1.261  13.022 -0.3605 -0.6369  0.0381
  485TMC3    C1 7262   0.307   1.072  12.766  0.0689  0.1779  0.9610
  485TMC3    C2 7263   0.378   1.004  12.858 -0.1281  0.0040  0.0576
  485TMC3    C3 7264   0.500   1.052  12.889  0.2547  0.0369 -0.2529
  485TMC3    C4 7265   0.366   1.183  12.694  0.7059 -0.0473  0.5093
  485TMC3    C5 7266   0.499   1.199  12.713 -0.1163 -0.2716 -0.2173
  485TMC3    C6 7267   0.563   1.145  12.811  0.0538 -0.2463 -0.6984
  485TMC3     C 7268   0.165   1.083  12.799  0.2977 -0.1477 -0.1217
  485TMC3     O 7269   0.093   0.984  12.808  0.5360 -0.4267 -0.4688
  485TMC3     H 7270   0.338   0.934  12.930 -0.6686  0.2632  0.0110
  485TMC3    H1 7271   0.312   1.246  12.625 -0.0336  0.1874  1.2994
  485TMC3    H2 7272   0.654   1.191  12.847 -0.7150  0.2092  0.6735
  485TMC3    C7 7273   0.581   1.228  12.594 -0.7135 -0.6017  0.5262
  485TMC3    C8 7274   0.604   0.952  12.884  0.3927  0.4456 -0.8618
  485TMC3    O1 7275   0.529   1.281  12.496 -0.2468  0.3486 -0.2084
  485TMC3    O2 7276   0.686   0.963  12.796  0.1325 -0.7357 -0.3097
  486MPD2     C 7277   1.847   4.431  13.310 -0.8805 -0.6962 -0.1922
  486MPD2    C1 7278   1.782   4.401  13.192 -0.1808 -0.4254  1.0750
  486MPD2    C2 7279   1.728   4.508  13.120  0.3546 -0.4913 -0.4574
  486MPD2    C3 7280   1.722   4.634  13.173 -0.4930  0.2714  0.4021
  486MPD2    C4 7281   1.787   4.660  13.288 -0.1341  1.1970  0.2027
  486MPD2    C5 7282   1.845   4.559  13.354  0.2677  0.8423  0.2285
  486MPD2     H 7283   1.686   4.501  13.021  1.2764  1.3925 -0.9853
  486MPD2    H1 7284   1.779   0.015  13.332  0.5098  1.2972  0.0927
  486MPD2    H2 7285   1.886   4.353  13.374 -0.3629  0.0320  0.3915
  486MPD2    H3 7286   1.896   4.577  13.448 -1.4726 -1.4677  1.6176
  486MPD2     N 7287   1.644   4.725  13.095 -0.1901 -0.1106  0.4595
  486MPD2    H5 7288   1.602   4.704  13.004  1.9419  1.4284 -0.8739
  486MPD2    N1 7289   1.775   4.272  13.152 -0.5640 -0.0452 -0.2304
  486MPD2    H7 7290   1.818   4.207  13.218 -0.7811 -0.4917 -0.5272
  487TMC3    C1 7291   1.712   4.083  13.043 -0.4637  0.8353 -0.4443
  487TMC3    C2 7292   1.593   4.020  13.024  0.8801 -0.0698  0.1154
  487TMC3    C3 7293   1.580   3.893  13.064  0.1042  0.4911 -0.5013
  487TMC3    C4 7294   1.820   4.022  13.101  0.0645  0.3925  0.1943
  487TMC3    C5 7295   1.796   3.894  13.146 -0.3210  0.1748  0.0793
  487TMC3    C6 7296   1.690   3.817  13.098  1.1316 -0.3498  0.0236
  487TMC3     C 7297   1.706   4.222  13.043 -0.0282  0.0547  0.1805
  487TMC3     O 7298   1.634   4.282  12.966 -0.1404  0.2970 -0.3798
  487TMC3     H 7299   1.506   4.085  13.012  0.5134 -1.0473 -2.4294
  487TMC3    H1 7300   1.908   4.081  13.124  0.4214  0.3268 -0.9886
  487TMC3    H2 7301   1.674   3.720  13.143 -0.4892 -0.7049 -1.3158
  487TMC3    C7 7302   1.792   3.913  13.296 -0.2174 -0.5012 -0.4723
  487TMC3    C8 7303   1.456   3.881  13.141 -0.7598 -0.5360  1.2238
  487TMC3    O1 7304   1.807   4.035  13.327 -0.1013  0.6172  0.3207
  487TMC3    O2 7305   1.414   3.987  13.194  0.1360  0.1349 -0.2281
  488MPD2     C 7306   2.299   1.755  16.631 -0.2722  0.5112 -0.0351
  488MPD2    C1 7307   2.248   1.880  16.638  0.6408  0.5406  0.2010
  488MPD2    C2 7308   2.173   1.911  16.752 -0.1094  0.1915  1.1064
  488MPD2    C3 7309   2.170   1.831  16.861  0.1176  0.6106  0.6125
  488MPD2    C4 7310   2.235   1.710  16.860 -0.4049 -0.2132  0.4299
  488MPD2    C5 7311   2.302   1.681  16.746  0.3355  0.9980 -0.0341
  488MPD2     H 7312   2.144   2.016  16.759  0.1683  0.2910  0.8041
  488MPD2    H1 7313   2.249   1.648  16.948  0.1230  0.8729  1.1181
  488MPD2    H2 7314   2.343   1.706  16.545 -0.2236 -1.5930  1.1825
  488MPD2    H3 7315   2.352   1.586  16.739 -2.5248 -0.5902  1.2164
  488MPD2     N 7316   2.100   1.870  16.978 -0.2417  0.4495  0.0205
  488MPD2    H5 7317   2.034   1.947  16.972 -0.2155  0.5457  1.0320
  488MPD2    N1 7318   2.246   1.967  16.530  0.3517  0.3863 -0.5238
  488MPD2    H7 7319   2.208   2.060  16.543 -0.1693  0.0770  0.1881
  489TMC3    C1 7320   1.979   1.868  17.184 -0.1035 -0.2208  0.1201
  489TMC3    C2 7321   1.893   1.956  17.125 -0.5553  0.2280 -0.1790
  489TMC3    C3 7322   1.860   2.065  17.209 -0.2800  0.1399  0.9478
  489TMC3    C4 7323   2.010   1.863  17.318  0.5551  0.0440 -0.1572
  489TMC3    C5 7324   1.953   1.961  17.392 -0.0189 -0.6791  0.4013
  489TMC3    C6 7325   1.903   2.077  17.340 -0.2548  0.5163 -0.3013
  489TMC3     C 7326   2.079   1.806  17.098 -0.2939  0.0783  0.1508
  489TMC3     O 7327   2.132   1.708  17.149 -0.8254 -0.0260  0.3913
  489TMC3     H 7328   1.870   1.953  17.019  0.4779  0.3339 -0.4010
  489TMC3    H1 7329   2.071   1.783  17.359  1.4553 -0.6340 -2.8366
  489TMC3    H2 7330   1.853   2.152  17.399 -1.3295 -1.2601  1.0450
  489TMC3    C7 7331   1.955   1.955  17.538  0.4522  1.1106  0.3823
  489TMC3    C8 7332   1.879   2.190  17.135 -0.4101 -0.2433  0.0521
  489TMC3    O1 7333   1.924   2.061  17.589 -0.0198 -0.0848  0.0259
  489TMC3    O2 7334   1.934   2.169  17.026  0.5223 -0.9692 -0.3286
  490MPD2     C 7335   2.911   1.793  17.215 -0.2065 -0.4477  0.1267
  490MPD2    C1 7336   2.915   1.726  17.338 -0.2719 -0.2419 -0.4604
  490MPD2    C2 7337   2.990   1.777  17.437  0.0703  0.1978 -0.2095
  490MPD2    C3 7338   3.086   1.874  17.420 -0.5033 -0.1886 -0.1178
  490MPD2    C4 7339   3.069   1.948  17.310 -0.2848 -0.6159  0.1018
  490MPD2    C5 7340   2.985   1.909  17.205  0.2115  0.0118  0.4602
  490MPD2     H 7341   2.985   1.714  17.525 -0.4688 -1.3051 -1.3279
  490MPD2    H1 7342   3.115   2.046  17.302 -1.0342 -0.1556  1.4973
  490MPD2    H2 7343   2.854   1.759  17.129  1.5602  1.5065 -1.8109
  490MPD2    H3 7344   2.978   1.969  17.115  0.4789 -0.7630 -0.0823
  490MPD2     N 7345   3.180   1.907  17.523  0.3870  0.7008  0.1085
  490MPD2    H5 7346   3.244   1.983  17.501  1.0760  0.3667  0.9622
  490MPD2    N1 7347   2.840   1.611  17.369  0.1598  0.4859 -0.2980
  490MPD2    H7 7348   2.864   1.556  17.451 -1.6734  0.8185  0.4674
  491TMC3    C1 7349   2.712   1.423  17.337 -0.0286  0.6209  0.4340
  491TMC3    C2 7350   2.715   1.396  17.475 -0.5087 -0.3373  0.0209
  491TMC3    C3 7351   2.645   1.285  17.525 -0.2888 -0.3073  0.6419
  491TMC3    C4 7352   2.623   1.345  17.260 -0.3305  0.1818  0.1276
  491TMC3    C5 7353   2.555   1.239  17.313  0.6998  0.1416  0.3507
  491TMC3    C6 7354   2.571   1.200  17.444 -0.4735  0.2137 -0.0524
  491TMC3     C 7355   2.760   1.544  17.283 -0.1704 -0.8396  0.6664
  491TMC3     O 7356   2.737   1.566  17.164 -0.4757  0.4280 -0.3787
  491TMC3     H 7357   2.780   1.444  17.547  1.7538 -0.5200 -1.9142
  491TMC3    H1 7358   2.608   1.371  17.156 -1.9010 -0.0630  0.2872
  491TMC3    H2 7359   2.518   1.117  17.489 -1.7304  0.1741 -1.6165
  491TMC3    C7 7360   2.444   1.191  17.245  0.6489 -0.3703 -0.7069
  491TMC3    C8 7361   2.655   1.265  17.668 -0.6969  0.4104 -0.0861
  491TMC3    O1 7362   2.405   1.078  17.281  0.2062  0.2313 -0.1983
  491TMC3    O2 7363   2.641   1.148  17.694  0.5448  0.0069 -0.1896
  492MPD2     C 7364   2.393   1.425  11.361 -0.2541  0.4694  0.4551
  492MPD2    C1 7365   2.322   1.318  11.317  0.5308 -0.4848 -0.1830
  492MPD2    C2 7366   2.336   1.199  11.385 -0.2375 -0.1426 -0.7891
  492MPD2    C3 7367   2.404   1.199  11.506  0.0105 -0.7843  0.5183
  492MPD2    C4 7368   2.484   1.302  11.547 -0.7129  0.1578  0.5765
  492MPD2    C5 7369   2.470   1.419  11.473  0.6014 -0.1560 -0.0982
  492MPD2     H 7370   2.282   1.111  11.351 -0.4817 -0.0706 -0.5897
  492MPD2    H1 7371   2.551   1.284  11.630  0.7291  3.1407  0.0391
  492MPD2    H2 7372   2.395   1.521  11.311 -1.9131  0.4944  0.4389
  492MPD2    H3 7373   2.521   1.508  11.510  1.4300  0.0215 -1.6837
  492MPD2     N 7374   2.417   1.080  11.587 -0.5053 -0.2360  0.4176
  492MPD2    H5 7375   2.487   1.092  11.659 -0.0333  0.9070 -0.2230
  492MPD2    N1 7376   2.250   1.340  11.196  0.3951 -0.0513 -0.0689
  492MPD2    H7 7377   2.275   1.425  11.145 -1.9185  0.0093 -1.0645
  493TMC3    C1 7378   2.070   1.328  11.040  0.3678 -0.2351  0.3631
  493TMC3    C2 7379   2.080   1.467  11.020  0.4226 -0.4665 -0.0847
  493TMC3    C3 7380   2.009   1.525  10.920 -0.2620  0.4294  0.2444
  493TMC3    C4 7381   1.997   1.250  10.962 -0.0691 -0.1778  0.4924
  493TMC3    C5 7382   1.923   1.316  10.861  0.8234  0.6965  0.1311
  493TMC3    C6 7383   1.938   1.448  10.834  0.4867 -0.1746 -0.0436
  493TMC3     C 7384   2.154   1.261  11.147  0.3257 -0.3475  0.1788
  493TMC3     O 7385   2.121   1.145  11.166 -0.2633 -0.2937  0.0723
  493TMC3     H 7386   2.121   1.523  11.103 -2.0587 -0.2512  1.0172
  493TMC3    H1 7387   1.986   1.145  10.988 -1.6513 -0.6136 -1.9027
  493TMC3    H2 7388   1.872   1.495  10.762 -1.4948 -1.2564  1.0857
  493TMC3    C7 7389   1.821   1.240  10.793 -0.5199 -0.1180 -0.2246
  493TMC3    C8 7390   1.999   1.670  10.909  0.1037 -1.0138 -0.1608
  493TMC3    O1 7391   1.764   1.296  10.696 -0.6582  0.3724 -0.4132
  493TMC3    O2 7392   1.929   1.708  10.814  0.0451  0.1468  0.2841
  494TMC3    C1 7393   2.756   3.413   0.173 -0.0714 -0.9055 -0.4418
  494TMC3    C2 7394   2.858   3.474   0.240 -0.6554 -0.1829  0.2070
  494TMC3    C3 7395   2.983   3.500   0.189 -0.0133  0.2720  0.4315
  494TMC3    C4 7396   2.768   3.383   0.038  0.8870 -0.1021 -0.6626
  494TMC3    C5 7397   2.889   3.422  17.749 -0.8923 -0.0656 -0.5721
  494TMC3    C6 7398   2.993   3.481   0.052  0.0872 -0.2802 -0.4803
  494TMC3     C 7399   2.650   3.358   0.261  0.6819 -0.1730  0.7131
  494TMC3     O 7400   2.617   3.423   0.357 -0.0209 -0.3981 -0.2339
  494TMC3     H 7401   2.849   3.488   0.347 -1.7207 -0.4279  0.1484
  494TMC3    H1 7402   2.695   3.316  17.766 -0.2797  0.9496 -0.3296
  494TMC3    H2 7403   3.085   3.504  17.769 -0.4075 -0.3023 -1.3291
  494TMC3    C7 7404   2.931   3.371  17.620  0.3578  0.1575  0.6054
  494TMC3    C8 7405   3.060   3.392   0.249 -0.9893  0.6501  0.0759
  494TMC3    O1 7406   3.044   3.321  17.615  0.3651  0.6260  0.2818
  494TMC3    O2 7407   3.052   3.379   0.371 -0.6977 -0.0985  0.2752
  495TMC3    C1 7408   2.555   0.716  14.716 -0.0983  0.4376  0.1589
  495TMC3    C2 7409   2.443   0.781  14.671 -0.1998  0.8437  0.6121
  495TMC3    C3 7410   2.349   0.822  14.769  0.0418 -0.0034  0.0897
  495TMC3    C4 7411   2.561   0.676  14.845  0.8065  0.2983 -0.3459
  495TMC3    C5 7412   2.469   0.716  14.937  0.3421  0.5355 -1.2862
  495TMC3    C6 7413   2.365   0.795  14.899 -0.5255  0.3730 -0.6474
  495TMC3     C 7414   2.607   0.621  14.627  0.7129  0.6916  0.0366
  495TMC3     O 7415   2.527   0.596  14.539 -0.4102  0.1508  0.2098
  495TMC3     H 7416   2.417   0.786  14.566  1.8859  1.0358  0.1212
  495TMC3    H1 7417   2.642   0.613  14.879 -0.5875 -0.3428  1.7778
  495TMC3    H2 7418   2.302   0.849  14.969 -0.2999  3.4062 -2.7800
  495TMC3    C7 7419   2.443   0.625  15.040  0.6532 -0.6624  0.5279
  495TMC3    C8 7420   2.222   0.772  14.738 -0.4821  0.0252 -0.2829
  495TMC3    O1 7421   2.532   0.553  15.081 -0.7062 -0.0087 -0.2775
  495TMC3    O2 7422   2.177   0.680  14.808 -0.1510  0.0867  0.1550
  496MPD2     C 7423   4.589   0.445  15.927 -0.6836  0.2112  0.4203
  496MPD2    C1 7424   4.567   0.317  15.876  0.4333  0.0803 -0.1604
  496MPD2    C2 7425   4.471   0.240  15.939  0.3390  0.1166  0.8159
  496MPD2    C3 7426   4.430   0.274  16.069 -0.4725 -0.3217 -0.3213
  496MPD2    C4 7427   4.469   0.385  16.127 -0.5455 -0.0315  0.4699
  496MPD2    C5 7428   4.541   0.474  16.057  0.3805  0.2094 -0.0268
  496MPD2     H 7429   4.447   0.142  15.899  2.1147 -0.0045  0.0412
  496MPD2    H1 7430   4.420   0.411  16.220 -2.7870 -0.4335 -0.5865
  496MPD2    H2 7431   4.660   0.512  15.881 -0.3963 -1.2007 -1.1892
  496MPD2    H3 7432   4.574   0.569  16.098  0.8121  0.1046 -0.1388
  496MPD2     N 7433   4.345   0.187  16.143  0.0949  0.0197 -0.1024
  496MPD2    H5 7434   4.332   0.225  16.236 -0.5062  0.1424 -0.2397
  496MPD2    N1 7435   4.629   0.274  15.758 -0.2422 -0.7793 -0.3906
  496MPD2    H7 7436   4.713   0.322  15.726 -1.5366  0.3441 -2.0757
  497TMC3    C1 7437   4.195   0.013  16.191 -0.4763 -0.1880  0.3374
  497TMC3    C2 7438   4.069   4.726  16.153  0.0144 -0.6808  0.2233
  497TMC3    C3 7439   4.000   4.657  16.251  0.4691  0.0537  0.3625
  497TMC3    C4 7440   4.245   0.008  16.315  0.5347  0.2389  0.2206
  497TMC3    C5 7441   4.169   4.683  16.412 -0.0046 -0.0515  0.6593
  497TMC3    C6 7442   4.048   4.630  16.376 -0.5380 -0.8301 -0.2769
  497TMC3     C 7443   4.282   0.072  16.098  0.5560 -0.8182  0.3185
  497TMC3     O 7444   4.270   0.039  15.984 -0.1800  0.0955  0.2164
  497TMC3     H 7445   4.039   4.728  16.049 -2.3720 -1.3411  0.8954
  497TMC3    H1 7446   4.350   0.024  16.334 -0.0146  1.7882  1.9127
  497TMC3    H2 7447   3.986   4.572  16.443 -0.7633  1.1338  1.2231
  497TMC3    C7 7448   4.204   4.666  16.557  0.0190 -0.2333 -0.0454
  497TMC3    C8 7449   3.888   4.578  16.207 -0.0567  0.4866 -0.7305
  497TMC3    O1 7450   4.140   4.593  16.629 -0.1038 -0.1696  0.1361
  497TMC3    O2 7451   3.864   4.471  16.261 -0.0492 -0.4569  0.4274
  498MPD2     C 7452   0.451   0.565   9.560  0.0973  0.0600  0.7090
  498MPD2    C1 7453   0.484   0.615   9.683  0.1905 -0.2560 -0.6850
  498MPD2    C2 7454   0.431   0.569   9.801 -0.7498  0.4360 -0.3361
  498MPD2    C3 7455   0.330   0.473   9.799 -0.8056  0.0077  0.1167
  498MPD2    C4 7456   0.286   0.428   9.672 -0.0074  0.2190  0.6275
  498MPD2    C5 7457   0.346   0.477   9.556 -0.0030  0.0735  0.5847
  498MPD2     H 7458   0.460   0.618   9.894  0.3237 -1.4529  0.3111
  498MPD2    H1 7459   0.203   0.361   9.652 -1.9804  1.6642  3.7819
  498MPD2    H2 7460   0.490   0.604   9.466 -0.3654 -3.0595 -0.8035
  498MPD2    H3 7461   0.302   0.440   9.464  1.2852 -3.0346  1.2149
  498MPD2     N 7462   0.267   0.435   9.916  0.4695 -0.1184 -0.0369
  498MPD2    H5 7463   0.303   0.465  10.006 -0.2761 -1.0371  0.5693
  498MPD2    N1 7464   0.564   0.724   9.701  0.1672  0.3264  0.2665
  498MPD2    H7 7465   0.585   0.739   9.800  3.7805  1.5703 -0.7062
  499TMC3    C1 7466   0.586   0.960   9.677  0.1202 -0.4508  0.1917
  499TMC3    C2 7467   0.602   1.067   9.597  0.1228  0.0385 -0.2600
  499TMC3    C3 7468   0.611   1.191   9.659  0.2040 -0.0586  0.8888
  499TMC3    C4 7469   0.589   0.971   9.817 -0.0088  0.8045  0.1930
  499TMC3    C5 7470   0.607   1.096   9.867  0.4227 -0.5709 -1.0435
  499TMC3    C6 7471   0.618   1.205   9.792 -0.1083  0.4802 -0.5421
  499TMC3     C 7472   0.577   0.831   9.608  0.2608  0.2161 -0.1087
  499TMC3     O 7473   0.550   0.837   9.486 -0.0154  0.3808  0.3757
  499TMC3     H 7474   0.615   1.060   9.489  2.3833 -0.3513  0.0349
  499TMC3    H1 7475   0.538   0.895   9.875  0.4900 -0.1449 -0.6092
  499TMC3    H2 7476   0.623   1.303   9.837  0.4649  0.2375 -0.0767
  499TMC3    C7 7477   0.530   1.129   9.986  0.2209 -1.0295  0.9999
  499TMC3    C8 7478   0.632   1.304   9.570 -0.0949 -0.0169 -0.7269
  499TMC3    O1 7479   0.517   1.245  10.024 -0.3947  0.6707 -0.0815
  499TMC3    O2 7480   0.654   1.281   9.449 -0.4222  0.4467  0.8579
  500MPD2     C 7481   1.278   2.428   9.879  0.1031 -0.1110 -0.9854
  500MPD2    C1 7482   1.281   2.380  10.007 -0.3064  0.4090 -0.8551
  500MPD2    C2 7483   1.189   2.282  10.050  0.2700 -0.3720 -0.0747
  500MPD2    C3 7484   1.091   2.237   9.967  0.4341  0.0959  0.0315
  500MPD2    C4 7485   1.085   2.288   9.839  0.0950 -0.2204 -0.5871
  500MPD2    C5 7486   1.178   2.380   9.796 -0.1940 -0.3018  0.1739
  500MPD2     H 7487   1.197   2.255  10.154  1.3718 -1.8069 -0.5246
  500MPD2    H1 7488   1.002   2.279   9.769 -0.4355  0.1674 -0.0082
  500MPD2    H2 7489   1.342   2.503   9.835  1.2168 -1.2099 -1.2155
  500MPD2    H3 7490   1.167   2.431   9.701  0.6750 -1.4456 -0.5352
  500MPD2     N 7491   1.006   2.133   9.995  0.1997 -0.0881 -0.4872
  500MPD2    H5 7492   0.919   2.116   9.946 -1.2587  1.6917  1.4643
  500MPD2    N1 7493   1.376   2.423  10.102  0.4336 -0.8791  0.5864
  500MPD2    H7 7494   1.382   2.373  10.190  1.8314 -3.1562 -0.8281
  501TMC3    C1 7495   1.518   2.583  10.192  0.3722 -0.4230 -0.9681
  501TMC3    C2 7496   1.569   2.712  10.185  0.3354  0.3374  0.2649
  501TMC3    C3 7497   1.599   2.772  10.303 -0.7379  0.3885  0.6030
  501TMC3    C4 7498   1.486   2.516  10.313  0.0869 -0.3074 -0.2194
  501TMC3    C5 7499   1.515   2.582  10.426 -0.1203  0.2932 -0.2473
  501TMC3    C6 7500   1.575   2.706  10.420 -0.0154 -0.2537  0.4117
  501TMC3     C 7501   1.470   2.523  10.071 -0.3980  0.6722 -0.3121
  501TMC3     O 7502   1.495   2.586   9.973  0.4696  0.0418  0.1661
  501TMC3     H 7503   1.591   2.759  10.090 -1.1615  2.1320  0.7941
  501TMC3    H1 7504   1.465   2.411  10.324 -1.1654  0.2325  2.7478
  501TMC3    H2 7505   1.593   2.774  10.502  1.0910 -1.4118  1.1218
  501TMC3    C7 7506   1.550   2.495  10.539 -0.0101 -0.4069  0.4584
  501TMC3    C8 7507   1.722   2.850  10.309 -0.0741  0.3518  0.0419
  501TMC3    O1 7508   1.480   2.396  10.568 -0.1224 -0.1536 -0.4397
  501TMC3    O2 7509   1.796   2.812  10.403 -0.2387 -0.3476 -0.7723
  502TMC3    C1 7510   1.377   0.711  15.074 -0.4056 -0.1850  0.5291
  502TMC3    C2 7511   1.384   0.849  15.033 -0.0259  0.1939 -0.7238
  502TMC3    C3 7512   1.264   0.921  15.032  0.2191 -0.3691  0.4476
  502TMC3    C4 7513   1.260   0.656  15.101 -1.4703  0.3352 -0.7233
  502TMC3    C5 7514   1.148   0.730  15.106 -0.0015 -0.1957  0.1288
  502TMC3    C6 7515   1.145   0.863  15.071 -0.6198 -0.1658  0.7429
  502TMC3     C 7516   1.498   0.667  15.129 -0.3926  0.6965  0.1388
  502TMC3     O 7517   1.602   0.709  15.083  0.5545 -0.1365 -0.1554
  502TMC3     H 7518   1.480   0.890  15.005 -0.4670  1.0757 -0.9557
  502TMC3    H1 7519   1.255   0.552  15.132 -3.0247  1.0856  1.4780
  502TMC3    H2 7520   1.063   0.933  15.087 -1.7181 -1.2914 -0.0348
  502TMC3    C7 7521   1.041   0.666  15.191 -0.3338  0.5135  0.0236
  502TMC3    C8 7522   1.275   1.066  15.036  0.0564 -0.1863 -0.1234
  502TMC3    O1 7523   1.059   0.555  15.237  0.1677  0.1100  0.0807
  502TMC3    O2 7524   1.187   1.131  15.091 -0.2838 -0.0030 -0.1551
  503MPD2     C 7525   3.896   1.611  16.962 -0.8537 -0.1628  0.4435
  503MPD2    C1 7526   3.852   1.686  17.068 -0.1768 -0.4316  0.3934
  503MPD2    C2 7527   3.886   1.645  17.199  0.1087 -0.0100  0.6489
  503MPD2    C3 7528   3.966   1.532  17.217  0.7718  0.3501  0.7027
  503MPD2    C4 7529   4.005   1.459  17.099 -0.0232 -0.0378  0.3663
  503MPD2    C5 7530   3.958   1.489  16.981 -0.3192  0.5453  0.1807
  503MPD2     H 7531   3.868   1.703  17.288 -1.6739 -0.8391  0.8399
  503MPD2    H1 7532   4.065   1.369  17.101  0.1150  0.0460  0.0322
  503MPD2    H2 7533   3.884   1.634  16.857  1.5704  0.6788  0.3387
  503MPD2    H3 7534   3.983   1.431  16.892  0.3742  0.7327  0.2526
  503MPD2     N 7535   4.033   1.514  17.342 -0.0028 -0.3965 -0.2611
  503MPD2    H5 7536   4.011   1.579  17.417  0.0602 -0.3063 -0.3217
  503MPD2    N1 7537   3.788   1.811  17.054 -0.5208 -0.7753  0.1036
  503MPD2    H7 7538   3.780   1.869  17.138 -2.1399 -1.1677  0.2163
  504TMC3    C1 7539   4.211   1.438  17.482 -1.1876 -0.6148  0.2543
  504TMC3    C2 7540   4.138   1.457  17.595 -0.1030  0.4956 -0.5483
  504TMC3    C3 7541   4.199   1.410  17.716  0.3869  0.5534 -0.3584
  504TMC3    C4 7542   4.343   1.391  17.486 -0.4078 -0.0573  0.6448
  504TMC3    C5 7543   4.400   1.364  17.607 -0.0326 -0.7133  0.5035
  504TMC3    C6 7544   4.324   1.371  17.720  0.2745 -0.0853 -0.0971
  504TMC3     C 7545   4.139   1.423  17.352  0.6864 -0.4095 -1.0129
  504TMC3     O 7546   4.190   1.347  17.276 -0.0943  0.3936  0.6120
  504TMC3     H 7547   4.035   1.490  17.585 -1.0269 -1.4104  2.5643
  504TMC3    H1 7548   4.391   1.371  17.391 -0.3215  0.2530  0.6217
  504TMC3    H2 7549   4.385   1.353   0.036  1.7707  0.1801 -1.0792
  504TMC3    C7 7550   4.544   1.352  17.625 -0.2270 -0.1005 -0.1389
  504TMC3    C8 7551   4.120   1.420   0.069  0.0557  0.4283 -0.2169
  504TMC3    O1 7552   4.588   1.296  17.726 -0.1266 -0.0894  0.3369
  504TMC3    O2 7553   4.004   1.459   0.067  0.0298 -0.1849 -0.1058
  505MPD2     C 7554   4.293   0.463  11.067  0.1897  0.4765 -0.6861
  505MPD2    C1 7555   4.403   0.391  11.097 -0.2138 -0.3548  0.2214
  505MPD2    C2 7556   4.524   0.460  11.123 -0.1537  0.1457 -0.0045
  505MPD2    C3 7557   4.532   0.599  11.106 -0.2836  0.0761 -0.2737
  505MPD2    C4 7558   4.424   0.671  11.066  0.7358  0.1110  0.2479
  505MPD2    C5 7559   4.302   0.600  11.055  0.0415  0.1044  0.0482
  505MPD2     H 7560   4.606   0.405  11.168 -1.4145  0.1494  2.2833
  505MPD2    H1 7561   4.426   0.779  11.068  0.6656  0.1227 -0.4327
  505MPD2    H2 7562   4.197   0.413  11.062  0.8159 -0.8135  0.2083
  505MPD2    H3 7563   4.209   0.657  11.056 -0.4373 -0.6900  1.3913
  505MPD2     N 7564   4.648   0.676  11.139 -0.3771 -0.3371 -0.0311
  505MPD2    H5 7565   4.654   0.775  11.121 -0.3705 -0.3079  0.1311
  505MPD2    N1 7566   4.384   0.250  11.109 -0.2378  0.7455  0.0517
  505MPD2    H7 7567   4.297   0.216  11.070 -0.4943 -0.1174  1.3629
  506TMC3    C1 7568   4.445   0.027  11.169  0.4028 -0.1123 -0.1477
  506TMC3    C2 7569   4.444   4.718  11.043 -0.0105 -0.1839 -0.3707
  506TMC3    C3 7570   4.491   4.592  11.026 -0.0712 -0.2714  0.5543
  506TMC3    C4 7571   4.514   4.707  11.266  0.1544  0.1488  0.2745
  506TMC3    C5 7572   4.584   4.595  11.242 -0.0375  0.1872 -0.1359
  506TMC3    C6 7573   4.558   4.526  11.125  1.0466  0.1873  0.3971
  506TMC3     C 7574   4.477   0.171  11.178  0.6979 -0.0304 -0.3508
  506TMC3     O 7575   4.563   0.211  11.257  0.0868  0.1761  0.2150
  506TMC3     H 7576   4.394   0.017  10.956 -0.5152  1.6575  0.8311
  506TMC3    H1 7577   4.522   0.001  11.367 -2.4915  1.2219  0.0820
  506TMC3    H2 7578   4.619   4.441  11.096 -1.5058 -0.5422 -2.7406
  506TMC3    C7 7579   4.721   4.600  11.266  0.3411  0.3833 -0.3817
  506TMC3    C8 7580   4.480   4.533  10.896 -0.0450  0.3786 -0.7506
  506TMC3    O1 7581   0.042   4.496  11.255 -0.0972  0.3585 -0.3291
  506TMC3    O2 7582   4.478   4.412  10.890 -0.1973 -0.5900 -0.0913
  507TMC3    C1 7583   4.734   1.328  14.994 -0.0297  0.0969 -0.8368
  507TMC3    C2 7584   0.021   1.229  14.901  0.3539  0.5282 -0.4779
  507TMC3    C3 7585   0.082   1.266  14.782 -0.7837  0.1050 -0.1425
  507TMC3    C4 7586   0.033   1.457  14.974  0.0447 -0.2432  0.1932
  507TMC3    C5 7587   0.095   1.478  14.850 -0.0642  0.4899  0.2793
  507TMC3    C6 7588   0.116   1.392  14.747 -0.2520  0.0798  0.1295
  507TMC3     C 7589   4.658   1.307  15.117  0.3212  1.1790 -0.0048
  507TMC3     O 7590   4.673   1.382  15.212 -0.4955  0.0288  0.3201
  507TMC3     H 7591   4.741   1.126  14.924 -0.3856  0.8623  0.2713
  507TMC3    H1 7592   0.005   1.531  15.048  0.8010 -0.2264  0.4614
  507TMC3    H2 7593   0.182   1.417  14.665 -0.0929  0.1721  0.2870
  507TMC3    C7 7594   0.055   1.603  14.797 -0.8683  0.6038 -0.0558
  507TMC3    C8 7595   0.006   1.212  14.668 -0.3353 -0.1968  0.0064
  507TMC3    O1 7596   0.038   1.598  14.674 -0.1818  0.2604 -0.3582
  507TMC3    O2 7597   4.716   1.093  14.668  0.3478 -0.4245 -0.0046
  508MPD2     C 7598   0.563   3.923  16.232 -0.2977 -0.7145  0.6734
  508MPD2    C1 7599   0.687   3.874  16.205  0.0011  0.1136  0.0645
  508MPD2    C2 7600   0.743   3.871  16.082  0.4279  0.2548 -0.3269
  508MPD2    C3 7601   0.663   3.910  15.974  0.3951  0.1153 -0.2622
  508MPD2    C4 7602   0.531   3.950  15.993 -0.2073  0.2313 -0.4181
  508MPD2    C5 7603   0.485   3.959  16.121 -0.3531  0.2815 -0.2196
  508MPD2     H 7604   0.845   3.844  16.058  0.0241  0.3753 -2.1880
  508MPD2    H1 7605   0.472   3.980  15.907 -2.4048  1.5047  1.5199
  508MPD2    H2 7606   0.524   3.921  16.333 -2.6694 -1.0139 -0.2586
  508MPD2    H3 7607   0.383   3.993  16.133 -0.0329  0.7548  1.1967
  508MPD2     N 7608   0.729   3.924  15.845  0.4817  0.1281  0.0046
  508MPD2    H5 7609   0.823   3.885  15.841  0.1603 -0.6490  0.2022
  508MPD2    N1 7610   0.750   3.809  16.315  0.0482 -0.2655  0.2589
  508MPD2    H7 7611   0.703   3.824  16.404 -2.4277 -1.9621 -0.7505
  509TMC3    C1 7612   0.837   4.070  15.427  0.1403  0.4823  0.4899
  509TMC3    C2 7613   0.974   4.081  15.462  0.1661  0.2766 -0.2966
  509TMC3    C3 7614   1.017   4.038  15.589 -0.0705 -0.6837  0.4191
  509TMC3    C4 7615   0.742   4.039  15.509  0.1061  0.1684  0.3535
  509TMC3    C5 7616   0.783   4.015  15.635  0.2536 -0.0537 -0.1372
  509TMC3    C6 7617   0.913   4.013  15.673 -0.0931  0.5952  0.5106
  509TMC3     C 7618   0.800   4.153  15.315  0.0374  0.4299 -0.0590
  509TMC3     O 7619   0.884   4.240  15.290 -0.2238 -0.3376 -0.3858
  509TMC3     H 7620   1.047   4.100  15.384 -0.0055 -1.5103 -0.8950
  509TMC3    H1 7621   0.635   4.038  15.493  0.2010 -1.0284 -0.1437
  509TMC3    H2 7622   0.936   4.008  15.778  0.6216  1.3192  0.3881
  509TMC3    C7 7623   0.680   3.982  15.731  0.6561 -0.1277 -0.3617
  509TMC3    C8 7624   1.142   4.047  15.656  0.0278  0.7763  0.7096
  509TMC3    O1 7625   0.562   4.012  15.698  0.8279  0.0810 -0.0540
  509TMC3    O2 7626   1.165   3.971  15.749  0.1801  0.2706 -0.2938
  510MPD2     C 7627   3.608   0.702  14.883 -0.7503  0.1316  0.2709
  510MPD2    C1 7628   3.644   0.581  14.938  0.2425  0.1255 -0.0373
  510MPD2    C2 7629   3.779   0.537  14.917  0.2553 -0.2440 -0.3294
  510MPD2    C3 7630   3.871   0.614  14.845 -0.7336 -0.3532 -0.6130
  510MPD2    C4 7631   3.832   0.729  14.788  0.2790  1.2748 -0.0596
  510MPD2    C5 7632   3.702   0.769  14.810 -0.3880  0.2528  0.1197
  510MPD2     H 7633   3.809   0.443  14.960  1.1481  1.1479  2.0795
  510MPD2    H1 7634   3.903   0.788  14.730 -0.6726  2.2481 -0.2254
  510MPD2    H2 7635   3.507   0.739  14.881 -0.6333  0.4278 -0.1466
  510MPD2    H3 7636   3.681   0.864  14.762 -1.0948 -0.4076 -0.9020
  510MPD2     N 7637   3.999   0.553  14.832 -0.1268  0.0287 -0.7456
  510MPD2    H5 7638   4.026   0.477  14.893 -0.0107 -0.7375 -1.7496
  510MPD2    N1 7639   3.540   0.515  14.995  0.4899  0.2600 -0.1676
  510MPD2    H7 7640   3.451   0.562  14.983  0.7323  0.8235  0.2208
  511TMC3    C1 7641   3.419   0.330  15.069  0.0540  0.4357 -0.2904
  511TMC3    C2 7642   3.325   0.395  15.141  0.3226  0.1102  0.1461
  511TMC3    C3 7643   3.210   0.332  15.181 -0.2519 -0.2980  0.0432
  511TMC3    C4 7644   3.409   0.197  15.040  0.2114 -0.0869  0.1966
  511TMC3    C5 7645   3.288   0.140  15.066 -0.7808 -0.7773  0.0522
  511TMC3    C6 7646   3.186   0.205  15.134  0.1916  0.2339  0.3511
  511TMC3     C 7647   3.550   0.391  15.052  0.5778  0.3108 -0.3515
  511TMC3     O 7648   3.648   0.318  15.062 -0.1855  0.1135 -0.0181
  511TMC3     H 7649   3.336   0.501  15.159 -1.5015  0.2662  0.2543
  511TMC3    H1 7650   3.484   0.149  14.978  1.6868  2.2046  0.2053
  511TMC3    H2 7651   3.086   0.162  15.134  1.1175 -1.9166 -1.1729
  511TMC3    C7 7652   3.245   0.042  14.965  0.0420 -0.1469 -0.5076
  511TMC3    C8 7653   3.135   0.398  15.288 -0.1106 -0.2980  0.6184
  511TMC3    O1 7654   3.316   0.030  14.865  0.1520 -0.0802 -0.2825
  511TMC3    O2 7655   3.170   0.509  15.319 -0.1992  0.1585 -0.2069
  512TMC3    C1 7656   2.202   4.557  13.260  0.5350 -0.4664  0.1646
  512TMC3    C2 7657   2.326   4.581  13.317 -0.2738 -0.0174 -0.4182
  512TMC3    C3 7658   2.405   4.473  13.338 -0.3841 -0.0717  0.4069
  512TMC3    C4 7659   2.158   4.435  13.229  0.2832 -0.1791  0.3381
  512TMC3    C5 7660   2.233   4.327  13.267  0.0447 -0.1909 -0.0290
  512TMC3    C6 7661   2.361   4.344  13.314 -0.5539  0.6751 -0.5557
  512TMC3     C 7662   2.183   4.663  13.155  0.9403  0.1786  0.3691
  512TMC3     O 7663   2.271   0.004  13.150  0.0844 -0.5803 -0.1677
  512TMC3     H 7664   2.365   4.678  13.347 -0.4795  0.3198 -1.2489
  512TMC3    H1 7665   2.060   4.421  13.184  0.8523 -0.3465 -0.8514
  512TMC3    H2 7666   2.427   4.260  13.329 -2.4713 -0.1851  2.9895
  512TMC3    C7 7667   2.166   4.201  13.286 -1.0357 -0.5385 -0.2480
  512TMC3    C8 7668   2.552   4.487  13.333 -0.3973 -0.0420  0.0780
  512TMC3    O1 7669   2.094   4.192  13.383  0.3956  0.0646  0.2235
  512TMC3    O2 7670   2.609   4.388  13.297 -0.2769  0.5801  0.3089
  513MPD2     C 7671   4.014   4.606  14.024  0.6167 -0.1260 -0.4682
  513MPD2    C1 7672   4.011   4.481  13.972 -0.0620  0.5593  0.1310
  513MPD2    C2 7673   4.099   4.386  14.028  0.2301 -0.0113  0.9433
  513MPD2    C3 7674   4.202   4.421  14.111  0.5078  0.1855 -0.8619
  513MPD2    C4 7675   4.206   4.557  14.147 -0.7102  0.3940 -0.5759
  513MPD2    C5 7676   4.114   4.643  14.105 -0.5170  0.8984  0.3194
  513MPD2     H 7677   4.102   4.285  13.986 -0.1106  0.0403  0.7948
  513MPD2    H1 7678   4.289   4.599  14.203 -0.7715 -0.3032  0.0470
  513MPD2    H2 7679   3.940   4.680  13.995 -0.4163 -0.9065  0.2016
  513MPD2    H3 7680   4.118   4.742  14.149 -0.6302 -0.8783  4.3322
  513MPD2     N 7681   4.304   4.325  14.141 -0.1950  0.4418 -0.5091
  513MPD2    H5 7682   4.295   4.243  14.082  0.2639 -0.4773  0.7168
  513MPD2    N1 7683   3.922   4.437  13.875 -0.0606 -0.6052  0.5146
  513MPD2    H7 7684   3.928   4.340  13.846 -2.7952 -0.2567 -1.2236
  514TMC3    C1 7685   3.758   4.408  13.725 -0.2018 -0.5239 -0.3385
  514TMC3    C2 7686   3.756   4.434  13.588 -0.1434  0.3279 -0.3339
  514TMC3    C3 7687   3.785   4.340  13.496  0.7186 -0.4496  0.0195
  514TMC3    C4 7688   3.777   4.279  13.763 -0.1313  0.1118 -0.3262
  514TMC3    C5 7689   3.810   4.187  13.670  0.1102 -0.5274 -1.0553
  514TMC3    C6 7690   3.819   4.212  13.538 -0.1652 -0.8500 -0.0466
  514TMC3     C 7691   3.832   4.509  13.805 -0.2233  0.1254 -0.1790
  514TMC3     O 7692   3.810   4.632  13.801  0.2851  0.1347 -1.0396
  514TMC3     H 7693   3.743   4.534  13.549  0.8589  0.2961 -0.7486
  514TMC3    H1 7694   3.762   4.266  13.870 -3.9152 -1.1621 -1.0333
  514TMC3    H2 7695   3.855   4.147  13.460  0.0327  0.6693 -1.2326
  514TMC3    C7 7696   3.913   4.103  13.722  0.2222 -0.3310 -0.4339
  514TMC3    C8 7697   3.798   4.369  13.350  0.6503  0.1526 -0.9268
  514TMC3    O1 7698   3.941   4.120  13.843  0.3494  0.0090 -0.1702
  514TMC3    O2 7699   3.702   4.416  13.290  0.5821 -0.5701  0.1445
  515MPD2     C 7700   2.530   1.891  14.807  0.1798 -0.5478  0.7928
  515MPD2    C1 7701   2.557   1.756  14.819 -0.0138  0.5413 -0.3990
  515MPD2    C2 7702   2.663   1.715  14.898 -0.7585  0.4646  0.2714
  515MPD2    C3 7703   2.737   1.808  14.963 -0.8920 -0.2559 -0.0276
  515MPD2    C4 7704   2.707   1.939  14.943 -0.5730  0.1428 -1.0052
  515MPD2    C5 7705   2.602   1.984  14.873  0.0228 -0.2805  0.2318
  515MPD2     H 7706   2.681   1.608  14.899  0.0973  0.5946 -1.1764
  515MPD2    H1 7707   2.763   2.017  14.993  0.1709 -1.1176  0.1247
  515MPD2    H2 7708   2.456   1.940  14.744  1.8911 -0.5179 -1.1966
  515MPD2    H3 7709   2.575   2.089  14.866 -0.1407 -0.2539  1.3426
  515MPD2     N 7710   2.837   1.784  15.059 -0.1881 -0.4325 -0.6870
  515MPD2    H5 7711   2.868   1.857  15.123  1.8279 -1.9489  0.0557
  515MPD2    N1 7712   2.488   1.652  14.761  0.6843 -0.5495  0.0189
  515MPD2    H7 7713   2.502   1.554  14.783  1.0170 -0.0755  1.9460
  516TMC3    C1 7714   2.337   1.538  14.626 -0.0738  0.5390  0.6803
  516TMC3    C2 7715   2.270   1.530  14.509  0.9245 -0.5498  0.6287
  516TMC3    C3 7716   2.145   1.475  14.506 -0.9658 -0.4373  0.1907
  516TMC3    C4 7717   2.298   1.462  14.735  0.7628  0.9920  0.0663
  516TMC3    C5 7718   2.183   1.384  14.721 -0.7121 -0.3785 -0.2790
  516TMC3    C6 7719   2.102   1.404  14.610 -0.2445 -0.5273  0.6806
  516TMC3     C 7720   2.398   1.661  14.652  0.3066  0.2852 -0.7833
  516TMC3     O 7721   2.354   1.751  14.579  0.1694  0.3022  0.1620
  516TMC3     H 7722   2.322   1.571  14.423 -1.4679 -0.3256 -0.7051
  516TMC3    H1 7723   2.363   1.449  14.821  0.6736 -0.6243 -0.1096
  516TMC3    H2 7724   1.998   1.371  14.604 -0.0581 -1.4711  2.4127
  516TMC3    C7 7725   2.155   1.291  14.832  0.0800  0.2041  0.1731
  516TMC3    C8 7726   2.049   1.546  14.419 -0.2334  0.5230  0.1101
  516TMC3    O1 7727   2.209   1.326  14.935  0.0720 -0.3321  0.2055
  516TMC3    O2 7728   1.939   1.500  14.412  0.5457 -0.5769  0.4833
  517MPD2     C 7729   2.058   3.183  17.659 -0.3464 -1.0907 -0.4003
  517MPD2    C1 7730   2.188   3.216  17.656  0.1185  0.7783  0.7027
  517MPD2    C2 7731   2.233   3.316  17.736  0.1860  0.6633 -0.0871
  517MPD2    C3 7732   2.154   3.385   0.055  0.6283 -0.5163 -0.3733
  517MPD2    C4 7733   2.017   3.353   0.055  0.0484 -0.9054  0.5893
  517MPD2    C5 7734   1.974   3.253  17.737  0.3600 -0.3797  0.0645
  517MPD2     H 7735   2.341   3.331  17.732  0.6665 -1.6050  4.2941
  517MPD2    H1 7736   1.951   3.409   0.121 -0.8825  1.2380 -2.1847
  517MPD2    H2 7737   2.017   3.107  17.594 -1.2416 -0.8467 -0.1248
  517MPD2    H3 7738   1.870   3.225  17.726  0.6397 -1.6898  0.7039
  517MPD2     N 7739   2.200   3.482   0.152 -0.2670 -0.2822  0.4547
  517MPD2    H5 7740   2.132   3.531   0.209  0.9030  0.9170  0.8059
  517MPD2    N1 7741   2.278   3.157  17.569  0.3473 -0.4647  0.2628
  517MPD2    H7 7742   2.376   3.180  17.582  0.8351 -1.8882 -0.7718
  518TMC3    C1 7743   2.374   3.015  17.411 -0.3718 -0.1799 -0.9579
  518TMC3    C2 7744   2.351   2.927  17.308 -0.3191  0.7037  0.3553
  518TMC3    C3 7745   2.457   2.853  17.259 -0.2409 -0.7259  0.8205
  518TMC3    C4 7746   2.497   3.031  17.460 -0.3999  0.1010  0.5740
  518TMC3    C5 7747   2.606   2.965  17.401  0.0174 -0.3082  0.1876
  518TMC3    C6 7748   2.585   2.876  17.299 -1.2612 -0.7336 -0.4681
  518TMC3     C 7749   2.255   3.060  17.478 -0.1417  0.0405 -0.2681
  518TMC3     O 7750   2.148   3.020  17.431  0.5653 -0.1866 -0.3144
  518TMC3     H 7751   2.252   2.929  17.263  0.0998 -2.1670 -0.7147
  518TMC3    H1 7752   2.527   3.099  17.539  2.0879 -2.1223  1.5564
  518TMC3    H2 7753   2.657   2.797  17.279 -0.6505 -0.4207  0.5447
  518TMC3    C7 7754   2.728   2.959  17.483 -0.9425 -0.0293 -0.0451
  518TMC3    C8 7755   2.421   2.713  17.240 -0.0053  0.3463  0.1270
  518TMC3    O1 7756   2.713   2.974  17.602  0.7305  0.1283 -0.3179
  518TMC3    O2 7757   2.519   2.645  17.217 -0.1539  0.0213  0.0354
  519MPD2     C 7758   3.633   1.230  14.613 -0.6139  0.2320  0.0973
  519MPD2    C1 7759   3.544   1.235  14.509  0.1628  0.0895 -0.6347
  519MPD2    C2 7760   3.557   1.139  14.412  0.5072 -0.1188  0.5478
  519MPD2    C3 7761   3.667   1.054  14.413 -0.1911  1.2096 -0.2770
  519MPD2    C4 7762   3.756   1.054  14.518 -0.2789  0.5182 -0.0878
  519MPD2    C5 7763   3.738   1.142  14.623  0.6807  0.1067 -0.4277
  519MPD2     H 7764   3.489   1.139  14.328  1.6846  0.5532 -0.4163
  519MPD2    H1 7765   3.844   0.991  14.520 -0.9678 -0.5096 -2.2147
  519MPD2    H2 7766   3.622   1.297  14.697 -2.0171  0.9418 -0.6557
  519MPD2    H3 7767   3.806   1.139  14.708 -0.5949 -0.3302  0.5735
  519MPD2     N 7768   3.705   0.967  14.307  0.2476 -0.8313 -0.7874
  519MPD2    H5 7769   3.790   0.914  14.323 -0.6069 -2.5010 -1.6695
  519MPD2    N1 7770   3.429   1.320  14.520  0.3285  0.3548  0.4044
  519MPD2    H7 7771   3.428   1.391  14.592 -1.5958 -3.0266  3.7434
  520TMC3    C1 7772   3.720   0.895  14.081  0.4378 -1.7629  0.1140
  520TMC3    C2 7773   3.667   0.916  13.951  0.4607 -0.4162 -0.3469
  520TMC3    C3 7774   3.743   0.909  13.840  0.5092 -1.0395  0.2544
  520TMC3    C4 7775   3.858   0.878  14.092 -0.0037  0.0904  0.3078
  520TMC3    C5 7776   3.933   0.890  13.983 -0.4968 -0.2435 -0.7232
  520TMC3    C6 7777   3.881   0.897  13.850 -0.0418 -0.0476  0.7603
  520TMC3     C 7778   3.637   0.944  14.188  0.4742 -0.3506  0.2587
  520TMC3     O 7779   3.520   0.965  14.157 -0.9500  0.0449 -0.4428
  520TMC3     H 7780   3.560   0.925  13.938  0.9299  3.0509 -1.8264
  520TMC3    H1 7781   3.906   0.862  14.188 -1.5963  0.6432  1.2103
  520TMC3    H2 7782   3.938   0.857  13.766 -1.3943 -0.4499  0.0189
  520TMC3    C7 7783   4.067   0.840  13.987 -0.0785  0.0102 -0.1419
  520TMC3    C8 7784   3.704   0.962  13.712  0.4137  1.0422 -0.0064
  520TMC3    O1 7785   4.090   0.770  14.084 -0.3719  0.0090  0.6979
  520TMC3    O2 7786   3.784   0.952  13.618  0.5491  0.4267 -0.0402
  521MPD2     C 7787   4.288   4.223  17.582  0.1271  0.3528  0.2917
  521MPD2    C1 7788   4.300   4.143  17.469  0.7880 -0.1692 -0.0126
  521MPD2    C2 7789   4.414   4.141  17.383 -0.4021 -0.4280  0.4846
  521MPD2    C3 7790   4.524   4.206  17.424 -0.2652  0.6398  0.2559
  521MPD2    C4 7791   4.517   4.266  17.547  1.0210 -0.0469  0.6955
  521MPD2    C5 7792   4.400   4.289  17.620  0.5002 -0.8972 -0.8680
  521MPD2     H 7793   4.423   4.086  17.290 -0.8169  2.1678 -1.0932
  521MPD2    H1 7794   4.606   4.315  17.586  0.9555 -0.3615  1.2383
  521MPD2    H2 7795   4.197   4.222  17.642 -0.1085  1.2451 -0.0553
  521MPD2    H3 7796   4.409   4.341  17.714 -2.3426  1.5671 -1.9781
  521MPD2     N 7797   4.642   4.197  17.339  0.3058  0.4976 -0.0282
  521MPD2    H5 7798   4.629   4.158  17.246  0.2135  0.2212  0.1000
  521MPD2    N1 7799   4.185   4.063  17.439  0.2118  0.0375  1.0390
  521MPD2    H7 7800   4.107   4.081  17.501  0.5161 -0.6086  1.6142
  522TMC3    C1 7801   0.132   4.177  17.279  0.6476  1.0378 -0.5433
  522TMC3    C2 7802   0.255   4.132  17.322  0.5205  0.2522 -0.2394
  522TMC3    C3 7803   0.352   4.112  17.231 -0.7129 -0.8676  0.1507
  522TMC3    C4 7804   0.100   4.204  17.144 -0.5927 -0.2635  0.1511
  522TMC3    C5 7805   0.205   4.181  17.057  0.1693 -0.0030 -0.7614
  522TMC3    C6 7806   0.331   4.141  17.102  0.4156 -0.1041 -0.7956
  522TMC3     C 7807   0.027   4.200  17.382 -0.0084  0.2411 -0.1001
  522TMC3     O 7808   0.066   4.215  17.497 -0.1485 -0.3593 -1.0859
  522TMC3     H 7809   0.265   4.084  17.418 -2.9274 -0.5488 -0.2899
  522TMC3    H1 7810   0.019   4.267  17.110  0.9002  1.5384 -0.0856
  522TMC3    H2 7811   0.419   4.129  17.041  2.4076  1.0108  1.8518
  522TMC3    C7 7812   0.200   4.220  16.926  0.0848  0.1114 -0.4158
  522TMC3    C8 7813   0.456   4.022  17.272  0.3814 -0.5240 -0.1854
  522TMC3    O1 7814   0.307   4.271  16.894  0.7275  0.3276 -0.3600
  522TMC3    O2 7815   0.480   4.019  17.386  0.0921 -0.1885  0.5456
  523MPD2     C 7816   2.301   4.577  10.107 -0.0073 -0.1963  0.4402
  523MPD2    C1 7817   2.219   4.471  10.077 -0.1673  0.4767  0.0282
  523MPD2    C2 7818   2.098   4.487  10.012 -0.5958  0.2263  0.2530
  523MPD2    C3 7819   2.077   4.614   9.962  0.0168  0.2265  0.2853
  523MPD2    C4 7820   2.167   4.713   9.976  0.8241  0.2961 -0.0356
  523MPD2    C5 7821   2.277   4.695  10.049 -0.0516 -0.5300 -0.0514
  523MPD2     H 7822   2.029   4.406   9.994  0.0854  0.1065 -1.8656
  523MPD2    H1 7823   2.146   0.066   9.931 -1.3045 -1.0851 -2.0385
  523MPD2    H2 7824   2.395   4.558  10.159 -0.1092 -0.7283  0.4388
  523MPD2    H3 7825   2.353   0.029  10.052  1.9950 -2.4427 -3.1259
  523MPD2     N 7826   1.956   4.649   9.893 -0.0225  0.4768 -0.0573
  523MPD2    H5 7827   1.954   4.735   9.839  0.6803  0.2716 -0.4077
  523MPD2    N1 7828   2.264   4.342  10.122  0.2120 -0.4015  0.1200
  523MPD2    H7 7829   2.358   4.341  10.161  0.5357 -1.6821 -0.7061
  524TMC3    C1 7830   1.760   4.638   9.782 -0.2608 -0.4140 -0.1836
  524TMC3    C2 7831   1.721   4.571   9.673  0.4751 -0.5317 -0.1194
  524TMC3    C3 7832   1.652   4.650   9.586 -0.1423 -0.3725 -0.1417
  524TMC3    C4 7833   1.738   0.025   9.811  0.4850  0.2223 -0.1153
  524TMC3    C5 7834   1.675   0.101   9.721  0.1311  0.0159 -0.4684
  524TMC3    C6 7835   1.625   0.036   9.607  0.3190  0.2456 -0.3585
  524TMC3     C 7836   1.849   4.563   9.867  0.2810 -0.6881  0.6153
  524TMC3     O 7837   1.842   4.443   9.871  0.7698 -0.2003 -0.5161
  524TMC3     H 7838   1.736   4.465   9.655  0.1955 -0.5239 -0.3972
  524TMC3    H1 7839   1.777   0.070   9.902 -1.3618  2.5922 -0.5101
  524TMC3    H2 7840   1.564   0.093   9.537  0.7789  0.5021 -0.5459
  524TMC3    C7 7841   1.607   0.220   9.765 -0.5222  0.3071  0.0129
  524TMC3    C8 7842   1.596   4.606   9.461 -0.3823 -0.0954  0.1907
  524TMC3    O1 7843   1.640   0.243   9.882  0.2216 -0.0948  0.0532
  524TMC3    O2 7844   1.555   4.694   9.386 -0.1436  0.7058  0.1097
  525MPD2     C 7845   0.333   1.084  14.589  0.0619  1.0055 -0.1902
  525MPD2    C1 7846   0.451   1.077  14.663 -0.1675  0.8589  0.5330
  525MPD2    C2 7847   0.548   1.169  14.644 -0.3965  0.3246  0.3499
  525MPD2    C3 7848   0.528   1.276  14.565  0.0157 -0.5964 -0.3833
  525MPD2    C4 7849   0.417   1.284  14.488 -0.3724 -0.5034  0.0358
  525MPD2    C5 7850   0.317   1.186  14.494  0.0510  0.0560  1.2246
  525MPD2     H 7851   0.640   1.152  14.698  0.2731  1.9973 -0.2686
  525MPD2    H1 7852   0.391   1.370  14.428  2.0527 -0.2034 -0.5431
  525MPD2    H2 7853   0.248   1.017  14.604  0.3388  0.4407 -1.1307
  525MPD2    H3 7854   0.226   1.186  14.434  0.3215 -0.9445  0.8114
  525MPD2     N 7855   0.619   1.389  14.550  0.0668  0.2446  1.0185
  525MPD2    H5 7856   0.579   1.469  14.503  0.0272  0.7587  1.9150
  525MPD2    N1 7857   0.479   0.977  14.758 -0.1043  0.1098 -0.2645
  525MPD2    H7 7858   0.577   0.980  14.781  0.2436 -1.8782 -1.4325
  526TMC3    C1 7859   0.468   0.776  14.882 -0.1730  0.5532 -0.6281
  526TMC3    C2 7860   0.396   0.717  14.984  0.3134 -0.2656 -0.4418
  526TMC3    C3 7861   0.454   0.608  15.049 -0.1106  0.5088  0.5044
  526TMC3    C4 7862   0.600   0.748  14.860 -0.7570  0.0514  0.5642
  526TMC3    C5 7863   0.654   0.637  14.922  0.1609  0.0743 -0.1558
  526TMC3    C6 7864   0.584   0.564  15.019 -0.9759 -0.2637 -0.5173
  526TMC3     C 7865   0.398   0.870  14.795 -0.1093 -0.2860  0.3137
  526TMC3     O 7866   0.283   0.843  14.768 -0.4863  0.0563  0.2831
  526TMC3     H 7867   0.292   0.734  15.006  0.5294 -0.0832  0.4213
  526TMC3    H1 7868   0.642   0.789  14.769  1.5099 -0.8017  1.2217
  526TMC3    H2 7869   0.631   0.480  15.069 -0.0932  0.0072 -0.9020
  526TMC3    C7 7870   0.795   0.618  14.927 -0.0330  0.6230 -0.2075
  526TMC3    C8 7871   0.404   0.582  15.184 -0.5872 -0.0501  0.2478
  526TMC3    O1 7872   0.841   0.510  14.970  0.2786 -0.1888  0.0017
  526TMC3    O2 7873   0.331   0.660  15.243 -0.1314  0.4528  0.2122
  527MPD2     C 7874   3.048   3.704   0.667 -0.5384 -0.5052  0.0955
  527MPD2    C1 7875   3.120   3.716   0.783 -0.3365  0.0427  0.0199
  527MPD2    C2 7876   3.252   3.681   0.783  0.0809  0.0539 -0.1094
  527MPD2    C3 7877   3.317   3.645   0.670  0.0274  0.2699  0.4922
  527MPD2    C4 7878   3.243   3.638   0.554  0.1173  0.5584 -0.1420
  527MPD2    C5 7879   3.108   3.661   0.553 -0.7808  0.5644  0.3902
  527MPD2     H 7880   3.309   3.671   0.875 -1.9088  0.0538  1.1329
  527MPD2    H1 7881   3.283   3.591   0.465 -0.2899 -1.2681  0.6195
  527MPD2    H2 7882   2.945   3.733   0.649 -0.4654 -0.7507 -0.6927
  527MPD2    H3 7883   3.058   3.646   0.458  0.9577  0.4364 -0.5011
  527MPD2     N 7884   3.459   3.629   0.680  0.1352  0.7939 -0.0043
  527MPD2    H5 7885   3.505   3.642   0.770  2.2362 -3.4544 -0.4861
  527MPD2    N1 7886   3.062   3.769   0.901  0.1249 -0.4004  0.1056
  527MPD2    H7 7887   3.125   3.782   0.979  1.8227  1.4561 -1.5714
  528TMC3    C1 7888   2.899   3.895   1.019  1.1247  0.3129 -0.1221
  528TMC3    C2 7889   2.993   3.994   1.036  0.6880  0.0006 -1.1211
  528TMC3    C3 7890   2.954   4.102   1.117 -0.1163 -0.5069 -0.0856
  528TMC3    C4 7891   2.767   3.909   1.050  0.2164 -0.0258  0.5555
  528TMC3    C5 7892   2.730   4.026   1.114  0.1367  0.0463 -0.6152
  528TMC3    C6 7893   2.825   4.124   1.154 -0.0484 -0.2772  1.0605
  528TMC3     C 7894   2.930   3.814   0.905 -0.4184 -0.7839  0.0204
  528TMC3     O 7895   2.834   3.797   0.830 -0.4488 -0.0292 -0.2389
  528TMC3     H 7896   3.095   3.986   1.002  0.4662 -0.5261 -1.6482
  528TMC3    H1 7897   2.711   3.818   1.034  0.7750 -0.5839  1.7500
  528TMC3    H2 7898   2.793   4.221   1.190 -1.0231 -0.2189  0.0446
  528TMC3    C7 7899   2.590   4.041   1.150  0.1754  1.3760 -0.1750
  528TMC3    C8 7900   3.033   4.215   1.090  0.4908 -0.1439  0.9284
  528TMC3    O1 7901   2.571   4.080   1.266  0.4704 -0.1777 -0.3511
  528TMC3    O2 7902   3.078   4.217   0.977 -0.1766  0.3808  0.3243
  529MPD2     C 7903   1.468   2.084   0.374 -0.5540  0.3246 -0.8094
  529MPD2    C1 7904   1.427   2.089   0.509 -0.2966  0.1140  0.0607
  529MPD2    C2 7905   1.335   2.184   0.544 -0.1542  1.0532  0.6102
  529MPD2    C3 7906   1.281   2.269   0.444 -0.2673 -0.0185  1.0861
  529MPD2    C4 7907   1.320   2.264   0.313 -0.3806 -0.0472  0.4158
  529MPD2    C5 7908   1.418   2.168   0.284 -0.2549  0.3174  0.2554
  529MPD2     H 7909   1.305   2.194   0.647 -2.2011  0.3428  0.0987
  529MPD2    H1 7910   1.273   2.327   0.238 -1.4261 -1.2362  0.0763
  529MPD2    H2 7911   1.536   2.009   0.334  0.1283  1.1119 -1.1213
  529MPD2    H3 7912   1.452   2.161   0.181  0.6041  0.1922  0.5512
  529MPD2     N 7913   1.175   2.351   0.470 -0.1154 -0.3109 -0.4280
  529MPD2    H5 7914   1.147   2.415   0.396  0.0766 -0.1419 -0.3539
  529MPD2    N1 7915   1.468   1.995   0.610  0.0047  0.4872 -0.0922
  529MPD2    H7 7916   1.426   1.999   0.702 -0.2722 -0.0695 -0.1912
  530TMC3    C1 7917   1.584   1.820   0.713 -0.0661 -0.2969  0.0786
  530TMC3    C2 7918   1.710   1.805   0.758 -0.6110  0.9341 -0.2480
  530TMC3    C3 7919   1.733   1.729   0.867  0.2563 -0.4224 -0.1184
  530TMC3    C4 7920   1.473   1.775   0.774 -0.7235 -0.6183 -0.6566
  530TMC3    C5 7921   1.498   1.697   0.886 -0.2496 -0.2231  0.0433
  530TMC3    C6 7922   1.629   1.672   0.929 -0.6920 -0.5112  0.1343
  530TMC3     C 7923   1.573   1.908   0.592 -1.1191 -0.4128  0.5390
  530TMC3     O 7924   1.660   1.904   0.505  0.2452 -0.1785 -0.2698
  530TMC3     H 7925   1.794   1.844   0.702 -0.5799 -0.4779 -1.1781
  530TMC3    H1 7926   1.375   1.795   0.734  0.0094  1.3000 -1.4966
  530TMC3    H2 7927   1.651   1.619   1.021  1.9625 -0.7109 -0.6072
  530TMC3    C7 7928   1.392   1.619   0.947  0.1970 -0.1423  0.1420
  530TMC3    C8 7929   1.842   1.773   0.956 -1.4160 -0.5797  0.4476
  530TMC3    O1 7930   1.426   1.521   1.013 -0.2983  0.4495 -0.1855
  530TMC3    O2 7931   1.877   1.892   0.944 -0.3806  0.2734 -0.1830
  531MPD2     C 7932   4.296   3.768  13.715  0.4100 -0.3440  0.6807
  531MPD2    C1 7933   4.282   3.882  13.787  0.4189  0.2579 -0.5261
  531MPD2    C2 7934   4.174   3.964  13.751 -0.2394 -0.9064  0.5287
  531MPD2    C3 7935   4.075   3.918  13.668 -0.5622 -0.3827  0.0955
  531MPD2    C4 7936   4.086   3.794  13.599  0.1445  0.6513  0.3040
  531MPD2    C5 7937   4.205   3.732  13.623 -0.0932 -0.5064  0.6058
  531MPD2     H 7938   4.155   4.062  13.795  0.4153  1.4886 -4.5319
  531MPD2    H1 7939   4.011   3.754  13.533 -0.6621  3.5209 -0.5167
  531MPD2    H2 7940   4.378   3.699  13.731  0.6852 -0.1769  0.0071
  531MPD2    H3 7941   4.228   3.642  13.567 -0.7062  0.7025 -1.5564
  531MPD2     N 7942   3.960   4.005  13.644  0.3366  0.0269  1.1921
  531MPD2    H5 7943   3.910   3.987  13.557  1.9917  0.3471  0.1679
  531MPD2    N1 7944   4.385   3.913  13.874 -0.1093  0.2701 -0.6383
  531MPD2    H7 7945   4.469   3.857  13.878  0.4188  1.0230 -1.0762
  532TMC3    C1 7946   4.479   4.039  14.044 -0.5074  0.3716  0.4428
  532TMC3    C2 7947   4.446   4.113  14.153 -0.1604 -0.0348 -0.2187
  532TMC3    C3 7948   4.511   4.227  14.182 -0.3727  0.4006  0.0736
  532TMC3    C4 7949   4.583   4.084  13.975 -0.1864  0.2562 -0.2311
  532TMC3    C5 7950   4.664   4.187  14.015 -1.1421  0.6444  0.5692
  532TMC3    C6 7951   4.627   4.260  14.122  0.2687 -0.5103  0.2404
  532TMC3     C 7952   4.366   4.016  13.964 -0.2536 -0.7349  0.1543
  532TMC3     O 7953   4.272   4.090  13.979  0.4162  0.1974 -1.0550
  532TMC3     H 7954   4.358   4.092  14.214  1.6088  1.9282  3.0215
  532TMC3    H1 7955   4.603   4.041  13.877  0.6868 -3.8036  1.7434
  532TMC3    H2 7956   4.686   4.345  14.157 -0.4263  0.3500 -0.6822
  532TMC3    C7 7957   0.050   4.218  13.955 -0.1435 -0.5596 -0.1509
  532TMC3    C8 7958   4.424   4.338  14.216  0.0190 -0.2553 -0.3413
  532TMC3    O1 7959   0.098   4.332  13.969  0.5078  0.0988 -0.1779
  532TMC3    O2 7960   4.472   4.439  14.265  0.0122 -0.1290  0.0365
  533TMC3    C1 7961   0.791   1.519  14.630 -0.6433  0.5495 -0.3923
  533TMC3    C2 7962   0.926   1.532  14.607 -0.2346  0.1552  0.1105
  533TMC3    C3 7963   0.975   1.658  14.619 -0.2910  0.1067  0.2431
  533TMC3    C4 7964   0.711   1.621  14.673  0.2230  0.2360 -0.8657
  533TMC3    C5 7965   0.774   1.733  14.713  0.5358 -0.3926 -0.4368
  533TMC3    C6 7966   0.904   1.759  14.683  0.0812  0.5337  0.5921
  533TMC3     C 7967   0.739   1.386  14.617  0.3880 -0.4627  0.0999
  533TMC3     O 7968   0.817   1.303  14.654 -0.2114  0.4906 -0.2229
  533TMC3     H 7969   0.982   1.452  14.560  1.4265  2.0794 -1.1997
  533TMC3    H1 7970   0.603   1.616  14.681  0.4044 -0.4126  1.3709
  533TMC3    H2 7971   0.955   1.847  14.719 -0.9991  1.0538  0.8667
  533TMC3    C7 7972   0.742   1.773  14.849 -0.4130  0.5663  0.2354
  533TMC3    C8 7973   1.121   1.670  14.617 -0.2421 -0.8077 -0.0278
  533TMC3    O1 7974   0.800   1.865  14.901  0.2795 -0.0964 -0.0927
  533TMC3    O2 7975   1.189   1.572  14.646  0.3716  0.4302  0.1300
  534MPD2     C 7976   2.930   3.553   1.191 -0.3579  0.2945 -0.7239
  534MPD2    C1 7977   2.850   3.470   1.268  0.0011 -0.5411 -0.0811
  534MPD2    C2 7978   2.869   3.333   1.251 -0.6874  0.9481  0.2156
  534MPD2    C3 7979   2.963   3.280   1.166 -0.7171  0.5109 -0.1399
  534MPD2    C4 7980   3.045   3.363   1.098 -0.1199  0.3897 -0.3470
  534MPD2    C5 7981   3.029   3.499   1.115  0.2707 -0.8246  0.6697
  534MPD2     H 7982   2.796   3.267   1.297  0.5470 -0.1295  0.6267
  534MPD2    H1 7983   3.116   3.310   1.036 -0.6104 -2.0880  1.1997
  534MPD2    H2 7984   2.911   3.659   1.204  0.0184  0.5336 -2.1669
  534MPD2    H3 7985   3.099   3.565   1.065 -0.6089 -0.1739  0.2910
  534MPD2     N 7986   2.983   3.140   1.154  0.7869 -0.6384 -0.5482
  534MPD2    H5 7987   3.054   3.107   1.089 -0.4855 -0.8850 -1.8030
  534MPD2    N1 7988   2.742   3.517   1.346 -0.1438 -0.0542  0.4960
  534MPD2    H7 7989   2.688   3.449   1.398 -1.0737  1.0587  0.9771
  535TMC3    C1 7990   2.940   2.912   1.166  0.5129  0.4017  0.3995
  535TMC3    C2 7991   2.892   2.807   1.232  0.6682 -0.3898  0.5977
  535TMC3    C3 7992   2.902   2.688   1.176 -0.6437  0.3210  0.8092
  535TMC3    C4 7993   2.979   2.902   1.032 -0.2487  0.0638  0.0342
  535TMC3    C5 7994   2.974   2.782   0.975  0.3564  0.2090 -0.6943
  535TMC3    C6 7995   2.947   2.670   1.046 -0.4955  0.9642  0.1527
  535TMC3     C 7996   2.909   3.046   1.212 -0.1149  0.7548 -0.1934
  535TMC3     O 7997   2.827   3.054   1.300  0.1462  0.0273  0.8748
  535TMC3     H 7998   2.851   2.823   1.331  0.3341 -0.0365  0.3982
  535TMC3    H1 7999   3.013   2.987   0.973 -3.6828  0.6860 -1.0863
  535TMC3    H2 8000   2.941   2.575   0.994  2.1652  0.1990  1.2402
  535TMC3    C7 8001   3.020   2.764   0.840 -0.9767  0.3358  0.0831
  535TMC3    C8 8002   2.804   2.585   1.206 -0.4169 -0.0610  0.9973
  535TMC3    O1 8003   3.063   2.654   0.815  0.2091 -0.0443 -0.1557
  535TMC3    O2 8004   2.800   2.489   1.131 -0.2782  0.3176 -0.6075
  536MPD2     C 8005   2.032   0.724  16.384 -0.0536  0.8785  0.0831
  536MPD2    C1 8006   1.924   0.684  16.454  0.0834  0.6061  0.6570
  536MPD2    C2 8007   1.809   0.657  16.388 -0.6823 -0.2686  0.2608
  536MPD2    C3 8008   1.804   0.654  16.250  0.6696 -0.0085  0.6448
  536MPD2    C4 8009   1.917   0.692  16.176 -0.6309  0.3891  0.7152
  536MPD2    C5 8010   2.027   0.726  16.248  0.1632 -0.4941  0.1765
  536MPD2     H 8011   1.715   0.644  16.441  0.2635 -1.3462  1.6929
  536MPD2    H1 8012   1.921   0.694  16.068  0.2500 -2.4036  0.7002
  536MPD2    H2 8013   2.123   0.748  16.437  0.4213 -2.5156  0.8233
  536MPD2    H3 8014   2.120   0.753  16.199  0.9967  1.3226  2.7542
  536MPD2     N 8015   1.684   0.631  16.178  0.1886 -0.0311  0.7055
  536MPD2    H5 8016   1.684   0.648  16.078  1.8750 -0.7332  0.5897
  536MPD2    N1 8017   1.941   0.689  16.594 -1.3496  0.8313 -0.0670
  536MPD2    H7 8018   2.020   0.744  16.625  0.7553 -1.4623 -1.4395
  537TMC3    C1 8019   1.930   0.617  16.813 -0.1483 -0.4242 -0.8903
  537TMC3    C2 8020   1.964   0.739  16.861  0.1963 -0.6184  0.5759
  537TMC3    C3 8021   2.044   0.738  16.974  0.4922 -0.9137 -0.4001
  537TMC3    C4 8022   1.976   0.499  16.858 -0.0079  0.3258 -0.4228
  537TMC3    C5 8023   2.061   0.509  16.962  0.3436  1.3414  0.5929
  537TMC3    C6 8024   2.090   0.623  17.022 -0.1314 -0.0296 -0.0810
  537TMC3     C 8025   1.868   0.610  16.679 -0.0880  0.0717 -0.7623
  537TMC3     O 8026   1.790   0.520  16.655 -0.1535 -0.1835  0.1579
  537TMC3     H 8027   1.928   0.824  16.804  0.6833 -0.4819  0.4743
  537TMC3    H1 8028   1.968   0.405  16.805  0.5975  0.6820 -1.1440
  537TMC3    H2 8029   2.151   0.626  17.112 -0.2225 -2.0107  0.0295
  537TMC3    C7 8030   2.161   0.403  16.991 -0.8086 -0.9111  0.2727
  537TMC3    C8 8031   2.124   0.857  17.002  0.6160  0.4306 -0.1863
  537TMC3    O1 8032   2.123   0.288  16.977  0.3154  0.5369  0.1362
  537TMC3    O2 8033   2.188   0.848  17.107  0.6629  0.5705 -0.1949
  538TMC3    C1 8034   2.945   4.308  11.633 -0.4952 -0.1765 -0.6619
  538TMC3    C2 8035   3.056   4.233  11.595 -0.0795 -0.2930  0.1145
  538TMC3    C3 8036   3.074   4.227  11.460  0.3948 -1.1524 -1.1135
  538TMC3    C4 8037   2.862   4.368  11.544  0.0586  0.1176 -0.5855
  538TMC3    C5 8038   2.895   4.369  11.411  0.5005 -1.0572  0.3294
  538TMC3    C6 8039   2.998   4.289  11.369  0.3364 -0.0519  0.2861
  538TMC3     C 8040   2.877   4.257  11.752  0.0974 -0.3012  0.5699
  538TMC3     O 8041   2.784   4.318  11.800 -0.1846 -0.4654 -0.5515
  538TMC3     H 8042   3.121   4.187  11.668 -0.9295  1.3360  1.8975
  538TMC3    H1 8043   2.775   4.421  11.580 -0.2369  0.5567 -1.9539
  538TMC3    H2 8044   3.020   4.274  11.264 -0.9902  2.2547 -0.3189
  538TMC3    C7 8045   2.769   4.373  11.333 -0.1517 -0.3130 -1.2356
  538TMC3    C8 8046   3.138   4.108  11.423  0.2976 -0.7752 -0.2687
  538TMC3    O1 8047   2.663   4.344  11.387  0.0325 -0.7176  0.5283
  538TMC3    O2 8048   3.135   4.014  11.500 -0.2781 -0.7941 -0.5324
  539MPD2     C 8049   3.058   3.263  11.335  0.0895  0.2764 -0.2126
  539MPD2    C1 8050   2.933   3.227  11.372 -0.1040 -0.3618  0.4073
  539MPD2    C2 8051   2.836   3.319  11.397 -0.5918 -0.2340  0.4764
  539MPD2    C3 8052   2.860   3.454  11.390 -0.2446 -0.4345  0.1211
  539MPD2    C4 8053   2.988   3.494  11.342 -0.0528 -0.0075 -0.1549
  539MPD2    C5 8054   3.083   3.397  11.312  0.1100 -0.3862 -0.7919
  539MPD2     H 8055   2.737   3.291  11.431 -1.0351  0.1652 -0.4987
  539MPD2    H1 8056   3.020   3.598  11.338 -1.8630  0.5930  0.9887
  539MPD2    H2 8057   3.130   3.187  11.308 -1.6462 -0.7600 -1.8839
  539MPD2    H3 8058   3.183   3.424  11.281  1.3475 -1.3441  2.3480
  539MPD2     N 8059   2.775   3.557  11.445 -0.3862 -0.4362  0.1466
  539MPD2    H5 8060   2.812   3.651  11.434 -0.5183 -0.4921 -0.7642
  539MPD2    N1 8061   2.898   3.090  11.379 -0.3959 -0.2590 -0.3024
  539MPD2    H7 8062   2.797   3.083  11.375 -0.3013 -0.6255 -1.8541
  540TMC3    C1 8063   2.601   3.653  11.555  0.1245  0.1744 -0.0730
  540TMC3    C2 8064   2.570   3.748  11.459  0.1862  0.1051 -0.9088
  540TMC3    C3 8065   2.495   3.861  11.482 -0.2346 -0.1215 -0.4435
  540TMC3    C4 8066   2.560   3.675  11.685 -0.4656 -0.2324  0.3069
  540TMC3    C5 8067   2.485   3.792  11.702 -0.5499  0.4721 -0.6164
  540TMC3    C6 8068   2.457   3.886  11.609  0.8770  0.0244 -0.6311
  540TMC3     C 8069   2.658   3.531  11.519 -0.1434  0.0171 -0.2064
  540TMC3     O 8070   2.617   3.431  11.586 -0.2431 -0.1002  0.0515
  540TMC3     H 8071   2.586   3.725  11.354  1.4992 -0.2713 -0.6286
  540TMC3    H1 8072   2.579   3.593  11.753  1.5363  0.1396  0.1892
  540TMC3    H2 8073   2.400   3.978  11.623  1.8587  0.6064 -0.4774
  540TMC3    C7 8074   2.432   3.808  11.833 -0.2636 -0.2446  0.1306
  540TMC3    C8 8075   2.446   3.939  11.371  0.4739  0.1785  0.5099
  540TMC3    O1 8076   2.407   3.705  11.895 -0.3815 -0.1714 -0.5687
  540TMC3    O2 8077   2.447   4.060  11.377 -0.2242 -0.6554  0.2380
  541MPD2     C 8078   1.456   4.496  13.757  0.1954 -0.0066 -0.0244
  541MPD2    C1 8079   1.411   4.393  13.681 -0.3302 -0.3453  0.1893
  541MPD2    C2 8080   1.407   4.407  13.539  0.5452  0.2619  0.0656
  541MPD2    C3 8081   1.471   4.517  13.476  0.0573 -0.5850  0.7995
  541MPD2    C4 8082   1.527   4.617  13.555  0.0866  0.4003 -0.0980
  541MPD2    C5 8083   1.516   4.610  13.693  0.7974 -0.4059  0.1128
  541MPD2     H 8084   1.368   4.330  13.474 -0.0287 -0.6087  1.4580
  541MPD2    H1 8085   1.575   4.700  13.506  0.4811  0.0427 -0.3242
  541MPD2    H2 8086   1.446   4.493  13.865  2.1909  0.4755  0.1817
  541MPD2    H3 8087   1.543   4.688  13.763 -3.1286  1.9663 -0.9988
  541MPD2     N 8088   1.464   4.548  13.342 -0.1082 -0.0093 -0.1858
  541MPD2    H5 8089   1.495   4.643  13.328  0.0161 -0.4550 -2.9750
  541MPD2    N1 8090   1.365   4.270  13.734 -0.3230  0.0223  0.0492
  541MPD2    H7 8091   1.340   4.194  13.672 -0.1850  1.6506 -2.0033
  542TMC3    C1 8092   1.359   4.533  13.127 -0.3784 -0.3261 -0.4060
  542TMC3    C2 8093   1.323   4.461  13.018  0.4749  0.6425  0.0346
  542TMC3    C3 8094   1.207   4.498  12.954 -0.0021 -0.5569  0.2140
  542TMC3    C4 8095   1.296   4.649  13.168 -0.3692 -0.3550  0.0687
  542TMC3    C5 8096   1.185   4.687  13.094  0.5499  0.0704  0.1038
  542TMC3    C6 8097   1.144   4.617  12.989  0.5538  0.2896 -0.2208
  542TMC3     C 8098   1.419   4.464  13.238  0.6864 -0.2230  0.2545
  542TMC3     O 8099   1.390   4.349  13.253  0.6968 -0.1189 -0.5073
  542TMC3     H 8100   1.380   4.371  12.999  3.6823  3.0559 -1.8720
  542TMC3    H1 8101   1.307   4.696  13.265 -0.8368 -0.7331  0.3035
  542TMC3    H2 8102   1.061   4.651  12.928  0.6054 -0.2786 -0.6079
  542TMC3    C7 8103   1.112   0.055  13.145  0.2311  0.6338  0.0094
  542TMC3    C8 8104   1.197   4.461  12.819  0.0342 -0.1492  0.3747
  542TMC3    O1 8105   1.164   0.123  13.233 -0.4454 -0.6946  0.3923
  542TMC3    O2 8106   1.133   4.530  12.745 -0.5319 -0.1190 -0.1744
  543TMC3    C1 8107   1.141   1.700  17.300  0.4546  0.1650 -0.1339
  543TMC3    C2 8108   1.150   1.562  17.323  0.5232 -0.2526 -0.9797
  543TMC3    C3 8109   1.082   1.513  17.427  0.1106  0.8055 -0.3369
  543TMC3    C4 8110   1.078   1.786  17.383 -0.2645 -0.1223  0.7873
  543TMC3    C5 8111   1.018   1.732  17.498  0.5359 -0.2266  0.1861
  543TMC3    C6 8112   1.016   1.593  17.520 -0.2364  0.2493  0.0660
  543TMC3     C 8113   1.205   1.740  17.179 -0.5956 -0.0858 -0.2472
  543TMC3     O 8114   1.282   1.661  17.134  0.0727 -0.2291 -0.1690
  543TMC3     H 8115   1.210   1.489  17.270 -0.6299 -0.5817 -1.8324
  543TMC3    H1 8116   1.087   1.893  17.374 -1.1632 -0.4450 -3.6703
  543TMC3    H2 8117   0.950   1.550  17.595 -1.6125 -1.2314 -2.0264
  543TMC3    C7 8118   0.941   1.817  17.590 -0.1320  0.3780  0.2103
  543TMC3    C8 8119   1.029   1.378  17.410  0.8154  0.3775 -0.1871
  543TMC3    O1 8120   0.892   1.765  17.688 -0.8041  0.2458 -0.1986
  543TMC3    O2 8121   1.033   1.323  17.300 -0.3199  0.1792 -0.0329
  544MPD2     C 8122   0.881   0.918  17.595 -0.3678  0.5807 -0.1533
  544MPD2    C1 8123   0.866   0.972  17.466 -0.0990 -0.8951 -0.7242
  544MPD2    C2 8124   0.908   1.100  17.439 -0.8399 -0.0623 -0.1198
  544MPD2    C3 8125   0.956   1.181  17.548 -0.4541  0.3358 -0.6051
  544MPD2    C4 8126   0.956   1.129  17.676  0.1028 -0.0388  0.1322
  544MPD2    C5 8127   0.916   0.999  17.702  0.5450  0.2568 -0.1538
  544MPD2     H 8128   0.897   1.149  17.342  1.7707  2.4576  0.8482
  544MPD2    H1 8129   0.996   1.186  17.759  1.1090  0.6955 -0.8553
  544MPD2    H2 8130   0.844   0.818  17.613 -0.4071  1.1234  2.7985
  544MPD2    H3 8131   0.917   0.959   0.032  0.5692 -0.2790 -0.3625
  544MPD2     N 8132   1.015   1.312  17.533  0.3343  0.5881 -0.2567
  544MPD2    H5 8133   1.048   1.358  17.617 -0.0329 -0.3517  0.4138
  544MPD2    N1 8134   0.827   0.882  17.363  0.2784 -0.2891  0.1265
  544MPD2    H7 8135   0.813   0.783  17.382  0.8888 -0.2289  0.8745
  545TMC3    C1 8136   0.784   0.820  17.128 -0.0811 -0.6352 -0.7681
  545TMC3    C2 8137   0.809   0.856  16.992 -0.2185  0.3206  0.1210
  545TMC3    C3 8138   0.764   0.770  16.900  0.1597  0.8539 -0.4543
  545TMC3    C4 8139   0.714   0.708  17.169  0.7094  0.8598  0.4743
  545TMC3    C5 8140   0.664   0.633  17.064  0.6828 -0.4116 -0.3709
  545TMC3    C6 8141   0.696   0.657  16.934  0.0469 -0.1938  0.5367
  545TMC3     C 8142   0.825   0.918  17.226 -0.0106 -0.0918 -0.0283
  545TMC3     O 8143   0.867   1.020  17.175  0.0444 -0.9987  0.2484
  545TMC3     H 8144   0.857   0.948  16.959 -1.0423  1.1604  1.2668
  545TMC3    H1 8145   0.693   0.684  17.272  1.4179 -2.7971 -0.2514
  545TMC3    H2 8146   0.650   0.597  16.857 -0.8219 -0.1007  0.9772
  545TMC3    C7 8147   0.617   0.500  17.097  0.0284  0.0637  0.1085
  545TMC3    C8 8148   0.758   0.807  16.760 -0.2032 -0.0156  0.0272
  545TMC3    O1 8149   0.575   0.481  17.208 -0.0403  0.0997  0.9895
  545TMC3    O2 8150   0.755   0.710  16.683  0.3991 -0.2756  0.2395
  546MPD2     C 8151   2.243   1.318  17.697  0.1368  0.1020 -0.2274
  546MPD2    C1 8152   2.221   1.322  17.568  0.1019 -0.1080 -0.1083
  546MPD2    C2 8153   2.282   1.414  17.495  0.5529 -0.2056  0.2328
  546MPD2    C3 8154   2.365   1.511  17.549  0.4872  0.3210  0.0648
  546MPD2    C4 8155   2.382   1.513  17.685  0.2619 -0.0831 -0.0524
  546MPD2    C5 8156   2.320   1.414  17.757  0.9312  0.7053 -0.5669
  546MPD2     H 8157   2.267   1.404  17.388  0.8864  1.3464  0.0435
  546MPD2    H1 8158   2.456   1.579  17.728 -0.9596  0.0337  1.9018
  546MPD2    H2 8159   2.193   1.248  17.764 -0.0403  0.2862 -0.1671
  546MPD2    H3 8160   2.331   1.427   0.093 -0.2938  0.3901 -0.4013
  546MPD2     N 8161   2.415   1.619  17.469 -0.2272 -0.0555 -0.1594
  546MPD2    H5 8162   2.468   1.689  17.521  1.1003 -0.6042 -0.7794
  546MPD2    N1 8163   2.137   1.226  17.507 -0.1839  1.0030 -0.2345
  546MPD2    H7 8164   2.115   1.149  17.569  1.5389  0.6846 -0.0029
  547TMC3    C1 8165   1.997   1.109  17.348  0.0155 -0.0319  0.2772
  547TMC3    C2 8166   1.917   1.128  17.242 -0.7099 -0.2396  0.4141
  547TMC3    C3 8167   1.840   1.021  17.206  0.6303  0.0277 -0.0615
  547TMC3    C4 8168   1.998   0.994  17.414  0.0201 -0.0374 -0.1074
  547TMC3    C5 8169   1.929   0.887  17.367 -0.3019 -0.1527  0.2891
  547TMC3    C6 8170   1.837   0.902  17.269  0.0596  0.1441  0.1982
  547TMC3     C 8171   2.077   1.229  17.384  0.1742  0.1977 -0.1272
  547TMC3     O 8172   2.066   1.325  17.308 -0.3645  0.5501  0.3239
  547TMC3     H 8173   1.914   1.213  17.175  0.7197 -0.4772  0.0492
  547TMC3    H1 8174   2.076   0.984  17.489  1.0728 -1.7214 -1.4036
  547TMC3    H2 8175   1.787   0.810  17.243  1.0988 -0.8897  1.9238
  547TMC3    C7 8176   1.948   0.762  17.424 -0.2652 -0.3670  0.0705
  547TMC3    C8 8177   1.743   1.050  17.095 -0.5527 -0.4387  0.6460
  547TMC3    O1 8178   1.848   0.692  17.431 -0.6486  0.8628  0.1797
  547TMC3    O2 8179   1.720   1.167  17.062  0.1480 -0.1572 -0.7574
  548MPD2     C 8180   1.905   1.587  12.976  0.3812  0.0045 -0.5692
  548MPD2    C1 8181   1.847   1.486  12.904  0.6949 -0.1183 -0.0799
  548MPD2    C2 8182   1.931   1.397  12.833 -0.1694  0.3636  0.2800
  548MPD2    C3 8183   2.069   1.411  12.846  0.0798  0.7776  0.6566
  548MPD2    C4 8184   2.125   1.497  12.931 -0.6721 -0.5092 -0.2704
  548MPD2    C5 8185   2.038   1.580  12.993 -0.2108  0.4311  0.4586
  548MPD2     H 8186   1.890   1.323  12.765 -2.2108  0.7893  1.0817
  548MPD2    H1 8187   2.231   1.505  12.953 -0.6604  1.6901 -1.0886
  548MPD2    H2 8188   1.846   1.658  13.032 -0.1880 -0.4803 -0.5601
  548MPD2    H3 8189   2.080   1.637  13.075 -2.0986  1.0181  1.0181
  548MPD2     N 8190   2.146   1.320  12.772  0.7633 -0.4336  0.5737
  548MPD2    H5 8191   2.095   1.254  12.714  0.3045 -1.9133  2.6702
  548MPD2    N1 8192   1.706   1.473  12.906  0.5654  0.3214  0.5618
  548MPD2    H7 8193   1.658   1.544  12.961  0.1449 -1.3590  2.3637
  549TMC3    C1 8194   1.493   1.374  12.896 -0.0719  0.3596 -0.6037
  549TMC3    C2 8195   1.434   1.496  12.861  0.0669  0.9743  0.4297
  549TMC3    C3 8196   1.301   1.502  12.873 -0.2780  0.2617  0.3120
  549TMC3    C4 8197   1.424   1.269  12.949  0.2938  0.3200 -0.2566
  549TMC3    C5 8198   1.289   1.282  12.966 -0.0613 -0.2768  0.1348
  549TMC3    C6 8199   1.227   1.398  12.928  1.0486  0.0701  0.1614
  549TMC3     C 8200   1.635   1.361  12.865  0.4274  0.6322 -0.0040
  549TMC3     O 8201   1.685   1.247  12.861 -0.6515 -0.5026 -0.1086
  549TMC3     H 8202   1.495   1.581  12.832  2.0921  0.2164  2.4873
  549TMC3    H1 8203   1.482   1.179  12.972  1.0863  0.8566 -0.1547
  549TMC3    H2 8204   1.119   1.392  12.931  1.1057 -1.2891 -0.5620
  549TMC3    C7 8205   1.218   1.194  13.052  0.3637 -0.0231  0.5083
  549TMC3    C8 8206   1.225   1.615  12.810  0.0674 -0.0298  0.1548
  549TMC3    O1 8207   1.114   1.219  13.108  0.4206 -0.0652  0.2027
  549TMC3    O2 8208   1.113   1.634  12.863  0.6733  0.2057  0.0497
  550TMC3    C1 8209   0.506   4.441  12.635  0.0396  1.0668  0.0957
  550TMC3    C2 8210   0.511   4.412  12.772 -0.3442 -0.1495  0.1691
  550TMC3    C3 8211   0.509   4.521  12.849  0.2048  0.6265  0.0918
  550TMC3    C4 8212   0.535   4.560  12.577 -0.2856  0.0862 -0.1996
  550TMC3    C5 8213   0.541   4.663  12.663 -0.6248 -0.6052  0.3565
  550TMC3    C6 8214   0.540   4.650  12.796  0.6175 -0.0176  0.6136
  550TMC3     C 8215   0.521   4.323  12.552 -0.4361  0.3818  0.1528
  550TMC3     O 8216   0.551   4.220  12.615 -0.4424  0.3916 -0.3204
  550TMC3     H 8217   0.505   4.312  12.814  0.9343  0.1863  1.1668
  550TMC3    H1 8218   0.561   4.583  12.474  0.1521  1.5742  0.2385
  550TMC3    H2 8219   0.551   4.741  12.855 -1.5771  0.2095  0.6929
  550TMC3    C7 8220   0.555   0.061  12.610 -0.2726 -0.4862  0.1717
  550TMC3    C8 8221   0.461   4.529  12.984 -0.0499  0.6387 -0.2730
  550TMC3    O1 8222   0.624   0.068  12.511  0.3131 -0.4252  0.4886
  550TMC3    O2 8223   0.504   4.616  13.051 -0.0222 -0.1034 -0.1468
  551TMC3    C1 8224   2.641   1.998  13.764 -0.3951  0.0131  0.1825
  551TMC3    C2 8225   2.773   2.012  13.741 -0.2066  0.7771  0.2863
  551TMC3    C3 8226   2.847   2.112  13.802 -0.5199  0.3684 -0.1717
  551TMC3    C4 8227   2.578   2.087  13.851  0.0283  0.1465  0.9867
  551TMC3    C5 8228   2.656   2.180  13.914 -0.4892 -0.3356  0.3229
  551TMC3    C6 8229   2.785   2.206  13.876 -0.5480  0.0127 -0.0350
  551TMC3     C 8230   2.562   1.969  13.647 -0.2756  0.1932 -0.0448
  551TMC3     O 8231   2.626   1.912  13.560  0.9478 -0.1661  0.0310
  551TMC3     H 8232   2.822   1.935  13.684  0.3588  0.3316  1.3651
  551TMC3    H1 8233   2.475   2.077  13.881 -0.1735 -1.8983 -0.3202
  551TMC3    H2 8234   2.838   2.296  13.908  0.3250  0.4266 -2.6905
  551TMC3    C7 8235   2.599   2.283  14.004 -0.7235  0.4128  0.5889
  551TMC3    C8 8236   2.944   2.163  13.707  0.5052  0.0101  0.3076
  551TMC3    O1 8237   2.479   2.300  13.998  0.1330 -0.5622 -0.3549
  551TMC3    O2 8238   2.999   2.065  13.662 -0.4548  0.6015 -0.2114
  552MPD2     C 8239   0.469   4.233  14.311 -0.4443  0.4112  0.2118
  552MPD2    C1 8240   0.473   4.124  14.384  0.6412  0.6757 -0.1760
  552MPD2    C2 8241   0.568   4.116  14.487  0.0065  0.2235 -0.4047
  552MPD2    C3 8242   0.662   4.219  14.514 -0.7956  0.4585  0.0133
  552MPD2    C4 8243   0.658   4.321  14.428 -0.3259  0.2435 -0.3366
  552MPD2    C5 8244   0.561   4.331  14.333  0.0966 -0.3412  0.4518
  552MPD2     H 8245   0.568   4.021  14.539 -0.2679  0.6742  0.4104
  552MPD2    H1 8246   0.721   4.408  14.443  1.1800 -0.6047 -1.6949
  552MPD2    H2 8247   0.396   4.239  14.231  0.0243 -1.7829 -0.3732
  552MPD2    H3 8248   0.568   4.418  14.269  3.0162 -0.9287 -0.0051
  552MPD2     N 8249   0.753   4.223  14.622  0.0780 -0.2355  0.5632
  552MPD2    H5 8250   0.826   4.294  14.620 -0.4668  0.3977  3.0061
  552MPD2    N1 8251   0.385   4.011  14.366 -0.4884  0.6054 -0.4029
  552MPD2    H7 8252   0.391   3.930  14.427 -3.7306  0.9549  0.3461
  553TMC3    C1 8253   0.221   3.871  14.267  0.4488  0.3408 -0.1271
  553TMC3    C2 8254   0.111   3.861  14.188  0.0613  0.8161 -0.1037
  553TMC3    C3 8255   0.079   3.742  14.131  0.1632  0.7409  0.1651
  553TMC3    C4 8256   0.302   3.760  14.291 -0.2846 -0.1111 -0.0222
  553TMC3    C5 8257   0.249   3.642  14.241  0.5505  0.2487 -0.1496
  553TMC3    C6 8258   0.138   3.625  14.165  0.1614  0.2057 -0.9908
  553TMC3     C 8259   0.278   4.004  14.278 -0.2899  0.1123 -0.2620
  553TMC3     O 8260   0.224   4.098  14.217 -0.1184 -0.0969 -0.6598
  553TMC3     H 8261   0.058   3.950  14.154 -0.3909  0.9551  0.9703
  553TMC3    H1 8262   0.403   3.769  14.332 -1.0007  1.7931  1.3202
  553TMC3    H2 8263   0.099   3.526  14.145  1.2182 -0.5288  0.5559
  553TMC3    C7 8264   0.296   3.518  14.298  0.7926  0.0210  0.1887
  553TMC3    C8 8265   0.003   3.740  14.011 -1.0447 -0.0292  0.4618
  553TMC3    O1 8266   0.265   3.415  14.237 -0.1523  0.2968 -0.1399
  553TMC3    O2 8267   0.005   3.841  13.940 -0.1004  0.9050  0.2116
  554TMC3    C1 8268   1.663   3.231  11.581  0.0304  0.2183  0.5513
  554TMC3    C2 8269   1.621   3.172  11.464 -0.0505  0.3237  0.5104
  554TMC3    C3 8270   1.706   3.179  11.352  0.6141 -1.0945  0.7941
  554TMC3    C4 8271   1.776   3.304  11.589 -0.5695 -0.4818 -0.3926
  554TMC3    C5 8272   1.858   3.321  11.478  0.0267  0.0712 -0.3477
  554TMC3    C6 8273   1.826   3.254  11.362 -0.4551 -0.6654  0.3313
  554TMC3     C 8274   1.615   3.146  11.686  0.8003  0.7726 -0.0897
  554TMC3     O 8275   1.497   3.119  11.672 -0.4147 -0.5419 -0.2684
  554TMC3     H 8276   1.522   3.129  11.449 -0.8082  1.8748  1.0805
  554TMC3    H1 8277   1.791   3.358  11.682  1.3974  0.8944 -1.4963
  554TMC3    H2 8278   1.894   3.255  11.277 -0.7290 -1.6573  0.1049
  554TMC3    C7 8279   1.918   3.453  11.448 -0.3278  1.1852  0.1454
  554TMC3    C8 8280   1.655   3.164  11.220  0.2960  0.1846  0.2635
  554TMC3    O1 8281   1.925   3.482  11.328 -0.0753  0.1083 -0.5229
  554TMC3    O2 8282   1.719   3.198  11.121 -0.2303 -1.0981  0.2882
  555TMC3    C1 8283   0.882   2.770  15.200  0.1889  0.0184 -0.2998
  555TMC3    C2 8284   0.811   2.860  15.280 -0.2082  0.6598  0.1770
  555TMC3    C3 8285   0.798   2.835  15.411 -0.3025 -0.0981  0.7923
  555TMC3    C4 8286   0.926   2.648  15.247 -0.3143 -0.2071  0.1018
  555TMC3    C5 8287   0.916   2.636  15.380  0.0221 -0.9347 -0.1195
  555TMC3    C6 8288   0.860   2.726  15.464 -0.5393  0.3048 -0.5256
  555TMC3     C 8289   0.886   2.785  15.053 -0.0755 -0.4672 -0.3610
  555TMC3     O 8290   0.975   2.724  14.999  0.1293  0.2436  0.7104
  555TMC3     H 8291   0.791   2.962  15.253 -1.0952  0.2024 -0.8920
  555TMC3    H1 8292   0.962   2.567  15.184 -0.5105  0.5814 -1.0180
  555TMC3    H2 8293   0.853   2.694  15.567 -1.9539  1.6189 -0.2057
  555TMC3    C7 8294   0.909   2.496  15.427 -0.9318 -0.8745  0.3931
  555TMC3    C8 8295   0.749   2.936  15.494  0.3041 -0.1102 -0.2783
  555TMC3    O1 8296   0.814   2.457  15.493 -0.3776 -0.3666  0.2275
  555TMC3    O2 8297   0.670   3.017  15.442  0.1113 -0.1268  0.0881
  556MPD2     C 8298   4.120   4.735  10.865 -0.2753 -0.2285 -0.6624
  556MPD2    C1 8299   4.048   4.665  10.961 -0.3825 -0.2492  0.5378
  556MPD2    C2 8300   3.977   4.553  10.925 -0.2854  0.5630  0.3809
  556MPD2    C3 8301   3.971   4.505  10.799 -0.2759 -1.1419  0.1552
  556MPD2    C4 8302   4.050   4.568  10.704 -1.0399 -0.2163  0.6548
  556MPD2    C5 8303   4.114   4.688  10.736 -0.1304 -0.3459  0.2499
  556MPD2     H 8304   3.917   4.508  11.004 -3.4558  2.4144 -0.9581
  556MPD2    H1 8305   4.062   4.543  10.599  3.0242 -0.7458  1.2643
  556MPD2    H2 8306   4.189   0.072  10.892 -1.8137  0.0577  2.4092
  556MPD2    H3 8307   4.176   4.730  10.658 -0.1590  0.2700  0.5603
  556MPD2     N 8308   3.891   4.390  10.773 -0.0678 -0.0993 -0.5397
  556MPD2    H5 8309   3.846   4.340  10.849  1.0425 -0.7727 -0.3193
  556MPD2    N1 8310   4.040   4.704  11.094  0.1543  0.0984 -0.5683
  556MPD2    H7 8311   3.989   4.635  11.147 -1.3916  1.5882 -0.1172
  557TMC3    C1 8312   3.751   4.241  10.656 -0.3024 -0.1698  0.8668
  557TMC3    C2 8313   3.714   4.174  10.542 -0.4374  0.4538  1.0182
  557TMC3    C3 8314   3.638   4.059  10.554 -0.1813  0.3156 -0.9243
  557TMC3    C4 8315   3.697   4.205  10.779  0.5156 -0.3191 -0.4086
  557TMC3    C5 8316   3.604   4.097  10.785  0.1268  0.3117  0.1774
  557TMC3    C6 8317   3.578   4.016  10.676  0.2066 -0.6350 -0.4688
  557TMC3     C 8318   3.847   4.346  10.651 -0.4254 -0.2656  0.2599
  557TMC3     O 8319   3.875   4.381  10.539  0.2273 -0.0588  0.1132
  557TMC3     H 8320   3.742   4.217  10.446  1.7614  0.5347  1.6834
  557TMC3    H1 8321   3.694   4.279  10.858  0.2519 -3.3210  2.3640
  557TMC3    H2 8322   3.507   3.934  10.681  1.1602 -1.5289 -1.4871
  557TMC3    C7 8323   3.507   4.104  10.890  0.2228  0.4533 -0.0700
  557TMC3    C8 8324   3.574   4.017  10.431 -0.2082 -0.6313  0.2727
  557TMC3    O1 8325   3.482   4.213  10.944  0.1393 -0.1254  0.4712
  557TMC3    O2 8326   3.590   4.091  10.333  0.4838  0.3070  0.6467
  558TMC3    C1 8327   0.914   1.965  10.128 -0.2808  0.1072  0.2052
  558TMC3    C2 8328   0.881   1.947  10.261  0.3672 -0.3761 -0.4170
  558TMC3    C3 8329   0.770   1.869  10.287  0.2733 -0.1997 -0.0994
  558TMC3    C4 8330   0.832   1.918  10.032 -0.1682 -0.2748  0.0518
  558TMC3    C5 8331   0.719   1.840  10.049  0.2627  0.4346 -0.6015
  558TMC3    C6 8332   0.695   1.821  10.183  0.0901 -0.6263 -0.2536
  558TMC3     C 8333   1.027   2.052  10.108  0.1341  0.4168 -0.0920
  558TMC3     O 8334   1.119   2.050  10.183 -0.8580  0.4151  0.4160
  558TMC3     H 8335   0.953   1.976  10.337 -1.4042 -0.3100  1.2314
  558TMC3    H1 8336   0.867   1.937   9.931 -0.5856 -1.2196 -0.2724
  558TMC3    H2 8337   0.608   1.761  10.208 -1.2865  2.4652  2.3742
  558TMC3    C7 8338   0.605   1.887   9.969 -0.1978 -0.4266 -0.1006
  558TMC3    C8 8339   0.736   1.826  10.422  0.3473  0.3271 -0.1714
  558TMC3    O1 8340   0.610   2.007   9.929 -0.6643 -0.3705  0.5167
  558TMC3    O2 8341   0.692   1.712  10.418 -0.1098 -0.2532  0.0488
  559MPD2     C 8342   1.299   3.138  10.451 -0.8870  0.3138  0.4369
  559MPD2    C1 8343   1.233   3.053  10.534 -0.0696  0.3198 -0.4004
  559MPD2    C2 8344   1.313   2.982  10.623  0.5534  0.2704 -0.1288
  559MPD2    C3 8345   1.450   2.986  10.622  0.1983  0.3538  0.1765
  559MPD2    C4 8346   1.516   3.065  10.527 -0.3316  0.0985 -0.5990
  559MPD2    C5 8347   1.440   3.138  10.442  0.9968  0.1703  0.2835
  559MPD2     H 8348   1.272   2.923  10.703 -1.2973  0.4010 -0.9864
  559MPD2    H1 8349   1.625   3.063  10.522 -0.3063 -3.0824  1.5721
  559MPD2    H2 8350   1.235   3.188  10.379 -0.7354 -0.6997 -0.4027
  559MPD2    H3 8351   1.485   3.202  10.367  2.3207 -0.5481  0.4711
  559MPD2     N 8352   1.515   2.919  10.729  0.5191 -0.6637  0.0314
  559MPD2    H5 8353   1.454   2.865  10.789  0.1559 -1.5990 -1.1871
  559MPD2    N1 8354   1.093   3.041  10.544  0.2013 -0.6568  0.1974
  559MPD2    H7 8355   1.042   3.116  10.498  0.5684 -0.4367  0.1473
  560TMC3    C1 8356   1.679   2.873  10.890  0.1553  0.2737  0.5681
  560TMC3    C2 8357   1.586   2.782  10.941 -0.2089  0.0139 -0.1755
  560TMC3    C3 8358   1.614   2.732  11.071  0.6922  0.0532 -0.2533
  560TMC3    C4 8359   1.781   2.931  10.964 -0.7008  0.0757  0.7151
  560TMC3    C5 8360   1.805   2.879  11.085  0.0402 -0.0354 -0.4056
  560TMC3    C6 8361   1.719   2.787  11.138 -0.2600 -0.1283  0.1815
  560TMC3     C 8362   1.650   2.931  10.760  0.1392 -0.6893 -0.2293
  560TMC3     O 8363   1.748   2.976  10.710 -0.6062 -0.4766 -0.5719
  560TMC3     H 8364   1.520   2.717  10.885  1.6111  0.1500 -2.5136
  560TMC3    H1 8365   1.846   3.006  10.920 -3.2613  2.4195  0.9479
  560TMC3    H2 8366   1.729   2.780  11.246  3.1217  2.6384  0.0413
  560TMC3    C7 8367   1.937   2.884  11.148  0.1801 -0.1540 -0.1948
  560TMC3    C8 8368   1.505   2.660  11.133 -0.6147 -0.0372 -0.6594
  560TMC3    O1 8369   1.959   2.779  11.209  0.4916 -0.5424  0.2532
  560TMC3    O2 8370   1.394   2.689  11.088 -0.1250 -0.3847 -0.1566
  561TMC3    C1 8371   3.941   2.257  11.702  0.1591 -0.0451 -0.2156
  561TMC3    C2 8372   3.835   2.170  11.720  0.4328 -0.8653  0.4441
  561TMC3    C3 8373   3.706   2.228  11.730 -0.7365  0.4224  0.3651
  561TMC3    C4 8374   3.916   2.395  11.670 -0.4028 -0.2982 -0.4802
  561TMC3    C5 8375   3.790   2.435  11.670 -0.7106  0.0890 -0.6704
  561TMC3    C6 8376   3.679   2.356  11.686 -0.6478  0.4721  0.6759
  561TMC3     C 8377   4.074   2.211  11.727 -0.5165  0.6222  0.3509
  561TMC3     O 8378   4.086   2.111  11.801  0.0460  0.0951 -0.3108
  561TMC3     H 8379   3.853   2.066  11.742  2.2253 -0.4518  0.9360
  561TMC3    H1 8380   3.998   2.461  11.693 -0.1132 -0.9338  0.3159
  561TMC3    H2 8381   3.578   2.391  11.669 -1.1687 -1.4127 -0.1503
  561TMC3    C7 8382   3.760   2.561  11.603  0.3991  0.5046 -0.1742
  561TMC3    C8 8383   3.597   2.136  11.757  0.3863 -0.5786  1.0292
  561TMC3    O1 8384   3.643   2.593  11.608 -0.3959 -0.3207  0.0009
  561TMC3    O2 8385   3.627   2.016  11.756 -0.4944  0.4392  0.0043
  562TMC3    C1 8386   0.955   3.269  16.742 -0.3042  0.3627 -0.2395
  562TMC3    C2 8387   0.851   3.357  16.716 -0.0173  0.5507  0.6682
  562TMC3    C3 8388   0.770   3.337  16.607 -0.1903  0.5055  0.1398
  562TMC3    C4 8389   0.977   3.164  16.654  0.0081  0.0961  0.3509
  562TMC3    C5 8390   0.880   3.135  16.565 -0.5119  0.0058 -0.3938
  562TMC3    C6 8391   0.779   3.222  16.535  0.0723  0.1789  0.4081
  562TMC3     C 8392   1.072   3.324  16.812  0.5661 -0.2608 -0.1561
  562TMC3     O 8393   1.064   3.439  16.859  0.6831  0.6004 -0.3823
  562TMC3     H 8394   0.835   3.441  16.782  0.3940  1.5942 -0.5710
  562TMC3    H1 8395   1.043   3.080  16.673 -0.4723 -0.4612 -0.4361
  562TMC3    H2 8396   0.711   3.199  16.455  0.1521  0.4317  0.2676
  562TMC3    C7 8397   0.879   3.017  16.489  0.4882 -0.7077  0.0854
  562TMC3    C8 8398   0.675   3.439  16.575  0.8659 -0.3676  0.1161
  562TMC3    O1 8399   0.776   2.983  16.425  0.0164  0.1036  0.1080
  562TMC3    O2 8400   0.642   3.517  16.662  0.3243  0.4577  0.1494
  563MPD2     C 8401   2.927   4.556  15.594 -0.1057 -0.2790  0.1338
  563MPD2    C1 8402   2.958   4.561  15.733  0.0346 -0.7713 -0.7785
  563MPD2    C2 8403   3.067   4.486  15.777 -0.1192 -0.6143 -0.0880
  563MPD2    C3 8404   3.143   4.413  15.689 -0.1776  0.5024 -0.8475
  563MPD2    C4 8405   3.103   4.406  15.557 -0.6287  0.0817 -0.0582
  563MPD2    C5 8406   3.004   4.486  15.506  0.1033  0.4581 -0.0942
  563MPD2     H 8407   3.086   4.474  15.883  1.2409  0.5129 -0.1902
  563MPD2    H1 8408   3.151   4.348  15.479 -1.5948  0.3427 -0.8414
  563MPD2    H2 8409   2.836   4.606  15.564  0.6518  1.2021  0.3324
  563MPD2    H3 8410   2.968   4.468  15.406  0.9408 -2.3915  0.0954
  563MPD2     N 8411   3.232   4.317  15.743 -0.3572 -0.0619 -0.3226
  563MPD2    H5 8412   3.251   4.326  15.843  0.2716 -0.2604 -0.4260
  563MPD2    N1 8413   2.869   4.614  15.827  0.6917  0.3184  0.3688
  563MPD2    H7 8414   2.777   4.633  15.791  0.3626  2.2346  2.2261
  564TMC3    C1 8415   2.782   4.599  16.039  1.0941 -0.6187  0.2153
  564TMC3    C2 8416   2.671   4.554  15.965 -0.1411 -0.4928 -0.0183
  564TMC3    C3 8417   2.605   4.440  16.012  0.6426 -0.4029 -0.0214
  564TMC3    C4 8418   2.836   4.523  16.140  0.8466 -0.1776 -0.1739
  564TMC3    C5 8419   2.784   4.400  16.163 -0.2102 -0.1558  0.1363
  564TMC3    C6 8420   2.668   4.367  16.104  0.0873 -0.7293  0.3147
  564TMC3     C 8421   2.895   4.640  15.958 -0.7957  0.4730  0.5897
  564TMC3     O 8422   3.009   4.646  16.008 -0.3707  0.1224 -0.1592
  564TMC3     H 8423   2.630   4.610  15.881 -2.2047 -0.7688  0.7869
  564TMC3    H1 8424   2.923   4.546  16.200  0.8031  1.5387 -0.7671
  564TMC3    H2 8425   2.635   4.267  16.129  2.5779 -1.5241  0.4084
  564TMC3    C7 8426   2.867   4.293  16.138 -0.1733  0.5177  0.6368
  564TMC3    C8 8427   2.539   4.360  15.916  0.0066 -0.2045 -0.0886
  564TMC3    O1 8428   2.860   4.193  16.211 -0.2683 -0.1383  0.1528
  564TMC3    O2 8429   2.465   4.282  15.979  0.1066 -0.0036 -0.1315
  565TMC3    C1 8430   3.429   1.983  10.598  0.2284 -0.7602  0.1021
  565TMC3    C2 8431   3.399   1.940  10.723 -0.3851 -0.0145 -0.0920
  565TMC3    C3 8432   3.291   1.857  10.736 -0.0829 -0.4833  0.3137
  565TMC3    C4 8433   3.361   1.942  10.482  0.2277 -0.6711 -0.2477
  565TMC3    C5 8434   3.258   1.855  10.497  0.2938 -0.7664 -0.0876
  565TMC3    C6 8435   3.217   1.819  10.624  0.2807  0.0492  0.0752
  565TMC3     C 8436   3.549   2.047  10.571  0.6228  1.0974  0.2966
  565TMC3     O 8437   3.567   2.119  10.476 -0.2333 -0.1995 -0.3902
  565TMC3     H 8438   3.465   1.956  10.808  1.6952  1.1735 -1.9426
  565TMC3    H1 8439   3.405   1.973  10.388 -4.4102  0.4842 -2.0403
  565TMC3    H2 8440   3.120   1.779  10.650  0.0891 -0.7515 -1.8656
  565TMC3    C7 8441   3.175   1.839  10.379 -0.0167 -0.4382  0.1480
  565TMC3    C8 8442   3.234   1.829  10.872  0.4801 -0.4554  0.0467
  565TMC3    O1 8443   3.164   1.942  10.316  0.0089  0.3050  0.1825
  565TMC3    O2 8444   3.252   1.919  10.950  0.2074 -0.0969  0.2407
  566MPD2     C 8445   0.080   2.411  14.011  0.0823  0.2263 -0.4303
  566MPD2    C1 8446   0.078   2.534  13.943 -0.1514 -0.2543  0.0153
  566MPD2    C2 8447   4.708   2.566  13.874  0.2628  0.1360 -0.2916
  566MPD2    C3 8448   4.597   2.480  13.879  0.0041  0.8747  0.4676
  566MPD2    C4 8449   4.599   2.361  13.949 -0.1146 -0.2964 -0.0614
  566MPD2    C5 8450   4.712   2.326  14.020  0.7245 -0.0734  0.8613
  566MPD2     H 8451   4.697   2.657  13.816  1.5702  1.2533  1.2225
  566MPD2    H1 8452   4.514   2.295  13.955  1.6628 -2.7114 -1.5883
  566MPD2    H2 8453   0.166   2.376  14.067 -0.4048  0.1082  0.2432
  566MPD2    H3 8454   4.724   2.237  14.080  0.0750 -0.7492 -0.0125
  566MPD2     N 8455   4.480   2.498  13.802 -0.0210 -0.6251 -0.3101
  566MPD2    H5 8456   4.394   2.454  13.832 -0.0917  0.8193  1.6118
  566MPD2    N1 8457   0.197   2.610  13.941 -0.3955  0.2271  0.1557
  566MPD2    H7 8458   0.281   2.566  13.977  0.2625  0.6241 -0.9001
  567TMC3    C1 8459   0.355   2.754  13.841  0.1409 -0.9019  0.4738
  567TMC3    C2 8460   0.397   2.816  13.725  0.3016 -0.6339  0.2316
  567TMC3    C3 8461   0.535   2.825  13.716 -0.0713  0.2979  0.1543
  567TMC3    C4 8462   0.442   2.726  13.940 -0.2928  0.5736 -0.7889
  567TMC3    C5 8463   0.578   2.740  13.928 -0.3563 -0.0163 -0.1738
  567TMC3    C6 8464   0.627   2.774  13.809 -0.1018 -0.8849 -0.5575
  567TMC3     C 8465   0.219   2.723  13.861  0.2246 -0.1706 -0.0390
  567TMC3     O 8466   0.141   2.770  13.777 -0.6297  0.0364  0.3369
  567TMC3     H 8467   0.332   2.839  13.642  0.5015  0.6631  0.4441
  567TMC3    H1 8468   0.402   2.690  14.035 -0.2839  0.3079 -0.8870
  567TMC3    H2 8469   0.733   2.771  13.786 -0.5458  0.5690 -2.7956
  567TMC3    C7 8470   0.679   2.696  14.026 -0.1893  0.8518  0.3889
  567TMC3    C8 8471   0.571   2.877  13.586  0.9440 -0.1876 -0.9292
  567TMC3    O1 8472   0.797   2.689  13.982  0.0999  0.5570  0.2842
  567TMC3    O2 8473   0.478   2.893  13.507  0.3358 -0.3267  0.0731
  568MPD2     C 8474   2.761   2.816  15.817  0.9721  0.4982  0.7094
  568MPD2    C1 8475   2.764   2.875  15.942  0.3703 -0.4252 -0.4317
  568MPD2    C2 8476   2.718   3.006  15.945  0.0750 -0.4820 -0.0587
  568MPD2    C3 8477   2.674   3.068  15.826 -0.4391 -0.2912  0.8555
  568MPD2    C4 8478   2.686   3.013  15.700  0.0933 -0.2827 -0.1126
  568MPD2    C5 8479   2.716   2.882  15.707  0.2293 -0.3771  0.1276
  568MPD2     H 8480   2.698   3.059  16.038  0.3526  1.8313 -1.3250
  568MPD2    H1 8481   2.661   3.067  15.610  0.2508  4.3439  2.6093
  568MPD2    H2 8482   2.788   2.712  15.804  3.0569  1.2842 -1.2299
  568MPD2    H3 8483   2.701   2.821  15.618  0.4435 -2.3670  1.4434
  568MPD2     N 8484   2.627   3.203  15.845 -0.3559  0.4181 -0.3532
  568MPD2    H5 8485   2.627   3.237  15.940  2.1748  2.9958 -1.2832
  568MPD2    N1 8486   2.822   2.803  16.050  0.2169 -0.3405 -0.5170
  568MPD2    H7 8487   2.860   2.710  16.037 -0.9096 -0.7238 -0.9819
  569TMC3    C1 8488   2.600   3.432  15.797 -0.1433  0.3708  0.0747
  569TMC3    C2 8489   2.551   3.451  15.923 -0.1581  0.7901 -0.3859
  569TMC3    C3 8490   2.511   3.573  15.971  0.9382  0.6006  0.0328
  569TMC3    C4 8491   2.592   3.532  15.704  0.4452 -0.0327 -0.0039
  569TMC3    C5 8492   2.566   3.659  15.754  0.1856 -1.1296  0.0187
  569TMC3    C6 8493   2.513   3.673  15.880 -0.8673  0.9177 -0.1002
  569TMC3     C 8494   2.611   3.294  15.743  0.3952  0.4339 -0.2240
  569TMC3     O 8495   2.629   3.286  15.623 -0.0392 -0.9619  0.1613
  569TMC3     H 8496   2.556   3.373  15.997 -1.2632  0.7519 -0.3520
  569TMC3    H1 8497   2.609   3.517  15.598 -0.9826  1.9551 -0.5182
  569TMC3    H2 8498   2.479   3.768  15.919 -0.1086  1.3058 -0.3951
  569TMC3    C7 8499   2.563   3.771  15.664  0.6126  0.9653  0.4140
  569TMC3    C8 8500   2.532   3.594  16.118  0.6585  0.8147  0.0540
  569TMC3    O1 8501   2.556   3.740  15.544 -0.2679  0.4099  0.2642
  569TMC3    O2 8502   2.484   3.509  16.193 -0.2683  0.2727  0.4097
  570TMC3    C1 8503   2.308   2.048  16.319 -0.1954 -0.0461  0.4856
  570TMC3    C2 8504   2.397   2.029  16.212 -0.8640  0.0258  0.0784
  570TMC3    C3 8505   2.413   2.142  16.131  0.4435 -0.3017  0.0576
  570TMC3    C4 8506   2.218   2.149  16.324  0.2419 -0.3395 -0.0014
  570TMC3    C5 8507   2.249   2.260  16.245  0.5318  0.2133 -0.1927
  570TMC3    C6 8508   2.348   2.258  16.155  0.1069 -0.5765  0.4684
  570TMC3     C 8509   2.308   1.938  16.416  0.4796  0.1632 -0.1639
  570TMC3     O 8510   2.346   1.828  16.374 -0.3741 -0.0028 -0.7514
  570TMC3     H 8511   2.465   1.945  16.215 -1.0261 -0.1121 -0.0596
  570TMC3    H1 8512   2.144   2.164  16.402  0.3145  1.4699 -0.2887
  570TMC3    H2 8513   2.382   2.352  16.114 -0.2799 -0.1040  1.2433
  570TMC3    C7 8514   2.185   2.385  16.279  0.3285  0.1982 -0.1905
  570TMC3    C8 8515   2.528   2.148  16.041  0.2499  0.0420  0.9193
  570TMC3    O1 8516   2.171   2.407  16.401 -0.0893  0.1092  0.4304
  570TMC3    O2 8517   2.573   2.258  16.009  0.2354 -0.6559  0.8016
  571MPD2     C 8518   4.582   3.682   0.461 -0.1954  0.1505  0.1705
  571MPD2    C1 8519   4.496   3.666   0.562 -0.2287  0.2008 -0.4081
  571MPD2    C2 8520   4.479   3.771   0.651  0.0186 -0.0607  0.2040
  571MPD2    C3 8521   4.563   3.884   0.655 -0.2268  0.4817 -0.6645
  571MPD2    C4 8522   4.659   3.885   0.555  0.5472  0.2789  0.2198
  571MPD2    C5 8523   4.673   3.787   0.460  0.2478 -0.5228  0.4429
  571MPD2     H 8524   4.396   3.768   0.720 -0.1306  0.4920  0.0464
  571MPD2    H1 8525   4.739   3.958   0.552  0.7393 -0.0576 -2.2527
  571MPD2    H2 8526   4.590   3.609   0.382 -2.0723 -0.1414  0.2476
  571MPD2    H3 8527   0.007   3.790   0.384 -0.0929 -0.6024  0.0917
  571MPD2     N 8528   4.578   3.974   0.758 -0.0241  0.1012  0.6306
  571MPD2    H5 8529   4.650   4.046   0.747  3.4531 -3.2914  1.1644
  571MPD2    N1 8530   4.415   3.554   0.549  0.0588 -0.0438  0.0592
  571MPD2    H7 8531   4.435   3.497   0.468  1.8998 -1.2982  1.3929
  572TMC3    C1 8532   4.493   4.103   0.942 -0.2273 -0.2769  0.5625
  572TMC3    C2 8533   4.393   4.106   1.040 -0.0489 -0.2746  0.6210
  572TMC3    C3 8534   4.342   4.231   1.067  0.0022  0.3089 -0.4035
  572TMC3    C4 8535   4.547   4.225   0.903  0.7753 -1.0858  0.2488
  572TMC3    C5 8536   4.499   4.345   0.945 -0.7633  0.0036  0.5930
  572TMC3    C6 8537   4.386   4.348   1.020  0.1987  0.2226  0.2061
  572TMC3     C 8538   4.481   3.992   0.854  1.1205 -0.0874  0.1099
  572TMC3     O 8539   4.369   3.947   0.858 -0.3364 -0.0480 -0.8942
  572TMC3     H 8540   4.339   4.020   1.079  1.0672 -1.7134 -0.9719
  572TMC3    H1 8541   4.634   4.228   0.838  2.6151  0.8693  2.7604
  572TMC3    H2 8542   4.323   4.436   1.029  0.7527  0.3992  2.4004
  572TMC3    C7 8543   4.535   4.460   0.862  0.1210 -0.0060  0.3505
  572TMC3    C8 8544   4.208   4.228   1.115  0.2610 -0.2432  0.0576
  572TMC3    O1 8545   4.620   4.440   0.780 -0.4026  0.9657 -0.3584
  572TMC3    O2 8546   4.144   4.128   1.093  0.3699 -0.4494 -0.1673
  573MPD2     C 8547   1.492   4.399  17.056  0.4239 -0.1302  0.1720
  573MPD2    C1 8548   1.368   4.437  17.102  0.2347  0.1517 -0.1261
  573MPD2    C2 8549   1.263   4.424  17.012 -0.4493  0.2479 -0.4547
  573MPD2    C3 8550   1.274   4.386  16.878  0.6319 -0.3480  0.0620
  573MPD2    C4 8551   1.398   4.352  16.840  0.1734 -0.1220  0.2711
  573MPD2    C5 8552   1.501   4.363  16.925  0.2177  0.0999 -0.2332
  573MPD2     H 8553   1.167   4.457  17.051 -0.0162  1.9883 -0.8567
  573MPD2    H1 8554   1.426   4.324  16.740 -1.7715 -1.1128  0.0105
  573MPD2    H2 8555   1.582   4.401  17.116 -0.1502  1.7046  0.9886
  573MPD2    H3 8556   1.603   4.342  16.897  0.4629  1.3890 -0.2868
  573MPD2     N 8557   1.174   4.378  16.780  0.5809 -0.1806  0.0083
  573MPD2    H5 8558   1.201   4.356  16.685  1.2418  2.7186 -0.4691
  573MPD2    N1 8559   1.362   4.484  17.235 -0.0847  0.0553  0.6660
  573MPD2    H7 8560   1.454   4.490  17.277  0.2531  1.3621 -0.2451
  574TMC3    C1 8561   0.956   4.428  16.695 -0.1761  0.0622  0.1989
  574TMC3    C2 8562   0.826   4.444  16.742 -0.2004 -0.1142  1.0982
  574TMC3    C3 8563   0.750   4.528  16.668  0.6649  0.1447 -0.3093
  574TMC3    C4 8564   1.002   4.470  16.569  0.5396  0.8280  0.3724
  574TMC3    C5 8565   0.901   4.535  16.499  0.3888  0.0871  0.0083
  574TMC3    C6 8566   0.782   4.585  16.550  0.0348  0.2797  0.8226
  574TMC3     C 8567   1.041   4.405  16.808 -0.6409  0.6999  0.0318
  574TMC3     O 8568   0.994   4.402  16.921 -0.0328  0.4884  0.3131
  574TMC3     H 8569   0.794   4.425  16.844  0.1223 -1.5410  0.9334
  574TMC3    H1 8570   1.108   4.486  16.553  0.4150  1.8725  0.6029
  574TMC3    H2 8571   0.715   4.649  16.494 -0.3647 -1.8888 -1.1735
  574TMC3    C7 8572   0.923   4.552  16.357  0.1810 -0.0244 -1.1128
  574TMC3    C8 8573   0.646   4.590  16.753 -0.6035 -0.1155 -1.1312
  574TMC3    O1 8574   0.864   4.639  16.294 -0.0319  0.0372 -0.5555
  574TMC3    O2 8575   0.577   4.511  16.816  0.3041  0.5734  0.2176
  575TMC3    C1 8576   2.907   0.890  11.029 -0.5535  0.4175  0.1699
  575TMC3    C2 8577   2.817   0.851  10.933 -0.0989 -0.6826  0.5780
  575TMC3    C3 8578   2.768   0.946  10.848  0.7160 -0.0712 -0.3580
  575TMC3    C4 8579   2.945   1.019  11.048  0.1107  0.3361 -0.1628
  575TMC3    C5 8580   2.887   1.113  10.968 -1.1777 -0.4521  0.1129
  575TMC3    C6 8581   2.801   1.077  10.868 -0.0307  0.2401 -0.1317
  575TMC3     C 8582   2.958   0.795  11.127  0.8304  0.4502 -0.0668
  575TMC3     O 8583   3.025   0.841  11.214 -0.6146  0.3388 -0.3290
  575TMC3     H 8584   2.802   0.749  10.899  0.3969  0.1341 -2.1441
  575TMC3    H1 8585   3.031   1.044  11.109  1.1546 -0.0625 -1.4873
  575TMC3    H2 8586   2.759   1.164  10.817 -0.7714  1.5970  2.7843
  575TMC3    C7 8587   2.950   1.239  10.955 -0.2674  0.3610 -0.1860
  575TMC3    C8 8588   2.664   0.906  10.754 -0.7924  0.1828  0.3567
  575TMC3    O1 8589   2.975   1.265  10.837 -0.7030  0.2123 -0.3467
  575TMC3    O2 8590   2.616   0.794  10.776 -0.4322  0.4480  0.1972
  576MPD2     C 8591   2.750   2.066  12.917 -0.3633  0.3509 -0.2504
  576MPD2    C1 8592   2.769   2.190  12.855  0.2569 -0.6077  0.2313
  576MPD2    C2 8593   2.761   2.305  12.936 -0.0298 -0.3305  0.3007
  576MPD2    C3 8594   2.708   2.300  13.064 -0.0849  0.3794  0.1930
  576MPD2    C4 8595   2.671   2.179  13.116  0.0785 -0.3303  0.7218
  576MPD2    C5 8596   2.702   2.062  13.042 -0.2765 -0.3799  0.0474
  576MPD2     H 8597   2.786   2.401  12.892  0.5940 -0.7254 -0.2138
  576MPD2    H1 8598   2.631   2.162  13.215 -0.7625 -0.3902  0.3776
  576MPD2    H2 8599   2.754   1.974  12.860 -2.2070 -0.9214  1.6427
  576MPD2    H3 8600   2.682   1.967  13.091 -0.6702 -1.5139 -2.3315
  576MPD2     N 8601   2.688   2.417  13.140  0.1128  0.4746  0.2996
  576MPD2    H5 8602   2.730   2.503  13.107 -1.3418  0.7757 -0.7335
  576MPD2    N1 8603   2.784   2.202  12.713  0.2252  0.8958  0.2417
  576MPD2    H7 8604   2.805   2.295  12.680 -0.4625 -0.0041 -2.8253
  577TMC3    C1 8605   2.810   2.149  12.482 -0.3677  0.5347  0.1879
  577TMC3    C2 8606   2.889   2.072  12.400 -0.0747 -0.1420 -0.1646
  577TMC3    C3 8607   2.940   2.130  12.286  0.2920 -0.2550 -0.0277
  577TMC3    C4 8608   2.765   2.272  12.441  0.3274 -0.4465  0.0684
  577TMC3    C5 8609   2.814   2.324  12.326  0.1531 -0.8195 -0.5108
  577TMC3    C6 8610   2.898   2.256  12.245  0.6011  0.2972  0.3131
  577TMC3     C 8611   2.790   2.101  12.622  0.2268  0.8421  0.6106
  577TMC3     O 8612   2.777   1.982  12.642 -0.3541  0.1020 -0.0591
  577TMC3     H 8613   2.937   1.980  12.434  0.0756 -0.0767 -0.1979
  577TMC3    H1 8614   2.700   2.332  12.504  0.4150  0.9083 -1.1323
  577TMC3    H2 8615   2.945   2.301  12.159  2.3044 -1.3534  0.3855
  577TMC3    C7 8616   2.815   2.468  12.306  0.3133 -0.9631  0.4794
  577TMC3    C8 8617   3.060   2.064  12.222  0.2124  1.1030  0.0972
  577TMC3    O1 8618   2.800   2.553  12.397  0.4190 -0.0358 -0.8232
  577TMC3    O2 8619   3.078   1.949  12.261  0.7540 -0.5371  0.0808
  578MPD2     C 8620   1.675   2.455   0.473 -0.7075 -1.1127 -0.2303
  578MPD2    C1 8621   1.813   2.464   0.447 -0.5648  0.1272  0.2920
  578MPD2    C2 8622   1.898   2.421   0.549 -0.5993 -0.4966  0.1461
  578MPD2    C3 8623   1.851   2.366   0.665 -0.6312 -0.3095 -0.2609
  578MPD2    C4 8624   1.715   2.337   0.671  1.1242 -0.5886 -0.2517
  578MPD2    C5 8625   1.629   2.388   0.587  0.0273 -0.4332 -0.0567
  578MPD2     H 8626   2.005   2.439   0.540 -0.7651 -0.5347 -2.0231
  578MPD2    H1 8627   1.670   2.269   0.742  0.6087  0.0488  0.0276
  578MPD2    H2 8628   1.602   2.493   0.403 -0.1656  1.8128  0.7705
  578MPD2    H3 8629   1.523   2.365   0.592 -0.2484  1.1683  1.1478
  578MPD2     N 8630   1.945   2.303   0.749  0.3426  0.4481 -0.2285
  578MPD2    H5 8631   2.042   2.301   0.722 -0.0098 -0.6180 -1.3965
  578MPD2    N1 8632   1.863   2.533   0.334  0.3456  0.3412  0.1200
  578MPD2    H7 8633   1.801   2.582   0.270  0.1064  1.2061  1.0002
  579TMC3    C1 8634   2.021   2.207   0.942 -0.0392  0.0201 -0.3219
  579TMC3    C2 8635   2.051   2.269   1.053 -0.8779  0.5981 -0.0951
  579TMC3    C3 8636   2.176   2.251   1.100  0.2249 -0.9094  0.1057
  579TMC3    C4 8637   2.107   2.117   0.884  0.7082  0.9462  0.4509
  579TMC3    C5 8638   2.232   2.092   0.933 -0.4401  0.4874 -1.1247
  579TMC3    C6 8639   2.270   2.166   1.038  0.3642  0.1723 -0.6976
  579TMC3     C 8640   1.909   2.259   0.874  0.6849  1.0240  0.3162
  579TMC3     O 8641   1.815   2.295   0.946  0.0448 -0.2260 -0.3659
  579TMC3     H 8642   1.979   2.337   1.095 -1.1071 -0.2000  0.8062
  579TMC3    H1 8643   2.060   2.071   0.798 -0.7174  1.8244  0.7667
  579TMC3    H2 8644   2.358   2.134   1.093 -1.9089 -2.3255  1.5151
  579TMC3    C7 8645   2.269   1.951   0.944  0.7225  0.5575 -0.4020
  579TMC3    C8 8646   2.215   2.330   1.210 -0.5768 -0.2699 -0.3882
  579TMC3    O1 8647   2.353   1.921   1.027 -0.4630 -0.2481 -0.3901
  579TMC3    O2 8648   2.128   2.376   1.284 -0.9153  0.6131  0.1580
  580TMC3    C1 8649   1.522   1.275  12.491  0.5132 -0.6073  0.8460
  580TMC3    C2 8650   1.563   1.306  12.362 -0.0742  0.3766  0.0602
  580TMC3    C3 8651   1.593   1.197  12.281  0.2632  0.2804 -0.5961
  580TMC3    C4 8652   1.511   1.150  12.543 -0.0081 -0.5802  0.7904
  580TMC3    C5 8653   1.557   1.057  12.457  0.6781 -0.2194 -0.4424
  580TMC3    C6 8654   1.587   1.073  12.327  0.0052 -0.5576  0.5107
  580TMC3     C 8655   1.429   1.371  12.536 -0.1998  0.3735  0.7086
  580TMC3     O 8656   1.470   1.487  12.531  0.0826 -0.0587  0.4317
  580TMC3     H 8657   1.563   1.410  12.334 -0.9051  0.5624  0.7429
  580TMC3    H1 8658   1.470   1.128  12.641 -0.0688  1.4221  1.2143
  580TMC3    H2 8659   1.593   0.993  12.254  1.4860  0.7138 -0.7801
  580TMC3    C7 8660   1.568   0.923  12.508 -0.4314 -0.0995 -0.2545
  580TMC3    C8 8661   1.540   1.200  12.147 -1.0609 -1.0522  0.2096
  580TMC3    O1 8662   1.574   0.911  12.630  0.4252 -0.1974  0.8328
  580TMC3    O2 8663   1.478   1.100  12.108  0.4844 -0.8035  0.3464
  581MPD2     C 8664   3.655   0.522  15.401  0.2234  0.7356  0.4879
  581MPD2    C1 8665   3.748   0.612  15.363 -0.0133 -0.0666  0.6821
  581MPD2    C2 8666   3.709   0.722  15.286 -1.2231  0.6193 -0.0722
  581MPD2    C3 8667   3.579   0.744  15.258  0.1288 -0.3387  0.1989
  581MPD2    C4 8668   3.486   0.664  15.322 -0.4415 -0.2402 -0.3280
  581MPD2    C5 8669   3.525   0.550  15.388 -0.0680 -0.0612 -0.4238
  581MPD2     H 8670   3.785   0.781  15.236 -0.0242 -0.4038  0.5609
  581MPD2    H1 8671   3.380   0.670  15.303 -0.8589 -1.1979  1.6245
  581MPD2    H2 8672   3.698   0.439  15.457  0.9657  0.3773 -0.6140
  581MPD2    H3 8673   3.455   0.479  15.430  0.6222  0.2812  1.2810
  581MPD2     N 8674   3.543   0.850  15.177  0.3449  0.4313  0.0643
  581MPD2    H5 8675   3.602   0.928  15.151  0.7078  0.0365 -0.2757
  581MPD2    N1 8676   3.890   0.579  15.390 -0.1710  0.4116  0.4497
  581MPD2    H7 8677   3.897   0.480  15.410 -2.0189 -0.0996 -1.4363
  582TMC3    C1 8678   4.120   0.614  15.430  0.0004  0.5128 -0.2719
  582TMC3    C2 8679   4.201   0.704  15.506 -0.4615  0.1815  0.1167
  582TMC3    C3 8680   4.292   0.658  15.591 -0.4968  1.0243 -0.4761
  582TMC3    C4 8681   4.125   0.476  15.457 -0.1026 -0.2249 -0.2830
  582TMC3    C5 8682   4.210   0.437  15.554 -0.0586 -1.2701 -0.4606
  582TMC3    C6 8683   4.305   0.521  15.613  0.2901  0.1585  0.1755
  582TMC3     C 8684   3.997   0.661  15.372 -0.0146 -0.6375  0.1365
  582TMC3     O 8685   3.991   0.783  15.358 -0.4107 -0.2552 -0.3819
  582TMC3     H 8686   4.167   0.807  15.507  2.3525  1.1301 -3.3040
  582TMC3    H1 8687   4.069   0.396  15.409 -0.4989  1.7819 -3.1247
  582TMC3    H2 8688   4.376   0.474  15.681 -2.0145 -2.9166  0.4939
  582TMC3    C7 8689   4.229   0.295  15.577 -0.5092 -0.4845 -1.0133
  582TMC3    C8 8690   4.298   0.735  15.709 -0.4508  0.4059 -0.9416
  582TMC3    O1 8691   4.345   0.256  15.560 -0.4230  0.0329  0.3086
  582TMC3    O2 8692   4.195   0.787  15.753  0.2953  0.2953 -0.2182
  583MPD2     C 8693   3.956   2.635  16.878 -0.6221 -0.3407 -0.3719
  583MPD2    C1 8694   3.903   2.690  16.761 -0.0860 -0.3560 -0.2568
  583MPD2    C2 8695   3.785   2.762  16.778  0.4819 -0.0359 -0.7082
  583MPD2    C3 8696   3.724   2.786  16.901 -0.3581  0.4837 -0.0426
  583MPD2    C4 8697   3.779   2.735  17.013 -0.0086 -0.1340 -0.5667
  583MPD2    C5 8698   3.895   2.659  16.999 -0.3465  0.6797 -0.1735
  583MPD2     H 8699   3.741   2.797  16.686  1.9303  1.6691 -0.7516
  583MPD2    H1 8700   3.753   2.756  17.116  1.5502  0.3640 -0.2820
  583MPD2    H2 8701   4.044   2.572  16.882 -1.4482 -1.5293 -0.9328
  583MPD2    H3 8702   3.939   2.623  17.091 -0.7268 -0.1222 -0.3063
  583MPD2     N 8703   3.606   2.866  16.904  0.6178 -0.2654 -0.1539
  583MPD2    H5 8704   3.574   2.904  16.816 -0.5102  3.6688  1.9528
  583MPD2    N1 8705   3.970   2.679  16.632  0.3391 -0.0812  0.0215
  583MPD2    H7 8706   3.938   2.734  16.553 -0.2588  1.8109  1.5752
  584TMC3    C1 8707   3.428   2.987  17.008  0.4379  0.6997  0.7988
  584TMC3    C2 8708   3.433   3.068  16.902 -1.3620 -0.1083 -0.3742
  584TMC3    C3 8709   3.330   3.148  16.882  0.3823 -0.3690 -0.7251
  584TMC3    C4 8710   3.330   2.996  17.101 -0.1328  0.0768 -0.3549
  584TMC3    C5 8711   3.235   3.087  17.074 -0.1543 -0.0047 -0.5110
  584TMC3    C6 8712   3.225   3.151  16.959  0.4626 -0.5371 -0.3655
  584TMC3     C 8713   3.540   2.898  17.018  0.3169  0.7349 -0.4039
  584TMC3     O 8714   3.544   2.839  17.125  0.2109 -0.0501 -0.2289
  584TMC3     H 8715   3.518   3.070  16.835 -1.6578  0.1826 -0.7427
  584TMC3    H1 8716   3.334   2.945  17.196  0.6264 -0.1565 -0.5102
  584TMC3    H2 8717   3.154   3.231  16.945  0.0560 -0.5095  1.7387
  584TMC3    C7 8718   3.155   3.135  17.184 -0.2193 -0.3936  0.0413
  584TMC3    C8 8719   3.356   3.277  16.825  0.4338  0.1670  0.0210
  584TMC3    O1 8720   3.209   3.192  17.273 -0.2878 -0.8176 -0.5213
  584TMC3    O2 8721   3.279   3.336  16.752 -0.8584 -0.0938  0.1666
  585MPD2     C 8722   3.258   2.109   0.578 -0.2101 -0.9278  0.3721
  585MPD2    C1 8723   3.359   2.144   0.487  0.0363 -0.1796  0.1509
  585MPD2    C2 8724   3.415   2.040   0.416  0.0597 -0.3281  0.6529
  585MPD2    C3 8725   3.361   1.911   0.428 -0.1468 -0.5424 -0.2381
  585MPD2    C4 8726   3.263   1.879   0.512 -0.3377  0.1258  0.0361
  585MPD2    C5 8727   3.209   1.983   0.587 -0.3053  0.0177 -0.2807
  585MPD2     H 8728   3.485   2.057   0.335 -2.7443 -0.2632 -1.7276
  585MPD2    H1 8729   3.217   1.782   0.517  2.0046 -1.0213 -0.5583
  585MPD2    H2 8730   3.214   2.182   0.645  2.5144  1.4796 -0.4589
  585MPD2    H3 8731   3.131   1.956   0.657 -1.1482  0.1618 -1.1503
  585MPD2     N 8732   3.384   1.811   0.335  0.0162  0.1648  0.2480
  585MPD2    H5 8733   3.325   1.728   0.334 -0.8204  0.7662 -0.1978
  585MPD2    N1 8734   3.389   2.280   0.464  0.0528 -0.2474  0.3324
  585MPD2    H7 8735   3.327   2.344   0.512 -1.6326 -0.7669 -1.1593
  586TMC3    C1 8736   3.443   1.754   0.114 -0.3380 -0.1971  0.4462
  586TMC3    C2 8737   3.546   1.731   0.028  0.1919  0.6784  0.1209
  586TMC3    C3 8738   3.539   1.760  17.666 -0.0154 -0.3687 -0.0860
  586TMC3    C4 8739   3.328   1.802   0.061  0.1192  0.4837 -0.0610
  586TMC3    C5 8740   3.320   1.838  17.699  0.2059  0.2512  1.0226
  586TMC3    C6 8741   3.421   1.814  17.611 -0.6522 -0.4324  0.7409
  586TMC3     C 8742   3.480   1.814   0.240  0.2423  0.2564  0.1452
  586TMC3     O 8743   3.587   1.876   0.242 -0.0450  0.5414 -0.3714
  586TMC3     H 8744   3.643   1.704   0.068  0.7992  1.7173 -0.6494
  586TMC3    H1 8745   3.239   1.819   0.121  0.0594  0.9085 -0.2630
  586TMC3    H2 8746   3.415   1.855  17.511 -1.3800  0.7198  1.2661
  586TMC3    C7 8747   3.183   1.853  17.644  0.5242 -0.3575  0.5583
  586TMC3    C8 8748   3.621   1.675  17.579 -0.2433  1.4467  0.4670
  586TMC3    O1 8749   3.093   1.797  17.710 -1.0167 -0.1139 -0.8139
  586TMC3    O2 8750   3.701   1.600  17.638  0.3634 -0.4185 -0.2579
  587TMC3    C1 8751   1.006   0.715  16.449 -0.0988  0.5025  0.0070
  587TMC3    C2 8752   0.991   0.839  16.398  0.3026 -0.1938  0.3015
  587TMC3    C3 8753   1.024   0.948  16.478 -0.3755  0.2682  0.6635
  587TMC3    C4 8754   1.042   0.695  16.585 -0.2454  0.1232  0.1697
  587TMC3    C5 8755   1.096   0.804  16.649  0.9504 -0.3967  0.2771
  587TMC3    C6 8756   1.083   0.931  16.595  0.4238 -0.5235  0.2212
  587TMC3     C 8757   0.918   0.620  16.383  0.0259 -0.5548 -0.4883
  587TMC3     O 8758   0.933   0.594  16.267  0.2519 -0.2612 -0.4773
  587TMC3     H 8759   0.940   0.861  16.305  1.2807 -2.3277 -0.7357
  587TMC3    H1 8760   1.035   0.598  16.633  1.1681  0.2720  0.6629
  587TMC3    H2 8761   1.139   1.015  16.634  0.4148 -0.1587 -0.5647
  587TMC3    C7 8762   1.151   0.797  16.786 -0.3355  0.0400  0.0121
  587TMC3    C8 8763   0.992   1.084  16.442  0.1742 -1.1245 -0.3493
  587TMC3    O1 8764   1.153   0.900  16.854 -0.4102 -0.6208 -0.7047
  587TMC3    O2 8765   0.990   1.096  16.320 -0.0862  0.2047 -0.0127
  588TMC3    C1 8766   2.680   2.170  10.180 -0.3498 -1.0932 -0.1974
  588TMC3    C2 8767   2.672   2.055  10.256  0.2417  0.3288  0.4365
  588TMC3    C3 8768   2.778   2.033  10.338  0.1672  0.0767 -0.1405
  588TMC3    C4 8769   2.790   2.246  10.193 -0.1853 -0.3099  0.8804
  588TMC3    C5 8770   2.899   2.212  10.277 -1.1210  0.2384 -0.6276
  588TMC3    C6 8771   2.896   2.101  10.352  0.2154  0.6363  0.5124
  588TMC3     C 8772   2.552   2.233  10.143  0.9709 -0.1551  0.1581
  588TMC3     O 8773   2.458   2.165  10.109 -0.0039  0.0303  0.5035
  588TMC3     H 8774   2.579   1.999  10.258 -0.7457  1.8888 -2.0097
  588TMC3    H1 8775   2.800   2.335  10.131 -1.5733 -1.2192 -0.6374
  588TMC3    H2 8776   2.972   2.079  10.426  2.1191  0.4594 -1.5090
  588TMC3    C7 8777   2.997   2.311  10.320  0.4806 -0.3609  0.2230
  588TMC3    C8 8778   2.764   1.917  10.422  0.1193  0.2343  0.1557
  588TMC3    O1 8779   3.038   2.296  10.433 -0.1407 -0.9446 -0.0374
  588TMC3    O2 8780   2.691   1.828  10.378  0.4551 -0.2627 -0.6365
  589TMC3    C1 8781   2.489   0.351   1.294 -0.5275 -0.0316 -0.3082
  589TMC3    C2 8782   2.597   0.371   1.369 -0.1950 -0.9284 -0.8631
  589TMC3    C3 8783   2.706   0.291   1.356  0.7748  0.0861 -0.2079
  589TMC3    C4 8784   2.487   0.260   1.193 -0.3777 -0.2306  0.0618
  589TMC3    C5 8785   2.599   0.184   1.180  0.0078  0.3694 -0.4175
  589TMC3    C6 8786   2.710   0.192   1.263 -0.7408  0.9453 -0.3157
  589TMC3     C 8787   2.381   0.444   1.301 -0.2573  0.3895 -0.7581
  589TMC3     O 8788   2.299   0.435   1.211  0.6207 -0.3330 -0.2721
  589TMC3     H 8789   2.599   0.446   1.447 -0.5311 -1.2683 -0.5294
  589TMC3    H1 8790   2.406   0.259   1.121 -0.4065  0.6733  0.0781
  589TMC3    H2 8791   2.794   0.124   1.252 -0.8270  0.9002 -0.6919
  589TMC3    C7 8792   2.582   0.062   1.098  0.1115 -0.0028 -0.4654
  589TMC3    C8 8793   2.826   0.335   1.418 -0.2911  0.0693  0.8292
  589TMC3    O1 8794   2.464   0.032   1.073  0.3757 -0.0618 -0.6296
  589TMC3    O2 8795   2.820   0.393   1.526  0.7452 -0.1681 -0.1728
  590MPD2     C 8796   1.477   3.682  16.820 -0.0484 -0.2173 -0.2017
  590MPD2    C1 8797   1.412   3.712  16.705  0.1582 -0.0392 -0.0682
  590MPD2    C2 8798   1.475   3.770  16.595  0.1622 -0.1092 -0.8825
  590MPD2    C3 8799   1.607   3.810  16.621  0.4443  0.5579 -0.0062
  590MPD2    C4 8800   1.672   3.790  16.740  0.5631  0.0746 -0.1781
  590MPD2    C5 8801   1.602   3.726  16.835 -0.1057 -0.1956 -0.1143
  590MPD2     H 8802   1.424   3.787  16.501 -0.4075  4.0828  0.1892
  590MPD2    H1 8803   1.776   3.808  16.759 -0.0111  0.7727  2.2063
  590MPD2    H2 8804   1.421   3.642  16.904 -2.0502  2.7577 -0.0992
  590MPD2    H3 8805   1.652   3.717  16.931  0.2688  0.4517 -0.2460
  590MPD2     N 8806   1.673   3.874  16.508  0.0729  0.4238 -0.7495
  590MPD2    H5 8807   1.623   3.896  16.422 -1.3909 -1.5257 -0.4041
  590MPD2    N1 8808   1.280   3.673  16.690 -0.3519  0.4542 -0.0931
  590MPD2    H7 8809   1.223   3.664  16.774 -2.4918  1.4255 -1.4387
  591TMC3    C1 8810   1.821   3.981  16.379  0.0264  0.6258 -0.0106
  591TMC3    C2 8811   1.892   3.899  16.292  0.2262 -0.1588 -0.1432
  591TMC3    C3 8812   1.897   3.939  16.165  0.0601 -0.4471  0.3454
  591TMC3    C4 8813   1.741   4.086  16.336  0.7801  0.0731  0.5124
  591TMC3    C5 8814   1.762   4.126  16.207  0.3292 -0.0730  0.0464
  591TMC3    C6 8815   1.832   4.053  16.121 -0.0855 -0.3185  0.4234
  591TMC3     C 8816   1.799   3.911  16.499 -0.0434 -0.0830 -0.0370
  591TMC3     O 8817   1.894   3.881  16.572 -0.8194  0.4670  0.4616
  591TMC3     H 8818   1.967   3.825  16.319 -0.3349  0.1485  2.2804
  591TMC3    H1 8819   1.686   4.141  16.412 -0.1143 -1.9365  1.3210
  591TMC3    H2 8820   1.809   4.072  16.016 -0.5026  2.0758  0.9495
  591TMC3    C7 8821   1.724   4.266  16.171 -0.7392 -0.0600  0.4219
  591TMC3    C8 8822   1.948   3.850  16.071  0.2659  0.5326  0.7143
  591TMC3    O1 8823   1.640   4.320  16.238 -0.4944 -0.1390  0.2231
  591TMC3    O2 8824   1.932   3.732  16.094 -0.1719 -0.1319 -0.1440
  592MPD2     C 8825   1.986   0.705  11.542  0.0251  0.6835  0.1352
  592MPD2    C1 8826   2.008   0.761  11.666 -0.1319 -0.7300 -0.2344
  592MPD2    C2 8827   1.993   0.684  11.782 -0.0980 -0.6169  0.5092
  592MPD2    C3 8828   1.963   0.549  11.764 -0.3672 -0.2559 -0.9443
  592MPD2    C4 8829   1.968   0.486  11.644 -0.2284  0.8440  0.2140
  592MPD2    C5 8830   1.970   0.567  11.536 -0.2719  0.0211  0.0185
  592MPD2     H 8831   1.995   0.707  11.888 -1.1674  0.1265  0.3694
  592MPD2    H1 8832   1.947   0.380  11.631  1.7443  0.2890  1.5757
  592MPD2    H2 8833   1.987   0.755  11.446 -0.8525 -1.6964 -1.1143
  592MPD2    H3 8834   1.958   0.517  11.440 -1.4447  0.6613 -0.1661
  592MPD2     N 8835   1.928   0.477  11.883 -0.2398 -0.0696 -0.3354
  592MPD2    H5 8836   1.909   0.537  11.963  1.9830  1.4723 -0.9780
  592MPD2    N1 8837   2.035   0.898  11.661 -0.0153 -0.4887  0.5446
  592MPD2    H7 8838   2.032   0.941  11.569  1.8922 -0.6446  0.4055
  593TMC3    C1 8839   2.089   1.106  11.718  0.7071  0.1053  0.3441
  593TMC3    C2 8840   2.169   1.194  11.790  0.2499 -0.9217  0.0917
  593TMC3    C3 8841   2.173   1.322  11.747 -0.9226  0.2047  0.0894
  593TMC3    C4 8842   2.023   1.152  11.603  0.1457  0.3587 -0.6288
  593TMC3    C5 8843   2.047   1.286  11.563 -0.6672 -0.1496 -0.3626
  593TMC3    C6 8844   2.123   1.370  11.633 -0.2762 -0.3207  0.0925
  593TMC3     C 8845   2.073   0.978  11.767  0.3471  0.2071  0.1981
  593TMC3     O 8846   2.124   0.946  11.876 -0.0094  0.2103  0.4657
  593TMC3     H 8847   2.200   1.159  11.888 -1.4626 -0.2894  0.8620
  593TMC3    H1 8848   1.931   1.106  11.570 -0.1598  0.4216  0.1336
  593TMC3    H2 8849   2.140   1.474  11.607 -0.4040 -1.3070 -3.9941
  593TMC3    C7 8850   1.974   1.345  11.453 -0.6008  0.1088 -0.1681
  593TMC3    C8 8851   2.197   1.427  11.852 -0.2067 -0.2444 -0.4238
  593TMC3    O1 8852   1.990   1.462  11.442  0.0536  0.5823 -0.2154
  593TMC3    O2 8853   2.129   1.526  11.863 -0.2999  0.6169 -0.0670
  594MPD2     C 8854   1.475   4.288  14.970 -0.1112 -0.1853 -0.0314
  594MPD2    C1 8855   1.363   4.359  14.955 -0.3384 -0.3694 -0.1705
  594MPD2    C2 8856   1.371   4.496  14.920 -0.6685  0.0280  0.1310
  594MPD2    C3 8857   1.491   4.564  14.916 -0.1927 -0.8203 -0.1142
  594MPD2    C4 8858   1.607   4.486  14.935  0.0223  0.2324 -0.8186
  594MPD2    C5 8859   1.600   4.350  14.953 -0.6073 -0.5918  1.1993
  594MPD2     H 8860   1.280   4.555  14.918 -0.0260  1.0619  1.9813
  594MPD2    H1 8861   1.704   4.526  14.910 -0.1072  1.2955  0.3566
  594MPD2    H2 8862   1.474   4.180  14.976  0.7462 -0.2199 -0.5349
  594MPD2    H3 8863   1.691   4.291  14.958 -0.4028 -0.4584 -1.2497
  594MPD2     N 8864   1.490   4.702  14.898 -0.2736 -0.0556 -0.0276
  594MPD2    H5 8865   1.405   0.006  14.867  0.6026  1.8593  0.4738
  594MPD2    N1 8866   1.240   4.293  14.959 -0.1263  0.1655 -0.3053
  594MPD2    H7 8867   1.247   4.197  14.990 -0.0086  0.7228  1.4155
  595TMC3    C1 8868   1.660   0.392  14.806 -0.1139 -0.5518  0.1261
  595TMC3    C2 8869   1.679   0.263  14.842  0.1118 -0.7119 -0.8461
  595TMC3    C3 8870   1.573   0.185  14.871  0.2057 -0.2175  0.5410
  595TMC3    C4 8871   1.532   0.447  14.810 -0.4663  0.0231 -0.5642
  595TMC3    C5 8872   1.424   0.359  14.843  0.2967 -1.1590  0.2259
  595TMC3    C6 8873   1.447   0.230  14.881  0.3445 -0.2751 -0.2395
  595TMC3     C 8874   1.776   0.464  14.763 -0.2272 -0.7473  0.3624
  595TMC3     O 8875   1.888   0.428  14.799  0.3708  0.2350  0.7543
  595TMC3     H 8876   1.779   0.224  14.828  1.4900  2.5441 -0.2447
  595TMC3    H1 8877   1.529   0.554  14.795 -0.1449  0.4449  2.2974
  595TMC3    H2 8878   1.368   0.174  14.931  0.5930 -1.2123 -0.8872
  595TMC3    C7 8879   1.290   0.409  14.833  0.2310  0.1217 -0.0650
  595TMC3    C8 8880   1.599   0.045  14.908  0.3364 -0.2835 -0.2679
  595TMC3    O1 8881   1.192   0.344  14.861  0.2927 -0.1819 -0.0446
  595TMC3    O2 8882   1.707   0.010  14.948  0.6465 -0.1882  0.3361
  596MPD2     C 8883   0.258   2.701  16.732 -0.0923  0.2652 -0.0995
  596MPD2    C1 8884   0.207   2.804  16.645  0.3019  0.5252  0.3079
  596MPD2    C2 8885   0.229   2.790  16.517 -0.2787 -0.6508  0.1416
  596MPD2    C3 8886   0.274   2.673  16.458 -0.6938 -0.3420  0.4674
  596MPD2    C4 8887   0.314   2.571  16.541 -0.0755 -0.0160 -0.3315
  596MPD2    C5 8888   0.319   2.591  16.676  0.0768  0.8415  0.4256
  596MPD2     H 8889   0.188   2.870  16.456  0.1244  0.3311  1.1485
  596MPD2    H1 8890   0.354   2.484  16.491 -0.4463 -1.1109  1.2933
  596MPD2    H2 8891   0.255   2.711  16.840  0.3166 -2.3618  0.1623
  596MPD2    H3 8892   0.366   2.522  16.745  1.3541  2.7497  1.4679
  596MPD2     N 8893   0.269   2.631  16.322  0.0154 -0.6804  0.5003
  596MPD2    H5 8894   0.312   2.543  16.296  2.3549  0.9131 -0.9660
  596MPD2    N1 8895   0.138   2.915  16.686  0.5424 -0.4376  0.6339
  596MPD2    H7 8896   0.105   2.978  16.614  0.4577 -1.3400 -0.1217
  597TMC3    C1 8897   0.008   3.064  16.824 -0.3914  0.0940 -0.0367
  597TMC3    C2 8898   0.074   3.165  16.772 -0.2727 -0.6851  0.0420
  597TMC3    C3 8899   0.010   3.289  16.776  0.3621 -0.0201 -0.1600
  597TMC3    C4 8900   4.636   3.066  16.889 -0.1016 -0.8293 -0.1606
  597TMC3    C5 8901   4.574   3.182  16.899  0.0002 -0.6100 -0.4617
  597TMC3    C6 8902   4.627   3.292  16.835 -0.1187  0.0028 -0.4849
  597TMC3     C 8903   0.083   2.941  16.811 -0.5871  0.0021  0.6316
  597TMC3     O 8904   0.079   2.865  16.905  0.4083 -0.2474  0.1429
  597TMC3     H 8905   0.174   3.159  16.732  0.1839 -0.2964  1.1289
  597TMC3    H1 8906   4.613   2.976  16.945 -1.0362 -0.0712  0.6719
  597TMC3    H2 8907   4.588   3.392  16.843 -2.5683 -1.0050  0.2183
  597TMC3    C7 8908   4.436   3.184  16.955  0.0914  0.5418 -0.0539
  597TMC3    C8 8909   0.096   3.408  16.753  0.0467  0.6041 -0.4037
  597TMC3    O1 8910   4.406   3.107  17.043  0.1300 -0.4107  0.1071
  597TMC3    O2 8911   0.216   3.394  16.738  0.0230 -0.3040  0.8622
  598TMC3    C1 8912   2.669   3.977  15.146  0.2993 -0.2207 -0.3126
  598TMC3    C2 8913   2.539   3.955  15.119  0.2428 -0.9902 -0.3053
  598TMC3    C3 8914   2.469   4.052  15.054 -0.6703  0.3641  0.1561
  598TMC3    C4 8915   2.732   4.090  15.099 -0.2316 -0.2330  0.4536
  598TMC3    C5 8916   2.655   4.182  15.027  0.5220  0.2071  0.8769
  598TMC3    C6 8917   2.531   4.150  14.995 -0.3200 -0.0364 -0.3578
  598TMC3     C 8918   2.734   3.881  15.231  0.1191  0.3014 -0.6361
  598TMC3     O 8919   2.669   3.777  15.245 -0.1095  0.5891 -0.0134
  598TMC3     H 8920   2.491   3.862  15.149 -2.3293  0.6945  0.8203
  598TMC3    H1 8921   2.835   4.105  15.130 -0.2956  0.3241  0.3948
  598TMC3    H2 8922   2.467   4.219  14.941 -1.8535 -0.6105  0.7186
  598TMC3    C7 8923   2.726   4.258  14.927 -0.7118 -0.4103  1.1533
  598TMC3    C8 8924   2.343   4.014  14.994 -0.2866  0.4463  0.8648
  598TMC3    O1 8925   2.674   4.254  14.816  0.4772 -0.5983  0.6483
  598TMC3    O2 8926   2.319   4.039  14.876  0.0766 -0.0620  0.4617
  599MPD2     C 8927   3.197   1.642  15.783  0.3434 -0.2602 -0.8238
  599MPD2    C1 8928   3.123   1.539  15.842 -0.3368 -0.1216  0.6433
  599MPD2    C2 8929   3.017   1.562  15.927 -0.1046 -0.2068  0.7094
  599MPD2    C3 8930   2.989   1.693  15.964  0.2546 -0.0660  0.6010
  599MPD2    C4 8931   3.060   1.791  15.903  0.3682  0.4967 -0.0061
  599MPD2    C5 8932   3.160   1.768  15.816 -0.2594  0.9722  0.8841
  599MPD2     H 8933   2.976   1.478  15.981 -0.5089 -0.5000 -0.0502
  599MPD2    H1 8934   3.018   1.887  15.929  0.6861  0.3939  0.8750
  599MPD2    H2 8935   3.286   1.623  15.724  2.4656 -0.5868  2.4760
  599MPD2    H3 8936   3.213   1.851  15.772  2.4477 -0.4116  1.5274
  599MPD2     N 8937   2.881   1.732  16.054  0.1484 -0.5310  0.0748
  599MPD2    H5 8938   2.869   1.828  16.084 -0.6987 -0.4280 -0.6160
  599MPD2    N1 8939   3.173   1.413  15.818 -0.3711  0.1464  0.5719
  599MPD2    H7 8940   3.269   1.405  15.784 -1.3623  0.3009 -2.2194
  600TMC3    C1 8941   2.724   1.687  16.233 -0.4736 -0.0821  0.3279
  600TMC3    C2 8942   2.691   1.588  16.316  0.2768 -0.7606  0.0371
  600TMC3    C3 8943   2.662   1.627  16.446  0.3409 -0.4163  0.4065
  600TMC3    C4 8944   2.732   1.814  16.273 -0.1878  0.1179  0.3124
  600TMC3    C5 8945   2.700   1.849  16.398 -0.1326 -0.3232  1.0150
  600TMC3    C6 8946   2.654   1.754  16.488  0.0696 -0.6530  0.1562
  600TMC3     C 8947   2.789   1.644  16.108  0.3075  0.1366  0.3663
  600TMC3     O 8948   2.778   1.525  16.080 -0.7873 -0.4321  0.3587
  600TMC3     H 8949   2.673   1.487  16.282 -0.2064 -0.2046 -1.3576
  600TMC3    H1 8950   2.750   1.897  16.206  0.4092  0.4094  0.8315
  600TMC3    H2 8951   2.629   1.781  16.590  0.7343  0.1322  0.1122
  600TMC3    C7 8952   2.659   1.986  16.426  0.2181  0.7749 -0.5386
  600TMC3    C8 8953   2.616   1.525  16.542  0.0284 -0.1534  0.1692
  600TMC3    O1 8954   2.571   2.004  16.513  0.1553  0.0296  0.7434
  600TMC3    O2 8955   2.670   1.521  16.655 -0.3986  0.6223  0.1863
  601MPD2     C 8956   4.490   0.192   0.686  0.1534  0.7478  0.1285
  601MPD2    C1 8957   4.544   0.081   0.622 -0.1899  0.5231  0.4467
  601MPD2    C2 8958   4.530   4.703   0.689 -0.1383 -0.6913 -0.2059
  601MPD2    C3 8959   4.481   4.695   0.821  0.2131  0.3431  0.6187
  601MPD2    C4 8960   4.439   0.066   0.883 -0.2285 -0.8131  0.6103
  601MPD2    C5 8961   4.441   0.183   0.814 -0.1063  0.2322 -0.3941
  601MPD2     H 8962   4.562   4.613   0.637  0.6184  0.5137 -1.8404
  601MPD2    H1 8963   4.413   0.071   0.988 -0.4103  0.5577  0.4894
  601MPD2    H2 8964   4.507   0.289   0.639  2.0845 -0.1381 -1.0058
  601MPD2    H3 8965   4.429   0.270   0.877 -1.2361 -0.5342  0.4732
  601MPD2     N 8966   4.473   4.575   0.891 -0.6806  0.2273 -0.3815
  601MPD2    H5 8967   4.418   4.582   0.976  0.8164  1.1181  0.5009
  601MPD2    N1 8968   4.599   0.088   0.490  0.6522  0.2052  0.1399
  601MPD2    H7 8969   4.620   4.739   0.453  0.5118  0.3419 -0.2771
  602TMC3    C1 8970   4.650   0.179   0.279 -0.2404  0.0434  0.6004
  602TMC3    C2 8971   4.726   0.273   0.210  0.9708 -0.1770 -0.5591
  602TMC3    C3 8972   4.737   0.256   0.074  0.3018  0.6941 -0.1964
  602TMC3    C4 8973   4.599   0.060   0.216 -0.0569 -0.6569  0.3396
  602TMC3    C5 8974   4.625   0.049   0.081 -0.3141 -0.1185  0.0770
  602TMC3    C6 8975   4.696   0.143   0.012 -0.2561  0.8154 -0.0469
  602TMC3     C 8976   4.628   0.207   0.423  0.4430 -0.6027 -0.5769
  602TMC3     O 8977   4.643   0.324   0.454 -0.8087 -1.0521  0.0486
  602TMC3     H 8978   0.008   0.368   0.256 -1.9322  1.0081 -1.4354
  602TMC3    H1 8979   4.530   4.735   0.263 -0.8001  0.3957  0.8017
  602TMC3    H2 8980   4.719   0.125  17.678  1.3244 -1.1104  0.6356
  602TMC3    C7 8981   4.536   4.711  17.766 -0.3157  0.4161 -0.5952
  602TMC3    C8 8982   0.051   0.367  17.761 -0.2060 -0.2140 -0.0199
  602TMC3    O1 8983   4.476   4.615   0.039 -0.6280 -0.5597  0.2488
  602TMC3    O2 8984   0.111   0.461   0.046  0.4932 -0.0799 -0.2567
  603TMC3    C1 8985   2.468   0.649  11.392 -0.3433  0.9435  1.0526
  603TMC3    C2 8986   2.550   0.600  11.488 -0.4604  0.2034  0.0179
  603TMC3    C3 8987   2.666   0.671  11.514  0.1705 -0.3080  0.7927
  603TMC3    C4 8988   2.497   0.759  11.316 -0.0356  0.1885  0.2020
  603TMC3    C5 8989   2.615   0.825  11.347  0.5745  0.1121  0.5698
  603TMC3    C6 8990   2.698   0.788  11.444  0.0455  0.1029 -0.0196
  603TMC3     C 8991   2.363   0.560  11.337 -0.6159 -0.6765 -0.7650
  603TMC3     O 8992   2.329   0.585  11.221  0.8039 -0.4724 -0.0173
  603TMC3     H 8993   2.519   0.518  11.551  1.9231 -0.1879  0.6855
  603TMC3    H1 8994   2.424   0.785  11.240  2.4763 -0.1865 -2.3732
  603TMC3    H2 8995   2.796   0.833  11.444 -0.2720  0.7841  0.6157
  603TMC3    C7 8996   2.642   0.959  11.294 -0.9689 -0.3042 -0.3872
  603TMC3    C8 8997   2.738   0.646  11.643 -0.3387 -0.4606 -0.3390
  603TMC3    O1 8998   2.712   1.032  11.359 -0.3493 -0.6587 -0.1231
  603TMC3    O2 8999   2.686   0.571  11.722  0.8101 -0.2870  0.3158
  604MPD2     C 9000   3.850   3.702  15.731  0.2140  0.9434 -0.1618
  604MPD2    C1 9001   3.729   3.648  15.701  0.3866 -0.1107  0.3742
  604MPD2    C2 9002   3.702   3.609  15.574  0.2181  0.0553 -0.3315
  604MPD2    C3 9003   3.797   3.611  15.475 -0.1171  0.0199 -0.2697
  604MPD2    C4 9004   3.918   3.682  15.504  0.3795 -0.5732  0.4441
  604MPD2    C5 9005   3.943   3.729  15.633  0.0638  0.2467  0.8388
  604MPD2     H 9006   3.611   3.554  15.552 -1.0456  1.9005  0.2846
  604MPD2    H1 9007   3.991   3.703  15.427  1.9340  0.2809  2.1507
  604MPD2    H2 9008   3.865   3.748  15.829 -1.1697  0.8522  0.0974
  604MPD2    H3 9009   4.043   3.768  15.652  0.2033  0.5507 -0.4719
  604MPD2     N 9010   3.776   3.543  15.357  0.6831 -0.1323 -0.1195
  604MPD2    H5 9011   3.682   3.508  15.338  0.6470 -1.3855  2.3173
  604MPD2    N1 9012   3.637   3.637  15.808  0.0143 -0.5577 -0.1018
  604MPD2    H7 9013   3.671   3.667  15.898  0.4229  0.3617 -0.5590
  605TMC3    C1 9014   3.425   3.617  15.919  0.2186 -0.1109 -0.0937
  605TMC3    C2 9015   3.482   3.582  16.037  0.4664  0.4365  0.0309
  605TMC3    C3 9016   3.420   3.618  16.151 -0.2104 -0.3064 -0.5661
  605TMC3    C4 9017   3.300   3.679  15.915 -0.0880 -0.0371  0.2346
  605TMC3    C5 9018   3.243   3.717  16.033 -0.0540 -0.3125  0.2648
  605TMC3    C6 9019   3.302   3.685  16.150  0.9396 -0.0428  0.1068
  605TMC3     C 9020   3.504   3.620  15.789  0.3170 -0.9405  0.2183
  605TMC3     O 9021   3.443   3.633  15.686 -0.4289 -0.0894  0.0018
  605TMC3     H 9022   3.586   3.552  16.039 -0.0567 -1.4366 -0.0940
  605TMC3    H1 9023   3.260   3.712  15.820  1.5305  0.6120 -0.2232
  605TMC3    H2 9024   3.262   3.728  16.241  0.9458  0.9274 -0.3483
  605TMC3    C7 9025   3.159   3.839  16.043  0.5164  0.6575  0.6615
  605TMC3    C8 9026   3.480   3.595  16.275  0.2831 -0.0246  0.7440
  605TMC3    O1 9027   3.140   3.899  16.146 -0.6555 -0.2349  0.1439
  605TMC3    O2 9028   3.493   3.476  16.313 -0.1749  0.1125 -0.4470
  606TMC3    C1 9029   0.490   2.290  17.271 -1.2727  0.1047 -0.6220
  606TMC3    C2 9030   0.515   2.331  17.395  0.0488 -0.5997 -0.0551
  606TMC3    C3 9031   0.422   2.315  17.495 -0.3736 -0.2044  0.3457
  606TMC3    C4 9032   0.378   2.215  17.244 -0.2575 -1.0099 -0.2696
  606TMC3    C5 9033   0.283   2.200  17.346  0.0963 -0.2960  0.2602
  606TMC3    C6 9034   0.304   2.252  17.470  0.0230 -0.0681  0.7135
  606TMC3     C 9035   0.603   2.279  17.183  0.7214  0.3272  0.9582
  606TMC3     O 9036   0.711   2.269  17.236  0.1913  0.7196  0.6517
  606TMC3     H 9037   0.614   2.371  17.414  0.5454 -1.6134 -0.5062
  606TMC3    H1 9038   0.355   2.177  17.145 -3.6048  0.1058  0.0811
  606TMC3    H2 9039   0.222   2.243  17.540 -1.1529 -1.2362 -0.8239
  606TMC3    C7 9040   0.203   2.077  17.346  0.3812 -0.7243 -0.6503
  606TMC3    C8 9041   0.452   2.352  17.630  0.2460 -0.1263  0.1763
  606TMC3    O1 9042   0.267   1.980  17.311  0.3003 -0.0660  0.1044
  606TMC3    O2 9043   0.545   2.433  17.645  0.2206 -0.2116  0.0640
  607MPD2     C 9044   2.238   0.265  11.921  0.3598 -0.4170 -0.0241
  607MPD2    C1 9045   2.239   0.385  11.984  0.8238  0.3305 -0.1607
  607MPD2    C2 9046   2.217   0.384  12.120  0.1990 -0.8805 -0.0678
  607MPD2    C3 9047   2.203   0.263  12.192  0.6047 -0.4677 -0.0894
  607MPD2    C4 9048   2.199   0.146  12.131 -0.1351  0.5910 -0.3146
  607MPD2    C5 9049   2.213   0.149  11.999  0.5442  0.2252  0.1936
  607MPD2     H 9050   2.206   0.474  12.179  2.3317  0.0202 -1.0285
  607MPD2    H1 9051   2.189   0.048  12.176  1.8806 -0.0223 -1.2154
  607MPD2    H2 9052   2.228   0.254  11.814 -1.0104  1.1026 -0.0491
  607MPD2    H3 9053   2.202   0.056  11.945 -0.5023  0.2332  0.3996
  607MPD2     N 9054   2.186   0.276  12.330  0.4525 -0.0983 -0.7823
  607MPD2    H5 9055   2.189   0.372  12.364  1.5586 -0.1737 -0.6504
  607MPD2    N1 9056   2.251   0.510  11.920 -0.5780 -0.0952 -0.0368
  607MPD2    H7 9057   2.243   0.591  11.980 -0.4677 -0.5659  0.6157
  608TMC3    C1 9058   2.343   0.673  11.792  0.1354  0.6577  0.1593
  608TMC3    C2 9059   2.427   0.701  11.891 -0.0921  0.4253 -0.1090
  608TMC3    C3 9060   2.499   0.820  11.885  0.0607  0.0663 -0.1862
  608TMC3    C4 9061   2.332   0.749  11.677  0.3603 -0.2284  0.5100
  608TMC3    C5 9062   2.405   0.862  11.675 -0.5376 -0.4193  0.3626
  608TMC3    C6 9063   2.487   0.904  11.773 -0.1799 -1.3763  0.0830
  608TMC3     C 9064   2.296   0.536  11.794  0.6677 -0.6445 -0.0226
  608TMC3     O 9065   2.316   0.462  11.700  0.0407 -0.7053 -0.7140
  608TMC3     H 9066   2.440   0.622  11.964  0.5844 -1.7938 -2.5994
  608TMC3    H1 9067   2.268   0.721  11.595 -0.8237  2.1883  0.5859
  608TMC3    H2 9068   2.549   0.993  11.780 -1.4307 -0.5959  1.4122
  608TMC3    C7 9069   2.360   0.959  11.567  0.0517 -0.8961  0.4458
  608TMC3    C8 9070   2.558   0.873  12.006  0.0130 -0.1435  0.5344
  608TMC3    O1 9071   2.290   0.919  11.476 -0.2502 -0.1856 -0.3062
  608TMC3    O2 9072   2.655   0.954  12.005  0.1924 -0.0219 -0.1861
  609TMC3    C1 9073   0.380   4.584   9.276  0.3009  0.9365  0.0456
  609TMC3    C2 9074   0.276   4.503   9.236  0.6119  0.6009 -0.0452
  609TMC3    C3 9075   0.311   4.389   9.164  0.2238 -1.1153 -0.6206
  609TMC3    C4 9076   0.510   4.550   9.252 -1.0128  0.3324  0.2846
  609TMC3    C5 9077   0.537   4.447   9.164 -0.3936  0.1127  0.1499
  609TMC3    C6 9078   0.439   4.361   9.124  0.1582  0.1068  0.3847
  609TMC3     C 9079   0.351   4.660   9.396  0.4590 -0.0094 -0.4465
  609TMC3     O 9080   0.252   4.628   9.461  0.6323  0.0201 -0.5961
  609TMC3     H 9081   0.176   4.535   9.261 -0.0487 -1.8722  0.4969
  609TMC3    H1 9082   0.590   4.612   9.291 -1.7175  1.2444  0.2664
  609TMC3    H2 9083   0.452   4.267   9.072 -2.7307  1.1603 -2.2330
  609TMC3    C7 9084   0.673   4.395   9.167 -0.3126  0.1000  0.7897
  609TMC3    C8 9085   0.205   4.298   9.128  0.1506 -0.8752 -0.1505
  609TMC3    O1 9086   0.752   4.443   9.250  0.3813 -0.2522  0.2025
  609TMC3    O2 9087   0.238   4.208   9.049  0.2347  0.5544  0.2437
  610TMC3    C1 9088   2.703   0.645  12.880  0.9384  0.3514 -0.3434
  610TMC3    C2 9089   2.737   0.759  12.816 -0.3383  0.7372  0.4793
  610TMC3    C3 9090   2.849   0.759  12.743  0.4302  0.0421 -0.1039
  610TMC3    C4 9091   2.762   0.524  12.856 -0.3461  0.0713  0.5320
  610TMC3    C5 9092   2.880   0.529  12.783 -0.3383 -0.0490 -1.0636
  610TMC3    C6 9093   2.928   0.647  12.732 -0.3681  0.7658 -0.1747
  610TMC3     C 9094   2.557   0.638  12.901  0.1545  0.2648 -1.5079
  610TMC3     O 9095   2.483   0.712  12.837  0.0927 -0.0875  0.4118
  610TMC3     H 9096   2.684   0.853  12.824 -0.3872  0.6790  0.8187
  610TMC3    H1 9097   2.718   0.433  12.894  3.1105 -1.5073  0.8047
  610TMC3    H2 9098   3.030   0.662  12.697 -0.8261  0.6552 -1.5659
  610TMC3    C7 9099   2.965   0.405  12.780 -0.2354  0.7508  0.6119
  610TMC3    C8 9100   2.903   0.882  12.686 -0.5016  0.0763 -0.1395
  610TMC3    O1 9101   2.935   0.308  12.849  0.3383 -0.1622 -0.3869
  610TMC3    O2 9102   2.864   0.981  12.741  0.2623 -0.1852  0.5295
  611MPD2     C 9103   1.834   0.499  10.706 -0.1111 -0.3981 -0.4819
  611MPD2    C1 9104   1.812   0.562  10.585  0.2031  0.1236  0.7086
  611MPD2    C2 9105   1.870   0.685  10.558 -0.3354  0.0675  0.6572
  611MPD2    C3 9106   1.956   0.738  10.659 -0.6484  0.4610 -0.4537
  611MPD2    C4 9107   1.992   0.666  10.764  0.0366  0.0827  0.8892
  611MPD2    C5 9108   1.926   0.552  10.789 -0.0124  0.0911 -0.8315
  611MPD2     H 9109   1.851   0.736  10.464  0.9606  0.2640  0.4921
  611MPD2    H1 9110   2.063   0.699  10.839 -1.0006 -0.8312  2.2686
  611MPD2    H2 9111   1.795   0.400  10.728 -0.9029  0.2263  0.9413
  611MPD2    H3 9112   1.944   0.503  10.884  0.3485  0.8501 -0.5091
  611MPD2     N 9113   2.013   0.869  10.645 -0.6844  0.5041  0.1296
  611MPD2    H5 9114   2.063   0.897  10.729 -1.8751 -0.2048  1.0722
  611MPD2    N1 9115   1.716   0.510  10.493  0.4925  0.1948  0.1256
  611MPD2    H7 9116   1.698   0.568  10.411  1.8797 -1.7926 -1.6010
  612TMC3    C1 9117   2.042   1.089  10.554 -0.0854 -0.0153 -0.2801
  612TMC3    C2 9118   2.156   1.111  10.635 -0.6084 -0.1572  0.3096
  612TMC3    C3 9119   2.188   1.243  10.644 -0.1062 -0.4423 -0.3354
  612TMC3    C4 9120   1.983   1.186  10.484  0.2402  0.4126 -0.0782
  612TMC3    C5 9121   2.023   1.313  10.500 -0.1453 -0.0487 -0.2705
  612TMC3    C6 9122   2.131   1.349  10.577  0.5411  1.1800  0.5349
  612TMC3     C 9123   1.998   0.953  10.536 -0.3633 -0.2172  0.0136
  612TMC3     O 9124   1.965   0.924  10.424  0.2178  0.6620  0.1286
  612TMC3     H 9125   2.204   1.025  10.682  1.6303  1.9983  1.9407
  612TMC3    H1 9126   1.908   1.169  10.408 -0.9296  0.2022  1.1265
  612TMC3    H2 9127   2.170   1.450  10.582  2.6238  0.4535 -1.1901
  612TMC3    C7 9128   1.929   1.416  10.450 -0.1910  0.7777 -0.1739
  612TMC3    C8 9129   2.303   1.275  10.731 -0.4165 -0.3619  0.4324
  612TMC3    O1 9130   1.834   1.372  10.387 -0.2510  0.5610  0.0038
  612TMC3    O2 9131   2.366   1.375  10.698 -0.0983 -0.0758  0.3847
  613MPD2     C 9132   1.597   3.377  16.586  0.3922 -0.4894 -0.6681
  613MPD2    C1 9133   1.501   3.290  16.544  0.3558  0.4087  0.4573
  613MPD2    C2 9134   1.524   3.153  16.541 -0.0297 -0.0401 -0.2060
  613MPD2    C3 9135   1.650   3.105  16.564  0.5311 -0.2253  0.3596
  613MPD2    C4 9136   1.756   3.197  16.589 -0.1289 -0.0776  0.0765
  613MPD2    C5 9137   1.729   3.332  16.602 -0.2325  0.1369 -0.1245
  613MPD2     H 9138   1.450   3.085  16.498  1.6694 -2.3694  0.5772
  613MPD2    H1 9139   1.858   3.161  16.588 -0.1081 -0.0158 -0.9386
  613MPD2    H2 9140   1.581   3.484  16.584  1.8237 -0.3347 -3.9608
  613MPD2    H3 9141   1.809   3.402  16.622  2.6118 -3.7458  2.1337
  613MPD2     N 9142   1.684   2.968  16.538  0.1748  0.4706  0.3865
  613MPD2    H5 9143   1.782   2.945  16.546  0.3851  0.9116 -1.0101
  613MPD2    N1 9144   1.384   3.353  16.488  0.0948  0.2133 -0.8343
  613MPD2    H7 9145   1.390   3.451  16.462  0.3929  0.6483  0.8623
  614TMC3    C1 9146   1.210   3.343  16.328  0.6118  0.4359 -0.2832
  614TMC3    C2 9147   1.300   3.367  16.234 -0.1313 -0.1526 -0.2816
  614TMC3    C3 9148   1.272   3.333  16.111  0.2260  0.4818  0.5991
  614TMC3    C4 9149   1.088   3.301  16.298 -0.2189 -1.3604 -0.3586
  614TMC3    C5 9150   1.060   3.263  16.169 -0.1425 -0.0894 -0.1132
  614TMC3    C6 9151   1.151   3.289  16.071 -0.2088 -0.0003  0.0441
  614TMC3     C 9152   1.273   3.287  16.443 -1.5847 -0.5831 -0.5284
  614TMC3     O 9153   1.217   3.195  16.499 -0.2661  0.4084 -0.1003
  614TMC3     H 9154   1.399   3.407  16.256  0.0009 -0.7266  0.1676
  614TMC3    H1 9155   1.021   3.275  16.379  2.6556 -5.0625  0.8881
  614TMC3    H2 9156   1.136   3.265  15.966 -2.1192 -2.2331  0.8519
  614TMC3    C7 9157   0.930   3.201  16.141  0.2753  0.6411  0.4458
  614TMC3    C8 9158   1.378   3.240  16.069  0.5502 -0.2547 -1.0556
  614TMC3    O1 9159   0.839   3.256  16.206 -0.4939 -0.4809 -0.2748
  614TMC3    O2 9160   1.472   3.223  16.142 -0.2723  0.3280  0.0435
  615MPD2     C 9161   1.180   3.986  16.571  0.4039  0.5260 -0.4522
  615MPD2    C1 9162   1.071   4.039  16.637  0.4349 -0.0096 -0.3387
  615MPD2    C2 9163   0.972   4.089  16.559 -0.4265  0.2898 -0.8170
  615MPD2    C3 9164   0.983   4.106  16.416 -0.0412 -0.1533 -0.9014
  615MPD2    C4 9165   1.094   4.051  16.358 -0.7668  0.4075 -0.1387
  615MPD2    C5 9166   1.189   3.992  16.434  0.7110  0.6818  0.0550
  615MPD2     H 9167   0.883   4.119  16.612 -0.0108  1.1706 -0.6155
  615MPD2    H1 9168   1.103   4.036  16.251 -0.1819  0.1882 -0.0622
  615MPD2    H2 9169   1.261   3.940  16.627  2.3949  2.3556 -1.8218
  615MPD2    H3 9170   1.272   3.946  16.382  1.1936  2.8521 -1.1232
  615MPD2     N 9171   0.888   4.161  16.335 -0.2306 -0.3221 -0.2625
  615MPD2    H5 9172   0.894   4.149  16.234  0.7001  0.1559 -0.2677
  615MPD2    N1 9173   1.072   4.045  16.780  0.2732 -1.1117 -0.7900
  615MPD2    H7 9174   0.988   4.085  16.822  1.0533 -2.1710  1.7898
  616TMC3    C1 9175   1.148   4.017  16.993  0.2826 -0.2854 -0.0800
  616TMC3    C2 9176   1.258   3.971  17.056 -0.3050  0.2834  1.8232
  616TMC3    C3 9177   1.280   4.014  17.184 -0.5764 -0.3019 -0.2841
  616TMC3    C4 9178   1.074   4.112  17.053  0.0533 -0.0348 -0.1244
  616TMC3    C5 9179   1.103   4.150  17.181 -0.2782 -0.4793 -0.5428
  616TMC3    C6 9180   1.195   4.100  17.259 -0.4419  0.2131 -1.3454
  616TMC3     C 9181   1.183   4.026  16.853 -0.3644 -0.9553  0.0945
  616TMC3     O 9182   1.298   3.995  16.830 -0.3619 -0.3985  0.4147
  616TMC3     H 9183   1.305   3.882  17.018 -1.8067 -0.5786  1.9601
  616TMC3    H1 9184   1.004   4.168  16.992  0.9682 -1.1501 -2.1955
  616TMC3    H2 9185   1.236   4.153  17.344 -0.9942 -1.9388  0.2813
  616TMC3    C7 9186   1.002   4.242  17.247 -0.2841  0.2054 -0.4841
  616TMC3    C8 9187   1.419   4.025  17.216  0.3390  0.6689  0.2656
  616TMC3    O1 9188   1.017   4.250  17.368  0.2141 -0.2907 -0.3502
  616TMC3    O2 9189   1.446   4.055  17.332  0.3697  0.0236 -0.6511
  617MPD2     C 9190   3.408   2.491  14.205 -0.5063 -0.5314  0.1541
  617MPD2    C1 9191   3.463   2.388  14.275 -0.5851  0.7894  0.1869
  617MPD2    C2 9192   3.390   2.312  14.360  0.4943  0.4298 -0.5107
  617MPD2    C3 9193   3.254   2.346  14.380  0.3281 -0.2031 -0.1140
  617MPD2    C4 9194   3.201   2.455  14.311 -0.3163  0.2831 -0.0461
  617MPD2    C5 9195   3.281   2.527  14.226  0.2805 -0.2735 -0.0635
  617MPD2     H 9196   3.443   2.239  14.419 -0.3174  0.8220  0.7084
  617MPD2    H1 9197   3.097   2.483  14.315 -0.4951 -0.3245 -0.3831
  617MPD2    H2 9198   3.463   2.546  14.130 -1.6557 -1.8988 -1.7093
  617MPD2    H3 9199   3.248   2.617  14.175  0.5201  0.0139  0.2891
  617MPD2     N 9200   3.169   2.275  14.469 -0.0734  0.0446 -0.3771
  617MPD2    H5 9201   3.071   2.303  14.469 -0.1727 -0.3056  0.5801
  617MPD2    N1 9202   3.596   2.345  14.250  0.2420  0.0143 -0.3846
  617MPD2    H7 9203   3.631   2.270  14.309  0.6580 -0.6187 -1.4330
  618TMC3    C1 9204   3.806   2.315  14.171  0.6153  0.0617 -0.3127
  618TMC3    C2 9205   3.787   2.179  14.193 -0.1721  0.2127  0.9898
  618TMC3    C3 9206   3.899   2.103  14.190 -0.5899  0.2790 -0.3324
  618TMC3    C4 9207   3.930   2.372  14.167 -0.1574  0.4759  0.2660
  618TMC3    C5 9208   4.044   2.291  14.180 -0.1282 -0.2476  0.5515
  618TMC3    C6 9209   4.028   2.155  14.202 -0.4580 -0.5783  0.2661
  618TMC3     C 9210   3.687   2.397  14.161  0.5471 -0.1019 -1.0259
  618TMC3     O 9211   3.699   2.503  14.102  0.5586 -0.2485 -0.0579
  618TMC3     H 9212   3.690   2.134  14.172 -1.0371  1.9307  1.3063
  618TMC3    H1 9213   3.930   2.477  14.143 -1.8078  0.4419  0.1279
  618TMC3    H2 9214   4.113   2.091  14.220 -0.1355  0.1545  1.4282
  618TMC3    C7 9215   4.172   2.360  14.202  0.2250 -0.0734  0.3670
  618TMC3    C8 9216   3.884   1.958  14.188  0.3431 -0.7012  0.3514
  618TMC3    O1 9217   4.147   2.467  14.261 -0.0715  0.2205  0.3246
  618TMC3    O2 9218   3.786   1.908  14.246 -0.3350  0.1927 -0.9161
  619MPD2     C 9219   0.166   3.154  13.527 -0.6665 -0.6299  0.3920
  619MPD2    C1 9220   0.086   3.218  13.438 -0.5644 -0.4094 -0.4594
  619MPD2    C2 9221   4.695   3.198  13.435 -0.1704  0.4588 -0.0069
  619MPD2    C3 9222   4.636   3.115  13.529 -0.1077  0.0736  0.3498
  619MPD2    C4 9223   4.713   3.050  13.620  0.2789  1.2546  0.5168
  619MPD2    C5 9224   0.103   3.066  13.613  0.0350  0.7394  0.3011
  619MPD2     H 9225   4.632   3.250  13.363 -1.5780  0.5255  1.2759
  619MPD2    H1 9226   4.672   2.992  13.702  2.9346 -1.0035  0.2469
  619MPD2    H2 9227   0.274   3.166  13.529 -0.8766  1.0491  1.5749
  619MPD2    H3 9228   0.176   3.019  13.677  1.5142  0.0963 -1.8552
  619MPD2     N 9229   4.498   3.094  13.544  0.0590  0.0265 -0.3324
  619MPD2    H5 9230   4.478   3.038  13.627 -0.1798 -0.2420 -0.5703
  619MPD2    N1 9231   0.131   3.327  13.363 -0.4061  0.3178  0.0718
  619MPD2    H7 9232   0.064   3.360  13.293 -1.2379  1.1774  1.2709
  620TMC3    C1 9233   0.225   3.529  13.324 -0.4704  0.1780  0.5829
  620TMC3    C2 9234   0.089   3.569  13.318 -0.2061  0.4248  0.5419
  620TMC3    C3 9235   0.060   3.699  13.348  0.9736  0.1435  0.4937
  620TMC3    C4 9236   0.328   3.612  13.349 -0.4919 -0.1408 -0.7158
  620TMC3    C5 9237   0.293   3.744  13.363  0.0671  0.3696 -0.1116
  620TMC3    C6 9238   0.163   3.793  13.361  0.5042  0.2305 -0.0782
  620TMC3     C 9239   0.250   3.391  13.363 -0.1433  0.5964  0.0492
  620TMC3     O 9240   0.353   3.368  13.432 -0.0173  0.1424 -0.5835
  620TMC3     H 9241   0.003   3.509  13.290  0.8676 -1.6813  1.7120
  620TMC3    H1 9242   0.433   3.586  13.343 -0.2829  0.1242  1.5958
  620TMC3    H2 9243   0.130   3.896  13.366  0.1194  0.2629 -3.2911
  620TMC3    C7 9244   0.380   3.824  13.446  0.2269  0.2714  0.8194
  620TMC3    C8 9245   4.739   3.711  13.483 -0.2962  0.2675  0.0384
  620TMC3    O1 9246   0.501   3.841  13.435 -0.1620 -0.2443 -0.4837
  620TMC3    O2 9247   0.033   3.796  13.561 -0.5924  0.0227 -0.5803
  621MPD2     C 9248   0.566   3.441  10.615 -0.2685  0.8662  0.0402
  621MPD2    C1 9249   0.550   3.455  10.478 -0.7584  0.1964  0.0053
  621MPD2    C2 9250   0.575   3.579  10.422  0.4054 -0.2678  0.5759
  621MPD2    C3 9251   0.579   3.689  10.503 -0.3185 -0.4865  0.2657
  621MPD2    C4 9252   0.578   3.679  10.639  0.3693 -0.0649  0.0898
  621MPD2    C5 9253   0.582   3.551  10.689  0.3445  0.2160 -0.2788
  621MPD2     H 9254   0.580   3.598  10.316 -1.8680 -0.2641  0.4651
  621MPD2    H1 9255   0.579   3.762  10.709 -1.7124 -0.3575  0.4520
  621MPD2    H2 9256   0.559   3.346  10.667 -0.6799  0.3490 -0.9639
  621MPD2    H3 9257   0.591   3.545  10.797 -0.0245 -2.2006 -0.3770
  621MPD2     N 9258   0.599   3.809  10.436  0.2351  0.2331 -0.2060
  621MPD2    H5 9259   0.631   3.804  10.340 -1.8196  1.1627 -0.9313
  621MPD2    N1 9260   0.516   3.347  10.397  0.5208  0.1132  0.7130
  621MPD2    H7 9261   0.481   3.362  10.303  3.4700 -2.0178 -0.7236
  622TMC3    C1 9262   0.426   3.128  10.352  0.3492 -0.6351 -0.1647
  622TMC3    C2 9263   0.404   2.998  10.397 -0.1055  0.1278  0.2590
  622TMC3    C3 9264   0.285   2.944  10.364  0.7900  0.5929  0.0891
  622TMC3    C4 9265   0.322   3.186  10.281  0.0124  0.5740 -0.1711
  622TMC3    C5 9266   0.204   3.127  10.256  0.4566  0.2722 -0.1809
  622TMC3    C6 9267   0.179   2.996  10.294  0.5530 -0.2436  0.0244
  622TMC3     C 9268   0.514   3.213  10.435 -0.3223  0.7295  0.3700
  622TMC3     O 9269   0.571   3.165  10.533 -0.2053  0.3086  0.2279
  622TMC3     H 9270   0.475   2.953  10.465  0.2862 -0.7573 -0.7385
  622TMC3    H1 9271   0.318   3.294  10.271 -0.0495  0.9441  4.1383
  622TMC3    H2 9272   0.089   2.937  10.280  0.2263 -0.1684  1.8246
  622TMC3    C7 9273   0.075   3.200  10.245 -0.0387  0.1752 -0.5846
  622TMC3    C8 9274   0.273   2.810  10.430  0.2892  0.1685 -0.0688
  622TMC3    O1 9275   4.715   3.136  10.261 -0.3920 -0.1737  0.5270
  622TMC3    O2 9276   0.370   2.737  10.417 -0.0191 -0.4226 -0.1897
  623MPD2     C 9277   4.003   4.164  15.722 -0.3389  0.4223 -1.2898
  623MPD2    C1 9278   3.920   4.123  15.822 -0.0054 -0.0238  0.4195
  623MPD2    C2 9279   3.952   4.143  15.955  0.2136  0.2967 -0.6897
  623MPD2    C3 9280   4.058   4.222  15.984  0.8212  0.5550 -0.2164
  623MPD2    C4 9281   4.138   4.280  15.883 -0.2615  0.4775  0.1866
  623MPD2    C5 9282   4.106   4.253  15.748  0.2615  0.4772  0.0074
  623MPD2     H 9283   3.894   4.098  16.034  1.7290 -2.0005 -0.8802
  623MPD2    H1 9284   4.221   4.341  15.915  0.1648 -0.8206  1.5514
  623MPD2    H2 9285   3.985   4.144  15.617  2.3330 -1.8088 -1.3104
  623MPD2    H3 9286   4.168   4.296  15.671  2.3208  1.0748  1.9693
  623MPD2     N 9287   4.072   4.250  16.117 -0.0387  0.2128  0.7970
  623MPD2    H5 9288   4.014   4.197  16.181  0.1843  0.4520  1.1959
  623MPD2    N1 9289   3.804   4.055  15.814 -0.6213  0.4643 -0.0886
  623MPD2    H7 9290   3.770   4.023  15.904  0.0544 -0.5215 -0.1828
  624TMC3    C1 9291   4.299   4.141  16.449  0.0390  0.1942 -0.7225
  624TMC3    C2 9292   4.184   4.077  16.487 -0.6154  0.0699 -0.0771
  624TMC3    C3 9293   4.067   4.112  16.444 -1.3312 -0.3790  0.1731
  624TMC3    C4 9294   4.292   4.248  16.366 -0.5564 -0.5137 -0.4569
  624TMC3    C5 9295   4.170   4.285  16.323  0.7015 -0.2995  0.9894
  624TMC3    C6 9296   4.054   4.222  16.362  0.6525 -0.6577 -0.6755
  624TMC3     C 9297   4.421   4.120  16.530 -0.3954 -0.0966  0.0526
  624TMC3     O 9298   4.411   4.053  16.634 -0.0545 -0.4311 -0.0794
  624TMC3     H 9299   4.185   3.994  16.557 -2.3531 -0.8649 -1.1704
  624TMC3    H1 9300   4.375   4.313  16.342 -0.2082 -0.8782 -0.2582
  624TMC3    H2 9301   3.958   4.260  16.331 -0.4812 -1.2912  2.0743
  624TMC3    C7 9302   4.172   4.322  16.181  0.0878  0.2242 -0.3014
  624TMC3    C8 9303   3.974   4.012  16.407  0.7242 -0.6106 -0.7281
  624TMC3    O1 9304   4.272   4.378  16.138 -0.1882  0.0110  0.1786
  624TMC3    O2 9305   3.941   4.024  16.287 -0.2160  0.8054 -0.2600
  625MPD2     C 9306   0.262   0.835   0.950  0.6388 -0.6574 -0.2517
  625MPD2    C1 9307   0.294   0.967   0.928 -0.1780 -0.5029 -0.3201
  625MPD2    C2 9308   0.413   1.019   0.971 -0.1283  0.3792  0.3272
  625MPD2    C3 9309   0.502   0.935   1.039 -0.3361 -0.0275  0.0375
  625MPD2    C4 9310   0.466   0.805   1.058 -0.1650  0.3054  0.3369
  625MPD2    C5 9311   0.346   0.749   1.008 -0.1092 -0.6473 -0.2534
  625MPD2     H 9312   0.450   1.114   0.936 -0.7645 -0.0940 -1.5923
  625MPD2    H1 9313   0.527   0.740   1.119 -0.7702 -0.4588  0.1218
  625MPD2    H2 9314   0.158   0.811   0.928  0.4637  0.9677 -1.2732
  625MPD2    H3 9315   0.315   0.649   1.034 -1.9117 -0.3050 -1.0709
  625MPD2     N 9316   0.621   0.995   1.085 -0.1147  0.0944 -0.2806
  625MPD2    H5 9317   0.632   1.093   1.061 -0.4811  0.1771 -0.1057
  625MPD2    N1 9318   0.201   1.062   0.870 -0.4350 -0.5192 -0.2335
  625MPD2    H7 9319   0.223   1.161   0.871  2.5314 -1.1576 -2.6009
  626TMC3    C1 9320   4.726   1.150   0.803 -0.1128 -0.1663  0.0548
  626TMC3    C2 9321   4.609   1.132   0.738  0.2450 -0.2235 -0.0634
  626TMC3    C3 9322   4.507   1.224   0.749  0.0381 -0.2765 -0.3149
  626TMC3    C4 9323   4.732   1.261   0.888  0.1807  0.4232  0.5173
  626TMC3    C5 9324   4.635   1.353   0.899  0.9759 -0.5513 -0.2658
  626TMC3    C6 9325   4.520   1.335   0.830 -0.4397 -0.0391 -0.7885
  626TMC3     C 9326   0.069   1.036   0.822  0.4783  0.4613 -1.2430
  626TMC3     O 9327   0.021   0.929   0.789  0.7609  0.4646 -0.4669
  626TMC3     H 9328   4.605   1.054   0.662  2.6134 -0.4327  0.0235
  626TMC3    H1 9329   0.080   1.272   0.944  0.9090  3.1495 -1.2398
  626TMC3    H2 9330   4.443   1.410   0.831 -0.1712  0.2209  0.5098
  626TMC3    C7 9331   4.642   1.452   1.001  0.6776  0.3879  0.3408
  626TMC3    C8 9332   4.436   1.245   0.626 -0.0836  0.0544  0.1070
  626TMC3    O1 9333   0.001   1.458   1.068  0.2540 -0.3800 -0.0444
  626TMC3    O2 9334   4.486   1.190   0.526  0.0947 -0.2910 -0.4023
  627MPD2     C 9335   2.946   1.116  14.730  0.1504  0.3036 -0.0967
  627MPD2    C1 9336   3.043   1.034  14.665  0.2477  0.3210 -0.1832
  627MPD2    C2 9337   3.002   0.940  14.563  0.0478 -0.1688  0.0244
  627MPD2    C3 9338   2.868   0.933  14.533 -0.1509 -0.5005 -0.3763
  627MPD2    C4 9339   2.780   1.015  14.601 -0.4039  0.1201  0.4724
  627MPD2    C5 9340   2.813   1.104  14.701  0.8630 -0.4074 -0.3791
  627MPD2     H 9341   3.084   0.881  14.524  0.4506  1.6282 -1.8427
  627MPD2    H1 9342   2.673   1.016  14.582 -0.4604  3.2694  0.9762
  627MPD2    H2 9343   2.967   1.181  14.814 -0.1290 -2.4372  2.0819
  627MPD2    H3 9344   2.741   1.162  14.758  0.5478  0.2099 -1.4003
  627MPD2     N 9345   2.806   0.839  14.446 -0.0815 -0.1691  0.4373
  627MPD2    H5 9346   2.707   0.852  14.427 -0.1147 -0.3988  0.4564
  627MPD2    N1 9347   3.180   1.031  14.690 -0.0469  0.7685  0.3321
  627MPD2    H7 9348   3.229   0.951  14.650  1.2491  1.4539  0.5560
  628TMC3    C1 9349   3.373   1.087  14.821 -0.2346  0.0230 -0.0108
  628TMC3    C2 9350   3.376   0.971  14.896 -0.0194 -0.0518 -0.5537
  628TMC3    C3 9351   3.420   0.972  15.025  0.3346  0.8450 -0.7993
  628TMC3    C4 9352   3.414   1.203  14.875 -0.4272 -0.6122  0.1109
  628TMC3    C5 9353   3.459   1.201  15.006  0.0526  0.4949 -0.7818
  628TMC3    C6 9354   3.454   1.085  15.084  0.3410  0.2839 -0.3287
  628TMC3     C 9355   3.242   1.123  14.759  0.4387  0.2329  0.0334
  628TMC3     O 9356   3.194   1.231  14.783  0.3285 -0.4253 -0.1315
  628TMC3     H 9357   3.344   0.882  14.843 -1.5394  0.5717 -0.6741
  628TMC3    H1 9358   3.431   1.290  14.812 -0.7504  0.3525  1.3477
  628TMC3    H2 9359   3.460   1.093  15.192 -0.0084 -2.9840 -0.0802
  628TMC3    C7 9360   3.457   1.326  15.076 -0.4800 -0.0496 -0.4199
  628TMC3    C8 9361   3.422   0.849  15.107  0.0836 -0.8854  0.0754
  628TMC3    O1 9362   3.525   1.331  15.180  0.0193  0.5449  0.1235
  628TMC3    O2 9363   3.334   0.767  15.085  0.4594 -0.5618 -0.4901
  629MPD2     C 9364   1.908   4.127  17.065  0.0471 -0.6657 -0.9025
  629MPD2    C1 9365   1.825   4.142  16.957 -0.3904  0.4950 -0.3229
  629MPD2    C2 9366   1.695   4.089  16.973 -0.1914  0.0236 -0.1928
  629MPD2    C3 9367   1.636   4.058  17.101  0.7546 -0.1957 -0.6577
  629MPD2    C4 9368   1.724   4.055  17.203  0.0433  0.3374  0.3764
  629MPD2    C5 9369   1.858   4.082  17.186  0.9238  0.2446 -0.2734
  629MPD2     H 9370   1.622   4.082  16.894 -0.8698  2.7242  0.1918
  629MPD2    H1 9371   1.686   4.042  17.304  0.5929 -1.0253  0.4091
  629MPD2    H2 9372   2.012   4.159  17.070 -0.6170  1.1389  1.2217
  629MPD2    H3 9373   1.922   4.079  17.274  0.6194 -3.5627 -0.1698
  629MPD2     N 9374   1.499   4.017  17.106 -0.0270 -0.5820 -0.0290
  629MPD2    H5 9375   1.448   4.008  17.019 -0.2513  0.1413  0.0302
  629MPD2    N1 9376   1.870   4.203  16.836 -0.5826 -0.0570 -0.0706
  629MPD2    H7 9377   1.970   4.218  16.831 -0.8093  1.5751  0.4649
  630TMC3    C1 9378   1.864   4.275  16.611 -0.3116  0.1744 -0.0026
  630TMC3    C2 9379   1.796   4.360  16.533 -0.4722 -0.2295  0.3649
  630TMC3    C3 9380   1.865   4.412  16.426 -0.6397  0.2327 -0.5043
  630TMC3    C4 9381   1.981   4.216  16.569 -0.9343 -0.3456 -0.2023
  630TMC3    C5 9382   2.045   4.274  16.467 -0.5693  0.2822 -0.1537
  630TMC3    C6 9383   1.985   4.360  16.376  0.2676  0.9506  0.1571
  630TMC3     C 9384   1.793   4.219  16.722  1.1328  0.4845 -0.2432
  630TMC3     O 9385   1.671   4.223  16.717 -0.5959  0.5998  0.2173
  630TMC3     H 9386   1.697   4.395  16.557 -0.0166  0.9027  0.5900
  630TMC3    H1 9387   2.034   4.159  16.645 -0.0471  1.7247  0.7452
  630TMC3    H2 9388   2.044   4.401  16.295 -3.0484  1.1607 -2.1332
  630TMC3    C7 9389   2.167   4.331  16.516 -0.1661  0.5686 -0.3414
  630TMC3    C8 9390   1.862   4.559  16.406  0.8198  0.1890  0.3970
  630TMC3    O1 9391   2.250   4.250  16.568 -0.3402 -0.5451  0.3657
  630TMC3    O2 9392   1.975   4.602  16.383  0.0570 -1.0196 -0.4649
  631MPD2     C 9393   0.578   4.502  15.450 -0.1151 -0.4724  0.5107
  631MPD2    C1 9394   0.476   4.543  15.538 -0.7018  0.0721 -0.0329
  631MPD2    C2 9395   0.497   4.516  15.674 -0.2109  0.1693  0.7210
  631MPD2    C3 9396   0.608   4.449  15.718 -1.0820  0.5988  0.2243
  631MPD2    C4 9397   0.700   4.404  15.630 -0.1497  0.0816 -0.2359
  631MPD2    C5 9398   0.684   4.433  15.495 -0.6044  0.1174  0.0992
  631MPD2     H 9399   0.422   4.545  15.747  1.1724  0.7978  1.8962
  631MPD2    H1 9400   0.789   4.346  15.652 -0.2130 -0.5157 -1.5133
  631MPD2    H2 9401   0.571   4.520  15.344 -2.8610  1.1142  0.9607
  631MPD2    H3 9402   0.758   4.388  15.430 -0.4637  0.0532  0.3033
  631MPD2     N 9403   0.613   4.418  15.859 -0.5716 -0.0353  0.1955
  631MPD2    H5 9404   0.546   4.456  15.925 -2.0765 -1.6248 -0.4264
  631MPD2    N1 9405   0.370   4.627  15.493 -0.2981  0.0628 -0.7769
  631MPD2    H7 9406   0.368   4.653  15.395  0.6794  1.2487 -0.4825
  632TMC3    C1 9407   0.145   4.736  15.509  0.3469 -0.5532  0.2853
  632TMC3    C2 9408   0.046   0.006  15.604  0.4439 -0.3255 -0.4081
  632TMC3    C3 9409   4.718   0.126  15.598 -0.2545  0.5112  0.4195
  632TMC3    C4 9410   0.175   0.089  15.410 -0.2371 -0.1441 -0.1187
  632TMC3    C5 9411   0.105   0.212  15.422  0.0924  0.5464 -0.3970
  632TMC3    C6 9412   0.005   0.231  15.518  0.7993  0.9049 -0.7191
  632TMC3     C 9413   0.250   4.647  15.566  0.3564  0.2973 -0.2880
  632TMC3     O 9414   0.218   4.565  15.652 -0.3161 -0.0167  0.4679
  632TMC3     H 9415   0.032   4.683  15.689  0.3560  2.3409  1.6596
  632TMC3    H1 9416   0.229   0.055  15.323  0.2388  0.5017 -0.0728
  632TMC3    H2 9417   4.685   0.319  15.522 -1.4871 -0.7296 -1.1278
  632TMC3    C7 9418   0.097   0.306  15.307 -0.2441  0.5939 -0.6734
  632TMC3    C8 9419   4.618   0.145  15.705  0.0267 -0.1502 -0.2343
  632TMC3    O1 9420   0.020   0.400  15.332  0.0700  0.0490 -0.1606
  632TMC3    O2 9421   4.576   0.043  15.753 -0.2084  0.2185 -0.3043
  633MPD2     C 9422   4.011   2.717  17.408 -0.0292 -0.8755 -0.0505
  633MPD2    C1 9423   4.081   2.660  17.298  0.4526 -0.1095  0.0146
  633MPD2    C2 9424   4.100   2.520  17.295 -0.0288  0.7137  0.3547
  633MPD2    C3 9425   4.052   2.443  17.400 -0.0700  0.4656 -0.4445
  633MPD2    C4 9426   3.992   2.501  17.509 -0.2703 -0.4510  0.5422
  633MPD2    C5 9427   3.975   2.635  17.512 -0.2833 -0.0805 -0.5371
  633MPD2     H 9428   4.154   2.467  17.217  0.1623  0.5337  0.6099
  633MPD2    H1 9429   3.947   2.435  17.583 -1.4305 -0.9240 -0.5705
  633MPD2    H2 9430   3.981   2.821  17.416  1.1735 -0.6565  1.6558
  633MPD2    H3 9431   3.920   2.680  17.594 -0.4228 -0.5715 -0.3572
  633MPD2     N 9432   4.057   2.303  17.406  0.6674 -0.0030 -0.1812
  633MPD2    H5 9433   4.025   2.264  17.494 -1.6259  1.7156 -0.2643
  633MPD2    N1 9434   4.140   2.739  17.197  0.3626  0.2984 -0.0299
  633MPD2    H7 9435   4.212   2.698  17.138  2.1294  1.0572  1.6049
  634TMC3    C1 9436   4.151   2.893  17.035 -0.2504 -0.1902 -0.7182
  634TMC3    C2 9437   4.271   2.841  16.994  0.0599  0.0999 -0.3990
  634TMC3    C3 9438   4.315   2.857  16.873 -0.2235  0.0787  0.3835
  634TMC3    C4 9439   4.067   2.960  16.952  0.4307  0.0255  0.0390
  634TMC3    C5 9440   4.115   2.962  16.821 -0.2899 -0.3968 -0.2768
  634TMC3    C6 9441   4.241   2.920  16.783 -0.3866 -0.7209 -0.0470
  634TMC3     C 9442   4.112   2.873  17.172 -0.7580  0.2562 -0.0403
  634TMC3     O 9443   4.009   2.935  17.211  0.0634 -0.1469 -0.3242
  634TMC3     H 9444   4.342   2.816  17.072  0.7096  0.9522 -0.7173
  634TMC3    H1 9445   3.972   2.995  16.991  0.0151  0.2057 -1.1419
  634TMC3    H2 9446   4.278   2.955  16.687 -0.0994  0.5216  0.5195
  634TMC3    C7 9447   4.039   3.005  16.714  0.1653 -0.2998 -0.4058
  634TMC3    C8 9448   4.429   2.772  16.824  0.4268  0.3312 -0.0598
  634TMC3    O1 9449   4.094   3.006  16.603 -0.0734  0.1388 -0.0421
  634TMC3    O2 9450   4.473   2.684  16.901 -1.0071  0.4213 -0.4413
  635TMC3    C1 9451   4.238   3.397   0.598  0.0582 -0.2107 -0.4478
  635TMC3    C2 9452   4.250   3.347   0.470 -0.0136 -0.5832 -0.0636
  635TMC3    C3 9453   4.154   3.268   0.423  0.1250 -0.5318  1.1343
  635TMC3    C4 9454   4.137   3.365   0.684  0.6860  0.1224  0.4483
  635TMC3    C5 9455   4.055   3.270   0.638  0.1303 -0.2231 -0.4560
  635TMC3    C6 9456   4.051   3.229   0.506  0.4063 -0.0623 -0.1373
  635TMC3     C 9457   4.323   3.517   0.642  0.2373  0.3242  0.1805
  635TMC3     O 9458   4.293   3.569   0.747  0.2168 -0.2605 -0.6797
  635TMC3     H 9459   4.322   3.382   0.396 -0.2271 -0.0237 -0.0060
  635TMC3    H1 9460   4.121   3.412   0.781  0.2104  2.1070 -0.6092
  635TMC3    H2 9461   3.980   3.153   0.476  1.0806 -0.6157 -0.3237
  635TMC3    C7 9462   3.935   3.250   0.725  0.4514  0.3886 -0.4095
  635TMC3    C8 9463   4.162   3.212   0.290  0.2072 -0.5439 -0.5225
  635TMC3    O1 9464   3.958   3.265   0.845  0.1151 -0.0793  0.8359
  635TMC3    O2 9465   4.264   3.220   0.228  0.4603 -0.2976  0.4374
  636MPD2     C 9466   0.941   2.751  16.380  0.1923  0.7072 -0.0131
  636MPD2    C1 9467   1.034   2.835  16.439 -0.1151 -0.3840 -0.2505
  636MPD2    C2 9468   1.162   2.786  16.447 -0.4420 -0.1043  0.4209
  636MPD2    C3 9469   1.210   2.672  16.383 -0.8441 -0.4269 -0.1306
  636MPD2    C4 9470   1.117   2.590  16.331  0.3589 -0.2104 -0.0318
  636MPD2    C5 9471   0.986   2.628  16.335  0.2720  0.2746 -0.4536
  636MPD2     H 9472   1.236   2.855  16.484 -0.3840  0.1337 -0.1425
  636MPD2    H1 9473   1.140   2.491  16.292 -0.0490 -0.1544 -0.4120
  636MPD2    H2 9474   0.837   2.771  16.357 -0.2822 -2.8967 -1.1031
  636MPD2    H3 9475   0.916   2.566  16.280 -2.2994  0.8012  2.2430
  636MPD2     N 9476   1.350   2.643  16.380 -0.1782  0.1581 -0.2307
  636MPD2    H5 9477   1.412   2.711  16.424  1.3430 -0.4047 -1.5005
  636MPD2    N1 9478   1.004   2.961  16.491  0.5652  0.2088  0.0412
  636MPD2    H7 9479   1.074   3.016  16.540  1.2826  0.4799 -1.2888
  637TMC3    C1 9480   1.558   2.563  16.348 -0.0972  0.5277  0.4417
  637TMC3    C2 9481   1.577   2.644  16.454 -0.0592 -0.0987  0.0820
  637TMC3    C3 9482   1.667   2.745  16.456  0.0633 -0.0672  0.2059
  637TMC3    C4 9483   1.629   2.592  16.231  0.5451  0.2119  0.7066
  637TMC3    C5 9484   1.713   2.711  16.227 -0.0351 -0.7523  0.1772
  637TMC3    C6 9485   1.733   2.780  16.340 -0.3676  0.7245 -1.4097
  637TMC3     C 9486   1.415   2.540  16.327 -0.2597  0.3611  0.2473
  637TMC3     O 9487   1.386   2.459  16.240 -0.2549  0.1498  0.1517
  637TMC3     H 9488   1.526   2.611  16.544 -1.5928  1.7534 -0.1141
  637TMC3    H1 9489   1.605   2.545  16.136  1.4100 -2.8208  2.0091
  637TMC3    H2 9490   1.804   2.862  16.344 -1.3535  1.5754 -1.3771
  637TMC3    C7 9491   1.691   2.811  16.118 -0.2699 -0.2517  0.2489
  637TMC3    C8 9492   1.596   2.861  16.505  0.0346  0.1458  0.3263
  637TMC3    O1 9493   1.740   2.919  16.139  0.2775 -0.1805 -0.0705
  637TMC3    O2 9494   1.475   2.854  16.513  0.2814 -0.1807  0.3239
  638MPD2     C 9495   0.665   1.760  15.143  0.8245  0.1330 -0.4689
  638MPD2    C1 9496   0.629   1.669  15.050 -0.9887 -0.0870  0.2346
  638MPD2    C2 9497   0.577   1.551  15.098 -0.1092  0.8555  0.6548
  638MPD2    C3 9498   0.537   1.536  15.225 -0.2934 -0.1428 -1.1409
  638MPD2    C4 9499   0.558   1.634  15.320  0.1199 -0.2632  0.3641
  638MPD2    C5 9500   0.624   1.744  15.270 -0.5863  0.2119 -0.1391
  638MPD2     H 9501   0.549   1.471  15.030 -0.6363 -0.0439  1.9259
  638MPD2    H1 9502   0.514   1.628  15.418  0.1031  0.5437  0.4015
  638MPD2    H2 9503   0.713   1.854  15.120  0.4223  0.6477  0.7978
  638MPD2    H3 9504   0.646   1.828  15.336  2.3221  0.5635 -1.5648
  638MPD2     N 9505   0.473   1.412  15.257  0.0018  0.1501 -0.3648
  638MPD2    H5 9506   0.457   1.347  15.181  0.4171  2.2941 -2.2824
  638MPD2    N1 9507   0.666   1.678  14.913 -0.0225  0.4105  0.2824
  638MPD2    H7 9508   0.637   1.601  14.853 -0.5762  0.1635  0.8686
  639TMC3    C1 9509   0.355   1.239  15.384  0.2113 -0.4938  0.1270
  639TMC3    C2 9510   0.272   1.204  15.283  0.2105  0.2375  0.0454
  639TMC3    C3 9511   0.220   1.081  15.282  0.3750 -0.5763 -0.2490
  639TMC3    C4 9512   0.390   1.141  15.473 -0.3644 -0.2225  0.8775
  639TMC3    C5 9513   0.339   1.015  15.467 -0.4476  0.1489 -0.1147
  639TMC3    C6 9514   0.246   0.988  15.376 -0.2613 -0.2342  0.1037
  639TMC3     C 9515   0.435   1.367  15.382  0.1338  0.4300  0.3075
  639TMC3     O 9516   0.460   1.407  15.493  0.0658  0.2789 -0.0313
  639TMC3     H 9517   0.258   1.273  15.200 -2.4057  0.7856  0.9249
  639TMC3    H1 9518   0.463   1.159  15.551 -0.0811  1.4527  0.2156
  639TMC3    H2 9519   0.213   0.885  15.367  1.3046 -0.8827  1.7287
  639TMC3    C7 9520   0.428   0.911  15.508 -0.9218 -0.2549  0.1274
  639TMC3    C8 9521   0.174   1.029  15.157  0.9690  0.3928  0.2528
  639TMC3    O1 9522   0.372   0.822  15.574  0.3533  0.1136  0.3243
  639TMC3    O2 9523   0.233   1.060  15.056  0.8638  0.1793 -0.8686
  640MPD2     C 9524   1.014   1.065   9.726  0.2238  0.1004 -0.2725
  640MPD2    C1 9525   0.969   0.948   9.790 -0.9481  0.8280  0.6409
  640MPD2    C2 9526   0.927   0.966   9.927  0.6121 -0.1915 -0.2455
  640MPD2    C3 9527   0.908   1.091   9.987  0.1280 -0.0929 -0.1629
  640MPD2    C4 9528   0.944   1.202   9.911 -0.6960  0.2440 -0.1301
  640MPD2    C5 9529   0.990   1.186   9.787 -0.8148 -0.0128 -0.4490
  640MPD2     H 9530   0.886   0.886   9.987  0.1582  0.9506  0.9845
  640MPD2    H1 9531   0.921   1.304   9.939 -2.5110 -0.1137 -0.3712
  640MPD2    H2 9532   1.036   1.063   9.620 -0.9041  1.4054 -0.5159
  640MPD2    H3 9533   1.003   1.276   9.728 -1.1354  0.5615  0.3641
  640MPD2     N 9534   0.860   1.110  10.124 -0.7838 -0.1594 -0.1597
  640MPD2    H5 9535   0.833   1.201  10.159 -0.3640  0.1427 -0.6219
  640MPD2    N1 9536   0.968   0.824   9.724  0.1455 -0.8730 -0.0459
  640MPD2    H7 9537   1.011   0.822   9.632 -1.3847 -1.4106 -0.7434
  641TMC3    C1 9538   0.933   0.606   9.676  1.1784 -0.4820 -0.5190
  641TMC3    C2 9539   0.990   0.486   9.705  0.0666  0.2865  0.0569
  641TMC3    C3 9540   1.002   0.399   9.600 -0.1022  0.1786  0.7530
  641TMC3    C4 9541   0.896   0.644   9.545 -0.2919 -0.1698  0.2686
  641TMC3    C5 9542   0.917   0.551   9.447 -0.5035  0.3970 -0.0680
  641TMC3    C6 9543   0.969   0.426   9.470 -0.3221  0.2214  0.4187
  641TMC3     C 9544   0.928   0.707   9.775 -0.2856  0.1522 -0.1743
  641TMC3     O 9545   0.915   0.673   9.892  0.2342  0.1888  0.1243
  641TMC3     H 9546   0.994   0.455   9.809 -2.0068  0.4785  0.2107
  641TMC3    H1 9547   0.862   0.741   9.511 -0.3277 -0.1374  0.3980
  641TMC3    H2 9548   0.983   0.359   9.386  1.2774 -2.3156  2.7070
  641TMC3    C7 9549   0.881   0.579   9.314 -0.6580  0.5674  0.1633
  641TMC3    C8 9550   1.047   0.263   9.620  0.5482  0.9127 -0.7780
  641TMC3    O1 9551   0.769   0.624   9.304  0.3232  0.0067  0.0011
  641TMC3    O2 9552   1.020   0.181   9.535 -0.5110  0.2728 -0.2730
  642TMC3    C1 9553   2.322   1.216  12.665  0.6309  0.1362 -0.4994
  642TMC3    C2 9554   2.416   1.261  12.569 -0.2379  0.5374 -0.2250
  642TMC3    C3 9555   2.409   1.193  12.453 -0.1643  0.2456 -0.2855
  642TMC3    C4 9556   2.244   1.111  12.647 -0.4010 -0.4368 -0.2948
  642TMC3    C5 9557   2.244   1.054  12.524  0.5091  1.0802 -0.2839
  642TMC3    C6 9558   2.332   1.089  12.425 -0.0219  0.3887 -0.6410
  642TMC3     C 9559   2.280   1.319  12.756  0.2938  0.6331  0.0528
  642TMC3     O 9560   2.355   1.415  12.775  0.0203  0.3166  0.5936
  642TMC3     H 9561   2.474   1.352  12.580  0.1164  0.2603  0.2228
  642TMC3    H1 9562   2.187   1.075  12.732 -1.7033  1.0409 -0.5392
  642TMC3    H2 9563   2.332   1.026  12.336  1.0554 -1.8898  0.9680
  642TMC3    C7 9564   2.161   0.942  12.490 -0.4834  0.0080 -0.5661
  642TMC3    C8 9565   2.493   1.228  12.341 -0.5834  0.3329 -0.7512
  642TMC3    O1 9566   2.143   0.920  12.372  0.3959 -0.4627  0.1451
  642TMC3    O2 9567   2.449   1.203  12.229 -0.0024  0.8803  0.5571
  643TMC3    C1 9568   1.685   0.376   0.144  0.3298 -0.5016  0.0786
  643TMC3    C2 9569   1.562   0.370   0.088 -0.4005 -0.2126 -0.2509
  643TMC3    C3 9570   1.552   0.311  17.734  0.1062  0.4752  0.0660
  643TMC3    C4 9571   1.794   0.319   0.083  0.3616 -0.4918 -0.1843
  643TMC3    C5 9572   1.778   0.261  17.731 -0.1355  0.4312  0.4219
  643TMC3    C6 9573   1.659   0.247  17.676  0.6910 -0.0566  1.0490
  643TMC3     C 9574   1.703   0.388   0.285  0.0445  0.1606  0.0540
  643TMC3     O 9575   1.606   0.444   0.337 -0.2455 -0.2493 -0.0343
  643TMC3     H 9576   1.478   0.420   0.134 -0.3810 -0.8840  0.5285
  643TMC3    H1 9577   1.894   0.346   0.115  0.0405  1.8108 -1.0942
  643TMC3    H2 9578   1.638   0.200  17.580  1.0960  0.5249  0.6750
  643TMC3    C7 9579   1.874   0.306  17.629  0.0043 -0.1660  0.2526
  643TMC3    C8 9580   1.498   0.392  17.634 -0.1712 -0.1148 -0.2260
  643TMC3    O1 9581   1.834   0.344  17.522  0.0364  0.7451  0.0242
  643TMC3    O2 9582   1.448   0.338  17.539  0.1567  0.6544 -0.2127
  644MPD2     C 9583   0.748   1.126   8.889 -0.0075  0.1164  0.5796
  644MPD2    C1 9584   0.772   1.117   9.017  0.2788  0.4799 -0.2928
  644MPD2    C2 9585   0.692   1.181   9.105 -0.0624 -0.7798 -0.4929
  644MPD2    C3 9586   0.582   1.252   9.066  0.3549  0.0300 -0.0253
  644MPD2    C4 9587   0.551   1.265   8.932  0.1149 -0.3244  0.3193
  644MPD2    C5 9588   0.640   1.198   8.848  0.3902  0.6223 -0.6517
  644MPD2     H 9589   0.710   1.175   9.212 -0.6403  0.3688 -0.3289
  644MPD2    H1 9590   0.459   1.306   8.893  0.5049  1.0319  0.8147
  644MPD2    H2 9591   0.800   1.067   8.814  0.3873 -0.0019  0.9447
  644MPD2    H3 9592   0.599   1.186   8.749  1.7955  2.4958 -1.4635
  644MPD2     N 9593   0.502   1.310   9.164  0.3405  0.2913  0.4882
  644MPD2    H5 9594   0.516   1.284   9.261 -0.1477 -0.8270  0.2616
  644MPD2    N1 9595   0.878   1.024   9.056 -0.0245 -0.3609  0.6859
  644MPD2    H7 9596   0.922   0.967   8.984  1.6180 -2.0102  2.9786
  645TMC3    C1 9597   0.353   1.444   9.264  0.1001  0.6579  0.9052
  645TMC3    C2 9598   0.345   1.356   9.374  0.5731  0.7656 -0.4691
  645TMC3    C3 9599   0.290   1.392   9.492 -0.2242  0.0652 -0.4717
  645TMC3    C4 9600   0.291   1.565   9.280  0.1120  0.2161  0.9099
  645TMC3    C5 9601   0.223   1.598   9.395  0.6909  0.8582  0.3274
  645TMC3    C6 9602   0.231   1.513   9.509 -0.4047 -0.3666  0.2289
  645TMC3     C 9603   0.415   1.411   9.139 -0.2743 -0.3172 -0.4023
  645TMC3     O 9604   0.400   1.477   9.039  0.3993 -0.1684 -0.0967
  645TMC3     H 9605   0.381   1.253   9.368  2.6800  1.3830  1.5941
  645TMC3    H1 9606   0.289   1.630   9.194 -0.4104 -0.4896  0.3847
  645TMC3    H2 9607   0.200   1.540   9.609  0.5603 -1.5178  0.8346
  645TMC3    C7 9608   0.170   1.739   9.409 -0.4115 -0.0475  0.7120
  645TMC3    C8 9609   0.282   1.296   9.604 -0.0012  0.1379 -0.6519
  645TMC3    O1 9610   0.182   1.813   9.313  0.4042 -0.2398 -0.2320
  645TMC3    O2 9611   0.329   1.324   9.718  0.0045  0.2972  0.3558
  646MPD2     C 9612   0.799   0.580  14.567  0.4741  0.7405 -0.4404
  646MPD2    C1 9613   0.700   0.497  14.606 -0.0627 -0.1039 -0.4965
  646MPD2    C2 9614   0.570   0.546  14.588 -0.0994  0.2756  0.1304
  646MPD2    C3 9615   0.536   0.670  14.527 -0.0874  0.4495  0.1381
  646MPD2    C4 9616   0.640   0.745  14.485  0.6206  0.2714  0.6730
  646MPD2    C5 9617   0.766   0.700  14.510  0.1664  0.1116  0.5657
  646MPD2     H 9618   0.490   0.480  14.617 -0.4158 -0.2382 -1.9123
  646MPD2    H1 9619   0.629   0.843  14.440  0.4846 -0.9609 -2.0014
  646MPD2    H2 9620   0.903   0.552  14.578  0.5183  0.9850 -0.2297
  646MPD2    H3 9621   0.843   0.769  14.478  0.0686 -0.2960 -0.5706
  646MPD2     N 9622   0.401   0.705  14.507 -0.5442 -0.6048 -1.1038
  646MPD2    H5 9623   0.337   0.637  14.547 -0.4081 -0.4393 -0.6133
  646MPD2    N1 9624   0.749   0.382  14.677 -0.1962 -0.2430  0.2677
  646MPD2    H7 9625   0.848   0.365  14.663 -0.1781 -0.8746  1.1576
  647TMC3    C1 9626   0.753   0.187  14.799 -0.3466  1.1536 -0.0674
  647TMC3    C2 9627   0.690   0.071  14.801  0.3287  0.6161  1.1096
  647TMC3    C3 9628   0.750   4.704  14.852  0.4275  0.0763  0.4372
  647TMC3    C4 9629   0.887   0.191  14.834  0.4097 -0.1705  0.3965
  647TMC3    C5 9630   0.945   0.072  14.870 -0.2857  0.0943 -0.6250
  647TMC3    C6 9631   0.878   4.702  14.881  1.0364 -0.4268 -0.5101
  647TMC3     C 9632   0.677   0.302  14.758  0.6885 -0.6782  0.5142
  647TMC3     O 9633   0.557   0.307  14.777  0.4601 -0.0415  0.0496
  647TMC3     H 9634   0.586   0.057  14.775  0.7155 -0.7735  0.3274
  647TMC3    H1 9635   0.935   0.287  14.852  0.8111 -0.3991  0.5456
  647TMC3    H2 9636   0.927   4.613  14.918  0.4534 -0.1970  0.7967
  647TMC3    C7 9637   1.071   0.073  14.946  0.2617 -0.7634 -0.4376
  647TMC3    C8 9638   0.678   4.573  14.846 -0.0889 -0.1675  0.0117
  647TMC3    O1 9639   1.167   0.011  14.906 -0.2131 -0.0256  0.2383
  647TMC3    O2 9640   0.585   4.563  14.769 -0.2353 -0.1394 -0.0202
  648TMC3    C1 9641   0.193   2.634  16.110 -0.3772 -0.3680  0.1229
  648TMC3    C2 9642   0.248   2.508  16.100  0.2063  0.5812 -0.6914
  648TMC3    C3 9643   0.175   2.412  16.027 -0.3626  0.7181 -0.7643
  648TMC3    C4 9644   0.074   2.654  16.041  0.0419  0.6412  0.5338
  648TMC3    C5 9645   0.008   2.556  15.968  0.7537 -0.3878 -0.0025
  648TMC3    C6 9646   0.063   2.434  15.955  0.2667  0.1957  0.5808
  648TMC3     C 9647   0.214   2.714  16.226  0.4155 -0.7066  0.0805
  648TMC3     O 9648   0.148   2.814  16.242 -0.4653 -0.3496 -0.5211
  648TMC3     H 9649   0.345   2.488  16.145 -0.6712  0.2268  1.0449
  648TMC3    H1 9650   0.028   2.751  16.060 -0.4766 -0.1509  3.3823
  648TMC3    H2 9651   0.009   2.361  15.895 -1.1165  2.3245 -0.7441
  648TMC3    C7 9652   4.675   2.598  15.847 -0.2220  0.0710  0.2026
  648TMC3    C8 9653   0.221   2.278  16.040  0.0822 -0.0013 -0.7748
  648TMC3    O1 9654   4.727   2.567  15.735  0.5231 -0.2745 -0.2638
  648TMC3    O2 9655   0.340   2.263  16.068  0.3234  0.0376 -0.5215
  649TMC3    C1 9656   3.514   3.409  13.035  0.5128  0.4007  0.4073
  649TMC3    C2 9657   3.638   3.426  13.094 -0.8458  0.4268 -0.1290
  649TMC3    C3 9658   3.668   3.363  13.212  1.0869 -0.1384 -0.6457
  649TMC3    C4 9659   3.407   3.342  13.098  0.0014 -0.0129  0.8292
  649TMC3    C5 9660   3.443   3.272  13.216 -0.6066 -0.5593 -0.3561
  649TMC3    C6 9661   3.577   3.277  13.264  0.5711  0.4064  0.2497
  649TMC3     C 9662   3.499   3.496  12.918  0.1152 -0.0530 -0.2451
  649TMC3     O 9663   3.554   3.610  12.915 -0.2227  0.6218  0.2901
  649TMC3     H 9664   3.722   3.467  13.040 -0.4047  1.5055  1.3852
  649TMC3    H1 9665   3.303   3.340  13.069 -0.4666 -1.5912  2.5654
  649TMC3    H2 9666   3.597   3.231  13.360 -0.4316 -1.7637 -0.5843
  649TMC3    C7 9667   3.339   3.231  13.315 -0.1723 -0.2411 -0.3634
  649TMC3    C8 9668   3.796   3.392  13.273  0.4310  0.2122 -0.4017
  649TMC3    O1 9669   3.235   3.289  13.319 -0.2861 -0.0544  0.2182
  649TMC3    O2 9670   3.847   3.300  13.340  0.1180  0.3576 -1.0266
  650TMC3    C1 9671   1.513   0.179  13.073 -0.0647 -0.2226 -0.1863
  650TMC3    C2 9672   1.421   0.266  13.128 -0.0680 -1.1208  0.5550
  650TMC3    C3 9673   1.362   0.364  13.061  0.1324 -0.1152 -0.2508
  650TMC3    C4 9674   1.539   0.194  12.938 -0.3119  0.5795  0.1423
  650TMC3    C5 9675   1.477   0.295  12.871  0.7218  0.4277  0.6968
  650TMC3    C6 9676   1.389   0.381  12.927  0.2002 -0.2321  0.0495
  650TMC3     C 9677   1.589   0.090  13.158  0.1038  0.6441  0.0988
  650TMC3     O 9678   1.578   0.114  13.278  0.0841 -0.4238  0.0965
  650TMC3     H 9679   1.412   0.265  13.236  0.3354  1.6581  0.5931
  650TMC3    H1 9680   1.629   0.151  12.894 -1.6777 -1.0845 -1.0386
  650TMC3    H2 9681   1.335   0.460  12.875 -1.0129 -0.9041  0.2780
  650TMC3    C7 9682   1.502   0.310  12.731  0.1945  0.0108  0.9852
  650TMC3    C8 9683   1.290   0.468  13.134 -0.0617 -0.1314 -0.0494
  650TMC3    O1 9684   1.497   0.207  12.669  0.2003 -0.4121  0.3516
  650TMC3    O2 9685   1.260   0.443  13.249  0.1506 -0.0270 -0.3653
  651MPD2     C 9686   0.127   2.606  10.855  0.5079 -0.4264  0.1230
  651MPD2    C1 9687   0.124   2.745  10.882 -1.7053  0.5916  0.3194
  651MPD2    C2 9688   0.237   2.820  10.864  0.5720  0.4258 -0.0772
  651MPD2    C3 9689   0.353   2.765  10.804  0.0144 -0.9185 -0.6950
  651MPD2    C4 9690   0.352   2.626  10.792 -0.1826  0.8405  0.8958
  651MPD2    C5 9691   0.240   2.552  10.809  0.0401 -0.0304  0.0503
  651MPD2     H 9692   0.231   2.927  10.878  1.7794  0.4329  0.3798
  651MPD2    H1 9693   0.440   2.570  10.761 -2.3407  0.0944 -3.7453
  651MPD2    H2 9694   0.039   2.543  10.864  0.8178 -0.7608  0.7873
  651MPD2    H3 9695   0.242   2.445  10.795 -1.3819 -0.0131 -0.2524
  651MPD2     N 9696   0.462   2.846  10.773  0.0892  0.2728 -0.0857
  651MPD2    H5 9697   0.445   2.946  10.765  0.0183  0.1100 -1.9980
  651MPD2    N1 9698   0.019   2.817  10.947  0.0755  0.5153 -0.2505
  651MPD2    H7 9699   0.030   2.917  10.960  2.3036 -0.0144  1.7618
  652TMC3    C1 9700   0.888   2.987  10.648  0.4311 -0.0673  0.1153
  652TMC3    C2 9701   0.798   2.883  10.659  0.8922  0.2068 -0.3145
  652TMC3    C3 9702   0.687   2.905  10.736 -0.9606  0.5065 -0.1976
  652TMC3    C4 9703   0.878   3.103  10.724  1.2062  0.0439  0.1130
  652TMC3    C5 9704   0.762   3.119  10.798 -0.1442 -0.4618  0.0582
  652TMC3    C6 9705   0.661   3.023  10.801  0.5380 -0.9926 -0.1888
  652TMC3     C 9706   1.024   2.942  10.612 -0.4772 -0.2743  0.2442
  652TMC3     O 9707   1.062   2.836  10.655  0.0974 -0.2894  0.1547
  652TMC3     H 9708   0.825   2.783  10.625  0.8539 -0.6881  2.2622
  652TMC3    H1 9709   0.966   3.163  10.739 -0.5406  2.1295  2.0952
  652TMC3    H2 9710   0.576   3.035  10.867  1.1453 -1.4236  0.6742
  652TMC3    C7 9711   0.772   3.199  10.919 -0.1013  0.4505  0.3017
  652TMC3    C8 9712   0.588   2.799  10.751 -0.2529  0.5817  0.0893
  652TMC3    O1 9713   0.702   3.173  11.014 -0.3896  0.5032  0.3305
  652TMC3    O2 9714   0.629   2.681  10.742 -0.2891  0.2342 -0.0370
  653MPD2     C 9715   3.582   2.645  17.542 -0.7382  0.6774 -0.4680
  653MPD2    C1 9716   3.580   2.691  17.410 -0.1243  0.5210 -0.9834
  653MPD2    C2 9717   3.600   2.599  17.308 -0.3807  0.1481  0.8116
  653MPD2    C3 9718   3.625   2.467  17.333 -0.6139  0.3057  0.5520
  653MPD2    C4 9719   3.628   2.433  17.469  0.4881 -0.4320  0.1485
  653MPD2    C5 9720   3.606   2.516  17.569 -0.0627 -0.1859  0.1470
  653MPD2     H 9721   3.599   2.620  17.202 -0.5293  1.1152  1.0028
  653MPD2    H1 9722   3.649   2.332  17.500 -2.1240 -0.8916  0.4113
  653MPD2    H2 9723   3.568   2.710  17.627 -0.4926  0.9821 -0.6589
  653MPD2    H3 9724   3.604   2.480  17.671 -1.4344 -0.3501  0.0648
  653MPD2     N 9725   3.653   2.378  17.226  0.6658  0.1370 -0.1946
  653MPD2    H5 9726   3.641   2.429  17.140  0.3802  2.8036  1.4362
  653MPD2    N1 9727   3.575   2.833  17.383  0.6725 -0.0861  0.6837
  653MPD2    H7 9728   3.570   2.863  17.286  0.8381 -0.6542  0.4979
  654TMC3    C1 9729   3.675   2.176  17.098 -0.0487  0.9143  0.2087
  654TMC3    C2 9730   3.646   2.247  16.984  0.2602 -0.0628 -0.5143
  654TMC3    C3 9731   3.616   2.174  16.868 -0.4234 -0.1653  0.3552
  654TMC3    C4 9732   3.690   2.043  17.093  0.0935 -0.1569  0.1487
  654TMC3    C5 9733   3.661   1.978  16.978 -0.4596 -0.7860  0.2758
  654TMC3    C6 9734   3.617   2.041  16.864  0.0779  0.1204 -0.5913
  654TMC3     C 9735   3.679   2.240  17.226  0.4089  0.0037 -0.4899
  654TMC3     O 9736   3.673   2.164  17.325  0.5282  0.6238  0.2868
  654TMC3     H 9737   3.644   2.355  16.987 -1.7745 -0.0429 -2.7886
  654TMC3    H1 9738   3.702   1.993  17.188 -1.9065 -0.3820  0.2913
  654TMC3    H2 9739   3.591   1.981  16.777 -0.7821 -1.0810  0.4926
  654TMC3    C7 9740   3.728   1.853  16.943 -0.8612  0.1099 -0.2476
  654TMC3    C8 9741   3.564   2.258  16.756  0.0268 -0.0890 -0.5384
  654TMC3    O1 9742   3.719   1.799  16.838  0.0891  0.6516  0.1184
  654TMC3    O2 9743   3.525   2.366  16.784  0.1596  0.0075 -0.6984
  655MPD2     C 9744   0.409   2.692  15.622  0.2228 -0.2277 -0.2288
  655MPD2    C1 9745   0.397   2.782  15.518  0.0384  0.3385 -1.1125
  655MPD2    C2 9746   0.452   2.751  15.393 -0.4579 -0.0340  0.0515
  655MPD2    C3 9747   0.479   2.619  15.367  0.0779  0.3151 -0.5893
  655MPD2    C4 9748   0.480   2.530  15.468  0.2041  0.5969 -0.5383
  655MPD2    C5 9749   0.457   2.567  15.598  0.2801 -0.3836 -0.4854
  655MPD2     H 9750   0.453   2.822  15.311  1.8074 -1.7275 -1.4111
  655MPD2    H1 9751   0.521   2.431  15.448  0.9423  0.3509  2.2629
  655MPD2    H2 9752   0.392   2.710  15.728  3.6381  0.5135  0.1989
  655MPD2    H3 9753   0.487   2.503  15.680 -0.6737 -0.8962 -0.5402
  655MPD2     N 9754   0.505   2.563  15.236  0.1896 -0.3638 -0.2744
  655MPD2    H5 9755   0.512   2.462  15.238 -1.7749 -0.4660  1.4644
  655MPD2    N1 9756   0.341   2.913  15.545  0.0972  0.0792 -0.0058
  655MPD2    H7 9757   0.330   2.978  15.468  2.0674  2.5745  1.7959
  656TMC3    C1 9758   0.191   3.061  15.658  0.6210  0.1550  0.1145
  656TMC3    C2 9759   0.112   3.074  15.773  0.2988  0.1145 -0.5229
  656TMC3    C3 9760   4.719   3.104  15.766 -0.1778 -0.2318  0.5402
  656TMC3    C4 9761   0.123   3.069  15.537  0.5231 -0.4063  0.6724
  656TMC3    C5 9762   4.734   3.099  15.531 -0.7341  0.1970  0.2938
  656TMC3    C6 9763   4.658   3.117  15.645 -0.1660 -0.1216  0.3308
  656TMC3     C 9764   0.298   2.957  15.671  0.2126  0.3261 -0.8007
  656TMC3     O 9765   0.325   2.916  15.782 -0.1869 -0.8720  0.3533
  656TMC3     H 9766   0.163   3.051  15.866  2.9375 -0.8835 -2.2239
  656TMC3    H1 9767   0.176   3.063  15.443  2.1437  1.8799  1.4387
  656TMC3    H2 9768   4.550   3.116  15.636 -0.0419  1.4829 -1.3803
  656TMC3    C7 9769   4.669   3.035  15.421  0.3902 -0.0096 -0.1110
  656TMC3    C8 9770   4.641   3.097  15.885  0.2907 -0.4390 -0.5146
  656TMC3    O1 9771   4.736   2.943  15.370  0.4076 -0.1084  0.1741
  656TMC3    O2 9772   4.683   3.034  15.980  0.6486  0.5495 -0.1069
  657TMC3    C1 9773   4.035   2.110  15.398 -0.0211 -0.3312  0.3577
  657TMC3    C2 9774   4.050   2.111  15.534  0.0454 -0.8139  0.0552
  657TMC3    C3 9775   4.004   2.217  15.610 -0.4405  0.7689  0.3107
  657TMC3    C4 9776   3.964   2.204  15.338  0.1192 -0.5612  0.3864
  657TMC3    C5 9777   3.918   2.309  15.412 -0.5192  0.9649  0.4496
  657TMC3    C6 9778   3.931   2.313  15.549 -0.0323 -0.2208 -0.3918
  657TMC3     C 9779   4.064   1.992  15.318 -0.3230  0.1649  0.0814
  657TMC3     O 9780   3.991   1.970  15.225  0.5602 -0.6839  0.1055
  657TMC3     H 9781   4.117   2.046  15.589 -0.0374 -1.8706 -1.0856
  657TMC3    H1 9782   3.933   2.204  15.234  2.2992  1.3345 -0.2577
  657TMC3    H2 9783   3.900   2.399  15.608 -0.4471  0.2670 -1.3178
  657TMC3    C7 9784   3.849   2.419  15.344  0.1342  0.5816  0.5180
  657TMC3    C8 9785   4.014   2.223  15.761 -0.4053 -0.6271  0.5061
  657TMC3    O1 9786   3.847   2.421  15.222  1.0401  0.1728  0.8569
  657TMC3    O2 9787   4.103   2.159  15.809 -0.4910  0.3663 -0.1523
  658MPD2     C 9788   0.826   2.568  14.491 -0.1357 -0.0238 -0.0044
  658MPD2    C1 9789   0.694   2.592  14.502 -0.7768  0.2318 -0.6083
  658MPD2    C2 9790   0.637   2.635  14.380  1.0447  0.1247 -0.3687
  658MPD2    C3 9791   0.703   2.632  14.263  0.4659 -0.1550  0.2306
  658MPD2    C4 9792   0.841   2.612  14.265 -0.4789  0.0335  0.1971
  658MPD2    C5 9793   0.898   2.586  14.379 -0.2301  0.4584 -0.6987
  658MPD2     H 9794   0.535   2.673  14.380  1.1845  0.4884 -1.3964
  658MPD2    H1 9795   0.907   2.634  14.183 -1.4210  2.4495  0.0725
  658MPD2    H2 9796   0.875   2.550  14.586  2.7953 -1.2803 -1.7523
  658MPD2    H3 9797   1.006   2.576  14.381 -0.0377  2.2144 -2.5736
  658MPD2     N 9798   0.630   2.671  14.151 -0.5263 -0.2487 -0.1671
  658MPD2    H5 9799   0.531   2.685  14.166 -0.8806 -0.9455 -1.8984
  658MPD2    N1 9800   0.630   2.575  14.625  0.0422 -0.3441  0.5353
  658MPD2    H7 9801   0.679   2.545  14.708  1.3133  1.1634  0.3301
  659TMC3    C1 9802   0.434   2.572  14.766  0.2687  0.2330  1.2893
  659TMC3    C2 9803   0.505   2.596  14.880  0.3242 -0.3547 -0.5965
  659TMC3    C3 9804   0.466   2.541  15.002 -0.8964  0.0188  0.1087
  659TMC3    C4 9805   0.306   2.522  14.783  0.7024  0.1409 -0.4127
  659TMC3    C5 9806   0.265   2.466  14.904 -0.0750  0.2883 -0.2738
  659TMC3    C6 9807   0.352   2.466  15.014 -0.1816  0.0951 -0.6924
  659TMC3     C 9808   0.491   2.591  14.635 -0.6578 -0.2318  0.3601
  659TMC3     O 9809   0.412   2.585  14.543  0.3213 -0.1972 -0.2381
  659TMC3     H 9810   0.583   2.671  14.881  2.1866 -2.2223 -3.1710
  659TMC3    H1 9811   0.247   2.490  14.697 -0.1730 -1.0496  0.6235
  659TMC3    H2 9812   0.322   2.434  15.113  1.3148  0.4435 -0.1350
  659TMC3    C7 9813   0.138   2.401  14.915 -0.0050 -0.2357 -0.9604
  659TMC3    C8 9814   0.494   2.633  15.115 -0.0964  1.0024 -0.0765
  659TMC3    O1 9815   0.136   2.310  14.997 -0.1237 -0.5796 -0.4514
  659TMC3    O2 9816   0.497   2.755  15.089 -0.4274  0.3858  0.0959
  660MPD2     C 9817   3.124   1.983  12.623 -0.3946  0.6519  0.8088
  660MPD2    C1 9818   3.139   1.843  12.607 -0.2340  0.1016 -0.3819
  660MPD2    C2 9819   3.126   1.760  12.715 -0.0212 -0.5384 -0.1531
  660MPD2    C3 9820   3.081   1.813  12.834  0.0042 -0.2100  0.2261
  660MPD2    C4 9821   3.060   1.944  12.846  0.1345  0.2622 -0.5797
  660MPD2    C5 9822   3.087   2.029  12.746 -0.2238 -0.5594 -0.4652
  660MPD2     H 9823   3.134   1.654  12.697 -1.4442 -0.7625  0.5582
  660MPD2    H1 9824   3.032   1.983  12.943 -0.3556 -1.4637 -0.0293
  660MPD2    H2 9825   3.121   2.057  12.544 -0.4330  1.3551  1.4700
  660MPD2    H3 9826   3.068   2.135  12.754  0.6748 -0.3270 -1.4741
  660MPD2     N 9827   3.047   1.734  12.945 -0.1308  0.1720 -0.1636
  660MPD2    H5 9828   3.016   1.789  13.025  1.2179  0.0937  0.4126
  660MPD2    N1 9829   3.172   1.800  12.477 -0.3744  0.5404 -0.9788
  660MPD2    H7 9830   3.147   1.866  12.405  0.7476  4.0884  1.9265
  661TMC3    C1 9831   3.142   1.659  12.305  0.1498 -0.0680 -0.8212
  661TMC3    C2 9832   3.211   1.590  12.209 -0.5864  0.0601  0.3979
  661TMC3    C3 9833   3.145   1.558  12.089 -0.0049 -0.5093  0.4260
  661TMC3    C4 9834   3.004   1.679  12.286  0.0028  0.2886  0.1050
  661TMC3    C5 9835   2.944   1.645  12.169 -0.0310 -0.0366  0.1615
  661TMC3    C6 9836   3.012   1.583  12.067 -0.0843 -0.2758 -0.2448
  661TMC3     C 9837   3.192   1.673  12.436  0.1825  0.6610 -0.0295
  661TMC3     O 9838   3.243   1.574  12.481 -0.2903 -0.0679 -0.2083
  661TMC3     H 9839   3.315   1.572  12.230 -0.7984 -0.1094  1.2640
  661TMC3    H1 9840   2.957   1.731  12.369 -2.0857 -1.1651 -0.1625
  661TMC3    H2 9841   2.958   1.571  11.974  0.1214  2.7402 -0.7515
  661TMC3    C7 9842   2.803   1.683  12.159 -0.3015 -0.2261  0.8667
  661TMC3    C8 9843   3.212   1.521  11.964 -0.0676 -0.6031  0.6353
  661TMC3    O1 9844   2.764   1.752  12.255  0.7551 -0.2041 -0.0272
  661TMC3    O2 9845   3.144   1.477  11.875  0.3044  0.4958  0.1900
  662MPD2     C 9846   3.604   1.378  17.154  0.2048  0.7036  0.0107
  662MPD2    C1 9847   3.670   1.362  17.282 -0.5484  0.0691  0.5511
  662MPD2    C2 9848   3.651   1.452  17.376  0.1386 -0.2364  0.5784
  662MPD2    C3 9849   3.588   1.578  17.351  1.1706 -0.1826  0.6599
  662MPD2    C4 9850   3.527   1.593  17.228  0.0646  0.6379  0.2414
  662MPD2    C5 9851   3.529   1.496  17.135  0.0162 -0.0976  0.6093
  662MPD2     H 9852   3.699   1.419  17.468  2.5947 -0.3233 -0.7320
  662MPD2    H1 9853   3.476   1.686  17.206 -1.4019  0.2016  1.7496
  662MPD2    H2 9854   3.617   1.301  17.078 -1.4518  1.1488 -0.7264
  662MPD2    H3 9855   3.475   1.521  17.043 -1.9405 -1.3737  1.4164
  662MPD2     N 9856   3.573   1.675  17.450  0.5951  0.5138 -0.8097
  662MPD2    H5 9857   3.531   1.764  17.425 -0.1080  0.2705 -0.4768
  662MPD2    N1 9858   3.749   1.245  17.311 -0.0148  0.9813 -0.1325
  662MPD2    H7 9859   3.801   1.249  17.398  2.5664 -0.1361 -1.6193
  663TMC3    C1 9860   3.877   1.049  17.261 -0.5864 -0.0618  0.0422
  663TMC3    C2 9861   3.990   1.107  17.288 -0.2593  0.1974 -0.0549
  663TMC3    C3 9862   4.107   1.061  17.249  0.4788 -0.0955 -0.5755
  663TMC3    C4 9863   3.877   0.927  17.195  0.2193  0.6319  0.1439
  663TMC3    C5 9864   3.997   0.874  17.175  0.3569 -0.1726 -0.2769
  663TMC3    C6 9865   4.116   0.941  17.188 -0.7995  0.0643 -0.4276
  663TMC3     C 9866   3.762   1.131  17.231 -0.3550  0.0477  0.4192
  663TMC3     O 9867   3.714   1.097  17.123 -0.1342 -0.6344  0.1648
  663TMC3     H 9868   3.985   1.212  17.315  0.8128  0.4259 -0.7712
  663TMC3    H1 9869   3.786   0.884  17.154  0.2606 -0.1086  0.8379
  663TMC3    H2 9870   4.208   0.883  17.192 -0.2397  0.8434 -1.8982
  663TMC3    C7 9871   4.010   0.742  17.118  0.2785  0.2850  1.0026
  663TMC3    C8 9872   4.202   1.064  17.356 -0.3384  0.3989  0.1972
  663TMC3    O1 9873   4.099   0.723  17.035 -0.0375 -0.4521  0.5897
  663TMC3    O2 9874   4.311   1.011  17.335  0.3598 -0.2690 -0.4685
  664MPD2     C 9875   2.196   4.083  17.390  0.0196 -0.1195 -0.1584
  664MPD2    C1 9876   2.233   4.212  17.418  1.1794  0.7252 -0.0071
  664MPD2    C2 9877   2.160   4.287  17.515  0.6438 -0.8297 -1.0181
  664MPD2    C3 9878   2.050   4.229  17.575 -0.1525  0.1250  0.4765
  664MPD2    C4 9879   2.020   4.099  17.541  0.1026 -1.0073 -0.6384
  664MPD2    C5 9880   2.094   4.019  17.453  0.0260 -0.6532  0.0088
  664MPD2     H 9881   2.181   4.393  17.525 -2.0062 -0.4968  1.0121
  664MPD2    H1 9882   1.949   4.043  17.601  0.1149 -0.7039 -0.3352
  664MPD2    H2 9883   2.248   4.019  17.319 -0.1487 -2.0444  1.4337
  664MPD2    H3 9884   2.067   3.915  17.438 -0.1446 -0.6919  0.5600
  664MPD2     N 9885   1.984   4.306  17.676 -0.3008  0.1221  0.1510
  664MPD2    H5 9886   2.028   4.395  17.699 -1.1968  0.7174 -0.4173
  664MPD2    N1 9887   2.328   4.271  17.335 -0.3106 -0.1602 -0.1073
  664MPD2    H7 9888   2.347   4.218  17.250  0.1196 -1.1013  0.5734
  665TMC3    C1 9889   1.871   4.333   0.112  0.7449 -0.4478 -0.2971
  665TMC3    C2 9890   1.755   4.326   0.182  0.5899  0.7110 -0.1456
  665TMC3    C3 9891   1.754   4.384   0.305  0.3750  0.1712  0.4739
  665TMC3    C4 9892   1.986   4.382   0.174 -0.5708 -0.1304 -0.2398
  665TMC3    C5 9893   1.982   4.433   0.302 -0.0269 -0.7189 -0.5640
  665TMC3    C6 9894   1.864   4.439   0.368  0.2730  0.1917 -0.1479
  665TMC3     C 9895   1.880   4.268  17.752  0.3437 -0.6015 -0.7286
  665TMC3     O 9896   1.792   4.184  17.729 -0.1627  0.8533  0.5129
  665TMC3     H 9897   1.669   4.273   0.144  1.4039 -1.4764  1.0730
  665TMC3    H1 9898   2.085   4.365   0.133  0.3188  2.3936  0.8671
  665TMC3    H2 9899   1.853   4.481   0.467  3.2023  0.4510  0.0731
  665TMC3    C7 9900   2.107   4.472   0.366 -0.3154  0.1621 -0.9904
  665TMC3    C8 9901   1.626   4.424   0.368  0.1541 -0.1574 -0.5184
  665TMC3    O1 9902   2.206   4.493   0.298  0.4346  0.6622  0.3790
  665TMC3    O2 9903   1.615   4.475   0.478  0.6380  0.0410 -0.2421
  666TMC3    C1 9904   0.643   4.030  10.404  0.6090  0.2726 -0.3402
  666TMC3    C2 9905   0.771   3.993  10.380  0.2107  0.2200  0.6127
  666TMC3    C3 9906   0.860   4.101  10.360  1.1087  0.1388 -0.5085
  666TMC3    C4 9907   0.598   4.155  10.419 -0.0802  0.2093 -0.3191
  666TMC3    C5 9908   0.688   4.252  10.397  0.5384  0.3519 -0.4183
  666TMC3    C6 9909   0.822   4.231  10.370  0.1376 -0.4506  0.0723
  666TMC3     C 9910   0.575   3.937  10.484 -1.0135 -0.5195 -0.4146
  666TMC3     O 9911   0.508   3.965  10.583 -0.7000 -0.8576 -0.1586
  666TMC3     H 9912   0.813   3.895  10.397 -0.7474 -0.9079 -3.4129
  666TMC3    H1 9913   0.492   4.171  10.438 -0.2576  0.0494 -1.2116
  666TMC3    H2 9914   0.885   4.320  10.367  0.6901 -0.7762  2.0367
  666TMC3    C7 9915   0.632   4.385  10.380 -0.2441  0.1882 -0.2057
  666TMC3    C8 9916   0.989   4.071  10.405 -0.5999  0.1149 -0.1746
  666TMC3    O1 9917   0.544   4.428  10.453 -0.4864  1.0721 -0.8136
  666TMC3    O2 9918   1.005   3.966  10.469  0.2033  0.4990 -0.5031
  667MPD2     C 9919   2.565   4.319  14.364 -0.5703  0.4217  0.1980
  667MPD2    C1 9920   2.464   4.354  14.453  0.9316 -0.4250  0.4210
  667MPD2    C2 9921   2.340   4.294  14.434  0.2352  0.5432 -0.0905
  667MPD2    C3 9922   2.316   4.196  14.347  0.3322 -0.2251 -0.2593
  667MPD2    C4 9923   2.418   4.156  14.268  0.1625 -0.4081  0.2515
  667MPD2    C5 9924   2.532   4.230  14.267 -0.3354  0.0572 -0.8519
  667MPD2     H 9925   2.264   4.329  14.503  0.4775  0.9445 -0.0267
  667MPD2    H1 9926   2.409   4.089  14.184  2.9529 -1.7986  1.0809
  667MPD2    H2 9927   2.659   4.373  14.371  0.2065 -0.6362 -2.1210
  667MPD2    H3 9928   2.614   4.210  14.199  0.2046  0.1658 -0.2239
  667MPD2     N 9929   2.197   4.127  14.344  0.0370  0.0469  0.4435
  667MPD2    H5 9930   2.187   4.051  14.277  0.1662  1.3813 -1.0973
  667MPD2    N1 9931   2.479   4.436  14.562  0.3692  0.5338  0.4636
  667MPD2    H7 9932   2.417   4.419  14.641  0.4232  0.7991  0.5605
  668TMC3    C1 9933   2.592   4.576  14.728  0.3399  0.6701 -0.7887
  668TMC3    C2 9934   2.680   4.679  14.746 -0.4524  0.5049 -0.0845
  668TMC3    C3 9935   2.695   4.728  14.870  0.0436  0.2457  0.2367
  668TMC3    C4 9936   2.515   4.524  14.826  0.2037  0.9211 -0.1890
  668TMC3    C5 9937   2.535   4.571  14.947  0.1403  0.2130  0.6258
  668TMC3    C6 9938   2.624   4.672  14.975  0.0601 -0.1124  0.0564
  668TMC3     C 9939   2.594   4.507  14.597  0.0222 -0.6292 -0.2886
  668TMC3     O 9940   2.689   4.539  14.525  0.8852  0.7045 -0.4351
  668TMC3     H 9941   2.730   4.716  14.657 -1.5052 -1.1578 -1.3796
  668TMC3    H1 9942   2.464   4.430  14.807  0.0928  0.2292  3.7055
  668TMC3    H2 9943   2.650   4.698  15.077 -3.7965 -0.2924  1.0909
  668TMC3    C7 9944   2.488   4.494  15.064  0.0817 -0.4425 -0.5884
  668TMC3    C8 9945   2.737   0.120  14.890  0.4997 -0.1021 -0.3510
  668TMC3    O1 9946   2.565   4.455  15.150  0.0681  0.0898  0.4563
  668TMC3    O2 9947   2.681   0.180  14.980  0.2887 -0.2224 -0.0240
  669TMC3    C1 9948   0.952   4.019  15.002  0.1822 -0.0430 -0.4021
  669TMC3    C2 9949   0.861   4.009  14.902 -0.0193  0.2558  0.0220
  669TMC3    C3 9950   0.857   4.108  14.809 -0.0540 -0.0435  0.3550
  669TMC3    C4 9951   1.033   4.133  15.021  0.8993  0.0409 -0.1320
  669TMC3    C5 9952   1.019   4.230  14.926 -0.4755  0.0664  0.2232
  669TMC3    C6 9953   0.938   4.218  14.819  0.4421 -0.8883  0.9156
  669TMC3     C 9954   0.938   3.920  15.113 -0.2530  0.0495 -0.1975
  669TMC3     O 9955   0.835   3.857  15.110  0.2074  0.1832 -0.2714
  669TMC3     H 9956   0.789   3.928  14.895 -1.8443  1.6543  2.1619
  669TMC3    H1 9957   1.108   4.142  15.098 -0.7165 -2.8674  1.7962
  669TMC3    H2 9958   0.945   4.290  14.739 -0.1707 -1.1571  0.6236
  669TMC3    C7 9959   1.118   4.337  14.914  0.2623  0.2742 -0.3689
  669TMC3    C8 9960   0.754   4.108  14.708 -1.0010 -0.2531 -0.9028
  669TMC3    O1 9961   1.100   4.434  14.843  0.8405 -0.2424  0.0482
  669TMC3    O2 9962   0.692   4.004  14.705  0.4788  0.1226 -0.9323
  670MPD2     C 9963   3.439   2.055  14.017  0.0145  0.4615  0.3607
  670MPD2    C1 9964   3.513   1.943  14.023 -0.1546 -0.5875  0.3685
  670MPD2    C2 9965   3.471   1.839  14.105 -0.0259 -0.0112 -0.5638
  670MPD2    C3 9966   3.355   1.856  14.183 -0.4027  0.7382 -0.1464
  670MPD2    C4 9967   3.291   1.972  14.178  0.4744 -0.3490 -0.1835
  670MPD2    C5 9968   3.323   2.071  14.092 -0.0771 -1.0850 -0.2411
  670MPD2     H 9969   3.531   1.748  14.109  3.0616  2.0615  0.5030
  670MPD2    H1 9970   3.213   2.002  14.247 -1.3591  0.8285 -2.7713
  670MPD2    H2 9971   3.465   2.141  13.956  2.6805 -0.4722  0.2148
  670MPD2    H3 9972   3.270   2.166  14.094  0.2266 -0.8708 -1.7905
  670MPD2     N 9973   3.309   1.750  14.266 -0.2761 -0.9436 -0.5049
  670MPD2    H5 9974   3.368   1.668  14.267  1.1930  0.1088 -0.6513
  670MPD2    N1 9975   3.631   1.917  13.948 -0.1676  0.0148 -0.3613
  670MPD2    H7 9976   3.666   1.823  13.959 -3.3735 -1.5447 -3.5394
  671TMC3    C1 9977   3.159   1.615  14.407 -0.0621  0.1756  0.5378
  671TMC3    C2 9978   3.257   1.533  14.454 -0.5464 -0.2346 -0.7444
  671TMC3    C3 9979   3.219   1.412  14.487 -0.9821 -0.1448 -0.0173
  671TMC3    C4 9980   3.027   1.573  14.397  0.5606 -0.1904 -0.3359
  671TMC3    C5 9981   2.991   1.451  14.443 -0.0242  0.3397  0.2638
  671TMC3    C6 9982   3.091   1.370  14.490  0.3877 -0.1506 -0.0579
  671TMC3     C 9983   3.191   1.746  14.338  0.2518 -0.7792  0.0118
  671TMC3     O 9984   3.091   1.818  14.321  0.3207 -0.6788 -0.2543
  671TMC3     H 9985   3.359   1.569  14.442  1.0761 -4.1677  1.0868
  671TMC3    H1 9986   2.943   1.630  14.359 -0.0569 -0.1137  1.1390
  671TMC3    H2 9987   3.071   1.271  14.531 -4.1808  0.0554 -1.8816
  671TMC3    C7 9988   2.895   1.393  14.352 -0.6759  0.3203  0.3457
  671TMC3    C8 9989   3.311   1.302  14.450  0.7291 -0.3018 -0.4057
  671TMC3    O1 9990   2.813   1.462  14.293  0.2928  0.4654  0.2750
  671TMC3    O2 9991   3.265   1.208  14.383 -0.3373 -0.5402 -0.8443
  672MPD2     C 9992   3.332   3.109   1.250 -0.1022 -0.4048 -0.2240
  672MPD2    C1 9993   3.428   3.020   1.197  0.2493 -0.3187  0.0808
  672MPD2    C2 9994   3.547   2.997   1.256  0.4027  0.6021  0.1854
  672MPD2    C3 9995   3.566   3.061   1.374  0.3233 -0.2680  0.6009
  672MPD2    C4 9996   3.471   3.136   1.433  0.2712  0.2282  0.3158
  672MPD2    C5 9997   3.350   3.168   1.373  0.9323  0.5063 -0.9669
  672MPD2     H 9998   3.626   2.952   1.198  0.1097 -0.4020  0.5501
  672MPD2    H1 9999   3.491   3.176   1.532 -0.0967  0.2850  0.3676
  672MPD2    H210000   3.246   3.144   1.194 -0.8058 -0.7697  0.6347
  672MPD2    H310001   3.289   3.246   1.417  0.2704  0.0974 -1.1508
  672MPD2     N10002   3.688   3.050   1.446 -0.3688 -0.2126 -0.0052
  672MPD2    H510003   3.701   3.105   1.531  0.1432 -1.7252  0.8899
  672MPD2    N110004   3.399   2.955   1.073 -1.1047 -0.5839  0.2927
  672MPD2    H710005   3.468   2.883   1.053 -0.0692  0.3048  0.6181
  673TMC3    C110006   3.337   2.900   0.862  0.4787 -0.8800  0.1633
  673TMC3    C210007   3.374   2.773   0.887  0.1509  0.3354  0.1846
  673TMC3    C310008   3.421   2.696   0.785 -0.1726  0.0378 -0.0405
  673TMC3    C410009   3.364   2.959   0.739 -0.4044 -0.8311 -0.1030
  673TMC3    C510010   3.422   2.883   0.646 -1.0102 -0.6661  1.1641
  673TMC3    C610011   3.449   2.750   0.662  0.7611 -0.7293  0.1846
  673TMC3     C10012   3.310   2.989   0.975  0.0567 -0.0748 -0.3429
  673TMC3     O10013   3.217   3.070   0.980  0.1085  0.0164  0.2238
  673TMC3     H10014   3.346   2.736   0.985 -1.4641 -1.1848 -0.8532
  673TMC3    H110015   3.354   3.065   0.719 -0.2880 -0.3505  2.3791
  673TMC3    H210016   3.484   2.692   0.577  0.7956  3.3267 -2.5824
  673TMC3    C710017   3.436   2.928   0.502 -0.4741 -0.4682  0.6673
  673TMC3    C810018   3.452   2.563   0.812 -0.6358 -0.3704  0.7608
  673TMC3    O110019   3.506   2.851   0.435  0.4779 -0.1475  0.3761
  673TMC3    O210020   3.380   2.507   0.896  0.2892  0.3437 -0.3301
  674MPD2     C10021   4.205   2.592   0.083  0.2123 -0.3328  0.5954
  674MPD2    C110022   4.147   2.466   0.113  0.7970 -0.8760 -0.4523
  674MPD2    C210023   4.008   2.463   0.132  0.2372  0.3575  0.1416
  674MPD2    C310024   3.936   2.582   0.124  0.4060  0.3268 -0.0232
  674MPD2    C410025   3.993   2.699   0.085  0.9876  0.0586 -0.4407
  674MPD2    C510026   4.128   2.703   0.064  0.3934 -0.0300 -0.5540
  674MPD2     H10027   3.943   2.380   0.158  1.3331 -0.2985  0.8067
  674MPD2    H110028   3.936   2.788   0.059 -0.1136 -0.6720 -0.4905
  674MPD2    H210029   4.312   2.605   0.075 -0.1392  1.0817 -2.0079
  674MPD2    H310030   4.185   2.794   0.047  1.4675 -0.4109  1.0697
  674MPD2     N10031   3.799   2.572   0.167  0.0245 -0.0186  0.5286
  674MPD2    H510032   3.773   2.484   0.210 -0.5102  0.1622  0.5719
  674MPD2    N110033   4.225   2.352   0.135 -0.0568  0.3328  0.2652
  674MPD2    H710034   4.325   2.352   0.115  0.3796  1.2440  2.3775
  675TMC3    C110035   4.249   2.124   0.241  0.3527 -0.2354 -0.4822
  675TMC3    C210036   4.185   2.007   0.282 -0.1593  0.0780  0.2749
  675TMC3    C310037   4.245   1.941   0.387 -0.6351  0.2717  0.2365
  675TMC3    C410038   4.362   2.174   0.308  0.2721  0.2810 -0.0967
  675TMC3    C510039   4.427   2.090   0.395  0.1756  0.1057  0.1132
  675TMC3    C610040   4.372   1.973   0.441  0.0471 -0.2995  0.8131
  675TMC3     C10041   4.169   2.224   0.162 -0.4619  0.4149  0.6463
  675TMC3     O10042   4.054   2.188   0.138  0.3785 -0.2180 -0.1508
  675TMC3     H10043   4.094   1.983   0.230  1.0707 -2.8182 -0.5298
  675TMC3    H110044   4.400   2.272   0.281  0.5821 -0.1531 -1.2092
  675TMC3    H210045   4.414   1.929   0.531  0.9910 -1.3073 -0.1241
  675TMC3    C710046   4.542   2.135   0.470 -0.5965 -0.2053  0.5476
  675TMC3    C810047   4.167   1.876   0.490  0.5288 -0.2023  0.0602
  675TMC3    O110048   4.552   2.252   0.493  0.5070  0.4266 -0.6935
  675TMC3    O210049   4.221   1.867   0.601 -0.7140 -0.1809 -0.7999
  676MPD2     C10050   1.588   0.499  11.131 -0.9995  0.5184 -0.1322
  676MPD2    C110051   1.622   0.409  11.233 -0.2210  0.5831 -0.2480
  676MPD2    C210052   1.666   0.287  11.204 -0.5133  0.3250  0.4239
  676MPD2    C310053   1.658   0.241  11.075 -0.3097  0.3302  0.0830
  676MPD2    C410054   1.629   0.328  10.976  0.4900  0.1545 -0.4954
  676MPD2    C510055   1.596   0.459  11.003  0.6208 -0.0530 -0.4464
  676MPD2     H10056   1.699   0.221  11.283 -2.1338  0.5135  1.2667
  676MPD2    H110057   1.643   0.297  10.874  0.6934  1.3019 -0.8105
  676MPD2    H210058   1.547   0.597  11.151 -2.1121 -0.0187  0.2311
  676MPD2    H310059   1.566   0.524  10.922 -0.1470  0.0805 -0.0625
  676MPD2     N10060   1.687   0.109  11.036  0.7113 -0.3170 -0.5684
  676MPD2    H510061   1.674   0.094  10.937 -2.7893 -0.0179 -0.1549
  676MPD2    N110062   1.624   0.444  11.372 -0.1551 -0.2330 -0.6266
  676MPD2    H710063   1.642   0.366  11.435 -0.0449 -0.1787 -0.5910
  677TMC3    C110064   1.612   0.566  11.573 -0.6248 -0.8710 -0.0238
  677TMC3    C210065   1.569   0.462  11.642  0.4082 -0.2851 -0.3827
  677TMC3    C310066   1.544   0.481  11.775 -0.5529  0.6777  0.3812
  677TMC3    C410067   1.640   0.685  11.637 -0.0969 -0.3316  0.7330
  677TMC3    C510068   1.605   0.701  11.774  0.1987 -0.0796  0.2047
  677TMC3    C610069   1.568   0.595  11.849 -0.0073  0.7102 -0.1263
  677TMC3     C10070   1.604   0.566  11.427 -1.0140 -0.1586 -0.3350
  677TMC3     O10071   1.602   0.677  11.375 -0.4989  0.6998  0.1779
  677TMC3     H10072   1.539   0.370  11.593  0.6425 -0.5655  0.0014
  677TMC3    H110073   1.691   0.763  11.581  1.7753 -1.7803  0.4239
  677TMC3    H210074   1.555   0.597  11.957 -3.7265 -3.5845 -0.4969
  677TMC3    C710075   1.654   0.825  11.843  0.1842  0.0412 -0.1701
  677TMC3    C810076   1.520   0.352  11.840 -0.7144 -0.1916 -0.4577
  677TMC3    O110077   1.698   0.812  11.959 -0.2803  0.0453  0.1459
  677TMC3    O210078   1.577   0.261  11.792 -0.3159  0.4244 -0.3070
  678MPD2     C10079   3.337   0.410   1.448 -0.3418 -0.5709  0.3281
  678MPD2    C110080   3.303   0.363   1.326  0.6323  0.1891 -0.1165
  678MPD2    C210081   3.176   0.302   1.297  0.1505  0.1731 -0.1578
  678MPD2    C310082   3.077   0.322   1.390 -0.1600 -0.0539  0.5812
  678MPD2    C410083   3.111   0.376   1.514 -0.6913  0.7504 -0.8713
  678MPD2    C510084   3.239   0.419   1.542  0.6343 -0.2537  0.3121
  678MPD2     H10085   3.149   0.265   1.199  0.4646 -1.2277  0.2859
  678MPD2    H110086   3.031   0.384   1.587 -0.3510 -2.6616 -0.1090
  678MPD2    H210087   3.435   0.444   1.479  0.2087 -0.7093 -1.2678
  678MPD2    H310088   3.259   0.462   1.639  0.2786  0.2569  0.1577
  678MPD2     N10089   2.943   0.301   1.346 -0.3961 -0.0816 -0.0283
  678MPD2    H510090   2.926   0.262   1.254  0.7035  3.0495 -1.5270
  678MPD2    N110091   3.391   0.376   1.216 -0.8377 -0.6132 -0.1932
  678MPD2    H710092   3.358   0.329   1.132  0.5089 -1.4873 -0.2285
  679TMC3    C110093   3.752   0.261   1.043 -0.4229 -0.1288  1.0723
  679TMC3    C210094   3.634   0.288   1.103 -0.2110  0.5505  0.1676
  679TMC3    C310095   3.608   0.418   1.131  0.2024 -0.1585 -0.0230
  679TMC3    C410096   3.843   0.361   1.015  0.0177 -0.6454  0.0637
  679TMC3    C510097   3.824   0.485   1.056  0.0292  0.5725 -0.1731
  679TMC3    C610098   3.705   0.519   1.112 -0.2455  0.3093 -0.4167
  679TMC3     C10099   3.807   0.123   1.040  0.7160 -0.2303 -0.3074
  679TMC3     O10100   3.927   0.119   1.016 -0.1296  0.1002  0.9252
  679TMC3     H10101   3.565   0.207   1.125 -1.1078  1.1247 -0.5180
  679TMC3    H110102   3.931   0.326   0.963  1.2161  0.0936  1.5988
  679TMC3    H210103   3.680   0.617   1.153 -0.1747  1.1227 -2.3223
  679TMC3    C710104   3.892   0.594   0.982 -0.5320  0.3107 -0.1892
  679TMC3    C810105   3.508   0.446   1.227 -0.1674  0.5479 -0.7845
  679TMC3    O110106   3.825   0.698   0.968  0.0212  0.3373 -0.0047
  679TMC3    O210107   3.543   0.534   1.301  0.1378  0.7829 -0.2872
  680MPD2     C10108   2.857   3.808  13.699  0.6748  0.0588 -0.6526
  680MPD2    C110109   2.905   3.773  13.822  0.0054 -0.8212  0.3028
  680MPD2    C210110   2.993   3.856  13.886  0.1688  0.6264 -0.0757
  680MPD2    C310111   3.030   3.979  13.837  0.2059  0.4269 -0.0328
  680MPD2    C410112   2.974   4.015  13.718 -0.0672  0.3607 -0.3723
  680MPD2    C510113   2.896   3.929  13.650  0.4191  0.7458  0.2732
  680MPD2     H10114   3.041   3.809  13.971 -2.0264 -2.1144 -0.3440
  680MPD2    H110115   2.997   4.109  13.670  0.3892 -0.5407 -1.9366
  680MPD2    H210116   2.796   3.747  13.634 -1.3876  0.2029  1.1463
  680MPD2    H310117   2.857   3.949  13.550 -1.4621 -2.1088  0.4323
  680MPD2     N10118   3.123   4.066  13.898  0.2188 -0.2503  0.7402
  680MPD2    H510119   3.134   4.157  13.853 -0.5053 -0.7623 -0.4834
  680MPD2    N110120   2.881   3.642  13.880 -0.0071  0.3913 -0.2383
  680MPD2    H710121   2.925   3.624  13.970  0.2303 -0.5852 -0.5428
  681TMC3    C110122   2.836   3.409  13.892 -0.3526 -0.7874  0.2165
  681TMC3    C210123   2.839   3.424  14.030  0.2989 -0.9986  0.4754
  681TMC3    C310124   2.875   3.312  14.104 -0.5330  0.2528  0.1461
  681TMC3    C410125   2.874   3.288  13.829  0.1543  0.1237  0.4817
  681TMC3    C510126   2.910   3.185  13.912 -1.0219 -0.2574 -0.2899
  681TMC3    C610127   2.909   3.191  14.046  0.4212  0.2399  0.1016
  681TMC3     C10128   2.832   3.535  13.814 -1.0671  0.0165  0.3790
  681TMC3     O10129   2.836   3.510  13.695 -0.0512  0.1992  0.7219
  681TMC3     H10130   2.827   3.522  14.076  1.0422 -0.3774 -0.6271
  681TMC3    H110131   2.878   3.282  13.721 -1.9401  0.4206  0.3948
  681TMC3    H210132   2.945   3.106  14.103  3.1696  0.3209 -1.4869
  681TMC3    C710133   3.001   3.079  13.862 -0.0738 -0.7544  0.8425
  681TMC3    C810134   2.939   3.336  14.230 -0.2611 -0.9581  0.3127
  681TMC3    O110135   3.009   2.965  13.909  0.0971  0.0820  0.3799
  681TMC3    O210136   3.027   3.260  14.274  0.0637  0.1266  0.2034
  682MPD2     C10137   0.926   0.686  11.087 -0.0941  0.8884 -0.0210
  682MPD2    C110138   0.808   0.629  11.109 -0.0206  0.5878  0.8491
  682MPD2    C210139   0.752   0.655  11.230 -0.8695 -0.1661 -0.1285
  682MPD2    C310140   0.813   0.735  11.324  0.7289 -0.1882  0.3684
  682MPD2    C410141   0.943   0.776  11.302  0.6397 -0.1655 -0.1349
  682MPD2    C510142   0.995   0.756  11.180  0.4820 -0.4357  0.0247
  682MPD2     H10143   0.662   0.598  11.251 -0.1223 -1.3891 -0.2735
  682MPD2    H110144   0.984   0.837  11.382 -0.8868 -0.7005  1.0583
  682MPD2    H210145   0.968   0.691  10.987  0.0397  2.0298  0.0925
  682MPD2    H310146   1.088   0.803  11.151 -0.8604  0.4330 -2.9593
  682MPD2     N10147   0.759   0.748  11.449 -0.1002  0.0669 -0.0957
  682MPD2    H510148   0.825   0.778  11.521  0.9150 -0.2632 -0.8877
  682MPD2    N110149   0.744   0.541  11.015  0.4415 -0.0173 -0.1997
  682MPD2    H710150   0.679   0.481  11.064  0.1945  2.0035  1.9819
  683TMC3    C110151   0.592   0.610  11.794  0.3901  0.6704  0.3004
  683TMC3    C210152   0.459   0.619  11.817 -0.1450 -0.6299  0.5892
  683TMC3    C310153   0.387   0.683  11.727  0.0645  0.6662  0.2733
  683TMC3    C410154   0.655   0.666  11.690 -0.0871 -0.1000  0.1200
  683TMC3    C510155   0.576   0.732  11.600  0.0033 -0.2034 -0.3551
  683TMC3    C610156   0.442   0.732  11.614 -0.3152  0.0019 -0.0612
  683TMC3     C10157   0.679   0.574  11.908 -0.2131 -0.2776  0.8028
  683TMC3     O10158   0.780   0.641  11.919 -0.1450 -0.1285  0.3380
  683TMC3     H10159   0.424   0.574  11.910  0.4685 -2.6058 -0.1386
  683TMC3    H110160   0.762   0.659  11.676 -0.2463 -0.4022 -0.9367
  683TMC3    H210161   0.370   0.774  11.543  1.7140 -0.5210 -2.4309
  683TMC3    C710162   0.627   0.755  11.466 -0.0840  0.0633  0.5420
  683TMC3    C810163   0.252   0.632  11.709  0.4398  0.7039 -0.7737
  683TMC3    O110164   0.530   0.765  11.388  0.5775  0.0257 -0.0771
  683TMC3    O210165   0.162   0.714  11.703 -0.1242 -0.2096  0.3332
  684MPD2     C10166   3.572   4.105  16.338 -0.6630 -0.4421 -0.7395
  684MPD2    C110167   3.519   4.185  16.241 -0.6345  0.1076 -0.2611
  684MPD2    C210168   3.511   4.319  16.261 -0.1565 -0.5925  0.3733
  684MPD2    C310169   3.547   4.376  16.385 -0.1965 -0.2430 -0.6033
  684MPD2    C410170   3.594   4.296  16.483 -0.1135 -0.5021 -0.4298
  684MPD2    C510171   3.618   4.165  16.454  0.0834 -0.1967  0.0567
  684MPD2     H10172   3.476   4.376  16.176 -3.3516 -3.1745 -0.0080
  684MPD2    H110173   3.612   4.339  16.581  0.3157 -1.7532  0.0353
  684MPD2    H210174   3.590   3.999  16.322  1.5041 -0.2693  0.5424
  684MPD2    H310175   3.656   4.099  16.531 -0.1985 -3.6060 -2.7628
  684MPD2     N10176   3.545   4.519  16.410 -0.2021 -0.3374  0.2013
  684MPD2    H510177   3.575   4.548  16.502  0.5871 -0.6960  0.0597
  684MPD2    N110178   3.474   4.143  16.116 -0.6002 -0.2460 -0.6988
  684MPD2    H710179   3.423   4.211  16.059 -1.8790  1.8985  2.9839
  685TMC3    C110180   3.459   4.012  15.925  0.0812 -0.2070  0.0537
  685TMC3    C210181   3.378   4.104  15.872  0.4134 -0.1267  0.6233
  685TMC3    C310182   3.403   4.144  15.743 -0.3546 -0.5811 -0.1725
  685TMC3    C410183   3.564   3.969  15.860  0.1864 -0.2577  0.0107
  685TMC3    C510184   3.587   4.009  15.736  0.1734 -0.4137 -0.2830
  685TMC3    C610185   3.499   4.093  15.670 -0.1665  0.2351  0.3443
  685TMC3     C10186   3.484   4.015  16.068 -0.1364 -0.0233 -0.3036
  685TMC3     O10187   3.545   3.922  16.122 -1.0715  0.1286 -0.5834
  685TMC3     H10188   3.291   4.128  15.933 -0.3147 -2.2348  0.4206
  685TMC3    H110189   3.640   3.917  15.917  0.6197 -1.1098 -1.3363
  685TMC3    H210190   3.512   4.117  15.565  0.0673 -0.5415  0.2026
  685TMC3    C710191   3.717   4.051  15.702  0.5490  0.6139  0.9128
  685TMC3    C810192   3.312   4.225  15.673  0.3582  0.6262  0.0977
  685TMC3    O110193   3.732   4.109  15.595  0.2842  0.0084 -0.4609
  685TMC3    O210194   3.318   4.216  15.554 -0.2908 -0.5171  0.4230
  686MPD2     C10195   4.642   4.451  15.959  0.2315  0.5690 -0.4508
  686MPD2    C110196   4.663   4.342  16.039  0.4851  0.3319  0.2346
  686MPD2    C210197   0.041   4.311  16.097 -0.3760 -0.5352 -0.4224
  686MPD2    C310198   0.149   4.394  16.075 -1.0065 -0.1417 -0.0698
  686MPD2    C410199   0.133   4.507  15.988 -0.0929 -0.2863 -0.2224
  686MPD2    C510200   0.007   4.529  15.935  0.7320  0.4716 -0.2569
  686MPD2     H10201   0.043   4.225  16.163  3.1030  0.6596  1.0377
  686MPD2    H110202   0.212   4.572  15.952  0.5612 -1.2834 -0.5929
  686MPD2    H210203   4.542   4.471  15.921  0.0209  0.1392 -0.1254
  686MPD2    H310204   4.739   4.620  15.876 -0.4792 -0.0083 -0.7611
  686MPD2     N10205   0.279   4.374  16.111 -0.3103  0.1200 -0.0624
  686MPD2    H510206   0.338   4.448  16.076 -1.7804  0.8866 -0.9473
  686MPD2    N110207   4.550   4.254  16.037 -0.1196  0.1534  0.7295
  686MPD2    H710208   4.475   4.287  15.977  0.8971  3.3067  1.1742
  687TMC3    C110209   0.472   4.269  16.177  0.6413  0.4661  0.3499
  687TMC3    C210210   0.521   4.297  16.056 -0.2093 -0.0509  0.1905
  687TMC3    C310211   0.657   4.315  16.047  0.1069 -0.0317 -0.2992
  687TMC3    C410212   0.548   4.249  16.289  0.5212  0.0029  0.2333
  687TMC3    C510213   0.683   4.251  16.269  0.2586  0.3255  0.1330
  687TMC3    C610214   0.741   4.284  16.147  0.9801  0.3188  0.1121
  687TMC3     C10215   0.328   4.281  16.198  0.0910 -0.3449  0.4587
  687TMC3     O10216   0.267   4.199  16.262  0.2736  0.2072  0.1312
  687TMC3     H10217   0.456   4.286  15.970  3.1751  0.2262 -2.3858
  687TMC3    H110218   0.495   4.237  16.382 -0.5950  2.6398 -0.0638
  687TMC3    H210219   0.848   4.283  16.127  0.9973  0.1975  0.2153
  687TMC3    C710220   0.769   4.211  16.387  0.6716  0.3599 -0.3297
  687TMC3    C810221   0.704   4.338  15.914 -0.0655 -0.0748  0.8814
  687TMC3    O110222   0.711   4.201  16.496 -0.0811  0.5364  0.5052
  687TMC3    O210223   0.806   4.288  15.876 -0.1401  0.2965 -0.0835
  688MPD2     C10224   3.954   3.353  16.927  0.2496 -0.7058  0.6238
  688MPD2    C110225   4.022   3.295  17.033 -0.1424  0.5606 -0.0126
  688MPD2    C210226   4.158   3.284  17.028  0.4817  0.1580 -0.4199
  688MPD2    C310227   4.227   3.309  16.910 -0.2147  0.4842  0.3615
  688MPD2    C410228   4.157   3.370  16.807 -0.5492  0.1521  0.6546
  688MPD2    C510229   4.024   3.401  16.818 -0.6526 -0.4277  0.1065
  688MPD2     H10230   4.204   3.249  17.119 -0.1857 -0.2624 -0.2422
  688MPD2    H110231   4.192   3.402  16.709 -0.6704  1.9577  1.1865
  688MPD2    H210232   3.847   3.363  16.911  0.2438 -0.6681  0.6895
  688MPD2    H310233   3.977   3.434  16.726 -2.9231  0.1430  1.4972
  688MPD2     N10234   4.364   3.272  16.883  0.4057 -0.0784 -0.1080
  688MPD2    H510235   4.407   3.281  16.792 -0.3179  0.7785 -0.3614
  688MPD2    N110236   3.949   3.256  17.145  0.0983  0.1496 -0.0877
  688MPD2    H710237   3.996   3.227  17.230  1.7013  1.2917 -0.5773
  689TMC3    C110238   3.771   3.180  17.275  0.4663 -0.9491  0.2236
  689TMC3    C210239   3.790   3.269  17.374  0.3461  0.2768 -0.9523
  689TMC3    C310240   3.705   3.266  17.484  0.8504 -0.1103 -0.1543
  689TMC3    C410241   3.691   3.073  17.289  0.2373 -0.0241 -0.3489
  689TMC3    C510242   3.611   3.063  17.404  1.1242 -0.1789 -0.0569
  689TMC3    C610243   3.616   3.161  17.501 -0.3050  1.7462 -0.4970
  689TMC3     C10244   3.814   3.225  17.145  0.0461  0.6335 -0.4729
  689TMC3     O10245   3.743   3.180  17.054  0.7600 -0.2322 -0.0612
  689TMC3     H10246   3.855   3.356  17.367  0.0894  0.3692 -2.1297
  689TMC3    H110247   3.696   2.993  17.215  0.4609  1.4075 -1.8799
  689TMC3    H210248   3.540   3.154  17.578  0.5318 -2.2416 -0.0685
  689TMC3    C710249   3.573   2.938  17.469 -0.4434 -0.0326 -0.1620
  689TMC3    C810250   3.747   3.334  17.609 -0.1568  0.2483 -0.0726
  689TMC3    O110251   3.560   2.933  17.590  0.4559  0.0884 -0.8199
  689TMC3    O210252   3.661   3.364  17.685  0.2349  0.0181  0.7834
  690MPD2     C10253   1.932   0.375  15.968 -0.0002  0.5871 -0.1300
  690MPD2    C110254   1.919   0.342  15.838 -0.7531  0.2265  0.2128
  690MPD2    C210255   2.007   0.383  15.741 -0.2191 -0.3971 -0.2262
  690MPD2    C310256   2.112   0.471  15.784 -0.3044 -0.1085  0.8706
  690MPD2    C410257   2.137   0.495  15.918 -0.2896  0.0230  0.1039
  690MPD2    C510258   2.041   0.450  16.008 -0.2396  0.3762  0.1215
  690MPD2     H10259   1.997   0.353  15.638  2.4692 -1.7983 -0.0769
  690MPD2    H110260   2.207   0.558  15.971 -1.1000  0.4032  0.7370
  690MPD2    H210261   1.862   0.337  16.042 -0.1245 -0.0213 -0.5632
  690MPD2    H310262   2.056   0.478  16.112 -1.3612  1.6132 -0.0494
  690MPD2     N10263   2.164   0.544  15.679  0.3029 -0.0282 -1.0820
  690MPD2    H510264   2.126   0.528  15.586 -0.0962 -1.2178 -0.7104
  690MPD2    N110265   1.802   0.268  15.788  0.4699  0.8005  0.1987
  690MPD2    H710266   1.792   0.248  15.689  0.7057  0.6476  0.2054
  691TMC3    C110267   1.605   0.147  15.778  0.1083 -0.7935  0.3474
  691TMC3    C210268   1.475   0.180  15.758  0.1430  0.3778 -0.5527
  691TMC3    C310269   1.410   0.109  15.662  0.0515  0.6737 -0.4581
  691TMC3    C410270   1.667   0.056  15.704 -0.1723  0.1187  0.6811
  691TMC3    C510271   1.595   4.725  15.614 -0.3623  0.6478  0.2918
  691TMC3    C610272   1.467   0.007  15.591  0.4429 -0.3697 -0.0790
  691TMC3     C10273   1.686   0.236  15.856 -0.6540 -0.0199  0.3208
  691TMC3     O10274   1.644   0.265  15.969 -0.1078 -0.2031  0.1395
  691TMC3     H10275   1.432   0.259  15.819  1.5604  0.3569  0.4607
  691TMC3    H110276   1.770   0.031  15.730 -0.5858 -1.5961  0.6878
  691TMC3    H210277   1.414   4.701  15.511 -1.3043 -0.4258  1.1183
  691TMC3    C710278   1.630   4.587  15.613  0.3621  0.0981  0.2560
  691TMC3    C810279   1.260   0.100  15.661 -0.4238 -0.4621  0.0936
  691TMC3    O110280   1.744   4.561  15.652  0.1304  0.6527  0.3977
  691TMC3    O210281   1.213   4.742  15.608 -0.0560  0.4432 -0.0695
  692TMC3    C110282   3.211   1.186  15.837  0.4453 -0.1822  0.3356
  692TMC3    C210283   3.338   1.213  15.878  0.6032 -0.1350  0.8802
  692TMC3    C310284   3.435   1.112  15.883  0.2562  0.0379  0.0969
  692TMC3    C410285   3.169   1.058  15.800 -0.1297  0.0754  0.3669
  692TMC3    C510286   3.260   0.954  15.829 -0.9590  0.4442  0.7516
  692TMC3    C610287   3.382   0.982  15.884  0.0187  0.2968  0.3311
  692TMC3     C10288   3.114   1.295  15.847  0.0187 -1.1419  0.7481
  692TMC3     O10289   2.992   1.266  15.852 -0.3993 -0.0196 -0.3288
  692TMC3     H10290   3.354   1.314  15.914  0.5290  0.5604 -1.0664
  692TMC3    H110291   3.074   1.036  15.751  0.4567  0.1345 -0.8126
  692TMC3    H210292   3.446   0.896  15.891 -1.1301 -0.4724  1.2731
  692TMC3    C710293   3.194   0.818  15.849  0.0877 -0.0772 -0.2846
  692TMC3    C810294   3.554   1.138  15.967 -0.9677  0.7893 -0.1450
  692TMC3    O110295   3.080   0.811  15.808  0.1255  0.9699  0.2195
  692TMC3    O210296   3.617   1.042  16.007 -0.2936 -0.4923  0.2751
  693MPD2     C10297   2.495   4.456  10.903 -0.3567 -0.3777  0.1441
  693MPD2    C110298   2.456   4.411  11.029  0.2191  0.6098 -0.2520
  693MPD2    C210299   2.552   4.396  11.119 -0.6774 -0.8493 -0.6100
  693MPD2    C310300   2.685   4.421  11.100 -0.6086 -0.2918 -0.2641
  693MPD2    C410301   2.730   4.466  10.975  0.0826  0.1096 -1.0811
  693MPD2    C510302   2.629   4.482  10.876 -0.1497  0.3428 -0.5538
  693MPD2     H10303   2.516   4.355  11.213  3.7576  0.4424  1.6508
  693MPD2    H110304   2.835   4.490  10.962  0.0296  0.7734 -0.2654
  693MPD2    H210305   2.433   4.456  10.815 -2.7633 -2.1960  1.8477
  693MPD2    H310306   2.644   4.517  10.775  1.7082  0.5539 -0.1983
  693MPD2     N10307   2.786   4.408  11.197  0.3360  0.7433  0.0949
  693MPD2    H510308   2.878   4.430  11.161  1.2753 -1.0928  1.3778
  693MPD2    N110309   2.320   4.386  11.069  0.1714 -0.7440  0.0183
  693MPD2    H710310   2.303   4.350  11.162  2.2510  2.2177  1.5603
  694TMC3    C110311   2.110   4.304  11.005  0.7485  0.2629 -0.5251
  694TMC3    C210312   2.041   4.236  10.906 -0.0624  0.3017  0.2479
  694TMC3    C310313   1.994   4.112  10.934  0.1739  0.0452  0.2803
  694TMC3    C410314   2.106   4.260  11.133 -0.4875  0.5825  0.0057
  694TMC3    C510315   2.053   4.134  11.159  0.1213 -0.3181 -0.1548
  694TMC3    C610316   1.992   4.056  11.064 -0.7291 -0.7702  0.8635
  694TMC3     C10317   2.221   4.391  10.967 -0.2266  0.6462 -0.5816
  694TMC3     O10318   2.215   4.431  10.847  0.4044  0.3869 -0.1166
  694TMC3     H10319   2.056   4.255  10.800 -0.4847 -0.2558  0.0841
  694TMC3    H110320   2.130   4.322  11.218 -1.3847  0.0406  0.6549
  694TMC3    H210321   1.966   3.951  11.071  3.2026 -1.7336  0.9419
  694TMC3    C710322   2.079   4.083  11.296 -0.2031  0.3182  0.1687
  694TMC3    C810323   1.906   4.054  10.836 -0.7699  1.0167  0.3116
  694TMC3    O110324   2.136   4.153  11.377 -0.3472 -0.1231  0.6828
  694TMC3    O210325   1.871   3.943  10.867 -0.1117  0.8331  0.4476
  695MPD2     C10326   3.627   1.190  13.525  0.0660 -0.1203  0.4703
  695MPD2    C110327   3.547   1.140  13.625  0.5993 -0.5967  0.5396
  695MPD2    C210328   3.424   1.205  13.645 -0.4955 -0.0168  0.0045
  695MPD2    C310329   3.372   1.289  13.552 -0.1836 -0.0903  0.4536
  695MPD2    C410330   3.446   1.318  13.442 -0.2513 -0.4489 -0.4779
  695MPD2    C510331   3.572   1.270  13.427 -0.1358 -0.2090  0.6888
  695MPD2     H10332   3.361   1.166  13.724 -0.7847 -0.1274 -0.2806
  695MPD2    H110333   3.403   1.379  13.364 -2.4603 -1.8993 -0.3901
  695MPD2    H210334   3.723   1.150  13.496 -1.5327 -3.0433 -0.7194
  695MPD2    H310335   3.633   1.302  13.344 -2.8013 -0.6190 -1.3876
  695MPD2     N10336   3.251   1.351  13.576 -0.8512  0.0639 -0.0262
  695MPD2    H510337   3.207   1.329  13.664  1.8803  1.8700  1.7901
  695MPD2    N110338   3.588   1.046  13.719 -0.1834  0.1212 -0.3375
  695MPD2    H710339   3.525   1.053  13.798  0.1788  1.1849 -0.1506
  696TMC3    C110340   3.059   1.468  13.572 -0.3775 -0.2476  0.0103
  696TMC3    C210341   2.980   1.361  13.565 -0.3791 -0.2204 -0.0493
  696TMC3    C310342   2.862   1.367  13.643 -0.3071  0.0779  0.5150
  696TMC3    C410343   3.036   1.578  13.653  0.0453 -0.0631  0.0773
  696TMC3    C510344   2.915   1.584  13.725  0.6730  0.1368 -0.2597
  696TMC3    C610345   2.832   1.474  13.719 -0.5459 -0.8931 -0.5228
  696TMC3     C10346   3.193   1.457  13.517  0.9663  0.4017  0.8433
  696TMC3     O10347   3.251   1.555  13.475 -0.4840 -0.1106  0.1755
  696TMC3     H10348   3.000   1.264  13.520 -2.6190 -0.2347 -1.0362
  696TMC3    H110349   3.105   1.661  13.649 -1.0366  0.7283 -2.1351
  696TMC3    H210350   2.733   1.476  13.763 -0.1610  0.7164  0.2806
  696TMC3    C710351   2.897   1.671  13.844  0.6248 -0.4157  0.2149
  696TMC3    C810352   2.855   1.245  13.715  0.4204  0.4311 -0.2873
  696TMC3    O110353   2.995   1.694  13.911  0.2907  0.2537 -0.3277
  696TMC3    O210354   2.889   1.143  13.661  0.0847 -0.3631  0.0450
  697MPD2     C10355   3.130   2.940  15.489  0.4749  0.6121  0.0663
  697MPD2    C110356   3.004   2.908  15.425 -0.1737 -0.1668 -0.2065
  697MPD2    C210357   2.930   2.997  15.359  0.4115  0.3080 -0.0333
  697MPD2    C310358   2.979   3.123  15.344  0.1629  0.1691  0.3414
  697MPD2    C410359   3.106   3.153  15.392 -0.0661  0.3360  0.7434
  697MPD2    C510360   3.178   3.066  15.469 -0.3917 -0.1630  0.2049
  697MPD2     H10361   2.846   2.966  15.297 -1.4531  2.2349  1.4937
  697MPD2    H110362   3.161   3.245  15.373 -0.4292  0.8224  2.0250
  697MPD2    H210363   3.198   2.867  15.532 -0.0591  0.7801  1.2160
  697MPD2    H310364   3.275   3.096  15.507 -0.1571 -2.1302  1.1510
  697MPD2     N10365   2.888   3.216  15.285 -0.6002  0.1949 -0.2393
  697MPD2    H510366   2.795   3.188  15.257 -0.1479 -1.5239  0.0124
  697MPD2    N110367   2.954   2.775  15.421 -0.1761  0.0432 -0.1020
  697MPD2    H710368   2.880   2.754  15.355  0.5559  0.4681 -1.0444
  698TMC3    C110369   2.824   3.415  15.178 -0.1275 -0.1014 -0.0530
  698TMC3    C210370   2.869   3.538  15.142  0.3190  0.1665  0.1416
  698TMC3    C310371   2.852   3.578  15.012 -0.2725  0.3342  0.0696
  698TMC3    C410372   2.752   3.339  15.092  0.0294  0.0087  0.0517
  698TMC3    C510373   2.732   3.383  14.966  0.5598  0.2381  0.1788
  698TMC3    C610374   2.780   3.499  14.921 -0.1803  0.2657  0.3542
  698TMC3     C10375   2.912   3.349  15.272 -0.7157  0.4776 -0.3891
  698TMC3     O10376   3.004   3.416  15.321 -0.2178 -0.0083  0.3436
  698TMC3     H10377   2.885   3.612  15.220  0.3068  2.3543 -1.9478
  698TMC3    H110378   2.717   3.241  15.124 -0.5981  0.1621 -0.1748
  698TMC3    H210379   2.765   3.546  14.825 -0.2033  0.4970  0.4703
  698TMC3    C710380   2.716   3.272  14.872 -0.0101 -0.1721  0.1125
  698TMC3    C810381   2.860   3.720  14.977 -1.0611  0.0067  0.1354
  698TMC3    O110382   2.715   3.158  14.920 -0.0674  0.0126  0.4396
  698TMC3    O210383   2.775   3.778  14.906  0.0815 -0.3818 -0.3570
  699TMC3    C110384   2.989   1.550  13.069  0.1621  0.0270  0.1896
  699TMC3    C210385   3.040   1.434  13.121 -0.0618 -0.4560 -1.0610
  699TMC3    C310386   2.967   1.356  13.212  0.2171 -0.6483 -0.2031
  699TMC3    C410387   2.863   1.591  13.097  0.2575 -0.0759  0.1136
  699TMC3    C510388   2.790   1.513  13.190  1.0642 -0.4793  0.2391
  699TMC3    C610389   2.841   1.396  13.245 -0.5357 -0.4694 -0.1553
  699TMC3     C10390   3.052   1.598  12.952  0.4542 -0.3748  0.5496
  699TMC3     O10391   3.088   1.514  12.866 -0.4797 -0.0747 -0.1051
  699TMC3     H10392   3.137   1.408  13.082 -0.1300 -3.0897  0.5129
  699TMC3    H110393   2.839   1.687  13.053  0.9711 -0.3800 -0.9273
  699TMC3    H210394   2.788   1.328  13.311 -0.5785  0.7635  1.0931
  699TMC3    C710395   2.657   1.553  13.234 -0.2121 -0.4750  0.0220
  699TMC3    C810396   3.027   1.228  13.247  0.1360 -1.2697 -0.1465
  699TMC3    O110397   2.641   1.667  13.278  0.1636 -0.0772 -0.0174
  699TMC3    O210398   2.953   1.161  13.318 -0.0558 -0.5053  0.0111
  700TMC3    C110399   2.379   3.445  16.914 -0.5872 -0.1448  0.3880
  700TMC3    C210400   2.363   3.315  16.890 -0.4544 -0.3979 -0.0588
  700TMC3    C310401   2.345   3.238  16.995  0.3482 -0.3780 -0.1097
  700TMC3    C410402   2.362   3.503  17.038 -0.4087  0.2255 -0.6194
  700TMC3    C510403   2.328   3.413  17.139  1.0402 -0.1940 -0.1725
  700TMC3    C610404   2.320   3.276  17.123  0.0857  0.9241 -0.3443
  700TMC3     C10405   2.351   3.531  16.795  0.1007 -1.0320  0.5367
  700TMC3     O10406   2.328   3.473  16.691 -0.3204 -0.0312  0.6754
  700TMC3     H10407   2.385   3.273  16.792 -0.1278  2.1048 -1.0552
  700TMC3    H110408   2.344   3.610  17.048 -2.6211 -0.2984  0.8564
  700TMC3    H210409   2.295   3.205  17.201  0.8636  1.6850  0.5909
  700TMC3    C710410   2.300   3.465  17.268 -0.6484 -0.0172 -0.0974
  700TMC3    C810411   2.356   3.092  16.970  0.2123 -0.0853  0.5184
  700TMC3    O110412   2.233   3.411  17.352 -0.1466  0.3226  0.5686
  700TMC3    O210413   2.284   3.028  17.051 -0.5334  0.3390 -0.3153
  701TMC3    C110414   2.422   2.138  15.592 -0.4411 -0.3052  0.0842
  701TMC3    C210415   2.426   2.122  15.454  0.3216  0.2968  0.4260
  701TMC3    C310416   2.490   2.231  15.393 -0.0227 -0.1281  0.1174
  701TMC3    C410417   2.474   2.239  15.662 -0.2187  0.2623  0.4655
  701TMC3    C510418   2.538   2.341  15.596  0.3140  0.1319  1.1776
  701TMC3    C610419   2.547   2.340  15.457 -0.1126  0.6283  0.0695
  701TMC3     C10420   2.348   2.033  15.660 -0.5622  0.0116  0.3554
  701TMC3     O10421   2.279   2.069  15.754 -0.1111  0.4255  0.2461
  701TMC3     H10422   2.366   2.054  15.394  0.2828  0.9278 -0.2357
  701TMC3    H110423   2.449   2.232  15.767  2.0660  1.9744  1.1172
  701TMC3    H210424   2.590   2.428  15.412  2.7566 -0.9404 -0.2578
  701TMC3    C710425   2.544   2.475  15.658 -1.0995 -0.1413 -0.7539
  701TMC3    C810426   2.463   2.262  15.253  0.2587 -0.0274 -0.3289
  701TMC3    O110427   2.576   2.572  15.587  0.4740 -0.5097  0.6135
  701TMC3    O210428   2.534   2.356  15.212  0.7128  0.4355 -0.1632
  702MPD2     C10429   1.999   4.631  10.451 -0.5373 -0.2589  0.1974
  702MPD2    C110430   1.881   4.669  10.506 -0.3350  0.2602  0.7260
  702MPD2    C210431   1.798   0.006  10.437 -0.0390 -0.4631  0.1947
  702MPD2    C310432   1.825   0.060  10.311 -0.1316 -0.1705 -0.5504
  702MPD2    C410433   1.950   0.032  10.265  0.1601  0.6035  0.1110
  702MPD2    C510434   2.037   4.699  10.338  0.6517 -0.5005 -0.2329
  702MPD2     H10435   1.706   0.042  10.481 -1.6298 -0.2641 -3.2315
  702MPD2    H110436   1.976   0.082  10.172  1.0982 -1.6746 -0.8473
  702MPD2    H210437   2.067   4.567  10.506 -1.3187 -2.0679 -0.9407
  702MPD2    H310438   2.139   4.702  10.301  0.3207  1.1202 -0.9901
  702MPD2     N10439   1.738   0.149  10.243 -0.0233  0.0910 -0.1933
  702MPD2    H510440   1.771   0.220  10.178 -0.4187  0.8218  0.4000
  702MPD2    N110441   1.837   4.634  10.633 -0.6377 -0.0286 -0.2776
  702MPD2    H710442   1.767   4.694  10.675 -0.3788  0.7302 -0.9327
  703TMC3    C110443   1.524   0.250  10.227 -0.1906 -0.3408 -0.0985
  703TMC3    C210444   1.392   0.217  10.262 -0.1512  0.1661  0.4379
  703TMC3    C310445   1.344   0.261  10.375  0.3871 -0.0554  0.0774
  703TMC3    C410446   1.591   0.354  10.292  0.2374 -0.5473 -0.2892
  703TMC3    C510447   1.533   0.388  10.411  0.5747 -0.0076 -0.5733
  703TMC3    C610448   1.418   0.332  10.460 -0.0280  0.5646  0.3166
  703TMC3     C10449   1.602   0.125  10.238  0.4358  0.1988 -0.3355
  703TMC3     O10450   1.542   0.025  10.282  0.2860  0.2867 -0.0527
  703TMC3     H10451   1.340   0.139  10.208  0.0684  0.4138 -0.1312
  703TMC3    H110452   1.695   0.380  10.275  0.4297 -0.2380  1.3354
  703TMC3    H210453   1.393   0.367  10.559  2.2133 -0.8562  1.3893
  703TMC3    C710454   1.630   0.402  10.513  0.0326 -0.2476 -0.1781
  703TMC3    C810455   1.213   0.204  10.421  0.0374 -0.0077 -0.1291
  703TMC3    O110456   1.623   0.312  10.599  0.2823  0.4396 -0.4184
  703TMC3    O210457   1.187   0.097  10.363 -0.7604 -0.0760  0.1371
  704TMC3    C110458   4.001   2.565  12.497  0.6134  0.8049  0.1158
  704TMC3    C210459   4.120   2.579  12.439 -0.6295 -0.4616  0.4173
  704TMC3    C310460   4.230   2.527  12.506  0.3686 -0.0883 -0.0062
  704TMC3    C410461   3.988   2.483  12.609  0.3584  0.4383  0.5869
  704TMC3    C510462   4.096   2.437  12.676 -0.2671 -0.6095  0.4420
  704TMC3    C610463   4.217   2.468  12.628  0.0089  0.2917  0.0052
  704TMC3     C10464   3.868   2.573  12.432  0.2492  0.3069 -0.3698
  704TMC3     O10465   3.771   2.505  12.478  0.1352  0.1086  0.4908
  704TMC3     H10466   4.137   2.623  12.342  1.3042 -1.1777  0.4342
  704TMC3    H110467   3.888   2.471  12.650 -0.1194  1.7994 -0.1615
  704TMC3    H210468   4.310   2.437  12.674 -0.4584 -1.9242 -0.5606
  704TMC3    C710469   4.075   2.338  12.776 -0.2846 -0.0297  0.6757
  704TMC3    C810470   4.358   2.523  12.434  0.1138 -0.7793 -0.1813
  704TMC3    O110471   3.966   2.286  12.795  0.5438 -0.4172  0.1841
  704TMC3    O210472   4.410   2.635  12.419  0.1624  0.2646 -0.6174
  705MPD2     C10473   3.654   0.770  16.435  0.3860  0.4268  0.6025
  705MPD2    C110474   3.680   0.891  16.501 -0.4142 -0.3197 -0.1607
  705MPD2    C210475   3.576   0.966  16.546  0.5197 -0.3676  0.6199
  705MPD2    C310476   3.443   0.933  16.526  0.1639 -0.1963 -0.3072
  705MPD2    C410477   3.422   0.811  16.469  0.4137  0.4629 -0.9396
  705MPD2    C510478   3.521   0.729  16.428 -0.0993 -0.2559  0.7418
  705MPD2     H10479   3.596   1.059  16.599  0.0320  0.5757 -0.8183
  705MPD2    H110480   3.320   0.777  16.452  0.4288 -0.8062  1.4619
  705MPD2    H210481   3.734   0.705  16.401 -0.5771 -0.0279 -0.8112
  705MPD2    H310482   3.484   0.643  16.372 -1.9822  1.0135  0.0185
  705MPD2     N10483   3.339   1.012  16.562 -0.5278  0.0866 -0.3132
  705MPD2    H510484   3.248   0.966  16.554 -0.6706  0.4881 -1.0364
  705MPD2    N110485   3.808   0.936  16.516  0.0055 -0.6542  0.4152
  705MPD2    H710486   3.817   1.029  16.555 -1.1991 -1.2577  2.1197
  706TMC3    C110487   4.273   0.985  16.435 -0.5485 -0.2297 -0.6090
  706TMC3    C210488   4.272   1.115  16.484  0.3895 -0.3584 -0.3953
  706TMC3    C310489   4.148   1.157  16.534  0.3411 -0.8552  0.0177
  706TMC3    C410490   4.160   0.902  16.430  0.0291 -0.0221 -0.4384
  706TMC3    C510491   4.041   0.958  16.476 -0.8745 -0.7063  0.2340
  706TMC3    C610492   4.029   1.088  16.517 -0.5141  0.0604 -0.1538
  706TMC3     C10493   4.381   0.956  16.339  0.4115 -0.7838  0.2846
  706TMC3     O10494   4.494   1.001  16.366  0.1255  0.3944  0.2135
  706TMC3     H10495   4.350   1.188  16.467 -0.8826  0.3085 -3.3968
  706TMC3    H110496   4.175   0.800  16.395 -1.5016 -0.6162  0.6895
  706TMC3    H210497   3.932   1.133  16.537 -1.2957 -2.4895  1.7809
  706TMC3    C710498   3.923   0.872  16.486 -0.1619 -0.6050 -0.1280
  706TMC3    C810499   4.127   1.289  16.486  0.3694 -0.0174  0.3644
  706TMC3    O110500   3.940   0.758  16.442  0.5982  0.5251  0.2048
  706TMC3    O210501   4.087   1.292  16.371  0.2474  0.5479 -0.2130
  707TMC3    C110502   0.578   0.477   0.015 -0.1551 -0.4862  0.0589
  707TMC3    C210503   0.519   0.483   0.143  0.4002  0.4580 -0.3130
  707TMC3    C310504   0.454   0.595   0.188 -0.3723  0.0261 -0.5722
  707TMC3    C410505   0.566   0.586  17.703 -0.1115  0.2614 -0.6391
  707TMC3    C510506   0.492   0.692  17.750 -0.4302 -0.3091  0.0171
  707TMC3    C610507   0.430   0.701   0.102 -0.0469  0.7938 -0.6775
  707TMC3     C10508   0.663   0.361  17.748 -0.0271 -0.1187 -0.9285
  707TMC3     O10509   0.762   0.380  17.679 -0.7288 -0.3245 -0.6328
  707TMC3     H10510   0.529   0.398   0.209  1.5488  0.7737 -0.0861
  707TMC3    H110511   0.618   0.583  17.608  0.5187  2.4710 -0.3596
  707TMC3    H210512   0.375   0.789   0.132  1.0118  0.8812  0.9651
  707TMC3    C710513   0.522   0.818  17.695  0.4766 -0.7573  0.0665
  707TMC3    C810514   0.452   0.631   0.332  0.0121  0.4981 -0.1388
  707TMC3    O110515   0.535   0.909   0.004 -0.0116 -0.0491  0.1142
  707TMC3    O210516   0.393   0.736   0.359 -0.4999  0.4349  0.1838
  708MPD2     C10517   2.258   4.340  13.692 -0.3538 -0.0965  0.7401
  708MPD2    C110518   2.179   4.412  13.783  0.2944  0.6075  0.4119
  708MPD2    C210519   2.239   4.513  13.857 -0.3681 -0.6017 -0.2683
  708MPD2    C310520   2.372   4.545  13.843  0.1101  0.4162 -0.3315
  708MPD2    C410521   2.450   4.476  13.752 -0.4832 -0.2820  0.0203
  708MPD2    C510522   2.393   4.370  13.675  0.1352 -0.0566  0.4538
  708MPD2     H10523   2.190   4.560  13.942 -1.2556 -1.4686 -0.3059
  708MPD2    H110524   2.554   4.501  13.741 -0.6202 -0.1835 -1.0328
  708MPD2    H210525   2.221   4.247  13.651 -0.6422 -0.0737  0.9458
  708MPD2    H310526   2.455   4.309  13.610  0.8211  0.8618  0.2362
  708MPD2     N10527   2.420   4.637  13.947  0.2203 -0.4780 -0.3700
  708MPD2    H510528   2.348   4.678  14.006 -1.0166 -3.3204  0.0800
  708MPD2    N110529   2.045   4.365  13.802  0.8112  0.1300  0.7338
  708MPD2    H710530   2.020   4.291  13.737 -2.1422 -0.0719  2.0937
  709TMC3    C110531   1.826   4.345  13.890  0.6400  0.1325  0.1580
  709TMC3    C210532   1.835   4.205  13.902  0.9126 -0.3432 -0.3969
  709TMC3    C310533   1.746   4.147  13.990  0.0179  0.5565  0.0817
  709TMC3    C410534   1.740   4.420  13.972 -0.3607  0.6726 -0.1884
  709TMC3    C510535   1.665   4.350  14.065  0.4650 -0.2473  0.0568
  709TMC3    C610536   1.658   4.215  14.072 -0.1966 -0.0609 -0.6388
  709TMC3     C10537   1.945   4.422  13.878 -0.4190 -0.7039  0.6066
  709TMC3     O10538   1.959   4.512  13.964  0.3881 -0.0621  0.0951
  709TMC3     H10539   1.919   4.148  13.866  0.2880 -1.3513 -0.2497
  709TMC3    H110540   1.729   4.528  13.967 -3.5092  0.3688  0.1239
  709TMC3    H210541   1.599   4.166  14.149 -2.6612  1.0858 -1.8199
  709TMC3    C710542   1.674   4.410  14.197 -0.2395 -0.5707  0.3453
  709TMC3    C810543   1.687   4.031  13.939 -0.3085  0.2161 -0.3553
  709TMC3    O110544   1.579   4.392  14.276 -1.0380 -0.1585  0.4158
  709TMC3    O210545   1.600   3.976  14.006 -0.0852  0.2882 -0.5561
  710TMC3    C110546   3.763   1.171   0.466  0.0014  0.4678  0.3173
  710TMC3    C210547   3.796   1.134   0.336  0.3744 -0.8220  0.1354
  710TMC3    C310548   3.915   1.060   0.325 -0.1295 -0.3680 -0.1666
  710TMC3    C410549   3.844   1.146   0.575  0.0985  0.3805  0.0160
  710TMC3    C510550   3.962   1.072   0.553  0.5998 -0.2482 -0.1497
  710TMC3    C610551   3.992   1.018   0.428  0.0659 -0.4096  0.3672
  710TMC3     C10552   3.655   1.259   0.488 -0.3268 -0.0833  0.0645
  710TMC3     O10553   3.616   1.320   0.390  0.2296 -0.3358 -0.3123
  710TMC3     H10554   3.742   1.172   0.250 -0.3396  0.9260  1.3442
  710TMC3    H110555   3.822   1.191   0.671 -1.9431  1.2282 -0.8668
  710TMC3    H210556   4.060   0.935   0.410 -1.3520 -0.8540 -3.0429
  710TMC3    C710557   3.995   0.988   0.666  0.4931  0.1863  0.1031
  710TMC3    C810558   3.970   1.059   0.191 -0.3394  0.1022  0.2281
  710TMC3    O110559   3.898   0.977   0.743 -0.2086 -0.0503 -0.2083
  710TMC3    O210560   3.894   1.066   0.097  0.2300 -0.2690 -0.1051
  711TMC3    C110561   2.963   1.666  15.213  0.0317 -0.4200  0.7797
  711TMC3    C210562   2.987   1.785  15.276 -0.4168 -0.2486  0.2573
  711TMC3    C310563   3.075   1.770  15.379 -0.3133  0.2829 -0.2606
  711TMC3    C410564   3.001   1.541  15.265  0.3406 -0.6514 -0.3183
  711TMC3    C510565   3.084   1.542  15.368 -1.1519 -0.2734 -0.1660
  711TMC3    C610566   3.123   1.655  15.428 -0.2166  0.2402  0.3625
  711TMC3     C10567   2.881   1.662  15.091 -0.8492 -0.1961  0.1812
  711TMC3     O10568   2.857   1.553  15.046  0.3184  0.5623  0.3112
  711TMC3     H10569   2.959   1.881  15.232 -1.5491 -1.3803 -1.5044
  711TMC3    H110570   2.988   1.453  15.202 -2.4590 -0.3332 -0.1686
  711TMC3    H210571   3.174   1.648  15.524  0.7810  2.6886  0.0192
  711TMC3    C710572   3.147   1.414  15.402 -0.2073 -0.0566  1.0667
  711TMC3    C810573   3.105   1.891  15.453 -0.6082  0.1085  0.2793
  711TMC3    O110574   3.254   1.416  15.458  0.4707 -0.1489  0.8970
  711TMC3    O210575   3.019   1.973  15.454  0.3382 -0.4718  0.5000
  712MPD2     C10576   3.971   2.365  13.437  0.0691 -0.1159 -0.2338
  712MPD2    C110577   3.893   2.442  13.526 -0.4692 -0.4400 -0.5524
  712MPD2    C210578   3.930   2.574  13.557  0.0504 -0.7297  0.2261
  712MPD2    C310579   4.046   2.627  13.505  0.1891  0.5308  0.3028
  712MPD2    C410580   4.131   2.542  13.425  0.0588 -0.2294  0.3005
  712MPD2    C510581   4.084   2.417  13.381 -0.0300 -1.0318 -0.5322
  712MPD2     H10582   3.867   2.631  13.624 -1.8169  1.1037 -3.1011
  712MPD2    H110583   4.228   2.579  13.394 -0.3168  0.9663  0.5575
  712MPD2    H210584   3.947   2.266  13.401  0.3257 -0.9082  1.7281
  712MPD2    H310585   4.150   2.356  13.320  1.2476  2.6978 -2.8878
  712MPD2     N10586   4.088   2.758  13.527  0.6974 -0.6758  0.3361
  712MPD2    H510587   4.168   2.787  13.471  0.9349  1.6829  1.9008
  712MPD2    N110588   3.780   2.378  13.577 -0.6292  0.0987 -0.0489
  712MPD2    H710589   3.770   2.283  13.541  0.6108 -0.2973  0.6473
  713TMC3    C110590   4.082   2.991  13.579 -0.0727 -0.2923  0.1273
  713TMC3    C210591   4.201   3.011  13.513  0.0955  0.2378  0.3818
  713TMC3    C310592   4.258   3.134  13.500  0.6828  0.0768 -0.3219
  713TMC3    C410593   4.011   3.101  13.637 -0.5628 -0.0927 -0.0975
  713TMC3    C510594   4.064   3.224  13.610 -0.7734  0.2436 -0.1799
  713TMC3    C610595   4.192   3.241  13.557 -0.4168 -0.0049 -0.0948
  713TMC3     C10596   4.020   2.856  13.591  0.1667  0.0955 -0.9516
  713TMC3     O10597   3.917   2.848  13.658  0.2208  0.7918  0.3867
  713TMC3     H10598   4.254   2.927  13.470  0.8587  1.5166 -1.1996
  713TMC3    H110599   3.909   3.094  13.673  0.1835 -0.4480  1.9450
  713TMC3    H210600   4.240   3.338  13.550  0.7837 -0.5461  0.5977
  713TMC3    C710601   4.016   3.344  13.680  0.7835 -0.5718 -0.1912
  713TMC3    C810602   4.392   3.151  13.458  0.5003  0.6961 -0.1036
  713TMC3    O110603   4.103   3.417  13.728  0.1949 -0.7516 -0.4687
  713TMC3    O210604   4.401   3.238  13.371  0.1326 -0.5655  0.0190
  714MPD2     C10605   2.204   1.632   1.283 -0.1649  0.1457 -0.2920
  714MPD2    C110606   2.163   1.516   1.220  0.2033  0.6870 -0.4614
  714MPD2    C210607   2.062   1.535   1.125  0.5725  0.4400  0.0708
  714MPD2    C310608   2.013   1.663   1.098  0.3117 -1.1570  0.4325
  714MPD2    C410609   2.063   1.773   1.153 -0.4732  0.8426 -0.2481
  714MPD2    C510610   2.159   1.755   1.252 -0.0053  0.2150 -0.4169
  714MPD2     H10611   2.015   1.451   1.074 -2.0678  2.0537 -0.1402
  714MPD2    H110612   2.037   1.877   1.136 -1.4301  0.2811 -2.2251
  714MPD2    H210613   2.288   1.633   1.351 -1.2968 -0.3103  1.0868
  714MPD2    H310614   2.205   1.842   1.299 -1.8276 -0.1696  2.0798
  714MPD2     N10615   1.904   1.666   1.010 -0.3942 -0.0871 -1.1655
  714MPD2    H510616   1.865   1.575   0.986 -0.9759 -0.2612  0.4485
  714MPD2    N110617   2.216   1.388   1.257  0.1860  0.6295 -0.1352
  714MPD2    H710618   2.297   1.380   1.318  0.3788  0.9425 -0.3475
  715TMC3    C110619   2.253   1.163   1.267 -0.1743 -0.3257  0.4254
  715TMC3    C210620   2.278   1.044   1.199 -0.3522 -0.1164 -0.3994
  715TMC3    C310621   2.356   0.948   1.260  0.2987  0.7506 -0.2417
  715TMC3    C410622   2.304   1.185   1.391 -0.2700  0.4451 -0.0459
  715TMC3    C510623   2.390   1.094   1.441  0.1649 -0.2338  0.6273
  715TMC3    C610624   2.423   0.977   1.377  0.4054 -0.0033  0.2201
  715TMC3     C10625   2.173   1.265   1.210  0.4376 -0.2094 -0.4297
  715TMC3     O10626   2.095   1.233   1.116  0.2314  0.6223 -0.3493
  715TMC3     H10627   2.235   1.025   1.101 -0.6087 -0.7156 -0.1715
  715TMC3    H110628   2.272   1.272   1.447  1.0537  0.1869  1.0933
  715TMC3    H210629   2.469   0.895   1.430  0.7720 -0.3227 -0.5831
  715TMC3    C710630   2.448   1.112   1.574  0.4921 -0.3211 -0.9109
  715TMC3    C810631   2.401   0.841   1.170  0.3433 -0.2114 -0.1471
  715TMC3    O110632   2.548   1.050   1.606  0.5618 -0.1276  0.5295
  715TMC3    O210633   2.346   0.822   1.062 -0.0281  0.4793  0.3723
  716MPD2     C10634   1.272   0.145   9.882  0.0883 -0.2705 -0.4943
  716MPD2    C110635   1.202   0.141   9.764  0.7180 -0.3959  0.5259
  716MPD2    C210636   1.212   0.022   9.695  0.5142  0.2036  0.3784
  716MPD2    C310637   1.302   4.665   9.730 -0.5599  1.0409  0.2083
  716MPD2    C410638   1.381   4.682   9.840  0.5197 -0.3675 -0.5318
  716MPD2    C510639   1.369   0.051   9.913 -0.7272 -0.8632  0.2815
  716MPD2     H10640   1.145   0.002   9.612  2.1872 -0.7382 -0.7395
  716MPD2    H110641   1.459   4.613   9.871  3.4261  2.1178 -2.2446
  716MPD2    H210642   1.266   0.230   9.948 -1.5867 -1.4779  0.8901
  716MPD2    H310643   1.429   0.057  10.003 -1.3530 -4.3018  0.9157
  716MPD2     N10644   1.309   4.549   9.651 -0.2874 -0.6746  0.1910
  716MPD2    H510645   1.234   4.538   9.584 -0.2294  0.9980 -0.1374
  716MPD2    N110646   1.121   0.253   9.732  0.4084 -0.5307 -0.2108
  716MPD2    H710647   1.135   0.335   9.791 -0.9403 -1.4212  1.3742
  717TMC3    C110648   1.349   4.319   9.588  0.1596 -0.4394 -0.8491
  717TMC3    C210649   1.266   4.331   9.482 -0.3232  0.0158 -0.6454
  717TMC3    C310650   1.230   4.215   9.424 -0.3508 -1.0929  0.7297
  717TMC3    C410651   1.407   4.201   9.630  0.1304 -0.7080  0.5260
  717TMC3    C510652   1.353   4.083   9.576 -0.2499 -0.4885 -0.2391
  717TMC3    C610653   1.263   4.089   9.471 -1.0538 -0.1693  0.7444
  717TMC3     C10654   1.384   4.429   9.677  0.1529  0.3406  0.4858
  717TMC3     O10655   1.463   4.412   9.768  0.1086 -0.0204  0.5040
  717TMC3     H10656   1.235   4.429   9.446  1.7739  1.3308  1.0893
  717TMC3    H110657   1.473   4.198   9.716 -1.6110  0.2352  1.8974
  717TMC3    H210658   1.216   3.997   9.439 -0.8080 -0.0255 -0.0232
  717TMC3    C710659   1.458   3.982   9.569  0.3287 -0.4161 -0.2540
  717TMC3    C810660   1.132   4.231   9.325 -0.3244 -0.1941  0.2292
  717TMC3    O110661   1.559   4.002   9.640  0.4397 -0.0647 -0.5111
  717TMC3    O210662   1.084   4.342   9.309  0.0309  0.0879 -0.5575
  718MPD2     C10663   0.785   2.877  12.828 -0.4168 -0.0248 -0.4140
  718MPD2    C110664   0.737   2.951  12.730  0.1517 -0.1098  0.2562
  718MPD2    C210665   0.603   2.936  12.696  0.1955 -0.5263  0.2843
  718MPD2    C310666   0.510   2.875  12.777 -0.2941  0.6054  0.8343
  718MPD2    C410667   0.561   2.809  12.884 -0.7492 -0.2997  0.0764
  718MPD2    C510668   0.697   2.816  12.909  0.7641  0.8395  0.2805
  718MPD2     H10669   0.562   3.000  12.618 -2.2369 -1.5618  0.7077
  718MPD2    H110670   0.506   2.765  12.966  0.8330 -3.0869 -0.3605
  718MPD2    H210671   0.893   2.868  12.837 -0.5638 -1.0184  0.3490
  718MPD2    H310672   0.738   2.761  12.993  1.3802 -0.0296 -0.5813
  718MPD2     N10673   0.377   2.898  12.759  0.3345  0.7309 -0.0216
  718MPD2    H510674   0.362   2.952  12.675 -0.7410 -2.0331 -1.6159
  718MPD2    N110675   0.821   3.049  12.659 -0.6934  0.3734  0.4194
  718MPD2    H710676   0.917   3.063  12.688  0.0409 -2.9814 -0.4088
  719TMC3    C110677   0.890   3.206  12.487 -0.5205  0.0870 -0.0062
  719TMC3    C210678   0.829   3.277  12.385 -0.0767 -0.0123  0.0021
  719TMC3    C310679   0.844   3.409  12.394 -0.5451  0.5622  0.0014
  719TMC3    C410680   0.969   3.257  12.583 -0.2207  0.1457 -0.7885
  719TMC3    C510681   0.988   3.391  12.573  0.8168 -0.1460 -0.6451
  719TMC3    C610682   0.917   3.474  12.489 -0.1473 -0.1309 -0.1324
  719TMC3     C10683   0.790   3.110  12.537 -0.3933 -0.0990  0.4741
  719TMC3     O10684   0.687   3.107  12.476 -0.0997 -0.4225 -0.0518
  719TMC3     H10685   0.786   3.229  12.297  0.0086  2.1352 -1.2020
  719TMC3    H110686   1.028   3.209  12.660  0.4382  1.1658 -0.6588
  719TMC3    H210687   0.916   3.582  12.486 -0.5131 -0.1032  0.8125
  719TMC3    C710688   1.118   3.444  12.615  0.0206 -0.0019 -0.2674
  719TMC3    C810689   0.706   3.470  12.378 -0.3961  0.1699 -0.1057
  719TMC3    O110690   1.204   3.364  12.630 -0.0482  0.0830 -0.3848
  719TMC3    O210691   0.696   3.589  12.374  0.3273  0.5577  0.2130
  720MPD2     C10692   4.304   0.174  14.091  0.1480  0.6404  0.0389
  720MPD2    C110693   4.374   0.082  14.013  1.0178 -0.2191 -0.4543
  720MPD2    C210694   4.490   0.028  14.070 -0.8733  0.1480  0.9125
  720MPD2    C310695   4.542   0.076  14.190  0.1620  0.1825 -0.0224
  720MPD2    C410696   4.459   0.156  14.266 -0.4388  0.3097 -0.0397
  720MPD2    C510697   4.340   0.205  14.221  0.3806 -0.2543 -0.0486
  720MPD2     H10698   4.545   4.692  14.019  0.2132  2.1092 -0.9781
  720MPD2    H110699   4.482   0.182  14.368 -0.4246  0.3172 -0.0448
  720MPD2    H210700   4.203   0.202  14.064  0.1577 -0.4140 -1.0960
  720MPD2    H310701   4.276   0.271  14.278 -0.7068 -0.1331 -1.4230
  720MPD2     N10702   4.670   0.034  14.228  0.2984  0.5577  0.4058
  720MPD2    H510703   4.733   4.743  14.156 -0.0804  2.7801 -0.9864
  720MPD2    N110704   4.344   0.038  13.882  0.0393  0.2909  0.1298
  720MPD2    H710705   4.399   4.703  13.848  0.1497  0.2591  0.3823
  721TMC3    C110706   0.107   0.020  14.389 -0.1524  0.3957 -0.0073
  721TMC3    C210707   0.138   0.097  14.498  0.3128 -0.3141 -0.1413
  721TMC3    C310708   0.233   0.192  14.483  0.2560  0.5946  0.1552
  721TMC3    C410709   0.188   4.743  14.285  0.9134 -0.1391 -0.0417
  721TMC3    C510710   0.276   0.101  14.264 -0.5030  0.3473 -0.7422
  721TMC3    C610711   0.299   0.198  14.365 -0.7019  0.6204 -0.4448
  721TMC3     C10712   4.708   0.027  14.360  0.0636 -0.6116  0.3807
  721TMC3     O10713   4.633   0.022  14.458 -0.5127  0.2791  0.1226
  721TMC3     H10714   0.065   0.113  14.577  0.5243  3.6500 -0.7464
  721TMC3    H110715   0.156   4.671  14.210 -2.4735 -0.0820  1.3657
  721TMC3    H210716   0.366   0.282  14.349  1.7106 -1.1636  0.3599
  721TMC3    C710717   0.387   0.072  14.168  0.7912  0.8407 -0.2774
  721TMC3    C810718   0.245   0.303  14.575  0.0498  0.5652 -0.0255
  721TMC3    O110719   0.464   0.161  14.137  0.1880  0.0471  0.1717
  721TMC3    O210720   0.265   0.418  14.540  0.2017  0.5340 -0.0525
  722MPD2     C10721   3.126   3.548  12.980 -0.3183  0.4909 -0.5260
  722MPD2    C110722   3.031   3.567  13.079  0.0710  0.0027 -0.4877
  722MPD2    C210723   2.897   3.567  13.042 -0.0903  0.4872  0.0874
  722MPD2    C310724   2.851   3.541  12.910  0.2586  0.0709 -0.2687
  722MPD2    C410725   2.950   3.513  12.812  0.2334 -0.9570  0.4552
  722MPD2    C510726   3.082   3.520  12.852  0.0413 -0.0350 -0.5110
  722MPD2     H10727   2.821   3.588  13.117 -0.2464  0.3078 -0.0188
  722MPD2    H110728   2.931   3.481  12.710  0.7718  0.2688 -0.0311
  722MPD2    H210729   3.232   3.542  13.001 -0.6787  0.4818  1.2951
  722MPD2    H310730   3.150   3.493  12.772 -0.3628  0.3454 -0.9816
  722MPD2     N10731   2.709   3.531  12.881  0.1098  0.7482  0.1315
  722MPD2    H510732   2.652   3.527  12.965  1.9024 -2.1305  1.2039
  722MPD2    N110733   3.069   3.599  13.213  1.1404  0.0884 -0.3139
  722MPD2    H710734   3.000   3.612  13.286 -0.8374 -1.9333 -1.8600
  723TMC3    C110735   2.514   3.474  12.769 -0.0232  0.0086  0.0193
  723TMC3    C210736   2.468   3.375  12.688 -0.1954  0.9938 -0.3785
  723TMC3    C310737   2.365   3.296  12.749 -0.3814 -0.2789 -0.8135
  723TMC3    C410738   2.437   3.526  12.870  0.2468 -0.0072  0.2295
  723TMC3    C510739   2.329   3.452  12.913 -0.5520  0.2178 -0.6009
  723TMC3    C610740   2.291   3.339  12.851 -0.1000 -0.5332  0.5759
  723TMC3     C10741   2.657   3.503  12.763  0.4411  0.0463  0.3674
  723TMC3     O10742   2.712   3.490  12.652  0.6240 -0.1827  0.2744
  723TMC3     H10743   2.516   3.343  12.597  0.3325 -3.3102  1.3697
  723TMC3    H110744   2.477   3.603  12.935 -0.0362  0.0510  0.3337
  723TMC3    H210745   2.202   3.287  12.883  0.3117 -0.4107  1.8858
  723TMC3    C710746   2.247   3.505  13.023 -0.0565  0.2190  0.0795
  723TMC3    C810747   2.312   3.193  12.669 -0.3783  0.0700  0.2474
  723TMC3    O110748   2.164   3.435  13.084 -0.0505  0.7422 -0.0694
  723TMC3    O210749   2.358   3.195  12.559  0.6422 -0.1765 -0.0371
  724TMC3    C110750   3.665   1.914  11.204 -0.4350  0.1606  0.1669
  724TMC3    C210751   3.600   1.994  11.116 -1.3371  0.4126 -0.7328
  724TMC3    C310752   3.674   2.068  11.035  0.2704  0.3922 -0.0904
  724TMC3    C410753   3.798   1.900  11.216 -0.0678 -0.6116 -0.0873
  724TMC3    C510754   3.870   1.973  11.120  0.3824 -0.5897 -0.4758
  724TMC3    C610755   3.810   2.056  11.027 -0.2061  0.0687 -0.0143
  724TMC3     C10756   3.583   1.854  11.307  0.2587 -0.4345  0.0018
  724TMC3     O10757   3.644   1.787  11.390 -0.0841  0.0967  0.0172
  724TMC3     H10758   3.498   1.974  11.086 -2.6248  0.3569  3.6330
  724TMC3    H110759   3.840   1.848  11.302  1.8439 -1.1717 -1.3620
  724TMC3    H210760   3.866   2.100  10.945 -0.1685 -1.6053 -0.8894
  724TMC3    C710761   4.011   1.943  11.092 -1.0194 -0.0470  0.1500
  724TMC3    C810762   3.596   2.165  10.950 -0.4233  0.4154 -0.4039
  724TMC3    O110763   4.080   2.025  11.039  0.1800 -0.0184  0.0870
  724TMC3    O210764   3.473   2.163  10.950 -0.6491 -0.5759  0.4262
  725TMC3    C110765   0.214   0.472  13.356 -0.4042 -0.1322 -0.8837
  725TMC3    C210766   0.128   0.514  13.262  0.5490  0.3008 -0.3425
  725TMC3    C310767   0.043   0.415  13.216  0.2974 -0.0312 -0.7648
  725TMC3    C410768   0.243   0.337  13.382  0.0188  0.2924  0.0387
  725TMC3    C510769   0.156   0.243  13.324 -0.1356 -0.1853  0.1808
  725TMC3    C610770   0.055   0.282  13.235 -0.0248  0.3721 -0.4238
  725TMC3     C10771   0.329   0.561  13.388  0.2197  0.2323 -0.9322
  725TMC3     O10772   0.321   0.674  13.337  0.3611 -0.5800  0.2936
  725TMC3     H10773   0.113   0.618  13.234 -0.5754  0.5991  1.3911
  725TMC3    H110774   0.319   0.300  13.449 -0.0871 -0.7667 -0.4237
  725TMC3    H210775   4.738   0.214  13.177  0.4670  0.8070 -1.4397
  725TMC3    C710776   0.212   0.113  13.305 -0.3629  0.2309  0.0476
  725TMC3    C810777   4.681   0.445  13.132  0.6803  0.3313  0.3835
  725TMC3    O110778   0.333   0.103  13.303  0.2742  0.4146 -0.5109
  725TMC3    O210779   4.590   0.361  13.132  0.0735  0.1651  0.5981
  726MPD2     C10780   2.012   2.327  10.544 -0.4655 -0.6746  0.5455
  726MPD2    C110781   1.928   2.359  10.446 -1.1430 -1.0724  0.2180
  726MPD2    C210782   1.812   2.290  10.427 -0.5218 -1.2131 -0.2728
  726MPD2    C310783   1.778   2.195  10.524 -0.1580 -0.0712 -0.2656
  726MPD2    C410784   1.861   2.162  10.632  0.8912 -0.2055 -0.1568
  726MPD2    C510785   1.980   2.232  10.638  0.0334 -0.9319  0.6602
  726MPD2     H10786   1.741   2.327  10.354  0.7393  3.2427  0.8010
  726MPD2    H110787   1.835   2.077  10.693  0.3029 -1.0718 -1.6245
  726MPD2    H210788   2.105   2.383  10.538 -0.6444 -0.6400 -1.7219
  726MPD2    H310789   2.049   2.208  10.719 -0.1084 -0.0150  1.0474
  726MPD2     N10790   1.652   2.137  10.522 -0.4764 -0.1379 -0.1472
  726MPD2    H510791   1.637   2.074  10.600  1.0710 -0.7745 -0.3694
  726MPD2    N110792   1.960   2.463  10.352 -0.3807 -0.5911  0.4347
  726MPD2    H710793   2.045   2.515  10.372 -1.1227  0.4778  0.7996
  727TMC3    C110794   1.959   2.619  10.176 -0.0812  0.4386 -0.0825
  727TMC3    C210795   2.045   2.698  10.249  0.1051  0.3053  0.1748
  727TMC3    C310796   2.081   2.819  10.200 -0.3290 -0.0591 -0.1348
  727TMC3    C410797   1.912   2.656  10.056  0.6467  0.4909 -0.5067
  727TMC3    C510798   1.952   2.777  10.005 -0.0694  0.5382  0.1880
  727TMC3    C610799   2.030   2.860  10.079  1.5325 -0.8364  0.1514
  727TMC3     C10800   1.895   2.497  10.237 -0.4183  0.4798  0.1512
  727TMC3     O10801   1.812   2.436  10.173  0.2159 -0.1619 -0.5116
  727TMC3     H10802   2.096   2.669  10.340  1.0027  1.8486  0.1589
  727TMC3    H110803   1.837   2.592  10.009 -0.6940  1.4078  0.3876
  727TMC3    H210804   2.052   2.963  10.052 -1.1019 -0.7437 -1.6230
  727TMC3    C710805   1.851   2.841   9.911 -0.6011 -0.6495 -0.0915
  727TMC3    C810806   2.190   2.889  10.266 -0.3403 -0.1954  0.2291
  727TMC3    O110807   1.755   2.772   9.876 -0.6090  0.0062 -0.0549
  727TMC3    O210808   2.248   2.829  10.358  0.2931 -0.3264 -0.2627
  728TMC3    C110809   2.270   0.710  15.559  1.2234 -0.4375 -0.0054
  728TMC3    C210810   2.397   0.750  15.526 -0.2023  0.5698 -0.2399
  728TMC3    C310811   2.412   0.795  15.399  0.1862 -0.5678 -0.2064
  728TMC3    C410812   2.165   0.715  15.469 -0.3224  0.6261  0.2875
  728TMC3    C510813   2.190   0.788  15.353  0.7041  0.1720  0.6812
  728TMC3    C610814   2.316   0.821  15.308  0.8497 -0.0101 -1.1278
  728TMC3     C10815   2.269   0.633  15.685  0.5496  0.4837 -0.4222
  728TMC3     O10816   2.358   0.630  15.775  0.3334  0.3012  0.2556
  728TMC3     H10817   2.477   0.725  15.594 -0.3045 -1.8054 -0.9986
  728TMC3    H110818   2.063   0.697  15.501 -0.0671 -0.9223  0.2107
  728TMC3    H210819   2.339   0.833  15.203  1.3594 -1.4374 -1.1816
  728TMC3    C710820   2.079   0.813  15.261  0.3904  0.6827 -0.6732
  728TMC3    C810821   2.555   0.780  15.350  0.0756  0.4963 -0.4714
  728TMC3    O110822   1.967   0.773  15.287  0.1840  0.0796 -0.2425
  728TMC3    O210823   2.621   0.687  15.391  0.1935  0.0120 -0.5567
  729MPD2     C10824   4.512   1.576  16.811 -0.2113  0.1989  0.3590
  729MPD2    C110825   4.491   1.714  16.823  0.6428  0.1833 -0.4822
  729MPD2    C210826   4.391   1.756  16.907 -0.0813 -0.2090 -0.3731
  729MPD2    C310827   4.311   1.669  16.973  0.0221  0.1928 -0.4107
  729MPD2    C410828   4.339   1.527  16.965  0.0263  0.3134  0.8589
  729MPD2    C510829   4.443   1.490  16.888  0.2247 -0.1639  0.5460
  729MPD2     H10830   4.374   1.863  16.899 -0.0263 -0.2422 -0.9178
  729MPD2    H110831   4.282   1.453  17.020 -0.0593  0.8175  1.4462
  729MPD2    H210832   4.601   1.531  16.767  0.1011  0.3364  0.8549
  729MPD2    H310833   4.470   1.385  16.890  4.1675  0.8109 -2.9720
  729MPD2     N10834   4.220   1.713  17.071  0.1940  0.4151 -0.3018
  729MPD2    H510835   4.192   1.652  17.147  0.0785  0.9379  0.0685
  729MPD2    N110836   4.584   1.806  16.757  0.0955  0.6609  0.4567
  729MPD2    H710837   4.660   1.757  16.711 -0.7836 -1.7873  1.5850
  730TMC3    C110838   4.104   1.868  17.214 -0.0699 -1.4012 -0.1716
  730TMC3    C210839   4.162   1.822  17.333  0.0250  1.1142 -1.3523
  730TMC3    C310840   4.172   1.909  17.438  0.1216  0.4153 -0.1655
  730TMC3    C410841   4.056   1.994  17.218  0.2024  0.5434 -0.1561
  730TMC3    C510842   4.065   2.080  17.324 -0.2036  0.6420  0.1495
  730TMC3    C610843   4.124   2.031  17.438 -0.1197  0.1484  0.2538
  730TMC3     C10844   4.171   1.841  17.083  0.2522 -0.1090 -0.8603
  730TMC3     O10845   4.200   1.939  17.018 -0.4351 -0.6809  0.1312
  730TMC3     H10846   4.229   1.736  17.340 -0.1789  0.9058 -1.9222
  730TMC3    H110847   4.004   2.020  17.127 -0.2171 -0.6838 -0.2552
  730TMC3    H210848   4.149   2.087  17.528  2.2810 -0.0095 -0.3340
  730TMC3    C710849   4.065   2.219  17.293 -0.2545 -0.1222  0.0843
  730TMC3    C810850   4.269   1.879  17.527  0.0959  0.0207 -0.1186
  730TMC3    O110851   4.067   2.259  17.178 -0.6576  0.3472  0.6321
  730TMC3    O210852   4.275   1.765  17.571 -0.9331  0.3247  0.1614
  731MPD2     C10853   4.022   4.305  12.886  0.1148 -0.0564  0.0015
  731MPD2    C110854   4.119   4.316  12.989 -0.2668  0.3460 -0.2447
  731MPD2    C210855   4.076   4.326  13.119 -0.3777 -0.6521  0.0301
  731MPD2    C310856   3.945   4.326  13.152  0.4360 -0.6646  0.0498
  731MPD2    C410857   3.847   4.310  13.054  0.6416  0.3095  0.0614
  731MPD2    C510858   3.886   4.292  12.929 -0.2150  0.4035 -0.3626
  731MPD2     H10859   4.142   4.353  13.200 -0.9582 -0.5158  0.4579
  731MPD2    H110860   3.740   4.305  13.067  0.7293 -0.1498  0.5840
  731MPD2    H210861   4.052   4.285  12.784 -3.6330 -0.9275 -0.9432
  731MPD2    H310862   3.812   4.253  12.859 -0.1923  0.6597 -0.5289
  731MPD2     N10863   3.918   4.339  13.291  0.5587  0.1659 -0.1272
  731MPD2    H510864   3.991   4.324  13.360 -0.3830 -0.6246  0.7022
  731MPD2    N110865   4.251   4.323  12.944 -0.0351 -0.1572 -0.3371
  731MPD2    H710866   4.270   4.327  12.844 -0.1191  1.0676 -0.3088
  732TMC3    C110867   4.467   4.407  12.930 -0.1749 -0.1105  0.1706
  732TMC3    C210868   4.474   4.351  12.804  0.5572 -0.1025  0.2270
  732TMC3    C310869   4.573   4.389  12.716  0.3957  0.5635  0.0116
  732TMC3    C410870   4.541   4.517  12.967 -0.0131 -0.5462 -1.1234
  732TMC3    C510871   4.629   4.568  12.873 -0.0366 -0.1370 -0.3625
  732TMC3    C610872   4.655   4.503  12.752 -0.2504 -0.5693 -0.4457
  732TMC3     C10873   4.359   4.358  13.020 -0.1111 -0.3063 -0.0063
  732TMC3     O10874   4.381   4.357  13.142 -0.2563 -0.1611  0.0991
  732TMC3     H10875   4.417   4.261  12.784 -1.5708  1.3589 -0.3148
  732TMC3    H110876   4.521   4.572  13.058 -1.2028 -3.8417  0.5691
  732TMC3    H210877   4.706   4.552  12.671 -0.1823 -0.4055 -0.3035
  732TMC3    C710878   4.698   4.689  12.901 -0.0428 -0.7660 -0.1360
  732TMC3    C810879   4.571   4.356  12.573 -0.1337 -0.0477  0.6533
  732TMC3    O110880   4.654   0.016  12.993  0.1915  0.1491 -0.1572
  732TMC3    O210881   4.676   4.342  12.509 -0.2614 -0.7171  0.4532
  733TMC3    C110882   4.661   2.951  12.807 -0.5703 -0.2863  0.9819
  733TMC3    C210883   0.026   2.863  12.838 -0.2468  0.3154 -0.5040
  733TMC3    C310884   0.148   2.906  12.791  0.1130 -0.0329 -0.4773
  733TMC3    C410885   4.671   3.065  12.733  0.3451 -0.2511  0.2234
  733TMC3    C510886   0.052   3.095  12.683 -0.4669 -0.4450 -0.2699
  733TMC3    C610887   0.164   3.023  12.724  0.2674  0.0014 -0.0972
  733TMC3     C10888   4.528   2.931  12.867  0.9639 -0.1141  0.3231
  733TMC3     O10889   4.436   3.010  12.844 -0.6617  0.4430  0.3357
  733TMC3     H10890   0.026   2.784  12.913  0.4855  0.0670 -0.7713
  733TMC3    H110891   4.583   3.126  12.714  0.7599  0.6702  1.2849
  733TMC3    H210892   0.253   3.084  12.733 -0.9595  1.6266  0.8804
  733TMC3    C710893   0.068   3.212  12.606  0.3482  0.1757 -0.4544
  733TMC3    C810894   0.269   2.843  12.834 -0.6005  0.4523 -0.2518
  733TMC3    O110895   4.710   3.276  12.586  0.1229  0.3095 -0.8974
  733TMC3    O210896   0.268   2.769  12.933  0.5681 -0.0228 -0.1244
  734MPD2     C10897   2.578   0.820  12.510 -0.7705 -0.2044 -0.3783
  734MPD2    C110898   2.468   0.746  12.468  0.5154  0.0932  0.3609
  734MPD2    C210899   2.431   0.765  12.336 -0.1531 -0.1687 -0.2667
  734MPD2    C310900   2.522   0.829  12.250 -0.2102 -0.5127  0.1636
  734MPD2    C410901   2.625   0.908  12.296  0.5996  0.2145 -0.7479
  734MPD2    C510902   2.647   0.907  12.429 -0.0279  0.6153 -0.0677
  734MPD2     H10903   2.343   0.724  12.288 -0.1344  1.7791 -1.9565
  734MPD2    H110904   2.690   0.956  12.224  1.6911  2.8930  2.0282
  734MPD2    H210905   2.599   0.811  12.616  0.6251  0.8262 -0.5791
  734MPD2    H310906   2.729   0.968  12.466 -0.0016 -0.1156  1.0921
  734MPD2     N10907   2.483   0.823  12.113 -0.8428 -0.3083  0.1322
  734MPD2    H510908   2.403   0.767  12.084 -0.0303  0.1027 -2.8755
  734MPD2    N110909   2.404   0.648  12.553  0.4275  0.6112  0.5419
  734MPD2    H710910   2.438   0.653  12.648 -0.2625  0.8529  0.7747
  735TMC3    C110911   2.282   0.446  12.614  0.2059  0.2561  0.1294
  735TMC3    C210912   2.180   0.366  12.566 -0.7077 -0.3218 -0.2348
  735TMC3    C310913   2.202   0.233  12.556 -0.2499  0.2168 -0.1355
  735TMC3    C410914   2.399   0.384  12.665 -0.1022  0.0290  0.4096
  735TMC3    C510915   2.403   0.245  12.668  0.2191 -0.0866  0.3585
  735TMC3    C610916   2.311   0.169  12.605 -0.2692  0.0352 -0.3916
  735TMC3     C10917   2.305   0.556  12.515  0.0025  0.3568  0.6578
  735TMC3     O10918   2.258   0.532  12.405 -0.2588 -0.1569  0.8037
  735TMC3     H10919   2.086   0.406  12.531 -0.9972  0.3395  1.3072
  735TMC3    H110920   2.478   0.439  12.714  1.0094 -0.3025 -1.0202
  735TMC3    H210921   2.321   0.062  12.594  0.6533  0.1827 -0.9790
  735TMC3    C710922   2.530   0.196  12.623 -0.4797  0.1755  0.1469
  735TMC3    C810923   2.175   0.183  12.429 -0.2583 -0.3704 -0.3386
  735TMC3    O110924   2.565   0.268  12.532  0.5369  0.8649 -0.9526
  735TMC3    O210925   2.163   0.062  12.420  0.0805  0.0010  0.1940
  736MPD2     C10926   2.753   4.685  12.749  0.1562  0.3441 -0.5455
  736MPD2    C110927   2.705   0.029  12.655  0.9092 -1.2673  0.2141
  736MPD2    C210928   2.787   0.074  12.559 -0.1241 -0.0473 -0.2060
  736MPD2    C310929   2.914   0.019  12.548  0.0241 -1.0114  0.4175
  736MPD2    C410930   2.965   4.677  12.644 -0.4981 -0.3527  0.1450
  736MPD2    C510931   2.880   4.635  12.740 -0.2257  0.9068  0.3276
  736MPD2     H10932   2.753   0.150  12.490  0.3097 -0.7982 -1.2378
  736MPD2    H110933   3.070   4.652  12.645 -0.9639 -2.3318 -0.4019
  736MPD2    H210934   2.691   4.642  12.827 -0.7540 -0.9751 -2.0086
  736MPD2    H310935   2.922   4.570  12.816 -3.0965 -0.3026  0.8707
  736MPD2     N10936   3.014   0.058  12.452  0.9826 -0.0392  0.6217
  736MPD2    H510937   3.104   0.011  12.456  0.9612 -0.0042  1.5328
  736MPD2    N110938   2.585   0.087  12.687  0.1198 -1.0104  0.7077
  736MPD2    H710939   2.541   0.059  12.774 -2.7362 -2.4955 -1.1987
  737TMC3    C110940   3.118   0.199  12.284 -0.4655 -0.0358  0.1720
  737TMC3    C210941   3.107   0.326  12.225  0.0990 -0.7765 -0.0264
  737TMC3    C310942   3.208   0.356  12.142 -1.0175  0.9621 -0.9497
  737TMC3    C410943   3.220   0.110  12.251  0.2982  0.0812 -0.1410
  737TMC3    C510944   3.316   0.148  12.167 -0.7812  0.1640 -0.7235
  737TMC3    C610945   3.316   0.276  12.109  0.3393 -0.2487  0.1128
  737TMC3     C10946   2.999   0.166  12.368 -0.1288  0.2032  0.8664
  737TMC3     O10947   2.905   0.243  12.349 -0.0725  0.6522  0.7988
  737TMC3     H10948   3.035   0.399  12.262  0.6922  0.4443 -1.2624
  737TMC3    H110949   3.227   0.009  12.288  0.4582  0.7399  1.6318
  737TMC3    H210950   3.392   0.303  12.038 -0.0770  1.7899  0.4502
  737TMC3    C710951   3.417   0.055  12.132  0.9341 -1.0625 -0.4466
  737TMC3    C810952   3.200   0.485  12.073 -0.0966  0.0231 -0.8578
  737TMC3    O110953   3.416   4.691  12.190 -0.0066  0.2231  0.1433
  737TMC3    O210954   3.309   0.528  12.038  0.1469 -0.1777 -0.5064
  738MPD2     C10955   2.987   3.988  14.944 -0.2682 -0.6454 -0.5910
  738MPD2    C110956   3.048   3.881  15.001  0.5621  0.3436 -0.7951
  738MPD2    C210957   3.183   3.889  15.040  0.0299  0.2466 -0.2363
  738MPD2    C310958   3.253   4.005  15.038  0.1596 -0.5607  0.0319
  738MPD2    C410959   3.182   4.116  14.995  0.4022 -0.5744  0.2657
  738MPD2    C510960   3.057   4.102  14.950 -0.1548 -0.0039  0.1700
  738MPD2     H10961   3.230   3.793  15.059  0.9166  0.7566  0.1293
  738MPD2    H110962   3.233   4.211  14.985  1.0104 -0.6043  2.8633
  738MPD2    H210963   2.891   3.991  14.894  0.9061 -0.8912 -2.8427
  738MPD2    H310964   3.022   4.192  14.901 -1.5930 -1.0478 -0.7029
  738MPD2     N10965   3.387   4.018  15.081  0.7042  0.5661  0.4156
  738MPD2    H510966   3.443   3.933  15.083 -1.9494 -1.2293 -1.0540
  738MPD2    N110967   2.989   3.753  15.001 -0.0777 -1.0267 -0.5432
  738MPD2    H710968   3.057   3.690  15.041 -0.5916 -0.0511  1.8402
  739TMC3    C110969   3.571   4.174  15.112  0.0069  0.7897 -0.1131
  739TMC3    C210970   3.605   4.158  14.982 -0.3235  0.0952 -0.2343
  739TMC3    C310971   3.711   4.231  14.934  0.2293 -0.0856 -0.6448
  739TMC3    C410972   3.640   4.265  15.199  0.3070  0.2371 -0.6158
  739TMC3    C510973   3.748   4.335  15.143  0.4730 -0.0775 -0.4090
  739TMC3    C610974   3.786   4.317  15.015  0.8055  0.5517 -0.0279
  739TMC3     C10975   3.435   4.134  15.141  0.1218 -0.1356  0.1392
  739TMC3     O10976   3.368   4.221  15.201  0.1578  0.0717 -0.2092
  739TMC3     H10977   3.541   4.104  14.913  1.0132  0.0660 -1.4615
  739TMC3    H110978   3.594   4.289  15.295  0.4600 -0.6010 -0.3332
  739TMC3    H210979   3.878   4.354  14.973  1.0912 -0.0677  0.0579
  739TMC3    C710980   3.834   4.422  15.226 -0.5596 -0.3304 -0.3946
  739TMC3    C810981   3.730   4.219  14.789  0.0660  0.7083  0.2331
  739TMC3    O110982   3.943   4.454  15.181 -0.4794 -0.0675 -0.4595
  739TMC3    O210983   3.654   4.145  14.731 -0.0023 -0.7310  0.0867
  740TMC3    C110984   4.235   0.535  14.756  0.2020  0.0173  0.7173
  740TMC3    C210985   4.274   0.494  14.881  0.0599 -0.4061  0.8292
  740TMC3    C310986   4.396   0.438  14.899 -1.0924  0.5351  0.4682
  740TMC3    C410987   4.328   0.534  14.652  0.5108  0.6723  0.1327
  740TMC3    C510988   4.455   0.494  14.679  0.0339  0.0085 -0.1773
  740TMC3    C610989   4.496   0.439  14.805 -0.2818 -0.5889  0.3859
  740TMC3     C10990   4.095   0.587  14.737  0.1151  0.4293 -0.1550
  740TMC3     O10991   4.085   0.674  14.651  0.3654 -0.0133  0.1849
  740TMC3     H10992   4.204   0.492  14.963  1.1442  1.5634  1.8083
  740TMC3    H110993   4.305   0.576  14.555  0.0016  0.4608  0.1651
  740TMC3    H210994   4.596   0.404  14.828  0.1890  0.5499  0.0352
  740TMC3    C710995   4.545   0.457  14.568  0.0682 -0.6623  0.2841
  740TMC3    C810996   4.430   0.369  15.023  0.5901  0.0202  0.4847
  740TMC3    O110997   4.631   0.370  14.598  0.1251  0.1257  0.3623
  740TMC3    O210998   4.362   0.395  15.121  0.0858 -0.0352  0.2654
  741TMC3    C110999   3.594   4.595  14.609 -0.6407  0.7346 -0.3397
  741TMC3    C211000   3.493   4.542  14.530  0.4883 -0.5388 -0.0466
  741TMC3    C311001   3.404   4.473  14.597  0.0615  0.5639 -0.1682
  741TMC3    C411002   3.600   4.579  14.745 -0.1421  0.2310 -0.4191
  741TMC3    C511003   3.498   4.504  14.801  0.5559  0.5065 -0.0582
  741TMC3    C611004   3.399   4.454  14.729 -0.0517  0.1699 -0.1699
  741TMC3     C11005   3.700   4.676  14.550 -0.0757  0.4579 -0.1650
  741TMC3     O11006   3.812   4.667  14.605 -0.2759  0.1383 -0.5580
  741TMC3     H11007   3.486   4.536  14.422  1.3600 -1.5296 -0.0509
  741TMC3    H111008   3.688   4.610  14.800  0.2968 -0.4534 -0.7290
  741TMC3    H211009   3.327   4.388  14.776 -0.5572  0.5202 -0.4585
  741TMC3    C711010   3.479   4.506  14.945 -0.2202 -0.1915 -0.3139
  741TMC3    C811011   3.283   4.435  14.518  0.5347 -0.3633 -0.1146
  741TMC3    O111012   3.394   4.430  14.985  0.2501  0.5442  0.2843
  741TMC3    O211013   3.235   4.509  14.430 -0.8294  0.0360  0.1378
  742TMC3    C111014   3.497   3.282  15.543 -0.6535 -0.0487  0.1544
  742TMC3    C211015   3.445   3.300  15.416  0.5658  0.6400  0.3701
  742TMC3    C311016   3.518   3.238  15.316  0.5599  0.1457 -0.1886
  742TMC3    C411017   3.609   3.207  15.569  0.0030  0.0683 -0.9361
  742TMC3    C511018   3.676   3.146  15.463 -0.2679  0.9754  0.3181
  742TMC3    C611019   3.628   3.162  15.339  0.8352 -0.9282 -0.1385
  742TMC3     C11020   3.410   3.294  15.654  0.6939 -0.5162  0.8390
  742TMC3     O11021   3.460   3.270  15.763  0.3666 -0.6105  0.0152
  742TMC3     H11022   3.364   3.369  15.398  0.2969  0.1328 -0.4062
  742TMC3    H111023   3.638   3.183  15.670  0.6719  2.3999 -0.5649
  742TMC3    H211024   3.681   3.110  15.260 -0.1657 -0.3411 -1.1806
  742TMC3    C711025   3.762   3.034  15.491 -0.3650 -0.2140 -0.7074
  742TMC3    C811026   3.437   3.186  15.200  0.0294 -0.2259  0.7353
  742TMC3    O111027   3.860   3.023  15.416 -0.3225  0.3749  0.5087
  742TMC3    O211028   3.465   3.076  15.159 -0.0946 -0.3887 -0.4728
  743MPD2     C11029   1.259   0.566   1.233 -0.6918  0.1677 -0.2349
  743MPD2    C111030   1.306   0.445   1.183 -0.0758 -0.0726  0.4656
  743MPD2    C211031   1.410   0.380   1.253 -0.1676  0.0421  0.8736
  743MPD2    C311032   1.466   0.428   1.365 -0.3458  0.3176  0.6780
  743MPD2    C411033   1.412   0.544   1.418  0.7927  0.2470  0.0671
  743MPD2    C511034   1.313   0.610   1.350  0.4253 -0.1299  0.2085
  743MPD2     H11035   1.441   0.284   1.215 -0.6951 -0.2957  1.2974
  743MPD2    H111036   1.449   0.579   1.514  1.8500 -1.2524  0.2028
  743MPD2    H211037   1.178   0.625   1.193 -0.1183  0.5125 -0.8910
  743MPD2    H311038   1.255   0.692   1.388  0.4647 -0.0988  0.2013
  743MPD2     N11039   1.557   0.341   1.429  0.1526 -0.2113 -0.2778
  743MPD2    H511040   1.573   0.259   1.372 -1.2870 -1.1702  0.6872
  743MPD2    N111041   1.250   0.402   1.058  0.1026  0.1426 -0.0709
  743MPD2    H711042   1.161   0.440   1.030  0.0460 -0.7900 -1.1129
  744TMC3    C111043   1.210   0.249   0.873 -0.9608  0.2949 -0.3392
  744TMC3    C211044   1.124   0.335   0.816 -0.1127 -0.0613 -0.4527
  744TMC3    C311045   1.076   0.308   0.693  0.1706 -0.0363  0.4084
  744TMC3    C411046   1.250   0.126   0.817  0.0762  0.4347 -0.5308
  744TMC3    C511047   1.189   0.095   0.700 -0.8178  0.6415  0.4579
  744TMC3    C611048   1.109   0.188   0.633  0.1139  0.1816  0.2658
  744TMC3     C11049   1.297   0.292   0.983 -0.7225 -0.0464 -0.3793
  744TMC3     O11050   1.401   0.224   0.996  0.3606 -0.1739  0.0406
  744TMC3     H11051   1.111   0.440   0.842  0.2454  0.1625 -1.1967
  744TMC3    H111052   1.325   0.062   0.862  0.3300  1.2860  0.2693
  744TMC3    H211053   1.054   0.162   0.544  2.2504  1.3102 -1.3662
  744TMC3    C711054   1.245   4.721   0.627  0.4055  0.4208  0.2832
  744TMC3    C811055   0.973   0.392   0.641 -0.3766  0.1377  0.0035
  744TMC3    O111056   1.323   4.655   0.692 -0.3897  0.2898  0.9131
  744TMC3    O211057   0.940   0.360   0.531 -0.0280  0.2561  0.5772
  745TMC3    C111058   3.573   2.347  13.684  0.9096  0.2680 -0.5339
  745TMC3    C211059   3.508   2.386  13.798 -0.4302  0.3282 -0.0586
  745TMC3    C311060   3.375   2.416  13.775  0.0869  0.3323  0.8526
  745TMC3    C411061   3.518   2.304  13.572  0.6857  0.2567 -0.1671
  745TMC3    C511062   3.391   2.328  13.558  0.7249 -0.4653 -0.3684
  745TMC3    C611063   3.317   2.389  13.655 -0.0961 -0.4614 -0.3116
  745TMC3     C11064   3.691   2.427  13.662  0.2792 -0.3478  0.4791
  745TMC3     O11065   3.693   2.534  13.725 -0.3338 -0.1490 -0.5477
  745TMC3     H11066   3.566   2.406  13.887  0.8119 -0.7400 -0.6418
  745TMC3    H111067   3.582   2.277  13.489 -1.1107  0.9558 -1.7775
  745TMC3    H211068   3.216   2.424  13.635  1.2108  2.7692 -1.2806
  745TMC3    C711069   3.333   2.315  13.424 -0.6386  0.0759  0.1629
  745TMC3    C811070   3.332   2.537  13.833  0.0825 -0.5139  0.0577
  745TMC3    O111071   3.301   2.208  13.378  0.1240 -0.3722 -0.2175
  745TMC3    O211072   3.217   2.568  13.821  0.1318  0.6771 -0.8782
  746TMC3    C111073   1.739   4.627  11.029  0.0718  0.0696  0.0596
  746TMC3    C211074   1.796   4.638  10.907  0.6338  0.0416  0.6303
  746TMC3    C311075   1.806   4.529  10.826  0.3466 -0.9465 -0.7318
  746TMC3    C411076   1.698   4.502  11.070 -0.0361  0.1982  0.2422
  746TMC3    C511077   1.698   4.391  10.994 -0.3777 -0.0947  0.6570
  746TMC3    C611078   1.752   4.410  10.870  0.0374 -0.4291  0.0863
  746TMC3     C11079   1.712   0.002  11.110  0.7332  0.6163 -0.3813
  746TMC3     O11080   1.701   4.732  11.232 -0.8110  0.3043  0.4887
  746TMC3     H11081   1.847   4.731  10.882 -2.3323  1.2982 -0.7236
  746TMC3    H111082   1.648   4.505  11.166  0.0818  3.3815  0.1986
  746TMC3    H211083   1.778   4.324  10.809 -0.2586 -1.0170  0.7871
  746TMC3    C711084   1.559   4.342  10.967 -0.2315 -0.4873  0.2656
  746TMC3    C811085   1.880   4.526  10.703 -0.2671  0.0879 -0.3570
  746TMC3    O111086   1.539   4.237  10.903 -0.2738  0.1411  0.2006
  746TMC3    O211087   1.941   4.426  10.671  0.0491  0.0250 -0.0501
  747TMC3    C111088   4.062   0.112  11.288  0.1236  0.0571 -0.1643
  747TMC3    C211089   4.016   0.014  11.371  0.2208 -0.5277 -0.0685
  747TMC3    C311090   3.991   0.054  11.500 -0.0285 -0.2077  0.7947
  747TMC3    C411091   4.091   0.239  11.324 -0.0508  1.3675  0.1365
  747TMC3    C511092   4.073   0.269  11.458 -0.2915  0.4471 -0.3700
  747TMC3    C611093   4.032   0.177  11.548  0.9330 -0.8585 -0.2806
  747TMC3     C11094   4.069   0.087  11.143  0.0814  0.7796  0.4714
  747TMC3     O11095   4.135   0.173  11.085 -0.3482 -0.2724 -0.0386
  747TMC3     H11096   3.995   4.654  11.349  2.7630 -1.0049 -0.1715
  747TMC3    H111097   4.132   0.316  11.260 -0.4936  0.5251 -1.1581
  747TMC3    H211098   4.034   0.190  11.655  2.3866  2.4380 -0.6990
  747TMC3    C711099   4.068   0.413  11.505 -0.3984 -1.4360 -0.4503
  747TMC3    C811100   3.895   4.714  11.572 -0.4965  0.0080  0.1266
  747TMC3    O111101   4.081   0.431  11.627 -0.3527  0.3547  0.0364
  747TMC3    O211102   3.912   4.594  11.563  0.1492 -0.0307  0.3966
  748MPD2     C11103   1.042   1.546   1.668 -0.2112  0.2043  0.5559
  748MPD2    C111104   1.000   1.481   1.555  0.1196 -0.0132 -0.4468
  748MPD2    C211105   1.083   1.390   1.495 -0.6457  0.2777 -0.1117
  748MPD2    C311106   1.212   1.373   1.551 -0.1210 -0.1999 -0.0844
  748MPD2    C411107   1.254   1.446   1.661  0.2427  0.2111 -0.2617
  748MPD2    C511108   1.166   1.530   1.717  0.6200  0.6305  0.3369
  748MPD2     H11109   1.048   1.344   1.404  0.5169 -0.2778 -0.2766
  748MPD2    H111110   1.353   1.434   1.705  0.6698 -0.0130 -1.2835
  748MPD2    H211111   0.985   1.614   1.729 -2.0550 -3.2096  2.6716
  748MPD2    H311112   1.204   1.588   1.800  0.5303  0.9986  0.1183
  748MPD2     N11113   1.303   1.287   1.482 -0.1582 -0.3527  0.0491
  748MPD2    H511114   1.281   1.252   1.389 -1.2545  0.8823 -0.1569
  748MPD2    N111115   0.875   1.499   1.508  0.3336  0.3039  0.7208
  748MPD2    H711116   0.827   1.573   1.559  0.9589  1.0355  0.2509
  749TMC3    C111117   1.488   1.143   1.460 -0.8163  0.2114 -0.5915
  749TMC3    C211118   1.528   1.029   1.524  0.8399 -0.1823  0.7981
  749TMC3    C311119   1.589   0.928   1.457 -0.2984 -0.1111 -0.8976
  749TMC3    C411120   1.512   1.160   1.328 -0.2036  0.9280  0.2129
  749TMC3    C511121   1.579   1.056   1.265 -0.9456 -0.5396 -0.0781
  749TMC3    C611122   1.616   0.938   1.323 -0.1265 -0.4917  0.4791
  749TMC3     C11123   1.417   1.234   1.544  0.0145 -0.5024 -0.3552
  749TMC3     O11124   1.436   1.232   1.668 -0.0628  0.3955  0.2500
  749TMC3     H11125   1.497   1.027   1.628  0.2820 -0.3290  0.6313
  749TMC3    H111126   1.494   1.251   1.272  1.7987  0.6406 -0.8755
  749TMC3    H211127   1.677   0.868   1.267 -0.7989 -1.3188  0.7932
  749TMC3    C711128   1.608   1.073   1.124  0.0039 -0.0348 -0.9440
  749TMC3    C811129   1.657   0.832   1.543 -0.3765  0.5226 -0.1907
  749TMC3    O111130   1.613   1.188   1.078 -0.5237 -0.1156 -0.3221
  749TMC3    O211131   1.654   0.852   1.664  0.6502 -0.4231  0.7138
  750MPD2     C11132   1.013   1.979  11.511  0.2325  0.1188  0.8884
  750MPD2    C111133   1.005   1.872  11.596  0.4375  0.1063 -0.4697
  750MPD2    C211134   1.014   1.746  11.543 -0.1777  1.0567 -0.7868
  750MPD2    C311135   1.020   1.730  11.400 -0.4064 -1.0342 -0.4088
  750MPD2    C411136   1.006   1.841  11.320 -0.4240  0.2965 -0.2085
  750MPD2    C511137   1.000   1.967  11.377 -0.2579 -0.0988 -0.0858
  750MPD2     H11138   1.034   1.661  11.607 -0.0112 -0.1020 -2.3793
  750MPD2    H111139   1.021   1.832  11.213 -2.6068  0.4262 -0.5126
  750MPD2    H211140   1.001   2.079  11.552  2.7873  0.6685  0.2907
  750MPD2    H311141   1.013   2.056  11.316 -1.2466 -0.9631 -1.5622
  750MPD2     N11142   1.060   1.607  11.334 -0.1834 -0.5171  0.2553
  750MPD2    H511143   1.059   1.602  11.233 -0.9848 -0.5781  0.2678
  750MPD2    N111144   0.999   1.891  11.731 -0.0187  0.1812  0.3518
  750MPD2    H711145   1.021   1.982  11.770  1.2878  0.2024 -0.4460
  751TMC3    C111146   1.172   1.406  11.317 -0.6949 -0.8679 -1.2533
  751TMC3    C211147   1.243   1.307  11.374  0.4426 -0.2489 -0.0638
  751TMC3    C311148   1.312   1.220  11.297 -0.1009 -0.0410 -0.7918
  751TMC3    C411149   1.176   1.426  11.180 -0.3531  0.3621  0.4754
  751TMC3    C511150   1.251   1.338  11.109  0.4362 -0.8049  0.5116
  751TMC3    C611151   1.315   1.228  11.162  0.2556 -0.1298 -0.0672
  751TMC3     C11152   1.103   1.496  11.402  1.1293  0.2876  0.0162
  751TMC3     O11153   1.100   1.465  11.522 -0.1534  0.3378 -0.3014
  751TMC3     H11154   1.252   1.303  11.482  0.5575  0.2795 -0.0581
  751TMC3    H111155   1.125   1.510  11.134 -0.6779  0.2887  0.7026
  751TMC3    H211156   1.376   1.163  11.099  1.4205 -0.9183  1.8823
  751TMC3    C711157   1.234   1.331  10.966 -0.0194  0.1111 -0.2266
  751TMC3    C811158   1.367   1.092  11.334 -0.0657  0.5192  0.2813
  751TMC3    O111159   1.323   1.278  10.904  0.5278  0.0923 -0.5832
  751TMC3    O211160   1.346   1.003  11.246 -0.4309 -0.4240  0.1472
  752TMC3    C111161   0.593   1.771  17.478  0.2385 -0.0216 -0.2094
  752TMC3    C211162   0.638   1.661  17.528 -0.1292  0.6358 -0.4807
  752TMC3    C311163   0.574   1.607  17.631 -0.4771  0.1159  0.1534
  752TMC3    C411164   0.489   1.839  17.531  0.8732 -0.0584 -0.9522
  752TMC3    C511165   0.425   1.774  17.640 -0.7168 -0.5546 -0.2700
  752TMC3    C611166   0.462   1.651  17.691 -0.0217 -0.1771  0.1085
  752TMC3     C11167   0.628   1.797  17.346 -0.4672 -0.3463 -0.1024
  752TMC3     O11168   0.750   1.785  17.322  0.4192 -0.0664 -0.0243
  752TMC3     H11169   0.718   1.606  17.480  1.8947  0.3964  3.1175
  752TMC3    H111170   0.465   1.940  17.501  3.4073  1.4432  2.1183
  752TMC3    H211171   0.420   1.606   0.008  1.7685  0.6423  1.3771
  752TMC3    C711172   0.315   1.848  17.692  0.4467 -0.3795  0.7640
  752TMC3    C811173   0.633   1.495  17.689 -0.0700 -0.2366 -0.0923
  752TMC3    O111174   0.310   1.963  17.648  0.1393  0.1077 -0.0469
  752TMC3    O211175   0.566   1.393  17.691  0.3378 -0.0166  0.3367
  753TMC3    C111176   2.092   2.642  13.330 -0.4003  0.8079 -0.7417
  753TMC3    C211177   2.097   2.654  13.471  0.0869 -0.1710 -0.3229
  753TMC3    C311178   2.040   2.552  13.541 -0.2797 -0.3519 -0.4613
  753TMC3    C411179   2.036   2.534  13.268 -0.2881 -0.0083 -0.5997
  753TMC3    C511180   1.969   2.445  13.344  0.2026 -0.4283  0.1278
  753TMC3    C611181   1.974   2.449  13.481  0.1295 -0.4719  0.4434
  753TMC3     C11182   2.087   2.767  13.251  0.6022 -0.0071  0.3416
  753TMC3     O11183   2.036   2.761  13.140 -0.0731 -0.2560  0.1976
  753TMC3     H11184   2.130   2.745  13.519  2.3259 -0.1983 -1.8354
  753TMC3    H111185   2.039   2.528  13.160  1.7433 -1.6639 -0.4532
  753TMC3    H211186   1.930   2.368  13.538 -0.0215  1.0263  2.4593
  753TMC3    C711187   1.913   2.331  13.280 -0.0316  0.0574  0.5394
  753TMC3    C811188   2.064   2.547  13.684  0.4008  0.0207 -0.0928
  753TMC3    O111189   1.956   2.292  13.171  0.2358 -0.0245 -0.2153
  753TMC3    O211190   2.072   2.435  13.729 -0.1236 -0.6217  0.6803
  754MPD2     C11191   1.479   1.555  13.539 -0.2281 -0.3632  0.2383
  754MPD2    C111192   1.446   1.432  13.585 -0.6407 -0.4599  0.4962
  754MPD2    C211193   1.322   1.382  13.555  0.4258 -0.5665  1.0688
  754MPD2    C311194   1.226   1.457  13.485  0.4744  0.4569  0.2823
  754MPD2    C411195   1.262   1.584  13.452 -0.1465 -0.4506 -0.4239
  754MPD2    C511196   1.387   1.629  13.471 -0.1227  0.4062 -0.5603
  754MPD2     H11197   1.297   1.280  13.580 -0.4970 -0.7079 -0.4485
  754MPD2    H111198   1.184   1.634  13.396 -1.1705 -1.1431  0.3847
  754MPD2    H211199   1.577   1.590  13.568 -1.2077  0.7914  2.1565
  754MPD2    H311200   1.419   1.727  13.440  0.6343  0.1819 -0.4805
  754MPD2     N11201   1.094   1.409  13.457 -0.3552 -0.1000 -0.1848
  754MPD2    H511202   1.048   1.471  13.391 -0.7519 -1.1627 -0.9041
  754MPD2    N111203   1.548   1.363  13.659  0.4620 -0.4099 -0.0431
  754MPD2    H711204   1.641   1.403  13.661 -0.2251  1.2151 -0.6864
  755MPD2     C11205   0.289   1.850  13.499  0.9146  0.5277  0.8409
  755MPD2    C111206   0.269   1.720  13.531  0.1612 -1.0987 -0.2973
  755MPD2    C211207   0.372   1.633  13.532  0.8451  0.4056  0.0850
  755MPD2    C311208   0.495   1.664  13.475 -0.0740 -0.0732 -0.6592
  755MPD2    C411209   0.519   1.794  13.438 -0.2715 -0.3439 -0.3487
  755MPD2    C511210   0.412   1.883  13.448 -0.7268  0.5560 -0.5136
  755MPD2     H11211   0.356   1.528  13.552 -0.6472  0.7338  0.5912
  755MPD2    H111212   0.608   1.822  13.383 -0.3187  0.1528 -0.1753
  755MPD2    H211213   0.210   1.924  13.488  0.6536 -0.0899 -1.4068
  755MPD2    H311214   0.435   1.983  13.412 -0.4308  1.0899  1.1780
  755MPD2     N11215   0.593   1.569  13.435  0.1818  0.1822 -0.6952
  755MPD2    H511216   0.678   1.612  13.399  0.0205 -0.3525 -1.6934
  755MPD2    N111217   0.146   1.671  13.572 -0.2948  1.1666 -0.3602
  755MPD2    H711218   0.141   1.570  13.585 -0.3923  0.8921 -2.6099
  756MPD2     C11219   0.325   1.940   9.894 -0.3466  0.3632  0.3548
  756MPD2    C111220   0.370   1.815   9.932  0.0428  0.3727 -0.6542
  756MPD2    C211221   0.287   1.705   9.950 -0.2033 -0.1680 -0.4837
  756MPD2    C311222   0.150   1.725   9.942 -0.0432 -0.2604  0.2438
  756MPD2    C411223   0.099   1.858   9.909  0.0307 -0.0997 -0.1023
  756MPD2    C511224   0.193   1.955   9.884  0.0374  0.5806 -0.6926
  756MPD2     H11225   0.320   1.618  10.006 -0.1034  0.4025  0.3512
  756MPD2    H111226   4.738   1.883   9.898 -0.0703 -1.0988 -1.4093
  756MPD2    H211227   0.393   2.019   9.864 -2.4487  2.8609  2.2134
  756MPD2    H311228   0.160   2.055   9.857  1.6103  1.8035  1.8931
  756MPD2     N11229   0.059   1.624   9.986 -0.3331  0.2635 -0.2835
  756MPD2    H511230   0.099   1.531   9.991  0.1114  0.4666 -0.1295
  756MPD2    N111231   0.509   1.793   9.962  0.0135  0.2090  0.3890
  756MPD2    H711232   0.532   1.697   9.984 -0.5810  0.3196  1.5308
  757MPD2     C11233   0.384   0.915  10.242  0.1412 -0.0385  0.0915
  757MPD2    C111234   0.402   1.015  10.154  0.3816  1.2500  0.4073
  757MPD2    C211235   0.308   1.117  10.151  0.0549 -0.0469  0.8608
  757MPD2    C311236   0.191   1.106  10.221 -0.3936 -0.3608 -0.3271
  757MPD2    C411237   0.169   1.003  10.309 -0.9967 -0.5759  0.2239
  757MPD2    C511238   0.267   0.906  10.315 -0.1308  0.0532  1.1890
  757MPD2     H11239   0.313   1.197  10.077  1.8961 -0.3076  0.7128
  757MPD2    H111240   0.084   0.989  10.376  0.3434 -0.0847  2.0173
  757MPD2    H211241   0.451   0.830  10.253 -0.5862 -0.5355  0.6165
  757MPD2    H311242   0.259   0.828  10.389 -0.2375 -0.0415  1.0772
  757MPD2     N11243   0.095   1.203  10.183  0.2552 -0.0917  0.2287
  757MPD2    H511244   0.120   1.272  10.113  1.0057 -0.6944 -0.0998
  757MPD2    N111245   0.512   1.018  10.064  0.6539 -0.0953 -0.0398
  757MPD2    H711246   0.567   0.934  10.049 -2.0352 -1.8297 -0.2082
  758MPD2     C11247   1.049   1.077  15.894 -0.2454  0.3345  0.3178
  758MPD2    C111248   1.142   1.022  15.984  0.0090 -0.0180  0.2230
  758MPD2    C211249   1.199   1.112  16.066  0.5200  0.4212 -0.7584
  758MPD2    C311250   1.170   1.251  16.054 -0.1585  0.6514  0.2192
  758MPD2    C411251   1.069   1.294  15.977  0.2212  0.1715 -0.3361
  758MPD2    C511252   1.013   1.208  15.895 -0.1044  0.4525 -0.8484
  758MPD2     H11253   1.272   1.082  16.140 -0.9324  0.5968  0.7510
  758MPD2    H111254   1.021   1.391  15.983  2.4604  1.1516  1.6202
  758MPD2    H211255   1.002   1.005  15.828 -0.9705  1.7742 -0.7305
  758MPD2    H311256   0.946   1.243  15.818  0.4459 -0.2544 -1.6569
  758MPD2     N11257   1.222   1.344  16.147 -0.4338 -0.0186  0.5559
  758MPD2    H511258   1.171   1.432  16.161 -1.4660 -0.5984  0.4561
  758MPD2    N111259   1.183   0.888  15.982  0.1656 -0.0257  0.7638
  758MPD2    H711260   1.139   0.832  15.910 -1.1407  0.8952  0.8496
  759MPD2     C11261   0.351   3.853  10.192 -0.2025  0.0390 -0.0184
  759MPD2    C111262   0.269   3.905  10.284 -0.3765  1.5404 -0.7193
  759MPD2    C211263   0.246   4.040  10.292 -0.1048  0.3469 -1.4934
  759MPD2    C311264   0.322   4.128  10.213 -0.8803  0.5532 -0.1253
  759MPD2    C411265   0.417   4.079  10.126  0.3975 -0.2581 -0.1954
  759MPD2    C511266   0.422   3.938  10.120 -0.2029  0.4787 -1.2365
  759MPD2     H11267   0.175   4.071  10.368 -0.0544  2.9611 -2.5107
  759MPD2    H111268   0.481   4.130  10.055 -1.6038  1.9806 -0.3808
  759MPD2    H211269   0.358   3.746  10.175  5.3051  1.0851 -4.5273
  759MPD2    H311270   0.498   3.891  10.059 -0.5971 -1.6641 -0.0535
  759MPD2     N11271   0.295   4.266  10.229  0.0332 -0.1647 -0.2080
  759MPD2    H511272   0.228   4.294  10.300 -0.6937  0.2333 -1.0524
  759MPD2    N111273   0.201   3.832  10.379  0.1685 -0.3206 -0.1396
  759MPD2    H711274   0.130   3.880  10.433  0.9093  0.7736 -0.1304
  760MPD2     C11275   4.129   1.651  12.199  0.2757 -0.0111  0.3364
  760MPD2    C111276   4.252   1.697  12.238  0.3129 -0.6949  0.0410
  760MPD2    C211277   4.332   1.618  12.315  0.4776 -0.8325 -0.6580
  760MPD2    C311278   4.283   1.498  12.356 -0.3310  0.5269  0.0310
  760MPD2    C411279   4.155   1.455  12.315 -0.2125 -0.2418 -0.2495
  760MPD2    C511280   4.080   1.532  12.240  0.1942  0.6276  0.1930
  760MPD2     H11281   4.431   1.657  12.336  0.7257 -2.0756  0.5462
  760MPD2    H111282   4.119   1.356  12.340  1.9682 -0.7150  1.0703
  760MPD2    H211283   4.071   1.716  12.134 -0.5534 -1.4491 -0.3612
  760MPD2    H311284   3.981   1.498  12.213  0.4672 -0.0340  0.0242
  760MPD2     N11285   4.353   1.405  12.432 -0.2861  0.2138 -0.4049
  760MPD2    H511286   4.297   1.322  12.448  0.6773 -0.1284  1.1392
  760MPD2    N111287   4.311   1.805  12.177  0.6778 -0.2858 -0.2814
  760MPD2    H711288   4.403   1.825  12.215 -0.5858  2.3483  1.3777
  761MPD2     C11289   1.290   0.745  11.697 -0.2715  0.4517  0.0137
  761MPD2    C111290   1.284   0.733  11.563  0.2011  0.8215  0.0288
  761MPD2    C211291   1.323   0.842  11.488 -0.5059 -0.4915  0.2829
  761MPD2    C311292   1.349   0.966  11.545  0.0156 -0.2566  0.0804
  761MPD2    C411293   1.336   0.972  11.684  0.5815 -0.2064  0.2386
  761MPD2    C511294   1.312   0.861  11.758  1.2442 -0.6844  0.4112
  761MPD2     H11295   1.332   0.825  11.382 -2.2143 -0.1170  0.0855
  761MPD2    H111296   1.357   1.063  11.740 -1.0036 -0.7535  1.7206
  761MPD2    H211297   1.280   0.661  11.765  0.2602 -0.1167 -0.6006
  761MPD2    H311298   1.330   0.870  11.864 -2.9797  1.2779  0.9604
  761MPD2     N11299   1.375   1.083  11.468 -0.2445 -0.1627 -0.6125
  761MPD2    H511300   1.382   1.167  11.524 -2.1785 -0.8688  0.6836
  761MPD2    N111301   1.247   0.615  11.505  0.5202 -0.1800  0.2511
  761MPD2    H711302   1.210   0.543  11.567  1.8406  0.5925  1.9511
  762MPD2     C11303   0.900   0.099  10.810 -0.0933  0.3494 -0.8802
  762MPD2    C111304   0.964   0.215  10.842 -0.4269  0.0038  0.6235
  762MPD2    C211305   1.042   0.271  10.743  0.4908 -0.5077  0.0595
  762MPD2    C311306   1.061   0.209  10.624 -0.0101  0.3089 -0.6982
  762MPD2    C411307   0.989   0.097  10.586 -0.4402 -0.1702 -0.2060
  762MPD2    C511308   0.908   0.043  10.683 -0.3898  0.6993 -0.3153
  762MPD2     H11309   1.110   0.354  10.758 -1.2203  1.0094 -0.5676
  762MPD2    H111310   1.007   0.042  10.494 -2.0550  1.5418 -1.5408
  762MPD2    H211311   0.835   0.048  10.880 -0.7062  1.0275 -0.9589
  762MPD2    H311312   0.846   4.699  10.669  0.7226  0.0900 -1.3717
  762MPD2     N11313   1.162   0.262  10.538  0.4594 -0.1945  0.1290
  762MPD2    H511314   1.207   0.351  10.558  0.5184  0.2566 -2.0014
  762MPD2    N111315   0.955   0.269  10.974  0.1901 -0.4959 -0.4701
  762MPD2    H711316   0.893   0.223  11.039  2.8195  0.5472  2.7629
  763MPD2     C11317   3.173   1.047  16.206  0.0906  0.2977 -0.3816
  763MPD2    C111318   3.078   1.134  16.166 -0.3759  0.3742  0.8165
  763MPD2    C211319   3.099   1.272  16.181  0.1824  0.2417 -0.0253
  763MPD2    C311320   3.219   1.323  16.219  0.2207 -0.7256 -0.1892
  763MPD2    C411321   3.317   1.231  16.244 -0.9377 -0.2983 -0.1697
  763MPD2    C511322   3.289   1.102  16.251 -0.1311  0.0274  0.1194
  763MPD2     H11323   3.012   1.337  16.176 -0.8004 -1.0509  0.1503
  763MPD2    H111324   3.419   1.261  16.262 -0.3906 -2.7400  0.8326
  763MPD2    H211325   3.171   0.939  16.195  0.7708  0.3990 -1.5749
  763MPD2    H311326   3.367   1.028  16.260 -0.6601 -0.9624 -3.1848
  763MPD2     N11327   3.246   1.459  16.236  0.1189 -0.3979 -0.3232
  763MPD2    H511328   3.342   1.476  16.264 -0.0575 -1.8451  1.1367
  763MPD2    N111329   2.952   1.089  16.109  0.1953 -0.1483 -0.1149
  763MPD2    H711330   2.878   1.157  16.094 -0.6047 -0.5676  1.9584
  764MPD2     C11331   1.072   3.130   0.116  0.6462  0.4743  0.3195
  764MPD2    C111332   1.125   3.019   0.069  0.3466 -0.3396  0.7575
  764MPD2    C211333   1.103   2.904   0.148  0.5477  0.0029  0.2651
  764MPD2    C311334   1.042   2.912   0.268  0.1339  0.0551 -0.7107
  764MPD2    C411335   1.009   3.030   0.323 -0.0946  0.1194 -0.5897
  764MPD2    C511336   1.010   3.137   0.240  0.4593  0.3506 -0.0118
  764MPD2     H11337   1.125   2.803   0.117  4.0235  0.3966  1.4416
  764MPD2    H111338   0.964   3.049   0.420  0.1978  0.2909 -0.4883
  764MPD2    H211339   1.061   3.221   0.059 -0.7223  1.1704  1.7130
  764MPD2    H311340   0.987   3.237   0.277  0.2923 -0.4457  2.0211
  764MPD2     N11341   1.014   2.798   0.336 -0.0317 -0.4982  0.2200
  764MPD2    H511342   1.053   2.709   0.307 -1.3804 -0.6282 -1.1512
  764MPD2    N111343   1.188   3.015  17.717  0.3657 -0.2456 -0.0868
  764MPD2    H711344   1.188   3.095  17.655  1.1057  0.2993  0.6181
  765MPD2     C11345   0.779   0.189  15.836  0.1527  0.2297  0.1766
  765MPD2    C111346   0.860   0.302  15.870 -0.2710 -0.0243  0.7940
  765MPD2    C211347   1.005   0.291  15.844 -0.1861  0.7995  0.1389
  765MPD2    C311348   1.066   0.186  15.780 -0.4145 -0.0336  0.6343
  765MPD2    C411349   0.977   0.077  15.760 -0.3743  0.2842  0.1808
  765MPD2    C511350   0.845   0.077  15.795  0.0834 -0.0658 -0.2347
  765MPD2     H11351   1.062   0.380  15.869 -1.4015  1.3955  0.7878
  765MPD2    H111352   1.011   4.724  15.722 -1.7748 -0.7389  1.5212
  765MPD2    H211353   0.673   0.188  15.859  0.2835 -3.3274  0.5068
  765MPD2    H311354   0.788   4.730  15.778 -1.0020  0.3043  1.5036
  765MPD2     N11355   1.204   0.192  15.750  0.2950  0.0454 -0.1829
  765MPD2    H511356   1.260   0.273  15.776 -0.2253  0.7650 -1.2533
  765MPD2    N111357   0.795   0.405  15.936 -0.0160  0.0664 -0.2804
  765MPD2    H711358   0.695   0.389  15.947  0.2160 -0.5068  1.1140
  766MPD2     C11359   0.495   0.299  15.609 -0.2353 -0.0060 -0.2115
  766MPD2    C111360   0.451   0.430  15.592 -0.3525  1.0967 -0.2544
  766MPD2    C211361   0.418   0.478  15.463 -0.0905  0.3672  0.0443
  766MPD2    C311362   0.445   0.411  15.355 -0.2249 -0.3530 -0.1492
  766MPD2    C411363   0.493   0.283  15.373 -0.4760 -0.5515 -0.2794
  766MPD2    C511364   0.509   0.227  15.495  0.0867 -0.0024  0.3378
  766MPD2     H11365   0.383   0.580  15.453  0.2177  0.6425  1.8776
  766MPD2    H111366   0.524   0.218  15.292  0.1493 -0.1593 -0.3511
  766MPD2    H211367   0.504   0.254  15.707  1.2066  2.4833  0.8078
  766MPD2    H311368   0.549   0.126  15.499 -1.8433 -0.8177 -1.6566
  766MPD2     N11369   0.458   0.465  15.230  0.4281  0.7958 -0.0907
  766MPD2    H511370   0.497   0.406  15.158 -0.9658  1.4487 -1.4016
  766MPD2    N111371   0.432   0.518  15.707  0.6172 -0.5899 -0.1496
  766MPD2    H711372   0.405   0.614  15.688 -0.0540 -0.3442  2.1194
  767MPD2     C11373   4.598   0.861  15.115 -0.2171  0.4905  0.0487
  767MPD2    C111374   4.725   0.897  15.081  0.1469  0.6768 -0.4899
  767MPD2    C211375   0.030   0.875  14.957 -0.1580 -0.5536 -0.2933
  767MPD2    C311376   4.691   0.827  14.861 -0.0121  0.0555  0.4578
  767MPD2    C411377   4.560   0.796  14.899 -0.4502 -0.6382  0.0660
  767MPD2    C511378   4.512   0.812  15.024  0.1898  0.2600  0.7681
  767MPD2     H11379   0.129   0.901  14.920  0.4650 -0.5498  1.4058
  767MPD2    H111380   4.484   0.757  14.831 -0.8384  0.5942 -0.2041
  767MPD2    H211381   4.558   0.878  15.215 -2.3406  0.6138 -0.8267
  767MPD2    H311382   4.414   0.773  15.051  0.4654 -0.1480  1.1802
  767MPD2     N11383   0.004   0.816  14.735  0.3414 -0.0206  0.0883
  767MPD2    H511384   0.100   0.846  14.718 -0.2734  1.4323 -0.7755
  767MPD2    N111385   0.059   0.959  15.181  0.6770 -0.2677  0.0815
  767MPD2    H711386   0.024   0.956  15.276 -1.6852  0.2809 -0.7800
  768MPD2     C11387   0.811   3.730  11.273  0.5660 -0.1587  0.3168
  768MPD2    C111388   0.900   3.821  11.220 -0.5356 -0.1081  0.4838
  768MPD2    C211389   1.025   3.832  11.278 -0.3133  1.1007  0.5512
  768MPD2    C311390   1.056   3.766  11.394 -0.3773  0.7060 -1.5331
  768MPD2    C411391   0.965   3.678  11.442 -0.0530 -0.6094  0.4446
  768MPD2    C511392   0.836   3.666  11.388  0.6688 -0.4032 -0.1473
  768MPD2     H11393   1.093   3.896  11.223  1.8430  0.1928  2.1738
  768MPD2    H111394   0.989   3.613  11.526 -0.7172 -2.1771 -0.5641
  768MPD2    H211395   0.712   3.710  11.233  0.8145 -1.2988  0.2793
  768MPD2    H311396   0.775   3.582  11.420  2.2552 -1.0871  1.0855
  768MPD2     N11397   1.182   3.782  11.461 -0.7817  0.6508  0.4139
  768MPD2    H511398   1.202   3.729  11.545 -0.7696 -0.6695 -0.4189
  768MPD2    N111399   0.872   3.894  11.101  0.1791 -0.2494  0.0158
  768MPD2    H711400   0.947   3.955  11.070 -1.0221 -0.4644 -3.3969
  769MPD2     C11401   2.256   2.165  14.781 -0.1670  0.5798 -0.1948
  769MPD2    C111402   2.243   2.065  14.861 -0.0380  0.3210 -0.4682
  769MPD2    C211403   2.293   2.074  14.990 -0.3864 -0.6163  0.9539
  769MPD2    C311404   2.354   2.185  15.041  0.0280 -0.0778  0.1853
  769MPD2    C411405   2.364   2.296  14.956  0.0288  0.5874  0.5506
  769MPD2    C511406   2.330   2.274  14.825 -0.3860 -0.1524 -0.8050
  769MPD2     H11407   2.273   1.994  15.061  2.6195 -2.3255 -0.0795
  769MPD2    H111408   2.419   2.387  14.979  1.8476 -0.4032  0.1033
  769MPD2    H211409   2.217   2.155  14.680  3.1976  2.0279 -1.6240
  769MPD2    H311410   2.364   2.351  14.757 -0.4092 -0.9016 -1.6726
  769MPD2     N11411   2.381   2.183  15.179 -0.1779 -0.1546  0.9359
  769MPD2    H511412   2.333   2.104  15.222 -1.0172  0.8927  1.9202
  769MPD2    N111413   2.176   1.956  14.816 -0.7102  0.2197  0.3917
  769MPD2    H711414   2.123   1.961  14.730  1.0432  0.4026 -0.6607
  770MPD2     C11415   1.413   1.304  15.131  0.5687  0.1167  0.2861
  770MPD2    C111416   1.453   1.231  15.020 -0.5542  0.3509 -0.1251
  770MPD2    C211417   1.563   1.273  14.950  0.3731  1.2160 -0.5254
  770MPD2    C311418   1.632   1.387  14.986  0.8743  0.1236 -0.5999
  770MPD2    C411419   1.591   1.453  15.098 -0.6518  0.8666  0.1721
  770MPD2    C511420   1.475   1.417  15.171 -0.2226 -0.2052 -0.2050
  770MPD2     H11421   1.596   1.217  14.863 -1.5711  1.4063 -1.3771
  770MPD2    H111422   1.645   1.537  15.139 -1.0120  1.7976 -1.2739
  770MPD2    H211423   1.337   1.278  15.203  1.5275 -0.8583  0.9566
  770MPD2    H311424   1.440   1.478  15.253 -3.2425 -0.3440 -1.4019
  770MPD2     N11425   1.749   1.427  14.910 -0.1480  0.1340 -0.3103
  770MPD2    H511426   1.775   1.390  14.819  1.7705 -1.0417  0.7229
  770MPD2    N111427   1.394   1.106  14.988 -0.0523 -0.4843  0.1797
  770MPD2    H711428   1.435   1.047  14.916  0.1825 -0.0311 -0.0515
  771MPD2     C11429   3.025   4.694  13.429  0.1316 -0.1250 -0.3477
  771MPD2    C111430   2.920   0.046  13.439 -0.3755 -0.0861 -0.1315
  771MPD2    C211431   2.790   0.016  13.410  0.5055 -0.1380  0.0135
  771MPD2    C311432   2.749   4.634  13.386  0.1791  0.1804  0.2662
  771MPD2    C411433   2.854   4.535  13.386 -0.5165 -0.5731 -0.1815
  771MPD2    C511434   2.987   4.565  13.411  0.2306  0.0204  0.0238
  771MPD2     H11435   2.710   0.088  13.426  2.7203  2.0798  0.9790
  771MPD2    H111436   2.830   4.429  13.375 -2.3263 -0.3011  1.0822
  771MPD2    H211437   3.130   4.715  13.449  0.2993  0.4400 -1.7825
  771MPD2    H311438   3.053   4.480  13.416  0.5736  0.3393  0.9499
  771MPD2     N11439   2.606   4.604  13.384 -0.0114  0.5899 -0.1464
  771MPD2    H511440   2.549   4.687  13.399 -0.3068  0.3155  0.2158
  771MPD2    N111441   2.947   0.183  13.468 -0.1141  0.0850 -0.2315
  771MPD2    H711442   2.870   0.243  13.493 -1.1178 -1.1110 -0.4447
  772MPD2     C11443   2.667   0.701  13.847 -0.8077 -0.7481  0.3313
  772MPD2    C111444   2.669   0.580  13.785  0.2158 -0.0567 -0.2575
  772MPD2    C211445   2.548   0.507  13.789  0.1856 -0.4970 -0.5130
  772MPD2    C311446   2.427   0.568  13.834  0.2498 -0.6387 -0.1549
  772MPD2    C411447   2.435   0.703  13.883 -0.6321  0.2948  0.3858
  772MPD2    C511448   2.552   0.769  13.884  0.0007  0.4528  0.4586
  772MPD2     H11449   2.556   0.403  13.761  2.4083 -0.6123  0.5748
  772MPD2    H111450   2.351   0.746  13.936 -1.2102  1.7827 -1.7601
  772MPD2    H211451   2.757   0.760  13.855 -0.7427 -0.6426 -1.1423
  772MPD2    H311452   2.557   0.869  13.925  1.0580  0.8789 -0.7004
  772MPD2     N11453   2.308   0.496  13.838  0.3791  0.6702 -0.1331
  772MPD2    H511454   2.238   0.530  13.904 -1.1858  1.1154 -2.0159
  772MPD2    N111455   2.785   0.537  13.710  0.4210  0.4724 -0.0741
  772MPD2    H711456   2.777   0.457  13.649  1.0842  0.5850 -0.3041
  773MPD2     C11457   1.902   0.877   0.380 -0.2580  0.0548  0.2277
  773MPD2    C111458   1.978   0.960   0.308  0.2157 -0.2730  0.3324
  773MPD2    C211459   2.115   0.959   0.328  0.3997  0.0365  0.8269
  773MPD2    C311460   2.173   0.859   0.401  0.0362 -0.0193  0.2628
  773MPD2    C411461   2.089   0.768   0.465  1.1632 -0.6742 -0.4899
  773MPD2    C511462   1.956   0.776   0.454  0.4441  0.6596  0.6597
  773MPD2     H11463   2.175   1.038   0.285 -1.8553 -0.1740 -2.7773
  773MPD2    H111464   2.132   0.685   0.519 -0.8774  0.7984  3.4210
  773MPD2    H211465   1.794   0.882   0.389 -0.0302  0.8045  2.6936
  773MPD2    H311466   1.889   0.701   0.495  1.7001 -1.0969 -0.5245
  773MPD2     N11467   2.313   0.848   0.406 -0.1772  0.2880  0.1490
  773MPD2    H511468   2.359   0.924   0.358 -0.9352  2.3616  2.7225
  773MPD2    N111469   1.908   1.049   0.224 -0.1192 -0.0922  0.0064
  773MPD2    H711470   1.815   1.017   0.201  0.0757 -1.0494  0.5625
  774MPD2     C11471   1.089   0.389  13.608 -0.0389  0.4644 -0.1319
  774MPD2    C111472   1.123   0.411  13.742  0.2696 -0.3867 -0.2717
  774MPD2    C211473   1.154   0.540  13.781  0.2461  0.5531 -0.7723
  774MPD2    C311474   1.174   0.637  13.686 -0.0387  0.3751  1.0481
  774MPD2    C411475   1.154   0.608  13.548 -0.2441 -0.0039  0.5468
  774MPD2    C511476   1.104   0.487  13.510 -0.1693  0.1050  0.9083
  774MPD2     H11477   1.172   0.550  13.888 -0.8723  0.3628 -0.5639
  774MPD2    H111478   1.162   0.681  13.468  2.2945  1.1536  1.8840
  774MPD2    H211479   1.049   0.292  13.583  2.3377 -0.5823  0.1152
  774MPD2    H311480   1.065   0.463  13.412  1.7310 -2.6383  0.8048
  774MPD2     N11481   1.230   0.758  13.728 -0.2278  0.1297  0.0980
  774MPD2    H511482   1.246   0.768  13.828  1.8755  0.6982 -0.2880
  774MPD2    N111483   1.102   0.306  13.831 -0.0457 -0.1155 -0.3261
  774MPD2    H711484   1.064   0.218  13.797  0.2712 -1.0446  1.7167
  775MPD2     C11485   2.638   1.856  15.856 -0.2420  0.6420  0.2854
  775MPD2    C111486   2.647   1.987  15.896  0.8429 -0.1295 -0.1384
  775MPD2    C211487   2.736   2.073  15.834 -1.3050 -0.1146  0.2553
  775MPD2    C311488   2.795   2.027  15.713  0.0612  0.0917 -0.0706
  775MPD2    C411489   2.773   1.903  15.670 -0.4137 -1.0424 -0.6538
  775MPD2    C511490   2.704   1.813  15.743 -0.2705  0.1372 -0.0913
  775MPD2     H11491   2.752   2.173  15.873 -0.0770 -0.5759  0.9309
  775MPD2    H111492   2.810   1.860  15.578 -1.0619 -1.0957 -0.8953
  775MPD2    H211493   2.574   1.783  15.903 -2.5660  1.9652 -0.8332
  775MPD2    H311494   2.698   1.711  15.707  0.9027  0.2309 -0.5145
  775MPD2     N11495   2.864   2.121  15.624 -0.1682  0.1513  0.0976
  775MPD2    H511496   2.898   2.073  15.541 -0.9135  0.6740 -0.5119
  775MPD2    N111497   2.556   2.018  15.999 -0.3438  0.5155  0.0373
  775MPD2    H711498   2.488   1.946  16.024 -3.3128  2.8456 -1.2250
  776MPD2     C11499   1.119   2.458  12.274 -0.0189  0.1040  0.2920
  776MPD2    C111500   1.072   2.396  12.156  0.9780 -0.3486 -0.0717
  776MPD2    C211501   1.094   2.468  12.037 -0.0830  0.5899 -0.4194
  776MPD2    C311502   1.151   2.598  12.036 -0.0160 -0.0995 -0.2791
  776MPD2    C411503   1.189   2.658  12.151 -0.1817  0.4987  0.0614
  776MPD2    C511504   1.174   2.588  12.276  0.3607  0.5232  0.0446
  776MPD2     H11505   1.078   2.416  11.944 -1.1585  1.4215 -0.7028
  776MPD2    H111506   1.247   2.749  12.145  1.3655 -0.3419  2.0741
  776MPD2    H211507   1.116   2.413  12.373  0.6684 -1.1666 -0.2636
  776MPD2    H311508   1.220   2.627  12.366 -0.2957  1.8915 -0.2171
  776MPD2     N11509   1.176   2.672  11.917  0.0138  0.7093  0.8316
  776MPD2    H511510   1.212   2.767  11.920 -0.7094  1.0541 -1.0754
  776MPD2    N111511   1.013   2.266  12.167 -0.4179 -0.0008  0.2911
  776MPD2    H711512   1.021   2.217  12.256 -0.7031  1.3581  1.0559
  777MPD2     C11513   2.376   4.621   0.769 -0.0344  0.2021 -0.0051
  777MPD2    C111514   2.247   4.640   0.800 -0.1830 -0.3731 -0.3712
  777MPD2    C211515   2.151   4.603   0.708 -0.8386 -0.3570 -0.0509
  777MPD2    C311516   2.184   4.553   0.583  0.0990  0.1390  0.4821
  777MPD2    C411517   2.320   4.534   0.556  0.2705  0.7845 -0.3696
  777MPD2    C511518   2.417   4.568   0.650  0.5556  1.0817  0.0145
  777MPD2     H11519   2.046   4.602   0.736 -1.7320  0.7434 -3.3579
  777MPD2    H111520   2.356   4.483   0.468  1.6181 -0.8684  1.1508
  777MPD2    H211521   2.458   4.657   0.831 -1.4304  2.8486  0.2643
  777MPD2    H311522   2.522   4.552   0.627  0.3333  0.8443 -0.8295
  777MPD2     N11523   2.083   4.515   0.494 -0.1816  0.0649  0.3459
  777MPD2    H511524   1.991   4.532   0.533 -0.2284  1.0342 -0.1853
  777MPD2    N111525   2.213   4.702   0.924  0.3696  0.7214 -0.2032
  777MPD2    H711526   2.286   4.716   0.993  0.1940  0.2670  0.0729
  778MPD2     C11527   2.917   0.365  14.916 -0.5733  0.0132 -0.1101
  778MPD2    C111528   2.953   0.249  14.853  0.5066 -0.5524 -0.5128
  778MPD2    C211529   3.074   0.242  14.780  0.7096 -0.2203 -0.5759
  778MPD2    C311530   3.161   0.348  14.777  0.5008 -0.0385  0.8486
  778MPD2    C411531   3.123   0.462  14.845  0.1963 -0.2769 -0.2537
  778MPD2    C511532   3.002   0.474  14.907 -0.0060  1.1595  0.5102
  778MPD2     H11533   3.099   0.149  14.730  3.7210 -0.0416  0.5977
  778MPD2    H111534   3.188   0.549  14.856  0.8060 -0.8508  0.7135
  778MPD2    H211535   2.822   0.383  14.963 -1.2093 -1.3148 -0.8939
  778MPD2    H311536   2.978   0.561  14.967  1.6439  1.7537  0.2933
  778MPD2     N11537   3.294   0.330  14.734 -0.0807  0.3084 -0.5772
  778MPD2    H511538   3.330   0.238  14.710  1.7710  1.3228 -1.6634
  778MPD2    N111539   2.862   0.143  14.834 -0.1345 -0.1922 -0.5419
  778MPD2    H711540   2.894   0.070  14.771 -1.7500 -0.8685 -0.5684
  779MPD2     C11541   2.394   3.790  13.652  0.1290  0.6906 -0.0059
  779MPD2    C111542   2.434   3.784  13.785 -0.5592 -0.2249 -0.1177
  779MPD2    C211543   2.509   3.883  13.837 -0.4184  0.1692  0.1571
  779MPD2    C311544   2.557   3.990  13.762  0.2329 -0.4167 -0.5215
  779MPD2    C411545   2.513   3.988  13.630  0.0629  0.1791 -0.0912
  779MPD2    C511546   2.422   3.895  13.580 -0.0365 -0.3390 -1.1847
  779MPD2     H11547   2.528   3.868  13.943  0.8018  1.2329  0.0835
  779MPD2    H111548   2.531   4.070  13.562 -1.0299  0.2655 -0.2774
  779MPD2    H211549   2.343   3.712  13.596 -0.2411  1.0038 -0.1033
  779MPD2    H311550   2.388   3.903  13.478 -1.0888 -0.0598 -0.8145
  779MPD2     N11551   2.628   4.103  13.821 -0.2041 -0.0198  0.0919
  779MPD2    H511552   2.667   4.097  13.914  0.8251  0.5746 -0.2906
  779MPD2    N111553   2.411   3.670  13.873  0.1159 -0.0566 -0.0465
  779MPD2    H711554   2.441   3.682  13.969 -0.2868 -0.7211  0.1628
  780MPD2     C11555   1.688   3.745   0.769  0.0628 -0.2102 -0.5901
  780MPD2    C111556   1.677   3.702   0.640 -0.0013 -0.1256 -0.0752
  780MPD2    C211557   1.787   3.704   0.560  0.7331 -0.0761  0.0883
  780MPD2    C311558   1.909   3.739   0.606  0.4256 -0.0904  0.7704
  780MPD2    C411559   1.922   3.790   0.733  0.2714  0.6417  0.6561
  780MPD2    C511560   1.807   3.804   0.811 -0.5252  0.5068  0.1654
  780MPD2     H11561   1.784   3.643   0.471 -1.6995 -0.0887  0.1682
  780MPD2    H111562   2.012   3.833   0.776  0.9237 -0.2956  0.2259
  780MPD2    H211563   1.603   3.728   0.834  0.3089  1.4735  0.1594
  780MPD2    H311564   1.807   3.849   0.910  1.0459 -0.9755  0.8336
  780MPD2     N11565   2.023   3.722   0.522 -0.0337  0.0639 -0.4294
  780MPD2    H511566   2.001   3.710   0.423  1.1682  0.4663 -0.7396
  780MPD2    N111567   1.554   3.649   0.598 -0.3596  0.1080 -0.4824
  780MPD2    H711568   1.484   3.634   0.670 -1.1101  0.8164 -1.0547
  781MPD2     C11569   3.901   0.898  12.647  0.0431 -0.0790  0.2522
  781MPD2    C111570   3.877   0.787  12.566  0.3922 -0.4125  0.2968
  781MPD2    C211571   3.858   0.813  12.433  0.6476  0.3062 -0.2701
  781MPD2    C311572   3.850   0.940  12.386 -0.0598  0.3943 -0.5217
  781MPD2    C411573   3.866   1.046  12.465 -0.0080 -0.0758  0.1760
  781MPD2    C511574   3.895   1.024  12.596  0.9965  0.3041  0.1830
  781MPD2     H11575   3.840   0.732  12.364  0.0462 -0.2624  0.5522
  781MPD2    H111576   3.867   1.150  12.435 -1.1905  0.2229  1.1744
  781MPD2    H211577   3.915   0.893  12.754 -0.3445 -1.7329  0.2280
  781MPD2    H311578   3.915   1.105  12.665 -0.6726 -0.9372  2.1249
  781MPD2     N11579   3.815   0.969  12.260 -0.5202 -0.0942  0.6576
  781MPD2    H511580   3.799   1.065  12.230 -0.6156  0.0915  1.3024
  781MPD2    N111581   3.890   0.657  12.617  0.2179  0.0691 -0.7572
  781MPD2    H711582   3.884   0.587  12.543 -1.6731 -1.1984  0.5921
  782MPD2     C11583   1.283   1.587   9.825 -0.4432 -0.6232  0.3380
  782MPD2    C111584   1.313   1.521   9.943  0.0608 -0.6166 -0.0345
  782MPD2    C211585   1.306   1.594  10.057 -0.1369  0.4270 -0.3746
  782MPD2    C311586   1.274   1.728  10.055 -0.7633 -0.0271 -0.2147
  782MPD2    C411587   1.256   1.801   9.940  0.0487 -0.4950 -0.7850
  782MPD2    C511588   1.252   1.726   9.818  0.8375 -0.4789  0.1427
  782MPD2     H11589   1.336   1.547  10.150 -1.5071  3.0522  1.3866
  782MPD2    H111590   1.230   1.906   9.939 -0.4381 -0.6078 -0.0088
  782MPD2    H211591   1.262   1.525   9.739  0.7548 -1.9788  1.0194
  782MPD2    H311592   1.227   1.779   9.727 -0.7143  0.2466  0.9697
  782MPD2     N11593   1.258   1.799  10.176  0.1238  0.6038 -0.8557
  782MPD2    H511594   1.242   1.899  10.170  1.5618  0.8748  0.0679
  782MPD2    N111595   1.336   1.379   9.947  0.1076 -0.3367  0.1412
  782MPD2    H711596   1.305   1.313   9.875 -1.6046  0.6417 -0.0217
  783MPD2     C11597   0.945   1.433  10.765  0.4026 -0.0991  0.1806
  783MPD2    C111598   1.063   1.365  10.793  0.1464 -0.3453 -0.2202
  783MPD2    C211599   1.137   1.302  10.687 -0.5739  0.3598 -0.4461
  783MPD2    C311600   1.072   1.306  10.565 -0.5720  0.3614 -0.4669
  783MPD2    C411601   0.956   1.383  10.536 -0.5626  0.0052 -0.3825
  783MPD2    C511602   0.900   1.448  10.637  0.4809  0.0780  0.0823
  783MPD2     H11603   1.233   1.252  10.696 -1.3977 -1.1177  0.2292
  783MPD2    H111604   0.918   1.394  10.435 -1.1621 -0.6840 -0.2365
  783MPD2    H211605   0.879   1.480  10.837  1.3809 -1.0085  1.6802
  783MPD2    H311606   0.806   1.501  10.620  0.6323  0.2702 -0.1486
  783MPD2     N11607   1.137   1.226  10.460 -0.7117  0.0689  0.5441
  783MPD2    H511608   1.213   1.169  10.495 -1.0655 -1.1486 -0.6752
  783MPD2    N111609   1.112   1.373  10.926 -0.4824  0.4822  0.0488
  783MPD2    H711610   1.047   1.418  10.990 -0.4945 -1.4558  1.3892
  784MPD2     C11611   3.699   2.121   0.771 -0.3205  0.3374 -0.7235
  784MPD2    C111612   3.778   2.220   0.729 -0.2391 -0.0031 -0.9647
  784MPD2    C211613   3.724   2.346   0.709 -0.0777  0.0679  0.1200
  784MPD2    C311614   3.592   2.370   0.742  0.4065  0.3856 -0.3303
  784MPD2    C411615   3.509   2.265   0.780  0.4037 -0.8184 -0.0034
  784MPD2    C511616   3.570   2.143   0.792  0.5194 -0.6177  0.0031
  784MPD2     H11617   3.789   2.430   0.686  1.8188 -1.9370 -1.8586
  784MPD2    H111618   3.406   2.280   0.808 -0.0479 -1.2357 -1.4201
  784MPD2    H211619   3.731   2.018   0.786  1.2378  0.7379 -1.3178
  784MPD2    H311620   3.500   2.062   0.809 -0.0686  0.5481  3.1569
  784MPD2     N11621   3.556   2.510   0.737 -0.8678  0.3572 -0.4667
  784MPD2    H511622   3.610   2.578   0.683  0.9249 -0.2409  0.5774
  784MPD2    N111623   3.915   2.200   0.730 -0.2419 -0.1303  0.6951
  784MPD2    H711624   3.976   2.270   0.688  2.1567 -2.4930  0.2845
  785MPD2     C11625   0.386   0.173  11.230  0.2442  0.6261  0.1239
  785MPD2    C111626   0.278   0.251  11.257 -0.4660  0.5326 -0.3197
  785MPD2    C211627   0.154   0.185  11.261  0.2618 -0.0142  0.7401
  785MPD2    C311628   0.141   0.047  11.256 -0.4761 -0.0048 -0.2757
  785MPD2    C411629   0.259   4.715  11.253 -0.7854  0.2855  0.1095
  785MPD2    C511630   0.375   0.040  11.236  0.0000 -0.0500 -0.3263
  785MPD2     H11631   0.060   0.240  11.267 -0.6964 -1.3970 -1.9822
  785MPD2    H111632   0.263   4.607  11.246 -0.4031  0.2157  1.2675
  785MPD2    H211633   0.480   0.224  11.214 -0.8229  2.1932 -1.2313
  785MPD2    H311634   0.465   4.724  11.227  0.7700  1.1669 -0.5774
  785MPD2     N11635   0.014   4.732  11.275 -0.2863 -0.4141  0.5900
  785MPD2    H511636   4.682   0.056  11.271 -0.1410 -0.1935  1.5405
  785MPD2    N111637   0.281   0.393  11.259 -0.2102  0.8036 -0.0705
  785MPD2    H711638   0.191   0.436  11.272  0.2089  1.8229 -0.5694
  786MPD2     C11639   3.066   3.213  14.861  0.9805  0.0875 -0.0981
  786MPD2    C111640   3.129   3.108  14.926  0.2294 -0.1966  0.2727
  786MPD2    C211641   3.213   3.130  15.029  0.1546 -0.4445  0.4930
  786MPD2    C311642   3.235   3.258  15.070  0.1738  0.4846  0.1077
  786MPD2    C411643   3.162   3.367  15.014  0.3099  0.5731  0.1929
  786MPD2    C511644   3.085   3.340  14.904  0.7366 -0.0666  0.3457
  786MPD2     H11645   3.263   3.049  15.080  0.0846  0.8700  2.6195
  786MPD2    H111646   3.175   3.471  15.041 -1.4894  1.1066 -1.0151
  786MPD2    H211647   3.001   3.192  14.776  1.1430 -3.0372  0.5463
  786MPD2    H311648   3.046   3.417  14.839  0.8241 -0.3191 -0.0045
  786MPD2     N11649   3.341   3.277  15.166 -0.2240 -0.1178 -0.8925
  786MPD2    H511650   3.361   3.375  15.186 -0.8109  0.1633 -1.6716
  786MPD2    N111651   3.116   2.965  14.895 -0.3347 -0.3457  0.1821
  786MPD2    H711652   3.179   2.903  14.945  0.6984  0.4806 -0.0945
  787MPD2     C11653   3.238   2.539  15.288  0.5069  0.0316  0.6443
  787MPD2    C111654   3.243   2.473  15.172  0.6355  0.6531  0.0648
  787MPD2    C211655   3.314   2.353  15.165  0.7998 -0.0031 -0.5744
  787MPD2    C311656   3.382   2.302  15.277  0.3950  0.3367 -0.1125
  787MPD2    C411657   3.356   2.362  15.396  0.5964 -0.4331  0.6906
  787MPD2    C511658   3.285   2.480  15.406 -0.2326 -0.3887 -0.0422
  787MPD2     H11659   3.309   2.298  15.071 -1.1290  0.1784 -0.5780
  787MPD2    H111660   3.386   2.307  15.484 -2.4790 -1.1663  1.2876
  787MPD2    H211661   3.176   2.627  15.293  3.2302  1.9613  0.9146
  787MPD2    H311662   3.255   2.517  15.503  0.6834  2.1828 -0.7198
  787MPD2     N11663   3.468   2.194  15.260  0.2997 -0.1500 -0.4934
  787MPD2    H511664   3.470   2.159  15.165 -0.9684  0.1173 -0.6093
  787MPD2    N111665   3.173   2.537  15.065 -0.7762  0.5958 -0.3455
  787MPD2    H711666   3.154   2.637  15.073 -1.4462  0.3232  1.4519
  788MPD2     C11667   0.722   1.485   0.726  0.2583  0.2435  0.5620
  788MPD2    C111668   0.855   1.459   0.746 -0.2476 -0.2636  0.4979
  788MPD2    C211669   0.941   1.546   0.681  0.1936  0.3097  0.1210
  788MPD2    C311670   0.894   1.663   0.624 -0.7220 -1.0007 -0.2963
  788MPD2    C411671   0.758   1.679   0.598 -0.5653  0.2687 -0.3436
  788MPD2    C511672   0.669   1.592   0.663  0.6867 -0.3051 -0.2194
  788MPD2     H11673   1.048   1.535   0.696 -0.4152 -2.6266  2.4921
  788MPD2    H111674   0.720   1.770   0.554 -2.7585  0.2015  1.4184
  788MPD2    H211675   0.653   1.405   0.752  1.9855 -0.4194  3.0909
  788MPD2    H311676   0.564   1.589   0.638  0.6532  1.0309 -0.2311
  788MPD2     N11677   0.981   1.759   0.556  0.4676  0.2608 -0.5826
  788MPD2    H511678   0.921   1.836   0.527  0.1308 -0.9693 -3.1089
  788MPD2    N111679   0.905   1.345   0.810 -0.0793  1.0134  0.1097
  788MPD2    H711680   1.006   1.338   0.819  0.0406  1.0697 -1.3236
  789MPD2     C11681   0.949   1.380  16.409  0.2115  0.4992 -0.2934
  789MPD2    C111682   0.930   1.305  16.523 -0.8227 -0.0530 -0.0781
  789MPD2    C211683   0.884   1.374  16.629  0.2800 -0.5343 -0.4552
  789MPD2    C311684   0.808   1.489  16.612 -0.8061 -1.4837  0.0622
  789MPD2    C411685   0.815   1.559  16.491 -0.7012  0.4559  0.3808
  789MPD2    C511686   0.895   1.506  16.389 -0.4004 -0.5680 -0.0329
  789MPD2     H11687   0.875   1.325  16.725  2.0746 -0.9707 -0.5110
  789MPD2    H111688   0.750   1.641  16.463 -1.6233 -0.5931 -0.5489
  789MPD2    H211689   1.001   1.339  16.323  0.7223 -1.7623  1.0760
  789MPD2    H311690   0.896   1.552  16.291  1.5030  1.6720  1.0449
  789MPD2     N11691   0.712   1.533  16.702 -0.4749  0.5581 -0.2755
  789MPD2    H511692   0.672   1.622  16.672  0.5400  0.9644 -0.4296
  789MPD2    N111693   0.970   1.173  16.540 -0.0780  0.2785  0.3669
  789MPD2    H711694   0.971   1.140  16.636 -1.5647  0.1239  0.3298
  790MPD2     C11695   1.305   2.882  13.264 -0.2840  0.3582 -0.8700
  790MPD2    C111696   1.355   2.785  13.351 -0.0373 -0.3301 -0.0526
  790MPD2    C211697   1.341   2.648  13.318  0.2106  0.7777  0.0955
  790MPD2    C311698   1.260   2.614  13.217  0.7408 -0.4243  0.2736
  790MPD2    C411699   1.192   2.714  13.144 -0.1758  0.3617  0.7493
  790MPD2    C511700   1.220   2.844  13.172  0.3002 -0.2789 -0.6140
  790MPD2     H11701   1.379   2.571  13.385 -2.3379 -2.2125 -1.8859
  790MPD2    H111702   1.131   2.689  13.058  0.1450 -0.1050  0.6570
  790MPD2    H211703   1.316   2.988  13.285  2.2280  0.2554 -1.6335
  790MPD2    H311704   1.176   2.918  13.106 -2.0050  0.4960  1.7823
  790MPD2     N11705   1.230   2.477  13.202 -0.0879  0.0851 -0.6708
  790MPD2    H511706   1.297   2.415  13.247 -0.6965 -0.9081 -1.1222
  790MPD2    N111707   1.429   2.838  13.462  0.1942 -0.4703 -0.1787
  790MPD2    H711708   1.438   2.939  13.470  1.9937 -0.7139  0.6819
  791MPD2     C11709   0.588   2.148  12.935  0.2336 -0.8963  0.2356
  791MPD2    C111710   0.669   2.060  12.991  0.0194  0.7184  0.1469
  791MPD2    C211711   0.617   1.936  13.031 -0.3294 -0.0927 -0.5989
  791MPD2    C311712   0.478   1.916  13.031 -0.5124  0.0544  0.0172
  791MPD2    C411713   0.397   2.015  12.980 -0.3535 -0.4906 -0.0869
  791MPD2    C511714   0.454   2.126  12.924  0.5780  0.0810  0.2140
  791MPD2     H11715   0.686   1.864  13.075 -0.3103  0.0079 -0.4654
  791MPD2    H111716   0.290   2.004  12.967 -0.1603 -2.4048 -0.1787
  791MPD2    H211717   0.617   2.245  12.896  0.3557 -0.4918  1.3317
  791MPD2    H311718   0.393   2.211  12.896  2.2418  0.6007 -1.8185
  791MPD2     N11719   0.429   1.796  13.087 -0.1774 -0.0832 -0.0008
  791MPD2    H511720   0.494   1.719  13.100 -1.7211 -1.5182 -0.8656
  791MPD2    N111721   0.805   2.096  12.996 -0.1422  0.1539  0.0804
  791MPD2    H711722   0.825   2.195  12.985  1.8736 -0.2597  0.0678
  792MPD2     C11723   1.520   2.483  11.451  0.6499 -0.1992  0.0050
  792MPD2    C111724   1.457   2.529  11.336 -0.1735 -0.1999  0.3405
  792MPD2    C211725   1.316   2.507  11.321 -1.1001  0.1020  0.1186
  792MPD2    C311726   1.243   2.423  11.402  0.0264  0.1763  0.4860
  792MPD2    C411727   1.311   2.373  11.510 -0.3176 -0.7008 -0.6847
  792MPD2    C511728   1.441   2.407  11.537 -1.0534  0.7608  0.3635
  792MPD2     H11729   1.273   2.550  11.232  0.1055  1.0041 -0.0344
  792MPD2    H111730   1.270   2.301  11.581 -2.3980  0.7020 -0.4893
  792MPD2    H211731   1.626   2.496  11.467  0.6164 -0.8318  0.7003
  792MPD2    H311732   1.479   2.354  11.623 -1.4033  0.1072  0.1194
  792MPD2     N11733   1.108   2.392  11.374 -0.2158 -0.3144  0.0241
  792MPD2    H511734   1.068   2.336  11.449 -0.7790 -0.3311 -0.2834
  792MPD2    N111735   1.541   2.603  11.251  0.0262 -0.4488  0.2995
  792MPD2    H711736   1.639   2.590  11.274  0.0355  3.7852  2.6483
  793MPD2     C11737   0.695   1.765  10.701  0.1733  0.3117  0.5079
  793MPD2    C111738   0.744   1.887  10.659  0.0035 -0.2303 -0.2142
  793MPD2    C211739   0.757   1.981  10.757 -0.1549 -0.4674  0.1819
  793MPD2    C311740   0.752   1.954  10.895 -0.6564 -0.2714  0.5903
  793MPD2    C411741   0.733   1.829  10.936 -0.2150 -0.2974 -0.4273
  793MPD2    C511742   0.706   1.736  10.839  0.2982 -0.3214 -0.7726
  793MPD2     H11743   0.772   2.082  10.720 -0.9605 -1.3933 -2.6303
  793MPD2    H111744   0.717   1.803  11.040 -0.8555  1.9958  0.0449
  793MPD2    H211745   0.680   1.674  10.644 -0.8975  0.7508  0.0787
  793MPD2    H311746   0.666   1.639  10.867  0.0407 -0.0159 -0.0835
  793MPD2     N11747   0.779   2.068  10.976 -0.0363  0.0902 -0.1424
  793MPD2    H511748   0.804   2.157  10.935  0.3307  0.5332  1.0438
  793MPD2    N111749   0.769   1.914  10.521  0.0018 -0.1891  0.0635
  793MPD2    H711750   0.797   2.007  10.491 -2.4586 -0.0133 -1.6975
  794MPD2     C11751   1.642   1.800  17.663 -0.7676 -0.3419  0.1043
  794MPD2    C111752   1.674   1.715  17.558  0.5157  0.2083  0.0931
  794MPD2    C211753   1.646   1.760  17.426 -0.2172 -0.3728 -0.2598
  794MPD2    C311754   1.581   1.876  17.401 -0.1103  0.6944 -0.0851
  794MPD2    C411755   1.544   1.956  17.511  0.1282 -0.6206 -0.8409
  794MPD2    C511756   1.578   1.915  17.637  0.2638  0.2997 -0.5868
  794MPD2     H11757   1.693   1.706  17.345 -2.7170 -3.3269  0.2606
  794MPD2    H111758   1.507   2.057  17.494  2.0729  0.1474 -0.5476
  794MPD2    H211759   1.661   1.780  17.768 -0.9529 -2.1043 -0.2076
  794MPD2    H311760   1.560   1.982  17.720 -1.5681  0.4935 -1.1490
  794MPD2     N11761   1.553   1.930  17.277 -0.0674 -0.0687 -0.1781
  794MPD2    H511762   1.506   2.020  17.275  2.0891  1.0777  1.1627
  794MPD2    N111763   1.730   1.590  17.577 -0.6473 -0.1599  0.1521
  794MPD2    H711764   1.747   1.536  17.493 -0.3001 -1.0109  0.7746
  795MPD2     C11765   3.725   3.741  13.752 -1.1000  0.1154 -0.0824
  795MPD2    C111766   3.645   3.644  13.690 -0.3024  0.1449 -0.7776
  795MPD2    C211767   3.696   3.517  13.665 -0.3820 -0.4962 -0.0077
  795MPD2    C311768   3.824   3.486  13.707 -0.4657 -0.0277  0.2380
  795MPD2    C411769   3.895   3.580  13.778 -0.7442 -0.6254  0.3857
  795MPD2    C511770   3.849   3.709  13.796  0.2610 -0.0589  0.1848
  795MPD2     H11771   3.636   3.444  13.612  1.2525  0.0161 -2.5848
  795MPD2    H111772   3.984   3.562  13.837  0.7488  1.7414 -1.1097
  795MPD2    H211773   3.682   3.838  13.770 -0.7455  0.2705 -0.0672
  795MPD2    H311774   3.903   3.775  13.863 -0.1872 -1.9773  2.4318
  795MPD2     N11775   3.884   3.363  13.676  0.1772 -0.0227 -0.0490
  795MPD2    H511776   3.822   3.291  13.641  0.1734 -1.5648  3.1124
  795MPD2    N111777   3.517   3.670  13.638  0.3835 -0.3103  0.4960
  795MPD2    H711778   3.473   3.589  13.596  1.5578  0.9244 -3.0982
  796MPD2     C11779   3.183   0.329  15.983 -0.1332 -0.9546 -1.0311
  796MPD2    C111780   3.296   0.387  16.040 -0.1465 -0.1841  0.0837
  796MPD2    C211781   3.316   0.521  16.029 -0.0637 -0.5291 -0.3590
  796MPD2    C311782   3.225   0.602  15.959 -1.1288  0.9951 -0.0164
  796MPD2    C411783   3.111   0.540  15.900 -1.1974  0.0608  0.3429
  796MPD2    C511784   3.096   0.405  15.911  0.3599 -0.2339  0.3539
  796MPD2     H11785   3.403   0.561  16.079 -1.3082 -1.6179  2.6804
  796MPD2    H111786   3.039   0.595  15.840 -0.9026 -0.1190 -0.1772
  796MPD2    H211787   3.164   0.224  16.002  2.8105 -1.2865  0.0274
  796MPD2    H311788   3.012   0.361  15.858  0.5710 -0.3029  0.0773
  796MPD2     N11789   3.264   0.736  15.928 -0.1942  0.5223  0.1494
  796MPD2    H511790   3.361   0.755  15.951 -0.0551  0.0996 -0.0889
  796MPD2    N111791   3.370   0.303  16.125 -0.4537 -0.0623  0.7779
  796MPD2    H711792   3.337   0.208  16.115 -0.3874  0.0225 -0.1942
  797MPD2     C11793   4.337   4.621  17.546  0.6125 -0.5494  0.3648
  797MPD2    C111794   4.412   4.735  17.547  0.2549  0.1489  0.0605
  797MPD2    C211795   4.387   0.084  17.451 -0.4341  1.0619 -0.2776
  797MPD2    C311796   4.295   0.064  17.354 -0.2181 -0.2373 -0.1934
  797MPD2    C411797   4.219   4.691  17.350  0.1419 -0.1789  0.0725
  797MPD2    C511798   4.231   4.600  17.454 -0.3188 -0.1525 -0.4684
  797MPD2     H11799   4.443   0.176  17.456 -0.5458  1.0464  1.0691
  797MPD2    H111800   4.144   4.668  17.275  0.5559 -0.3900 -0.2803
  797MPD2    H211801   4.342   4.557  17.634  0.4523  0.4468  1.0923
  797MPD2    H311802   4.178   4.506  17.456  1.0779 -0.9089  0.7807
  797MPD2     N11803   4.271   0.169  17.262 -0.0898  0.1698 -0.5291
  797MPD2    H511804   4.328   0.251  17.273 -1.9471  1.5538 -1.1856
  797MPD2    N111805   4.505   0.032  17.646  0.0981 -0.2837  0.4099
  797MPD2    H711806   4.544   0.125  17.638 -2.1970  0.5296 -1.1994
  798MPD2     C11807   0.052   0.628  17.329 -0.0959 -0.1011  0.6422
  798MPD2    C111808   4.704   0.526  17.323 -0.3695  0.1409 -0.0272
  798MPD2    C211809   4.702   0.431  17.422  0.5010 -0.1792 -0.4035
  798MPD2    C311810   0.043   0.444  17.530  0.3416  0.2211 -0.0764
  798MPD2    C411811   0.129   0.543  17.544 -0.3221  0.0258 -0.3621
  798MPD2    C511812   0.135   0.636  17.443 -0.0652  0.0983 -0.6954
  798MPD2     H11813   4.633   0.347  17.419 -0.0625  0.2531  0.4250
  798MPD2    H111814   0.202   0.546  17.624  0.0082  1.3254 -0.7231
  798MPD2    H211815   0.055   0.701  17.249  3.0952 -0.4994  0.3783
  798MPD2    H311816   0.190   0.728  17.460 -1.4326  1.1507 -2.0149
  798MPD2     N11817   0.016   0.353  17.632 -0.7447 -0.1366 -0.2991
  798MPD2    H511818   4.690   0.285  17.604  0.5366 -2.0217  1.0899
  798MPD2    N111819   4.607   0.524  17.215  0.2053 -0.1468  0.6972
  798MPD2    H711820   4.620   0.589  17.138  1.2319 -0.2494  0.7839
  799MPD2     C11821   3.385   1.597  15.168  0.1860 -0.1418  1.5060
  799MPD2    C111822   3.321   1.536  15.066  0.5377 -0.1351  0.2606
  799MPD2    C211823   3.243   1.605  14.981 -0.3072  0.9939  0.0203
  799MPD2    C311824   3.229   1.743  14.994 -0.4594  0.1673  0.6794
  799MPD2    C411825   3.270   1.799  15.111  0.6202  0.2237 -0.1497
  799MPD2    C511826   3.350   1.729  15.189 -0.5862  0.1596 -0.0707
  799MPD2     H11827   3.212   1.553  14.892  1.8428 -1.1526  0.5230
  799MPD2    H111828   3.256   1.901  15.145 -0.2210  0.5237 -1.3586
  799MPD2    H211829   3.462   1.553  15.230  0.8741  0.5834  1.1552
  799MPD2    H311830   3.376   1.784  15.279  0.6612 -2.6319  1.3038
  799MPD2     N11831   3.170   1.822  14.896  0.3424 -0.5003 -0.0656
  799MPD2    H511832   3.176   1.922  14.910 -0.2204 -0.6077  0.9725
  799MPD2    N111833   3.363   1.410  15.019 -0.5737  0.0885  0.2735
  799MPD2    H711834   3.320   1.368  14.937  1.1284 -1.8482  0.3651
  800MPD2     C11835   3.446   2.993  14.024 -0.2095 -0.6675  0.3746
  800MPD2    C111836   3.562   2.938  13.975  0.3603 -0.2177  0.0282
  800MPD2    C211837   3.558   2.813  13.924 -0.1709 -0.1636  0.6747
  800MPD2    C311838   3.436   2.746  13.913 -0.0742  0.3363  0.0104
  800MPD2    C411839   3.323   2.804  13.957  0.6199  0.3076  0.5136
  800MPD2    C511840   3.323   2.925  14.025  0.2086  0.5154 -1.0890
  800MPD2     H11841   3.644   2.763  13.882  1.1390  2.2956  0.4424
  800MPD2    H111842   3.227   2.756  13.947  0.9178 -0.1296 -0.1774
  800MPD2    H211843   3.439   3.097  14.054 -0.7638 -0.6214  0.0721
  800MPD2    H311844   3.228   2.974  14.043 -0.7873 -2.5207  1.8250
  800MPD2     N11845   3.438   2.617  13.864  0.2763  1.0752  0.3275
  800MPD2    H511846   3.533   2.587  13.844 -1.0328 -1.7059 -1.6872
  800MPD2    N111847   3.681   3.011  13.982 -0.3936 -0.2432 -0.4816
  800MPD2    H711848   3.674   3.107  14.011 -1.4378 -1.1265  2.1465
  801MPD2     C11849   4.155   3.638  14.272 -0.3616 -0.2380 -0.5610
  801MPD2    C111850   4.034   3.583  14.232 -0.1566  0.7102  0.5718
  801MPD2    C211851   3.919   3.599  14.313 -0.0675 -0.8002  0.1803
  801MPD2    C311852   3.930   3.657  14.435  0.0847  0.1511  0.5403
  801MPD2    C411853   4.050   3.706  14.473  0.3367  0.9678  0.1024
  801MPD2    C511854   4.163   3.702  14.394 -0.0571  0.3232  0.6372
  801MPD2     H11855   3.828   3.544  14.294 -0.5984  0.4013 -0.8086
  801MPD2    H111856   4.062   3.738  14.575 -0.8401  1.7040  0.0114
  801MPD2    H211857   4.238   3.633  14.203  1.3335  0.7377  1.4283
  801MPD2    H311858   4.262   3.733  14.426 -0.2911  1.0472  0.6605
  801MPD2     N11859   3.834   3.651  14.537  0.7627 -0.6257  0.9611
  801MPD2    H511860   3.854   3.704  14.622  0.7326 -1.1439  1.2933
  801MPD2    N111861   4.038   3.493  14.122 -1.0288 -0.2763 -0.3291
  801MPD2    H711862   4.129   3.488  14.077 -0.2050 -0.8911  1.4349
  802MPD2     C11863   3.592   4.383   0.318 -0.2428 -0.2960 -0.5208
  802MPD2    C111864   3.465   4.325   0.308  0.3049 -0.3038  0.2393
  802MPD2    C211865   3.439   4.223   0.220  0.5773 -0.6601 -0.6138
  802MPD2    C311866   3.538   4.182   0.131 -0.0545  0.6728  0.7578
  802MPD2    C411867   3.671   4.222   0.146 -0.5813  0.0881  0.2286
  802MPD2    C511868   3.692   4.319   0.244  0.1154 -0.3737  0.4555
  802MPD2     H11869   3.334   4.197   0.208 -0.0853  3.1969 -3.0914
  802MPD2    H111870   3.751   4.172   0.092 -3.3208 -0.6250 -3.1765
  802MPD2    H211871   3.613   4.452   0.399  0.7830 -0.0281 -1.0105
  802MPD2    H311872   3.791   4.355   0.269  0.8121 -3.1367  1.6287
  802MPD2     N11873   3.501   4.088   0.029 -0.0248  0.2911  0.0565
  802MPD2    H511874   3.405   4.058   0.038 -0.6715  2.4995  0.3358
  802MPD2    N111875   3.355   4.368   0.383 -0.4147 -0.1807  0.4861
  802MPD2    H711876   3.267   4.317   0.377 -1.0684  1.0190 -0.1394
  803MPD2     C11877   3.498   1.721  12.677  0.2011 -0.1987  0.5365
  803MPD2    C111878   3.612   1.794  12.685  0.3647 -0.0214 -0.6462
  803MPD2    C211879   3.685   1.788  12.804  0.1320  0.3069  0.1143
  803MPD2    C311880   3.645   1.704  12.909 -0.4306 -0.2417  0.0253
  803MPD2    C411881   3.525   1.638  12.890  0.2649  0.0543  0.3324
  803MPD2    C511882   3.454   1.644  12.777 -0.2405 -0.0594 -0.1932
  803MPD2     H11883   3.776   1.846  12.815 -0.4233  1.4657 -1.4260
  803MPD2    H111884   3.475   1.580  12.967  2.8782 -0.3577  1.6945
  803MPD2    H211885   3.442   1.714  12.584  2.8241 -0.0008 -1.0512
  803MPD2    H311886   3.356   1.598  12.776 -0.9777  1.4903  0.3193
  803MPD2     N11887   3.720   1.697  13.027  0.8501  0.1578 -0.0105
  803MPD2    H511888   3.808   1.748  13.022  0.5861  0.7896  1.5186
  803MPD2    N111889   3.653   1.890  12.591 -0.2939 -0.1330 -0.9048
  803MPD2    H711890   3.722   1.954  12.628 -0.9815  0.7367 -1.1058
  804MPD2     C11891   3.468   3.547  16.801 -0.0858 -0.1930 -0.0067
  804MPD2    C111892   3.507   3.459  16.897 -0.3102 -0.3503  0.1722
  804MPD2    C211893   3.604   3.491  16.985  0.0597 -0.2239  0.4330
  804MPD2    C311894   3.666   3.612  16.988  0.3004  0.1821  0.0209
  804MPD2    C411895   3.636   3.700  16.886 -0.3077  0.3749  0.1251
  804MPD2    C511896   3.543   3.664  16.794  0.1831  0.3704  0.2253
  804MPD2     H11897   3.629   3.411  17.053  1.2054  0.5030  0.8676
  804MPD2    H111898   3.682   3.798  16.877  0.0398  0.1439 -0.5965
  804MPD2    H211899   3.406   3.518  16.717  1.3405  0.3564 -1.2363
  804MPD2    H311900   3.523   3.733  16.713 -1.0163 -1.5338 -1.1012
  804MPD2     N11901   3.761   3.631  17.086 -0.8234 -0.3341 -0.3555
  804MPD2    H511902   3.780   3.558  17.153  3.4741  2.1543  1.1381
  804MPD2    N111903   3.458   3.327  16.906 -0.5931 -0.1934 -0.3306
  804MPD2    H711904   3.495   3.266  16.977 -1.0645 -0.0854  0.0066
  805MPD2     C11905   3.257   2.109  15.595 -0.0433  0.4905 -0.1074
  805MPD2    C111906   3.312   1.983  15.572 -1.0781  0.1548  0.3126
  805MPD2    C211907   3.432   1.958  15.633 -1.0208 -0.0877 -0.2696
  805MPD2    C311908   3.489   2.040  15.726  0.5468 -0.3318  0.0007
  805MPD2    C411909   3.430   2.168  15.751 -0.2842  0.6313  0.2726
  805MPD2    C511910   3.315   2.201  15.685 -0.3157 -0.3208  0.0069
  805MPD2     H11911   3.472   1.858  15.620 -0.4408 -0.2254  2.6562
  805MPD2    H111912   3.458   2.243  15.824  1.7658  1.1306 -1.0274
  805MPD2    H211913   3.162   2.135  15.551 -0.2274  1.2731  0.7701
  805MPD2    H311914   3.266   2.298  15.687  0.3819 -0.0393  2.8029
  805MPD2     N11915   3.608   2.006  15.782  0.0490  0.3231  0.2330
  805MPD2    H511916   3.650   1.930  15.729 -0.8614 -0.5858  0.8031
  805MPD2    N111917   3.234   1.883  15.500  0.8149  0.2548 -0.4292
  805MPD2    H711918   3.289   1.798  15.488 -1.4141 -1.2458  0.1255
  806MPD2     C11919   3.725   1.675   0.677  0.0719  0.0842  0.3025
  806MPD2    C111920   3.842   1.701   0.741  0.2882 -0.8246  0.0518
  806MPD2    C211921   3.953   1.745   0.670 -0.0368 -0.5279 -0.5874
  806MPD2    C311922   3.943   1.766   0.532  0.1281  0.1123  0.3104
  806MPD2    C411923   3.830   1.721   0.470  0.6691 -0.6083 -0.1784
  806MPD2    C511924   3.724   1.672   0.546  0.2094  0.5732  0.0640
  806MPD2     H11925   4.048   1.773   0.715 -0.7829 -2.0926  1.9226
  806MPD2    H111926   3.804   1.739   0.366 -2.2440  1.0505  0.8501
  806MPD2    H211927   3.631   1.637   0.717 -1.1113  0.8724 -1.6797
  806MPD2    H311928   3.634   1.638   0.496  0.0833 -1.5139  1.7127
  806MPD2     N11929   4.044   1.831   0.449 -0.0960 -0.2260 -0.1608
  806MPD2    H511930   4.022   1.847   0.351 -3.1643 -0.2676  0.5163
  806MPD2    N111931   3.841   1.683   0.880 -0.1066 -0.6039  0.5937
  806MPD2    H711932   3.750   1.668   0.923 -0.4804 -2.0355 -0.7056
  807MPD2     C11933   3.622   1.284   1.504  0.6409  0.5898  0.7311
  807MPD2    C111934   3.721   1.287   1.409 -0.0013  0.1454  0.1461
  807MPD2    C211935   3.781   1.167   1.381  0.5907 -0.0967  0.2154
  807MPD2    C311936   3.752   1.049   1.443 -0.0744 -0.3166 -0.5966
  807MPD2    C411937   3.657   1.052   1.547  0.1124  0.0684  0.0677
  807MPD2    C511938   3.588   1.169   1.575 -0.0342 -0.4053 -0.4231
  807MPD2     H11939   3.874   1.168   1.326  0.4241 -0.8735 -0.0794
  807MPD2    H111940   3.625   0.970   1.610 -0.3272  0.1994  0.0167
  807MPD2    H211941   3.575   1.375   1.540 -0.6426  1.1933 -2.5102
  807MPD2    H311942   3.516   1.157   1.655 -1.7383 -0.6619 -2.0066
  807MPD2     N11943   3.818   0.927   1.411  1.0578  0.2220 -0.3802
  807MPD2    H511944   3.903   0.926   1.355 -1.3546  1.6718 -4.0489
  807MPD2    N111945   3.777   1.400   1.342 -0.0711 -1.0233 -0.2188
  807MPD2    H711946   3.846   1.374   1.273  1.8464 -0.3576  1.4389
  808MPD2     C11947   3.796   3.175  10.086  0.3759 -0.0889 -0.2411
  808MPD2    C111948   3.868   3.208  10.202 -0.3628 -0.7664 -0.1017
  808MPD2    C211949   3.877   3.340  10.231  0.3284  0.5663  0.0884
  808MPD2    C311950   3.835   3.441  10.143 -0.2791  0.8650 -0.0783
  808MPD2    C411951   3.760   3.399  10.036 -0.1625  0.3278  0.0282
  808MPD2    C511952   3.736   3.269  10.002 -0.0164  1.2223  1.0246
  808MPD2     H11953   3.933   3.369  10.320 -0.8010 -0.6303  1.1852
  808MPD2    H111954   3.712   3.474   9.973  1.2082  1.5934  0.4978
  808MPD2    H211955   3.797   3.072  10.052 -4.1967 -0.5291  0.8065
  808MPD2    H311956   3.668   3.242   9.922 -1.5146 -0.9907  3.0466
  808MPD2     N11957   3.860   3.572  10.180 -0.2441  0.6465  0.8802
  808MPD2    H511958   3.878   3.592  10.278 -0.3466 -0.1709  1.0582
  808MPD2    N111959   3.923   3.111  10.294  0.5690 -0.2688  0.5641
  808MPD2    H711960   3.966   3.147  10.378 -0.6409  0.8485  0.6987
  809MPD2     C11961   4.445   4.423  10.025 -0.3711 -1.3463  0.1461
  809MPD2    C111962   4.446   4.286   9.993  0.0687 -0.1536  0.7699
  809MPD2    C211963   4.328   4.218  10.009 -0.6721  0.0971 -0.0015
  809MPD2    C311964   4.217   4.277  10.072  0.0625  0.0079 -0.5154
  809MPD2    C411965   4.217   4.409  10.110  0.0219  0.0350  0.5415
  809MPD2    C511966   4.327   4.485  10.074  0.0443 -0.3133  0.1507
  809MPD2     H11967   4.324   4.114   9.977  0.4002 -0.4913  1.7923
  809MPD2    H111968   4.131   4.457  10.155  0.2875  2.1879 -1.2225
  809MPD2    H211969   4.528   4.491  10.012  0.6427 -2.7089 -0.4672
  809MPD2    H311970   4.332   4.592  10.088 -1.7566 -0.1380 -0.5362
  809MPD2     N11971   4.098   4.200  10.099  0.3268 -0.0252 -0.3931
  809MPD2    H511972   4.016   4.245  10.140 -0.6930 -1.4386 -0.8682
  809MPD2    N111973   4.565   4.215   9.954 -0.9539  0.2251  0.3759
  809MPD2    H711974   4.553   4.116   9.934 -0.6080  0.2117  0.2462
  810MPD2     C11975   3.084   2.591  11.228 -0.3385  0.6466 -0.4445
  810MPD2    C111976   2.967   2.572  11.162  0.2801  0.2715 -0.0492
  810MPD2    C211977   2.912   2.663  11.071  0.4859  0.3064 -0.1221
  810MPD2    C311978   2.978   2.785  11.059 -0.9106 -0.6594 -0.2710
  810MPD2    C411979   3.093   2.802  11.132 -0.0853 -0.6694  0.1276
  810MPD2    C511980   3.147   2.711  11.218 -0.2257 -0.5946 -0.0083
  810MPD2     H11981   2.819   2.648  11.018  0.5771 -1.8077  0.2869
  810MPD2    H111982   3.132   2.903  11.125  0.9002 -1.1676 -1.5952
  810MPD2    H211983   3.125   2.512  11.290 -1.0778 -0.3583 -1.2430
  810MPD2    H311984   3.236   2.749  11.268 -1.5113  0.5139  1.4485
  810MPD2     N11985   2.951   2.881  10.957 -0.8038  0.1742 -1.0560
  810MPD2    H511986   3.019   2.956  10.951  0.2786 -0.8866 -2.1145
  810MPD2    N111987   2.911   2.440  11.190  0.3249  0.5344 -0.3918
  810MPD2    H711988   2.968   2.374  11.241 -0.7669 -1.0414 -1.1951
  811MPD2     C11989   2.814   1.686  10.870 -0.4623 -0.7804 -0.1031
  811MPD2    C111990   2.859   1.821  10.880  0.0075 -0.4738  0.4436
  811MPD2    C211991   2.865   1.902  10.770  0.4030  0.1934  0.1008
  811MPD2    C311992   2.817   1.851  10.650 -0.2551 -0.0491 -0.4654
  811MPD2    C411993   2.778   1.719  10.635  0.3760  0.9884 -0.2279
  811MPD2    C511994   2.781   1.635  10.751  0.0012  0.5053  0.0115
  811MPD2     H11995   2.908   2.001  10.775 -2.1090  1.2062  1.7894
  811MPD2    H111996   2.743   1.676  10.542 -1.4419  1.4134  0.2624
  811MPD2    H211997   2.790   1.625  10.956  1.9065  0.2004  1.2625
  811MPD2    H311998   2.748   1.532  10.741  0.9079 -0.0562  2.7335
  811MPD2     N11999   2.810   1.941  10.545  0.1267 -0.2992 -0.6866
  811MPD2    H512000   2.848   2.034  10.560 -2.0631  0.6990 -1.4097
  811MPD2    N112001   2.865   1.865  11.008 -0.3577 -0.0198  0.0409
  811MPD2    H712002   2.849   1.803  11.087  2.0144  3.0758  2.9585
  812MPD2     C12003   2.027   1.972  12.163  0.2131 -0.7812 -0.1198
  812MPD2    C112004   2.049   2.069  12.260 -0.2133  0.3084 -0.7513
  812MPD2    C212005   2.082   2.036  12.392  0.7550  0.1159 -0.7349
  812MPD2    C312006   2.087   1.908  12.436 -0.2160 -0.5650 -0.6410
  812MPD2    C412007   2.065   1.812  12.340  0.7194 -0.0251  0.5041
  812MPD2    C512008   2.041   1.845  12.208 -0.7865 -0.3989  0.1430
  812MPD2     H12009   2.089   2.117  12.464 -2.2476  0.5511 -0.9388
  812MPD2    H112010   2.069   1.707  12.367  1.2437 -0.7878 -2.5529
  812MPD2    H212011   2.002   1.992  12.060 -1.5772 -0.3924  0.3881
  812MPD2    H312012   2.031   1.768  12.132  2.4541 -2.2443  1.5869
  812MPD2     N12013   2.136   1.884  12.571  0.3285 -0.3044 -0.4425
  812MPD2    H512014   2.162   1.965  12.627  1.6400 -0.6952 -0.4945
  812MPD2    N112015   2.020   2.200  12.215 -0.1800 -0.0338  0.0053
  812MPD2    H712016   2.028   2.215  12.115 -0.6381  1.7690  0.2376
  813MPD2     C12017   1.359   3.572  13.307  0.0365  0.3380 -0.5736
  813MPD2    C112018   1.370   3.708  13.296  0.1127  0.2586  0.2931
  813MPD2    C212019   1.328   3.783  13.408  0.2107 -0.2322  0.4051
  813MPD2    C312020   1.289   3.722  13.530  0.2047  0.0253 -0.0713
  813MPD2    C412021   1.286   3.587  13.538  0.0502 -0.3265 -0.0074
  813MPD2    C512022   1.316   3.516  13.426 -0.0370  0.1807  0.3687
  813MPD2     H12023   1.321   3.892  13.404 -1.5408 -0.4404 -2.4075
  813MPD2    H112024   1.262   3.537  13.631 -0.9535  1.8987  0.9289
  813MPD2    H212025   1.383   3.507  13.223  0.8342  0.3431 -0.3571
  813MPD2    H312026   1.315   3.409  13.442 -1.2470  0.0652 -0.4416
  813MPD2     N12027   1.270   3.803  13.642  0.0082  0.1845 -0.4411
  813MPD2    H512028   1.270   3.902  13.620  1.3965 -0.4952 -3.4918
  813MPD2    N112029   1.421   3.756  13.172 -0.3638  0.5558 -0.4497
  813MPD2    H712030   1.459   3.683  13.113 -2.1417 -1.2460  0.6166
  814MPD2     C12031   1.873   0.537  12.630 -0.1025  0.4746 -0.0840
  814MPD2    C112032   1.909   0.584  12.502  0.2634  0.7621  0.3268
  814MPD2    C212033   1.983   0.701  12.496  0.2314 -0.2281 -0.0198
  814MPD2    C312034   2.027   0.767  12.609  0.7991 -0.0910  1.0652
  814MPD2    C412035   1.997   0.712  12.730 -1.0218 -0.3958 -0.1535
  814MPD2    C512036   1.914   0.609  12.740 -0.0270 -0.2281  0.5891
  814MPD2     H12037   2.011   0.745  12.401 -0.1794  2.0897  0.9178
  814MPD2    H112038   2.036   0.753  12.823  1.5709 -0.5202 -1.1766
  814MPD2    H212039   1.813   0.448  12.635  1.0360 -0.2051  1.8480
  814MPD2    H312040   1.897   0.573  12.841 -0.0487 -0.4519  0.5051
  814MPD2     N12041   2.115   0.876  12.603 -0.0132 -0.8816  0.3143
  814MPD2    H512042   2.142   0.919  12.691 -1.6075  0.1276  0.3084
  814MPD2    N112043   1.876   0.509  12.388 -0.2226  0.0751  0.0151
  814MPD2    H712044   1.881   0.559  12.299  2.5701 -2.7743 -1.4370
  815MPD2     C12045   2.373   4.123  12.024  0.0086 -0.2406  0.3822
  815MPD2    C112046   2.353   3.989  11.988  0.0373  1.1099  0.1714
  815MPD2    C212047   2.281   3.905  12.070 -0.3548  0.1883 -0.1131
  815MPD2    C312048   2.235   3.948  12.191  0.6927  0.5164  0.3658
  815MPD2    C412049   2.256   4.075  12.229  0.0936  0.5610 -0.6442
  815MPD2    C512050   2.324   4.170  12.146 -0.7302  0.3457  0.2031
  815MPD2     H12051   2.278   3.799  12.049  0.2749  0.4274 -1.4340
  815MPD2    H112052   2.204   4.115  12.315  0.6276 -1.2001  0.4806
  815MPD2    H212053   2.420   4.198  11.961  1.4376  1.2422  3.1570
  815MPD2    H312054   2.336   4.275  12.167  0.5999  0.3838 -0.7784
  815MPD2     N12055   2.149   3.866  12.271 -0.2839  0.2628  0.1657
  815MPD2    H512056   2.129   3.779  12.222 -0.6688  0.2346  0.3709
  815MPD2    N112057   2.420   3.937  11.870  0.2441 -0.1414  0.4539
  815MPD2    H712058   2.478   4.002  11.819 -0.0181  0.4328  0.8887
  816MPD2     C12059   2.456   2.824  16.919 -0.3740  0.2418  0.0888
  816MPD2    C112060   2.512   2.936  16.858 -0.2144  0.5285  1.1390
  816MPD2    C212061   2.629   2.922  16.783 -1.0087 -0.0268  0.0912
  816MPD2    C312062   2.671   2.793  16.756  0.3906 -0.0925 -0.1777
  816MPD2    C412063   2.608   2.685  16.816  0.2502 -0.0062  0.0800
  816MPD2    C512064   2.510   2.701  16.906 -0.5417  0.4824 -0.0276
  816MPD2     H12065   2.672   2.999  16.720 -1.8206  2.1217  2.1415
  816MPD2    H112066   2.640   2.581  16.811 -0.6901 -0.2608 -0.7621
  816MPD2    H212067   2.369   2.817  16.983  1.4933 -0.4216  2.6003
  816MPD2    H312068   2.459   2.623  16.962 -3.3333 -0.3873 -3.7417
  816MPD2     N12069   2.768   2.773  16.659 -0.8525 -0.3476 -0.2169
  816MPD2    H512070   2.801   2.854  16.607 -0.5310  1.1900  2.4264
  816MPD2    N112071   2.461   3.060  16.883  0.1665  0.0846 -0.0015
  816MPD2    H712072   2.510   3.139  16.844 -1.3103  0.7687 -0.4753
  817MPD2     C12073   1.446   0.461   9.814 -0.0626  0.2797 -0.6040
  817MPD2    C112074   1.461   0.398   9.690 -1.1520  0.5830  0.3669
  817MPD2    C212075   1.410   0.458   9.580  0.0644  0.1735  0.1525
  817MPD2    C312076   1.348   0.583   9.596 -0.2118  0.3268 -0.2186
  817MPD2    C412077   1.339   0.651   9.716  0.4989  0.4271  0.8571
  817MPD2    C512078   1.382   0.581   9.823  0.1811 -0.1827 -0.4748
  817MPD2     H12079   1.422   0.410   9.483  1.0586  0.0523  0.3349
  817MPD2    H112080   1.294   0.748   9.733  0.1480  0.3778  0.1758
  817MPD2    H212081   1.467   0.401   9.901 -2.1079  0.5792  0.1008
  817MPD2    H312082   1.383   0.626   9.922  0.0846  1.1447 -1.0874
  817MPD2     N12083   1.299   0.643   9.480  0.0146  0.2070 -0.3315
  817MPD2    H512084   1.317   0.588   9.397 -0.3754 -0.7155  0.2011
  817MPD2    N112085   1.530   0.282   9.668 -0.0097 -0.3377  0.2084
  817MPD2    H712086   1.537   0.249   9.572  1.3960  0.9276 -0.1322
  818MPD2     C12087   0.756   0.111  10.248  0.3659 -0.4717  0.5717
  818MPD2    C112088   0.693   0.062  10.361 -0.3917  0.5524  0.5544
  818MPD2    C212089   0.662   4.675  10.368  0.1137 -0.4133 -0.1280
  818MPD2    C312090   0.700   4.589  10.271 -0.6819 -0.4407 -0.3909
  818MPD2    C412091   0.767   4.633  10.163  0.4933  0.1532  0.1456
  818MPD2    C512092   0.791   0.022  10.146  0.4845 -0.3897 -0.5793
  818MPD2     H12093   0.632   4.643  10.467 -1.3255  2.4035  0.3461
  818MPD2    H112094   0.803   4.561  10.092  0.6182  0.0817  0.2808
  818MPD2    H212095   0.778   0.217  10.240  1.4228 -0.6067  1.7822
  818MPD2    H312096   0.847   0.061  10.062  1.3428 -3.7603 -1.5516
  818MPD2     N12097   0.692   4.450  10.281  0.3170  0.0889 -0.3075
  818MPD2    H512098   0.743   4.397  10.210  1.1710 -2.2688  2.0849
  818MPD2    N112099   0.654   0.145  10.469  0.1949 -0.8867 -0.5468
  818MPD2    H712100   0.621   0.098  10.553 -1.1188  0.7882 -0.0985
  819MPD2     C12101   3.830   1.399  15.754  0.3289  0.2960 -0.4410
  819MPD2    C112102   3.874   1.273  15.795 -0.1658 -0.3438 -0.0396
  819MPD2    C212103   3.974   1.260  15.888 -0.1268  0.4226 -0.6176
  819MPD2    C312104   4.038   1.371  15.936 -0.5253  0.3956 -0.1106
  819MPD2    C412105   3.983   1.497  15.906  0.0344  0.3861 -0.3995
  819MPD2    C512106   3.880   1.505  15.821 -0.8673  0.0822 -0.5362
  819MPD2     H12107   4.016   1.163  15.911  0.9715  1.4762  1.8247
  819MPD2    H112108   4.018   1.593  15.941  1.1474 -0.7441  1.5976
  819MPD2    H212109   3.765   1.419  15.669  1.3574  1.0738 -1.0480
  819MPD2    H312110   3.837   1.600  15.791 -1.5926 -0.2227 -0.4706
  819MPD2     N12111   4.151   1.345  16.010  0.4185 -0.3605 -0.1129
  819MPD2    H512112   4.179   1.248  16.008 -1.3414 -0.8342 -1.8553
  819MPD2    N112113   3.820   1.163  15.736  0.1127  0.3718 -0.2602
  819MPD2    H712114   3.758   1.194  15.663 -0.2497  0.8790  0.2666
  820MPD2     C12115   2.958   1.106  15.420 -0.0663  0.8316 -0.2168
  820MPD2    C112116   3.077   1.179  15.413  0.4632 -0.0546 -0.5936
  820MPD2    C212117   3.194   1.122  15.448  0.2814 -0.0143  0.2382
  820MPD2    C312118   3.207   0.985  15.460 -0.0613 -0.1611 -0.5813
  820MPD2    C412119   3.088   0.909  15.467 -0.0024  0.0422  0.4259
  820MPD2    C512120   2.966   0.972  15.447  0.8620  0.3528 -0.4670
  820MPD2     H12121   3.279   1.189  15.460 -0.0361  0.6318 -1.1540
  820MPD2    H112122   3.092   0.800  15.466  0.6250  0.0744 -1.4599
  820MPD2    H212123   2.860   1.136  15.386 -0.3059  1.1860  0.7915
  820MPD2    H312124   2.880   0.907  15.443  1.0919  0.0944 -1.2514
  820MPD2     N12125   3.323   0.916  15.502 -0.3645  0.1288  0.2159
  820MPD2    H512126   3.301   0.822  15.534  1.3470 -0.4122 -0.2204
  820MPD2    N112127   3.053   1.315  15.401  0.6123  0.0285 -0.2574
  820MPD2    H712128   2.957   1.332  15.374  0.6621 -0.8662 -1.0124
  821MPD2     C12129   3.271   2.363  13.125  0.0300  0.1297 -0.3148
  821MPD2    C112130   3.331   2.455  13.210  0.3028  0.2642  0.1474
  821MPD2    C212131   3.372   2.578  13.151  0.0029 -0.4076  0.1246
  821MPD2    C312132   3.366   2.602  13.012  0.4735 -0.0153 -0.0170
  821MPD2    C412133   3.322   2.500  12.932 -0.1992  0.2942 -0.5271
  821MPD2    C512134   3.267   2.391  12.990  0.5403  0.8309 -0.6260
  821MPD2     H12135   3.424   2.636  13.227 -0.8598 -1.1031  1.2400
  821MPD2    H112136   3.309   2.505  12.824  0.0673  1.1270 -0.5178
  821MPD2    H212137   3.222   2.273  13.163  0.1155  1.3827  2.8146
  821MPD2    H312138   3.232   2.310  12.926  0.6147  0.8821 -0.7314
  821MPD2     N12139   3.427   2.724  12.956 -0.0605 -0.5762  0.1389
  821MPD2    H512140   3.454   2.732  12.858  0.3504 -0.1941  0.2804
  821MPD2    N112141   3.351   2.435  13.353  0.1148  0.0925  0.2713
  821MPD2    H712142   3.412   2.506  13.393  0.7481 -0.3230  0.0484
  822MPD2     C12143   4.498   2.744  15.663 -0.1319  0.4618  0.7868
  822MPD2    C112144   4.477   2.732  15.801  0.2353  0.1749 -0.4333
  822MPD2    C212145   4.364   2.792  15.856 -0.4944 -0.2412  0.0801
  822MPD2    C312146   4.267   2.858  15.785  0.1683 -0.1845 -0.6481
  822MPD2    C412147   4.284   2.862  15.648  0.5602  0.7059  0.0109
  822MPD2    C512148   4.398   2.811  15.594  0.0270  0.0063  0.2817
  822MPD2     H12149   4.364   2.779  15.964 -1.6469 -0.3638  0.0714
  822MPD2    H112150   4.201   2.898  15.589  0.3950 -1.4837 -1.1186
  822MPD2    H212151   4.586   2.703  15.614 -1.6274 -0.3849 -1.1882
  822MPD2    H312152   4.401   2.814  15.486 -1.1623  1.2127  0.2755
  822MPD2     N12153   4.154   2.905  15.858  0.0318  0.0660 -0.0903
  822MPD2    H512154   4.144   2.888  15.958  1.2801  0.2950  0.0745
  822MPD2    N112155   4.568   2.674  15.887 -0.1163  0.4854  0.0964
  822MPD2    H712156   4.542   2.664  15.985 -0.5863  1.4842  0.0760
  823MPD2     C12157   3.658   3.199  16.461  0.2578 -0.1524  0.2213
  823MPD2    C112158   3.749   3.105  16.419  0.1510  0.5755 -0.0062
  823MPD2    C212159   3.833   3.060  16.512 -0.3135 -0.6340  0.7275
  823MPD2    C312160   3.833   3.106  16.652  0.5192 -0.1158  0.0415
  823MPD2    C412161   3.736   3.193  16.695  0.3213  0.3734 -0.0321
  823MPD2    C512162   3.661   3.249  16.589 -0.1183 -0.1217  0.2378
  823MPD2     H12163   3.903   2.983  16.481 -0.1771  1.2586 -3.7199
  823MPD2    H112164   3.742   3.235  16.795  1.8378  1.2611 -0.5099
  823MPD2    H212165   3.571   3.230  16.403 -0.0525 -1.7774 -0.1913
  823MPD2    H312166   3.578   3.315  16.611 -0.1918  0.0893 -0.6943
  823MPD2     N12167   3.922   3.063  16.745  0.4950  0.3925  0.3364
  823MPD2    H512168   3.897   3.077  16.843  0.9578  1.8725  0.2399
  823MPD2    N112169   3.758   3.067  16.285 -0.1826  0.0696  0.4616
  823MPD2    H712170   3.681   3.097  16.226  0.2799 -0.2438 -0.3104
  824MPD2     C12171   0.043   1.970  15.975  0.0073  0.2800 -0.3244
  824MPD2    C112172   0.148   2.050  15.998  0.6673 -0.4722 -0.6049
  824MPD2    C212173   0.270   1.993  15.986  0.0813 -0.5599  0.4749
  824MPD2    C312174   0.290   1.864  15.933 -0.1177  0.2272  0.6234
  824MPD2    C412175   0.178   1.787  15.908 -0.2425 -0.9890 -1.2191
  824MPD2    C512176   0.053   1.845  15.924  0.0574 -0.4204 -0.5601
  824MPD2     H12177   0.358   2.055  15.997 -0.0380 -0.5289  1.2558
  824MPD2    H112178   0.178   1.687  15.865  1.1793 -0.6619 -1.9805
  824MPD2    H212179   4.685   2.001  15.998 -1.8611 -4.7892 -1.7769
  824MPD2    H312180   4.712   1.782  15.901 -0.0406 -1.8935  3.8328
  824MPD2     N12181   0.420   1.841  15.885  0.0054 -0.4781  0.0801
  824MPD2    H512182   0.488   1.912  15.909  0.8788 -0.8222 -1.3480
  824MPD2    N112183   0.124   2.184  16.028 -0.0173 -0.3448  0.3157
  824MPD2    H712184   0.027   2.213  16.025 -0.5334 -2.1868 -1.7171
  825MPD2     C12185   1.143   2.047  15.490 -0.1500  0.5766  0.2847
  825MPD2    C112186   1.014   2.076  15.505  0.1970 -0.6163  0.6488
  825MPD2    C212187   0.968   2.202  15.472 -0.2202  0.4331 -0.1849
  825MPD2    C312188   1.059   2.294  15.425  0.1324  0.0105 -0.1985
  825MPD2    C412189   1.196   2.268  15.429 -0.0437 -0.2857 -0.1172
  825MPD2    C512190   1.238   2.138  15.458 -0.3579 -0.1724  0.1150
  825MPD2     H12191   0.862   2.227  15.469 -0.6567 -1.0496  2.7204
  825MPD2    H112192   1.270   2.347  15.417  0.3862 -0.6780 -0.0219
  825MPD2    H212193   1.183   1.947  15.503  0.8508  1.0473  0.9241
  825MPD2    H312194   1.344   2.112  15.455 -0.2279  0.6939 -3.0499
  825MPD2     N12195   1.024   2.427  15.396  0.2899 -0.1163  0.0479
  825MPD2    H512196   1.100   2.483  15.358 -1.0378 -0.8967 -3.7397
  825MPD2    N112197   0.935   1.976  15.556 -0.2940 -0.0417 -0.0504
  825MPD2    H712198   0.974   1.882  15.563 -2.9258 -1.0483  1.1251
  826MPD2     C12199   0.422   2.106  13.782 -0.3925  0.1649  0.1774
  826MPD2    C112200   0.469   2.148  13.659 -0.2504 -0.0011 -0.6966
  826MPD2    C212201   0.388   2.245  13.601  0.9119 -0.1009  0.2963
  826MPD2    C312202   0.264   2.274  13.663 -0.4150  0.2724  1.0978
  826MPD2    C412203   0.222   2.222  13.780  0.0852  0.3494  0.3799
  826MPD2    C512204   0.305   2.144  13.847  0.5815 -0.1127  0.2020
  826MPD2     H12205   0.398   2.286  13.502  0.2128  1.9134  1.0675
  826MPD2    H112206   0.122   2.227  13.822 -0.5116 -4.8178 -0.3571
  826MPD2    H212207   0.485   2.040  13.841 -0.6341  0.8024  1.1422
  826MPD2    H312208   0.282   2.098  13.942 -1.0783 -0.4510 -0.3703
  826MPD2     N12209   0.162   2.355  13.603  0.4377  0.0623  0.3125
  826MPD2    H512210   0.077   2.367  13.658  0.4054  0.8049  0.1024
  826MPD2    N112211   0.604   2.111  13.628  0.5335  0.5207  0.3620
  826MPD2    H712212   0.662   2.068  13.700 -2.3268 -1.6147  1.3840
  827MPD2     C12213   1.043   3.806  10.102 -0.4243  1.0929  0.8465
  827MPD2    C112214   1.080   3.676  10.131  0.2958  0.1336  0.9097
  827MPD2    C212215   1.027   3.572  10.058  0.2211 -0.9880 -0.5334
  827MPD2    C312216   0.934   3.600   9.961  0.1057  0.6683 -0.4452
  827MPD2    C412217   0.898   3.733   9.935  0.3265 -0.1442  0.0442
  827MPD2    C512218   0.961   3.836  10.002 -0.0282 -0.1270  0.1145
  827MPD2     H12219   1.061   3.471  10.081 -1.0541 -1.4325 -0.5997
  827MPD2    H112220   0.818   3.758   9.866  0.4005  1.2977  0.4837
  827MPD2    H212221   1.086   3.883  10.165  3.3977 -0.4617  0.1581
  827MPD2    H312222   0.940   3.940   9.978  0.3574 -0.3016 -0.9652
  827MPD2     N12223   0.899   3.493   9.881  0.1854 -0.3674  0.0320
  827MPD2    H512224   0.935   3.402   9.908 -0.1269 -0.8205 -1.0444
  827MPD2    N112225   1.171   3.652  10.242 -0.7568  0.2153 -0.3174
  827MPD2    H712226   1.210   3.737  10.281  1.3293 -1.6491  1.6881
  828MPD2     C12227   4.187   2.903  12.555 -0.2562  0.2812 -0.3656
  828MPD2    C112228   4.131   3.008  12.479 -0.4498  0.0119 -0.3747
  828MPD2    C212229   4.223   3.102  12.425  0.2068 -0.1956 -0.1695
  828MPD2    C312230   4.361   3.080  12.443  0.2496  0.4053  0.4169
  828MPD2    C412231   4.414   2.968  12.506  0.6602  0.0285  0.0849
  828MPD2    C512232   4.322   2.885  12.564  0.1480  0.0206 -0.0390
  828MPD2     H12233   4.192   3.188  12.368 -1.0688 -0.6101 -0.1028
  828MPD2    H112234   4.521   2.953  12.514  0.5748  1.2391  3.6223
  828MPD2    H212235   4.130   2.836  12.619  0.5334 -1.1816 -1.1887
  828MPD2    H312236   4.359   2.809  12.632  1.2299 -1.8142 -2.6844
  828MPD2     N12237   4.465   3.165  12.388  0.5846  1.1658  0.3649
  828MPD2    H512238   4.561   3.133  12.401  0.4995 -0.2403 -2.3412
  828MPD2    N112239   3.994   3.029  12.458  0.0046  0.2777 -0.1582
  828MPD2    H712240   3.956   3.108  12.408  1.8779 -0.7739 -3.2237
  829MPD2     C12241   3.561   3.411  11.785  0.2693  0.1022 -0.3811
  829MPD2    C112242   3.478   3.308  11.817  0.1299  0.3585 -0.5749
  829MPD2    C212243   3.504   3.232  11.933 -0.1041 -0.4000  0.6196
  829MPD2    C312244   3.610   3.254  12.015  0.0586 -0.1460 -0.4731
  829MPD2    C412245   3.684   3.366  11.982 -0.0102 -0.0079  0.2084
  829MPD2    C512246   3.663   3.439  11.871 -0.8701 -0.0370 -0.6202
  829MPD2     H12247   3.449   3.140  11.949 -3.4359  1.3467 -0.6048
  829MPD2    H112248   3.768   3.392  12.045  0.7352 -0.5306 -0.5622
  829MPD2    H212249   3.541   3.469  11.696 -0.4813  0.1391 -0.1910
  829MPD2    H312250   3.720   3.530  11.853  1.3861 -1.0398  1.5194
  829MPD2     N12251   3.635   3.179  12.133 -0.0938 -0.2286  0.5002
  829MPD2    H512252   3.726   3.206  12.168 -0.0338  4.0290 -2.9598
  829MPD2    N112253   3.374   3.295  11.720  0.1273  0.7019  0.0098
  829MPD2    H712254   3.374   3.358  11.640  2.5972  1.0222  0.2511
  830MPD2     C12255   0.234   1.181  16.058 -0.1850 -0.0202  0.5653
  830MPD2    C112256   0.110   1.209  16.000  0.6450  0.2760  0.4150
  830MPD2    C212257   0.109   1.287  15.887  0.6270  0.2956  0.0917
  830MPD2    C312258   0.223   1.332  15.820 -0.5242  0.2813  0.5904
  830MPD2    C412259   0.341   1.307  15.890  0.2767  0.4852 -0.1194
  830MPD2    C512260   0.349   1.231  16.004 -0.0701 -0.2501 -0.2405
  830MPD2     H12261   0.014   1.323  15.849  0.6681  1.6948  1.3284
  830MPD2    H112262   0.428   1.360  15.850 -1.0868  2.5169 -0.4093
  830MPD2    H212263   0.249   1.134  16.154  1.9312  0.0055  0.2499
  830MPD2    H312264   0.446   1.209  16.047  0.2739 -0.2652 -1.0277
  830MPD2     N12265   0.218   1.416  15.705 -0.6488 -0.1022 -0.5266
  830MPD2    H512266   0.306   1.461  15.680  0.2253 -0.4419  1.9232
  830MPD2    N112267   4.735   1.177  16.066  0.0669  1.0626  0.0503
  830MPD2    H712268   0.004   1.121  16.150 -0.8703 -1.8066 -1.7223
  831MPD2     C12269   4.323   3.274  15.984  0.7430 -0.7947 -0.4961
  831MPD2    C112270   4.415   3.168  15.981  0.4976  0.4968  0.5565
  831MPD2    C212271   4.388   3.054  16.052  0.3841  0.1134 -0.5174
  831MPD2    C312272   4.289   3.051  16.145 -0.0251  0.3589 -0.0676
  831MPD2    C412273   4.208   3.166  16.159 -0.3222 -0.0789 -0.0263
  831MPD2    C512274   4.221   3.269  16.075  0.3164 -0.1925 -0.2297
  831MPD2     H12275   4.450   2.966  16.035  1.6332  0.6948  1.0494
  831MPD2    H112276   4.132   3.172  16.236  1.6308 -0.8499  1.9999
  831MPD2    H212277   4.340   3.364  15.926 -0.6561 -1.1332 -1.4137
  831MPD2    H312278   4.162   3.359  16.090 -2.1144 -2.0108  1.1169
  831MPD2     N12279   4.265   2.942  16.236  0.3192  0.3884 -0.0817
  831MPD2    H512280   4.178   2.948  16.287 -0.3960  1.9260 -1.5013
  831MPD2    N112281   4.531   3.179  15.888  0.0862  0.2558 -0.6298
  831MPD2    H712282   4.516   3.237  15.806 -0.7894  1.2790  0.2601
  832MPD2     C12283   3.288   4.255  17.157 -0.6849  0.3973  0.1219
  832MPD2    C112284   3.258   4.369  17.092  0.1556 -0.4467 -0.2801
  832MPD2    C212285   3.185   4.368  16.977 -0.2187 -0.5966 -0.4641
  832MPD2    C312286   3.138   4.257  16.914  0.1741 -0.1165  0.1824
  832MPD2    C412287   3.164   4.140  16.985  0.2756 -0.0744 -0.7552
  832MPD2    C512288   3.241   4.138  17.100 -0.2189 -0.1611 -0.5208
  832MPD2     H12289   3.165   4.468  16.939 -0.4536 -0.8391 -0.9851
  832MPD2    H112290   3.129   4.041  16.957 -0.1727 -0.1657  0.1204
  832MPD2    H212291   3.339   4.248  17.252  2.1414  2.0824 -1.2944
  832MPD2    H312292   3.262   4.043  17.148 -0.5677  0.6887  1.3040
  832MPD2     N12293   3.048   4.241  16.807  0.2978  0.6721 -0.0375
  832MPD2    H512294   3.018   4.147  16.782 -1.6554  1.2841  0.0234
  832MPD2    N112295   3.286   4.490  17.166 -0.0223 -0.2009  0.1922
  832MPD2    H712296   3.308   4.488  17.265  1.0277 -2.8361 -0.1003
  833MPD2     C12297   0.703   0.688  13.119  0.4916 -0.2088  0.1414
  833MPD2    C112298   0.697   0.762  12.999  0.1076  0.0227  0.5664
  833MPD2    C212299   0.808   0.736  12.909 -0.3602  0.1093 -0.1761
  833MPD2    C312300   0.890   0.625  12.933  0.3076  0.4577  0.4593
  833MPD2    C412301   0.887   0.551  13.047  0.8887  0.6230  0.7822
  833MPD2    C512302   0.793   0.588  13.143 -0.6502  0.8190  0.6082
  833MPD2     H12303   0.813   0.786  12.813  0.5040  1.8827  0.8027
  833MPD2    H112304   0.946   0.463  13.068 -0.2825 -0.0225  1.3950
  833MPD2    H212305   0.629   0.714  13.193  1.0617 -3.8965  2.0235
  833MPD2    H312306   0.781   0.532  13.235  0.2684  1.8049  1.3346
  833MPD2     N12307   0.997   0.598  12.845  0.1501 -0.2486 -0.4902
  833MPD2    H512308   1.046   0.509  12.851 -0.2369 -0.3104  1.6080
  833MPD2    N112309   0.603   0.866  12.992 -0.4658  0.3424 -0.1004
  833MPD2    H712310   0.529   0.872  13.062 -0.4528 -2.0359  0.1173
  834MPD2     C12311   0.698   0.265  12.109  0.0855  1.0002 -0.1878
  834MPD2    C112312   0.733   0.397  12.081 -0.5111  0.2915 -0.3358
  834MPD2    C212313   0.834   0.463  12.142 -0.7960  0.2642 -0.8752
  834MPD2    C312314   0.907   0.395  12.238 -0.5015  0.3716  1.3331
  834MPD2    C412315   0.876   0.263  12.262  0.5874  0.0050  0.0954
  834MPD2    C512316   0.779   0.197  12.197 -0.6000 -0.7863  0.2161
  834MPD2     H12317   0.856   0.565  12.115  1.1671  0.7364  2.4186
  834MPD2    H112318   0.935   0.204  12.332  1.3549 -0.1799 -0.7001
  834MPD2    H212319   0.622   0.207  12.058 -0.7679  0.3298  1.8551
  834MPD2    H312320   0.760   0.091  12.205 -2.4663 -0.4862 -0.4651
  834MPD2     N12321   1.009   0.463  12.307 -0.4542  0.2392 -0.3000
  834MPD2    H512322   1.023   0.556  12.270  0.1130  0.0229 -0.6171
  834MPD2    N112323   0.652   0.457  11.975  0.0679  0.0944 -0.1183
  834MPD2    H712324   0.586   0.389  11.938 -1.0832  1.5446 -0.7286
  835MPD2     C12325   0.287   3.861  11.224 -0.1706  0.7924 -0.8886
  835MPD2    C112326   0.200   3.926  11.313 -0.1088 -0.7742 -0.6378
  835MPD2    C212327   0.226   3.922  11.446  0.4917 -0.7901 -0.3601
  835MPD2    C312328   0.343   3.865  11.498  0.0167 -0.2196  0.1052
  835MPD2    C412329   0.443   3.818  11.404  0.1811  0.0625  0.2405
  835MPD2    C512330   0.414   3.829  11.269 -0.1350  0.2095  0.3893
  835MPD2     H12331   0.153   3.968  11.511  1.6425 -0.4658  0.7024
  835MPD2    H112332   0.537   3.771  11.432 -0.9882 -2.2510  0.3613
  835MPD2    H212333   0.267   3.838  11.121 -0.6208  1.5827 -0.9788
  835MPD2    H312334   0.487   3.783  11.203  0.8362  1.5424  0.5267
  835MPD2     N12335   0.376   3.868  11.636  0.3878  0.1715  0.5921
  835MPD2    H512336   0.459   3.816  11.659  0.0029 -1.0350 -0.7355
  835MPD2    N112337   0.073   3.968  11.264  0.5119 -0.1296 -0.2488
  835MPD2    H712338   0.011   4.014  11.330 -0.0282  0.2114 -0.9918
  836MPD2     C12339   4.473   3.819  11.925  0.3314  0.6683 -0.3016
  836MPD2    C112340   4.555   3.785  12.033 -0.7829  0.9238 -0.2434
  836MPD2    C212341   4.493   3.766  12.151  0.5523  0.4455  0.0768
  836MPD2    C312342   4.355   3.778  12.174  0.1106 -0.0695  0.5743
  836MPD2    C412343   4.274   3.802  12.069  0.4186 -0.7863 -0.2157
  836MPD2    C512344   4.335   3.822  11.942  0.0918  0.2589 -0.0641
  836MPD2     H12345   4.550   3.751  12.242  0.9103 -0.2648 -0.2602
  836MPD2    H112346   4.168   3.814  12.088  0.3175 -1.8430 -0.0847
  836MPD2    H212347   4.510   3.838  11.825  0.8693  2.5988  0.2679
  836MPD2    H312348   4.277   3.842  11.852 -0.6513  0.4315  0.4537
  836MPD2     N12349   4.289   3.778  12.295 -0.3749  0.2259 -0.2884
  836MPD2    H512350   4.192   3.809  12.292 -0.8594 -1.3101 -0.5037
  836MPD2    N112351   4.692   3.771  12.003 -0.0015 -0.4314 -0.3740
  836MPD2    H712352   4.719   3.800  11.910 -0.4876  1.3575  0.0461
  837MPD2     C12353   3.125   2.578  10.399 -0.2011  1.0010  0.0384
  837MPD2    C112354   3.061   2.543  10.280 -0.5607 -0.3203  0.6323
  837MPD2    C212355   3.012   2.650  10.208  0.7491 -0.3077 -0.6694
  837MPD2    C312356   3.030   2.779  10.242  0.3362  0.8490 -0.3753
  837MPD2    C412357   3.117   2.809  10.341 -0.0069  0.1899 -0.0692
  837MPD2    C512358   3.152   2.709  10.426  0.6371  0.6191  0.1842
  837MPD2     H12359   2.949   2.621  10.124 -1.9806 -1.2336  1.7069
  837MPD2    H112360   3.130   2.910  10.379 -1.5188  0.8572 -1.3040
  837MPD2    H212361   3.168   2.505  10.467 -2.0529 -0.5741 -0.4962
  837MPD2    H312362   3.217   2.742  10.507  0.0843 -0.3651  1.0223
  837MPD2     N12363   2.953   2.876  10.177 -0.3715  0.0199  0.6530
  837MPD2    H512364   2.891   2.842  10.105  0.5724  1.5005 -0.8626
  837MPD2    N112365   3.012   2.416  10.241  0.6015 -0.0960 -0.0318
  837MPD2    H712366   2.967   2.413  10.150  1.5742  0.4969 -0.5215
  838MPD2     C12367   1.359   1.502  11.771  0.4548  0.2137 -0.1964
  838MPD2    C112368   1.432   1.578  11.856 -0.7636  0.4988 -0.2657
  838MPD2    C212369   1.491   1.519  11.967  0.1561 -0.3047 -0.3984
  838MPD2    C312370   1.479   1.384  11.988  0.3026 -0.6133 -0.3740
  838MPD2    C412371   1.410   1.305  11.901 -0.7176  0.1476  0.4163
  838MPD2    C512372   1.348   1.367  11.791 -0.7907  0.0180 -0.1082
  838MPD2     H12373   1.545   1.568  12.047  0.8887 -0.0997 -1.0205
  838MPD2    H112374   1.399   1.197  11.908 -3.7051  0.4814  1.1532
  838MPD2    H212375   1.302   1.539  11.686 -2.0244 -0.4212  1.1872
  838MPD2    H312376   1.293   1.300  11.725 -0.2918 -1.2946  0.8067
  838MPD2     N12377   1.551   1.330  12.096  0.0510  0.1993 -0.1906
  838MPD2    H512378   1.616   1.387  12.149 -1.1401  1.9659 -0.6518
  838MPD2    N112379   1.446   1.719  11.847 -0.0342  0.0503 -0.5490
  838MPD2    H712380   1.480   1.776  11.924 -3.1534  2.1150 -0.7015
  839MPD2     C12381   1.764   1.098  11.909  1.3037 -0.2437 -0.3872
  839MPD2    C112382   1.690   1.064  11.795  0.2188 -0.3646  0.2008
  839MPD2    C212383   1.671   1.166  11.703 -0.5356  0.9293  0.5352
  839MPD2    C312384   1.721   1.296  11.724  0.3703  0.5735  0.1458
  839MPD2    C412385   1.795   1.321  11.835 -0.6603  0.1814  0.1557
  839MPD2    C512386   1.815   1.222  11.923 -0.2698  0.5394 -0.2252
  839MPD2     H12387   1.623   1.145  11.609  1.2467 -0.3263 -0.0926
  839MPD2    H112388   1.833   1.421  11.856 -2.1592  0.8160 -0.1628
  839MPD2    H212389   1.821   1.023  11.964  0.9897 -0.4335 -0.3240
  839MPD2    H312390   1.868   1.245  12.015 -3.0437 -0.6082  1.6650
  839MPD2     N12391   1.694   1.411  11.642  0.1320 -0.2097 -0.0844
  839MPD2    H512392   1.744   1.498  11.657  1.0880 -0.3272 -2.6085
  839MPD2    N112393   1.652   0.933  11.759  0.2959  0.1540 -0.0557
  839MPD2    H712394   1.617   0.918  11.665  1.7157  0.4097 -0.6176
  840MPD2     C12395   1.665   4.030  10.384 -0.3086 -0.1577  0.7459
  840MPD2    C112396   1.655   3.946  10.493 -0.1997  0.4351  0.6046
  840MPD2    C212397   1.728   3.972  10.604 -0.1485 -0.2551  0.5912
  840MPD2    C312398   1.810   4.082  10.607  0.2214 -0.1552  0.4954
  840MPD2    C412399   1.827   4.156  10.496 -0.3217  1.0670 -0.8110
  840MPD2    C512400   1.754   4.129  10.383 -0.6031  0.7957 -0.4378
  840MPD2     H12401   1.729   3.905  10.689  3.5348 -1.0374 -0.0827
  840MPD2    H112402   1.901   4.234  10.488 -1.8072  2.6808  1.1899
  840MPD2    H212403   1.609   4.004  10.295  3.7759  2.0372 -2.4719
  840MPD2    H312404   1.766   4.189  10.294  1.5624 -0.1983 -0.8249
  840MPD2     N12405   1.886   4.125  10.721  0.5355 -0.1214  0.4083
  840MPD2    H512406   1.955   4.198  10.710  0.4522 -0.2413 -0.9007
  840MPD2    N112407   1.568   3.834  10.485  0.2252  0.5800 -0.0642
  840MPD2    H712408   1.508   3.831  10.402  0.6559 -2.3528 -0.2609
  841MPD2     C12409   1.456   3.738  14.820 -0.2379 -0.3902 -0.0332
  841MPD2    C112410   1.422   3.686  14.700  0.2709 -1.0359 -0.5844
  841MPD2    C212411   1.463   3.752  14.581 -0.3651  0.8622  0.0711
  841MPD2    C312412   1.535   3.869  14.589  0.5134 -0.0059 -0.3986
  841MPD2    C412413   1.573   3.913  14.708  0.0637 -0.4480 -0.2186
  841MPD2    C512414   1.531   3.854  14.823 -0.2894  0.5354  0.1931
  841MPD2     H12415   1.447   3.706  14.484  3.1910  0.6708 -0.4289
  841MPD2    H112416   1.625   4.003  14.737 -2.4308  1.2238 -0.9864
  841MPD2    H212417   1.433   3.683  14.911 -0.2595  0.3148  0.3840
  841MPD2    H312418   1.562   3.890  14.920 -0.1059 -1.4436  0.8703
  841MPD2     N12419   1.581   3.927  14.472  0.6177  0.7090 -0.8995
  841MPD2    H512420   1.557   3.887  14.382 -0.0503 -1.5461  0.2863
  841MPD2    N112421   1.362   3.563  14.686 -0.3064  0.0338  0.2443
  841MPD2    H712422   1.351   3.535  14.589  0.3156  0.1065  0.1498
  842MPD2     C12423   2.256   4.685  16.579 -0.1191  0.5247 -0.1680
  842MPD2    C112424   2.266   4.547  16.595  0.1102 -0.6029 -0.4065
  842MPD2    C212425   2.350   4.497  16.689 -0.2354  0.8323 -0.6989
  842MPD2    C312426   2.426   4.576  16.769  0.0405  0.0660  0.0289
  842MPD2    C412427   2.418   4.713  16.749 -0.2316 -0.2301  0.4400
  842MPD2    C512428   2.338   0.017  16.655  0.0076 -0.4397 -0.2829
  842MPD2     H12429   2.326   4.395  16.716  0.0434  1.0315  0.2992
  842MPD2    H112430   2.478   0.043  16.801  0.0482 -1.6958  2.2019
  842MPD2    H212431   2.184   4.726  16.510 -0.4810  1.0957  0.5506
  842MPD2    H312432   2.339   0.125  16.641 -0.6245 -0.3892  0.0746
  842MPD2     N12433   2.515   4.521  16.865 -0.1828  0.1152  0.9694
  842MPD2    H512434   2.566   4.597  16.911  0.6395  0.9042 -1.2504
  842MPD2    N112435   2.173   4.468  16.523 -0.0889 -0.3191 -0.2768
  842MPD2    H712436   2.107   4.519  16.465  1.4870  2.0369  0.0260
  843MPD2     C12437   4.704   0.942  17.423  0.7650 -0.2114 -0.0212
  843MPD2    C112438   4.686   0.896  17.551  0.6544 -0.0946  0.4681
  843MPD2    C212439   0.022   0.937  17.660  0.6779  0.2162  0.1355
  843MPD2    C312440   0.134   1.023  17.632 -0.2552 -0.5559 -0.1392
  843MPD2    C412441   0.159   1.061  17.508  0.2553  0.6623 -0.3293
  843MPD2    C512442   0.077   1.010  17.406 -0.8029  0.9400 -0.2029
  843MPD2     H12443   4.740   0.898  17.758 -2.0949 -0.3026 -0.7727
  843MPD2    H112444   0.239   1.128  17.480 -0.3856  1.0066 -1.3654
  843MPD2    H212445   4.645   0.902  17.341 -0.0279  1.1065 -0.1039
  843MPD2    H312446   0.107   1.040  17.306 -1.6832  1.1431 -0.4095
  843MPD2     N12447   0.218   1.074  17.735 -0.3186  0.1408 -0.6528
  843MPD2    H512448   0.291   1.139  17.706 -1.3492  0.9707 -1.3978
  843MPD2    N112449   4.580   0.802  17.565  0.1617  0.8773  0.6346
  843MPD2    H712450   4.530   0.768  17.483 -0.7617  3.2869  0.1917
  844MPD2     C12451   2.614   3.704  16.379  0.2207 -0.3508  0.5987
  844MPD2    C112452   2.682   3.726  16.259 -0.0356 -0.0878 -0.2542
  844MPD2    C212453   2.800   3.806  16.267 -0.9603  0.1380 -0.7106
  844MPD2    C312454   2.852   3.852  16.391 -0.8702 -0.7955 -0.2662
  844MPD2    C412455   2.784   3.816  16.506 -0.0542  0.2231 -0.3161
  844MPD2    C512456   2.670   3.741  16.499  0.8226 -0.2029 -0.1491
  844MPD2     H12457   2.856   3.832  16.178  0.1004  0.3629  0.0214
  844MPD2    H112458   2.809   3.848  16.607 -2.0772  0.8922 -0.0414
  844MPD2    H212459   2.520   3.650  16.386  0.6839 -1.1596  0.5404
  844MPD2    H312460   2.622   3.710  16.591  0.8057  1.1227  0.2850
  844MPD2     N12461   2.981   3.922  16.390  0.9018 -0.3858 -0.7485
  844MPD2    H512462   3.021   3.942  16.299 -0.5642 -0.8170 -1.4908
  844MPD2    N112463   2.625   3.688  16.136 -0.0001 -0.7036  0.0180
  844MPD2    H712464   2.674   3.710  16.050 -0.0016 -2.7618 -0.5201
  845MPD2     C12465   3.115   0.152  16.403 -0.6639  0.2920 -0.1008
  845MPD2    C112466   3.153   0.110  16.529  0.2292  0.0431 -0.2113
  845MPD2    C212467   3.168   4.715  16.554 -0.1601  0.9594  0.0930
  845MPD2    C312468   3.160   4.628  16.442 -0.2780 -0.8137  0.6591
  845MPD2    C412469   3.114   4.671  16.323  0.0160  0.1570 -0.4304
  845MPD2    C512470   3.090   0.058  16.309 -0.3713  1.1029  0.3939
  845MPD2     H12471   3.173   4.678  16.655  2.2793 -0.3961 -0.5316
  845MPD2    H112472   3.112   4.600  16.241 -3.2359 -0.1932 -0.0134
  845MPD2    H212473   3.079   0.253  16.390 -1.1783 -0.0402 -1.2586
  845MPD2    H312474   3.064   0.094  16.210 -0.2733  0.5373  0.1640
  845MPD2     N12475   3.202   4.497  16.471 -0.4421  0.7266 -0.2094
  845MPD2    H512476   3.240   4.482  16.564 -2.9980  0.1226  0.7402
  845MPD2    N112477   3.142   0.204  16.633  0.7264  0.3729 -0.1848
  845MPD2    H712478   3.099   0.292  16.607 -0.9609  0.8081  4.0588
  846MPD2     C12479   0.036   0.408  14.134 -0.3249 -0.0715  0.2331
  846MPD2    C112480   4.647   0.423  14.111 -0.7818 -0.1405  0.1078
  846MPD2    C212481   4.560   0.460  14.212 -0.1805  0.0458  0.4718
  846MPD2    C312482   4.609   0.476  14.339  0.4265 -0.1356  0.8028
  846MPD2    C412483   4.740   0.462  14.364 -0.3826  0.4115 -0.0033
  846MPD2    C512484   0.078   0.441  14.259 -0.1728  0.3934 -0.3592
  846MPD2     H12485   4.456   0.482  14.190 -0.3369  0.0297  1.1940
  846MPD2    H112486   0.039   0.476  14.462  0.7401 -0.9892 -0.2853
  846MPD2    H212487   0.113   0.379  14.064  1.9776  1.5768  2.0983
  846MPD2    H312488   0.185   0.437  14.272 -0.4490  1.6111  2.2142
  846MPD2     N12489   4.521   0.505  14.445  0.8559  0.5118 -0.4236
  846MPD2    H512490   4.432   0.551  14.426 -0.3591 -1.0681  1.3459
  846MPD2    N112491   4.594   0.399  13.981  0.3947 -0.6319 -0.5923
  846MPD2    H712492   4.508   0.446  13.955 -0.4259 -1.5852  0.3677
  847MPD2     C12493   4.362   1.351  14.358  0.2003 -0.2259 -0.7552
  847MPD2    C112494   4.426   1.458  14.417  0.1382 -0.4488 -0.1768
  847MPD2    C212495   4.548   1.451  14.479 -0.0678  0.1833  0.1981
  847MPD2    C312496   4.596   1.325  14.509 -0.0657  0.5398 -0.5755
  847MPD2    C412497   4.538   1.216  14.452  0.3553 -0.0610 -0.0428
  847MPD2    C512498   4.422   1.228  14.376 -0.4367  0.1489  0.1669
  847MPD2     H12499   4.589   1.544  14.515  1.6425 -0.8087  0.8280
  847MPD2    H112500   4.575   1.114  14.451  2.2856  0.6354 -0.9269
  847MPD2    H212501   4.270   1.358  14.302 -0.2820  1.0509  0.2052
  847MPD2    H312502   4.368   1.144  14.333 -0.0511 -0.7552  1.4276
  847MPD2     N12503   4.701   1.324  14.602 -0.1118  0.3198 -0.2277
  847MPD2    H512504   4.740   1.416  14.617  0.9962  0.1576 -2.1144
  847MPD2    N112505   4.363   1.584  14.429  0.6487  0.2047 -0.0812
  847MPD2    H712506   4.423   1.657  14.466 -0.0002  1.7487 -2.1009
  848MPD2     C12507   2.368   4.484  16.233 -0.6242 -0.8027 -0.7638
  848MPD2    C112508   2.466   4.557  16.302  0.0305  0.7495 -0.3117
  848MPD2    C212509   2.462   4.696  16.314 -0.1348  0.3714  0.1518
  848MPD2    C312510   2.355   0.013  16.248 -0.0460  0.4632 -0.4163
  848MPD2    C412511   2.254   4.680  16.186 -0.0707 -0.5908  0.0508
  848MPD2    C512512   2.258   4.541  16.182  0.3313 -0.1403  0.2823
  848MPD2     H12513   2.535   0.009  16.371 -0.3884  0.7788  0.0750
  848MPD2    H112514   2.172   4.733  16.138  0.4402  0.2389  0.1028
  848MPD2    H212515   2.379   4.376  16.229  1.8949 -0.5718 -0.0945
  848MPD2    H312516   2.182   4.480  16.134  0.5249  0.1786 -0.4232
  848MPD2     N12517   2.336   0.152  16.247 -0.2966 -0.6582 -0.1335
  848MPD2    H512518   2.246   0.181  16.212  0.0227 -1.5047 -1.6554
  848MPD2    N112519   2.552   4.477  16.385  0.4529  0.2488 -0.2725
  848MPD2    H712520   2.542   4.376  16.388  0.0067  0.3312  1.1562
  849MPD2     C12521   1.802   4.530  14.463 -0.4739 -0.6248  0.3579
  849MPD2    C112522   1.850   4.535  14.335 -0.0276 -0.4577  0.1996
  849MPD2    C212523   1.977   4.582  14.317 -0.0233  0.1799  0.5934
  849MPD2    C312524   2.056   4.626  14.413  0.0259 -0.3164 -0.4186
  849MPD2    C412525   1.998   4.641  14.538  0.6781  0.0778  0.8224
  849MPD2    C512526   1.873   4.591  14.560 -0.3180  0.2798  0.9969
  849MPD2     H12527   2.007   4.569  14.214  1.2408 -1.7968  1.2066
  849MPD2    H112528   2.060   4.676  14.620  1.4140 -2.0670  1.1902
  849MPD2    H212529   1.699   4.502  14.479 -0.5854  0.3805  1.4405
  849MPD2    H312530   1.818   4.589  14.653  0.7927 -2.5041  1.5951
  849MPD2     N12531   2.197   4.653  14.388 -0.1148  0.6612 -0.2686
  849MPD2    H512532   2.256   4.671  14.468 -1.1592 -2.3376  1.1506
  849MPD2    N112533   1.794   4.481  14.212 -0.1920 -0.4231 -0.2045
  849MPD2    H712534   1.847   4.480  14.126  0.8739  1.4546  0.4350
  850MPD2     C12535   4.379   2.427  14.908  0.1756 -0.2924 -0.1484
  850MPD2    C112536   4.472   2.406  15.006 -0.5596  0.2429 -0.5049
  850MPD2    C212537   4.606   2.397  14.973 -0.3937 -0.6981  0.1347
  850MPD2    C312538   4.651   2.427  14.846  0.3828 -0.1705  0.2879
  850MPD2    C412539   4.562   2.464  14.751  0.2123  0.9398  0.3165
  850MPD2    C512540   4.427   2.456  14.784  0.3825 -0.2157  0.1017
  850MPD2     H12541   4.672   2.361  15.051 -1.9691 -0.6963  1.4572
  850MPD2    H112542   4.591   2.492  14.650  1.9204  0.1368  0.5890
  850MPD2    H212543   4.271   2.435  14.918  0.4736  0.1364  2.6078
  850MPD2    H312544   4.371   2.492  14.698 -0.8904 -1.2722  0.4962
  850MPD2     N12545   0.044   2.448  14.827 -0.1342 -0.5625 -0.2060
  850MPD2    H512546   0.070   2.495  14.741  0.5147  0.6805  0.6510
  850MPD2    N112547   4.441   2.397  15.145 -0.1173 -0.0394 -0.2799
  850MPD2    H712548   4.523   2.395  15.204  0.9676 -0.2207 -1.7916
  851MPD2     C12549   0.179   2.292  15.675  0.2372  0.1772 -0.4712
  851MPD2    C112550   0.061   2.239  15.622 -0.0426  0.4658 -0.1800
  851MPD2    C212551   0.057   2.110  15.584  0.1825  0.1000  0.7460
  851MPD2    C312552   0.173   2.028  15.586 -0.0462  0.3210  0.0551
  851MPD2    C412553   0.284   2.079  15.654  0.3587 -0.9408 -0.5709
  851MPD2    C512554   0.290   2.211  15.685 -1.1860 -0.0994  0.3861
  851MPD2     H12555   4.717   2.070  15.526  0.1939 -0.7936  1.3533
  851MPD2    H112556   0.381   2.032  15.649  0.5544 -0.5894 -0.0212
  851MPD2    H212557   0.195   2.397  15.698 -1.3160  0.2499  0.2554
  851MPD2    H312558   0.385   2.257  15.712 -0.5838 -1.7575  1.0811
  851MPD2     N12559   0.173   1.902  15.523 -0.4680 -0.3450  0.1785
  851MPD2    H512560   0.087   1.874  15.478 -1.0985  0.7778  0.6900
  851MPD2    N112561   4.695   2.327  15.595 -0.5476 -0.5540 -0.1886
  851MPD2    H712562   4.699   2.428  15.602 -0.5763 -0.3312 -3.0720
  852MPD2     C12563   4.519   4.481  10.606  0.0507 -0.0254  0.3642
  852MPD2    C112564   4.528   4.606  10.658 -0.1230  0.0533 -0.2662
  852MPD2    C212565   4.564   4.709  10.577  0.3471  0.0301  0.3580
  852MPD2    C312566   4.605   4.678  10.452 -0.1713  0.2560 -0.0712
  852MPD2    C412567   4.593   4.555  10.396  0.0838 -0.1860 -0.2664
  852MPD2    C512568   4.546   4.455  10.478  0.3518  0.9190 -0.2503
  852MPD2     H12569   4.576   0.063  10.623  0.6391  0.4353 -0.5725
  852MPD2    H112570   4.623   4.531  10.295 -0.6288  0.5808 -0.6533
  852MPD2    H212571   4.468   4.409  10.668  1.1293 -0.9877  0.1318
  852MPD2    H312572   4.528   4.354  10.443  1.4344  0.2008  1.2580
  852MPD2     N12573   4.654   0.047  10.385 -0.3306 -0.3515  0.4687
  852MPD2    H512574   4.645   0.131  10.441  0.9662 -0.1174  0.3242
  852MPD2    N112575   4.511   4.624  10.800  0.5560 -0.3579  0.1643
  852MPD2    H712576   4.540   4.716  10.832 -0.2534  0.2834 -0.9308
  853MPD2     C12577   1.314   4.148  12.682 -0.0526 -0.1042  1.0476
  853MPD2    C112578   1.270   4.278  12.674 -0.0132 -0.6902  0.0126
  853MPD2    C212579   1.271   4.332  12.550 -1.0044  0.2177 -0.9206
  853MPD2    C312580   1.303   4.264  12.431 -0.1944 -0.0615  0.6766
  853MPD2    C412581   1.353   4.138  12.444 -0.0455  0.1916 -0.0346
  853MPD2    C512582   1.357   4.082  12.569  0.1666 -0.0406  0.3939
  853MPD2     H12583   1.244   4.437  12.538  0.9008  0.9568  1.4429
  853MPD2    H112584   1.380   4.078  12.358  2.0540 -0.3548  0.9949
  853MPD2    H212585   1.309   4.094  12.776 -0.1094  1.1509  1.7730
  853MPD2    H312586   1.380   3.976  12.568  0.0962 -0.0584  0.5876
  853MPD2     N12587   1.309   4.315  12.299  0.1833  0.9007 -0.0887
  853MPD2    H512588   1.338   4.254  12.224 -1.7406 -1.6341  1.2460
  853MPD2    N112589   1.251   4.337  12.803  0.6004  0.0466  0.1701
  853MPD2    H712590   1.258   4.285  12.890 -2.6419 -1.3498 -0.4303
  854MPD2     C12591   3.254   0.327  12.552  0.1014 -1.1957 -0.8682
  854MPD2    C112592   3.169   0.318  12.658  0.3768 -0.3534 -0.1834
  854MPD2    C212593   3.198   0.225  12.755  0.0042 -0.1110  0.5000
  854MPD2    C312594   3.298   0.131  12.735  0.5060  0.3544 -0.3510
  854MPD2    C412595   3.381   0.138  12.624 -0.4600  0.6624  0.0586
  854MPD2    C512596   3.353   0.234  12.529  0.3999  1.0041 -0.1369
  854MPD2     H12597   3.133   0.214  12.841 -0.4518  1.4535  0.3685
  854MPD2    H112598   3.470   0.080  12.607 -0.1315  1.2043 -0.0699
  854MPD2    H212599   3.258   0.397  12.469  0.3297  1.3978  1.3253
  854MPD2    H312600   3.408   0.246  12.436 -1.2791  0.2760 -1.2099
  854MPD2     N12601   3.329   0.024  12.824 -0.0663  0.5355  0.0353
  854MPD2    H512602   3.410   4.712  12.804 -0.4071 -0.0350  0.2440
  854MPD2    N112603   3.064   0.412  12.677 -0.2950 -0.3494 -0.6957
  854MPD2    H712604   3.062   0.486  12.608  0.2436  0.4678  0.1588
  855MPD2     C12605   3.465   0.044  13.828 -0.2793 -0.4453  0.2082
  855MPD2    C112606   3.409   4.658  13.811 -0.0367 -0.7094  0.3253
  855MPD2    C212607   3.389   4.617  13.676  0.5146  0.2299  0.4954
  855MPD2    C312608   3.411   4.700  13.566 -0.0226  0.6087 -0.2495
  855MPD2    C412609   3.456   0.088  13.591 -0.2761  0.0426 -0.4789
  855MPD2    C512610   3.478   0.125  13.721 -0.2952  0.1598  0.4599
  855MPD2     H12611   3.346   4.518  13.660  1.3576  0.0022 -0.3217
  855MPD2    H112612   3.480   0.157  13.511  0.5915  1.2071  0.7919
  855MPD2    H212613   3.509   0.079  13.921 -0.6190  2.3364 -0.6820
  855MPD2    H312614   3.532   0.218  13.735 -0.2259  0.0322  1.0749
  855MPD2     N12615   3.394   4.667  13.430  0.6035  0.1360  0.0877
  855MPD2    H512616   3.418   4.742  13.366 -0.5492 -0.6652 -1.3026
  855MPD2    N112617   3.381   4.580  13.929  0.1375  0.3519  0.4224
  855MPD2    H712618   3.374   4.625  14.019 -0.0861  0.7522  0.2004
  856MPD2     C12619   0.825   0.672  13.976  0.1315  0.1654 -0.4849
  856MPD2    C112620   0.858   0.804  13.979  0.2500  0.8210  0.2066
  856MPD2    C212621   0.791   0.896  13.895  0.5702  0.5233  0.2274
  856MPD2    C312622   0.675   0.862  13.829  0.3832 -0.3619  0.9265
  856MPD2    C412623   0.635   0.727  13.842 -0.4587 -0.3697 -0.2565
  856MPD2    C512624   0.711   0.637  13.912 -0.3604  1.0570 -0.4230
  856MPD2     H12625   0.830   0.997  13.900 -0.6414  0.9265  1.5234
  856MPD2    H112626   0.539   0.700  13.801 -0.6767 -0.8938  0.5987
  856MPD2    H212627   0.885   0.594  14.023 -2.4124  0.1915  2.8421
  856MPD2    H312628   0.688   0.531  13.906  0.8906  0.7192  0.8640
  856MPD2     N12629   0.596   0.960  13.763  0.4361  0.3020 -0.1391
  856MPD2    H512630   0.531   0.923  13.694 -1.2242  0.5907  1.2647
  856MPD2    N112631   0.959   0.851  14.069 -0.7902  0.1341  0.5081
  856MPD2    H712632   0.971   0.951  14.067 -2.3358  0.3298  0.8116
  857MPD2     C12633   2.225   2.698  12.593  0.1870 -0.3156  0.1358
  857MPD2    C112634   2.245   2.710  12.726  0.1688 -0.1399 -0.4553
  857MPD2    C212635   2.271   2.841  12.769  0.2661 -0.4853  0.0074
  857MPD2    C312636   2.266   2.953  12.687 -0.1338  0.1414 -0.0988
  857MPD2    C412637   2.234   2.928  12.554  0.6149  0.4650 -0.7758
  857MPD2    C512638   2.210   2.806  12.507  0.1810 -0.1442 -0.4791
  857MPD2     H12639   2.302   2.865  12.871  0.4430 -1.3335  0.1571
  857MPD2    H112640   2.216   3.008  12.482  1.4415  1.1811 -0.1923
  857MPD2    H212641   2.215   2.601  12.545  2.9452 -0.9023  0.7561
  857MPD2    H312642   2.181   2.787  12.405 -0.6262  0.7157 -0.4107
  857MPD2     N12643   2.285   3.079  12.746  0.1169 -0.1377 -0.6980
  857MPD2    H512644   2.289   3.081  12.847  3.4715 -0.0231 -0.8592
  857MPD2    N112645   2.248   2.588  12.804  0.0026 -0.1954  0.1597
  857MPD2    H712646   2.203   2.506  12.766 -1.6918  0.7997  0.0047
  858MPD2     C12647   3.041   2.147  16.522 -0.0523 -0.1598  0.3564
  858MPD2    C112648   3.152   2.093  16.580 -1.1303 -0.0838  0.4289
  858MPD2    C212649   3.208   2.137  16.699 -0.0404  0.2580  0.0713
  858MPD2    C312650   3.153   2.245  16.760  0.0562  0.1749 -0.0813
  858MPD2    C412651   3.045   2.315  16.697 -0.2066 -0.1376 -0.4820
  858MPD2    C512652   2.986   2.255  16.589 -0.0528 -0.4541  0.1048
  858MPD2     H12653   3.296   2.084  16.734  0.3148  0.8233  0.0471
  858MPD2    H112654   3.002   2.393  16.759 -0.2914  0.6591 -1.5438
  858MPD2    H212655   2.996   2.103  16.434  1.7160 -1.1420 -0.0533
  858MPD2    H312656   2.894   2.300  16.552  0.5804  1.2253  0.5826
  858MPD2     N12657   3.206   2.302  16.881  0.4485  0.5594  0.1222
  858MPD2    H512658   3.164   2.392  16.904  2.7643  1.7642 -0.3713
  858MPD2    N112659   3.193   1.976  16.519 -0.0794  0.4626 -0.0735
  858MPD2    H712660   3.152   1.964  16.428 -0.6438  2.6032 -0.0870
  859MPD2     C12661   1.796   4.036  15.588 -0.9600  0.3966 -0.6842
  859MPD2    C112662   1.750   4.068  15.461  0.3051  0.2940 -0.5113
  859MPD2    C212663   1.665   3.980  15.397  0.2283  0.3723 -0.1162
  859MPD2    C312664   1.653   3.853  15.444 -0.2381 -0.4370 -0.3630
  859MPD2    C412665   1.720   3.819  15.556 -0.3430 -0.1701 -0.2827
  859MPD2    C512666   1.793   3.905  15.631  0.2189 -0.3009  0.8000
  859MPD2     H12667   1.629   4.010  15.299  0.4332 -0.0167 -0.3120
  859MPD2    H112668   1.736   3.715  15.582  1.5580 -0.2774 -1.9038
  859MPD2    H212669   1.846   4.112  15.647  0.1733 -1.2798  0.5003
  859MPD2    H312670   1.837   3.874  15.726  0.4062 -1.0869  0.4515
  859MPD2     N12671   1.579   3.745  15.383 -0.5760  0.5397 -0.3120
  859MPD2    H512672   1.581   3.663  15.442 -0.5633  1.0802  0.4504
  859MPD2    N112673   1.771   4.201  15.417  0.7679 -0.6038  0.7299
  859MPD2    H712674   1.846   4.257  15.456  0.8647  0.7303 -1.3840
  860MPD2     C12675   4.509   4.179  12.338  0.5000  0.4754  0.3889
  860MPD2    C112676   4.417   4.252  12.409 -0.2561  0.2325  0.0584
  860MPD2    C212677   4.289   4.250  12.363  0.6895 -0.5857  0.6922
  860MPD2    C312678   4.248   4.188  12.243  0.9812  0.4788 -0.7106
  860MPD2    C412679   4.343   4.121  12.176 -0.6180 -0.1906 -0.4362
  860MPD2    C512680   4.477   4.122  12.224  0.4213 -0.5190  0.8069
  860MPD2     H12681   4.215   4.314  12.410  0.0028 -0.3397 -0.7276
  860MPD2    H112682   4.321   4.076  12.080  0.3462  2.9043 -2.1144
  860MPD2    H212683   4.612   4.181  12.370  0.8427  0.4974 -0.7143
  860MPD2    H312684   4.550   4.073  12.160 -1.3786 -1.4399 -0.5404
  860MPD2     N12685   4.117   4.196  12.197  0.4416 -0.1354  0.1185
  860MPD2    H512686   4.053   4.248  12.255  0.3034 -0.0446 -0.1173
  860MPD2    N112687   4.446   4.319  12.528 -0.4933 -0.0324  0.4885
  860MPD2    H712688   4.372   4.358  12.585 -1.7571 -0.7626 -0.6569
  861MPD2     C12689   2.393   2.680  11.039 -0.2427 -0.8225  0.1659
  861MPD2    C112690   2.480   2.782  11.070 -0.5168 -0.0828  0.0253
  861MPD2    C212691   2.462   2.900  10.991 -0.2878  0.4532  0.1914
  861MPD2    C312692   2.352   2.919  10.897 -0.0818  0.3799  0.2990
  861MPD2    C412693   2.264   2.812  10.889  0.7605  0.2596  0.0126
  861MPD2    C512694   2.289   2.697  10.955 -0.3229 -0.1836  0.1357
  861MPD2     H12695   2.530   2.979  11.018 -0.6337  0.7529  0.1801
  861MPD2    H112696   2.175   2.817  10.827  1.4943 -0.7105 -1.1190
  861MPD2    H212697   2.403   2.583  11.087  1.7537 -0.0934  1.2101
  861MPD2    H312698   2.216   2.618  10.948 -0.7473  0.3016 -0.9532
  861MPD2     N12699   2.332   3.027  10.813 -0.3978 -0.1526 -0.0173
  861MPD2    H512700   2.238   3.024  10.775 -0.2652  0.2845 -0.3810
  861MPD2    N112701   2.574   2.789  11.182  0.0857 -0.1618  0.8852
  861MPD2    H712702   2.627   2.875  11.194  0.8875 -0.6025  0.4626
  862MPD2     C12703   1.963   3.286  10.264  0.4897  0.4133 -0.0774
  862MPD2    C112704   1.966   3.195  10.363 -0.1267 -0.1730 -0.1757
  862MPD2    C212705   1.898   3.078  10.348 -0.1303 -0.0568 -0.0389
  862MPD2    C312706   1.815   3.062  10.238  0.5407  0.1799 -0.7262
  862MPD2    C412707   1.817   3.150  10.134 -0.3067 -0.2169 -0.0998
  862MPD2    C512708   1.887   3.265  10.153  0.0889 -0.5542 -0.7547
  862MPD2     H12709   1.895   3.012  10.434  2.4389  1.5083  1.2702
  862MPD2    H112710   1.775   3.126  10.037 -1.6426  0.1575  0.3863
  862MPD2    H212711   2.009   3.383  10.272  0.6957  0.2242  1.0751
  862MPD2    H312712   1.894   3.336  10.072  0.5165  0.0807 -0.1553
  862MPD2     N12713   1.732   2.951  10.221  0.1676  0.3904 -0.4903
  862MPD2    H512714   1.653   2.971  10.160  0.6227 -1.5419 -1.7057
  862MPD2    N112715   2.026   3.214  10.488 -0.3283 -0.0227  0.0777
  862MPD2    H712716   2.020   3.144  10.562 -1.1401 -0.1378 -0.0989
  863MPD2     C12717   1.503   0.901  16.652 -0.8625  0.2894  0.5952
  863MPD2    C112718   1.505   1.030  16.708 -0.0161 -0.6589  0.0988
  863MPD2    C212719   1.573   1.051  16.831  0.1811 -0.1564 -0.1982
  863MPD2    C312720   1.625   0.937  16.898  0.1749 -0.4500 -0.8848
  863MPD2    C412721   1.595   0.809  16.846  0.1151  0.1525  0.5858
  863MPD2    C512722   1.548   0.789  16.718 -0.0000  0.3527 -0.1244
  863MPD2     H12723   1.593   1.148  16.874 -0.2479 -0.7847  1.4189
  863MPD2    H112724   1.616   0.718  16.901 -2.0811  0.6955  2.2823
  863MPD2    H212725   1.458   0.883  16.555  1.7618 -0.4507 -0.4856
  863MPD2    H312726   1.542   0.686  16.685 -2.4569 -0.1189  1.8408
  863MPD2     N12727   1.690   0.940  17.032 -0.3408  0.0214 -0.3505
  863MPD2    H512728   1.724   0.849  17.065 -0.0738  1.0493  2.1892
  863MPD2    N112729   1.439   1.129  16.637  0.3327 -1.1841 -0.5170
  863MPD2    H712730   1.383   1.106  16.555 -0.4020  1.0610 -0.6416
  864MPD2     C12731   1.851   2.534  17.253  0.4325  0.0528 -0.3780
  864MPD2    C112732   1.892   2.433  17.170  0.3744 -0.2871 -0.0216
  864MPD2    C212733   1.983   2.459  17.075 -0.0961 -0.0504 -0.4231
  864MPD2    C312734   2.018   2.593  17.047  1.1625 -0.1390  1.0560
  864MPD2    C412735   1.974   2.696  17.127  0.1304  0.2611  0.1826
  864MPD2    C512736   1.880   2.661  17.222  0.0927  0.0304 -0.7661
  864MPD2     H12737   2.024   2.380  17.012 -1.2926 -0.3603 -0.8193
  864MPD2    H112738   2.010   2.798  17.119  0.1235  0.2468 -0.0162
  864MPD2    H212739   1.786   2.513  17.337  1.0664  1.2374  0.4225
  864MPD2    H312740   1.841   2.742  17.283  1.4027  0.0953 -0.0221
  864MPD2     N12741   2.091   2.632  16.930  0.2665 -0.5333 -0.2449
  864MPD2    H512742   2.087   2.730  16.905  0.0203  0.4318  3.4521
  864MPD2    N112743   1.854   2.304  17.208 -0.1758  0.2041 -0.1815
  864MPD2    H712744   1.790   2.301  17.287 -0.4058 -0.8159 -0.4135
  865MPD2     C12745   2.145   2.678  16.062 -0.4515  0.0490  0.5547
  865MPD2    C112746   2.146   2.606  16.176  0.2590  0.3069  0.6134
  865MPD2    C212747   2.115   2.679  16.292 -0.3383  0.6013 -0.6229
  865MPD2    C312748   2.093   2.818  16.284 -0.1000  0.6920 -0.5672
  865MPD2    C412749   2.088   2.888  16.163 -0.0132 -0.4381  0.5038
  865MPD2    C512750   2.117   2.815  16.048 -0.4480 -0.5149 -0.7775
  865MPD2     H12751   2.111   2.627  16.387 -1.4320 -0.9072 -1.4887
  865MPD2    H112752   2.079   2.995  16.151  0.5146 -0.8274 -3.3916
  865MPD2    H212753   2.166   2.620  15.972 -0.4198  1.1523 -0.1577
  865MPD2    H312754   2.118   2.868  15.953 -0.6570  0.2717 -0.3490
  865MPD2     N12755   2.050   2.897  16.399 -0.4011  0.1706  0.2081
  865MPD2    H512756   2.049   2.998  16.385 -0.4642  0.1998  0.4215
  865MPD2    N112757   2.174   2.464  16.164 -0.2352 -0.3931  0.3281
  865MPD2    H712758   2.189   2.414  16.078 -3.1199 -0.8116  0.0895
  866MPD2     C12759   3.473   3.318  10.840 -0.0832  0.1089  0.0047
  866MPD2    C112760   3.413   3.223  10.919  0.5757 -0.2764 -0.5207
  866MPD2    C212761   3.276   3.221  10.932  0.6381 -0.2332  0.2154
  866MPD2    C312762   3.204   3.331  10.884 -0.3169 -0.1954 -0.2530
  866MPD2    C412763   3.267   3.432  10.806 -0.1556  0.5326 -0.0887
  866MPD2    C512764   3.400   3.420  10.788  0.4212  0.3730 -0.4050
  866MPD2     H12765   3.225   3.142  10.986  0.0814 -0.3153 -0.4308
  866MPD2    H112766   3.220   3.521  10.767 -0.7990  0.3368  0.2396
  866MPD2    H212767   3.580   3.325  10.828 -0.2099 -2.5087 -2.7348
  866MPD2    H312768   3.455   3.493  10.730 -1.2593 -0.2259 -2.7862
  866MPD2     N12769   3.067   3.359  10.903  0.0258  0.0524  0.4791
  866MPD2    H512770   3.035   3.450  10.871 -1.5604 -0.6640 -0.0085
  866MPD2    N112771   3.505   3.131  10.975 -0.5259 -0.0606 -0.5964
  866MPD2    H712772   3.597   3.144  10.934 -0.3667 -0.6878 -0.4364
  867MPD2     C12773   1.691   2.610  16.842 -0.4610  0.7904  0.4891
  867MPD2    C112774   1.626   2.543  16.941  0.1500 -0.1009  0.6064
  867MPD2    C212775   1.575   2.620  17.045  0.1333  0.9807 -0.0283
  867MPD2    C312776   1.590   2.753  17.053 -1.1964  0.1461  0.4546
  867MPD2    C412777   1.655   2.823  16.953 -0.2351 -0.4185 -0.4758
  867MPD2    C512778   1.714   2.748  16.853 -0.1083 -0.1571  0.4237
  867MPD2     H12779   1.521   2.577  17.128 -0.9657 -0.5409 -1.5207
  867MPD2    H112780   1.690   2.923  16.974  0.0061  0.2214 -3.8564
  867MPD2    H212781   1.736   2.547  16.766 -1.6163  1.3151 -0.6541
  867MPD2    H312782   1.772   2.802  16.779  0.4011 -1.9318 -0.4723
  867MPD2     N12783   1.539   2.836  17.157  0.6505  0.2526  0.2474
  867MPD2    H512784   1.567   2.933  17.150 -3.2374  1.3700  0.3878
  867MPD2    N112785   1.595   2.404  16.922 -0.8180 -0.1393 -0.5321
  867MPD2    H712786   1.631   2.360  16.838  0.6950 -0.2574  0.1750
  868MPD2     C12787   2.357   1.354  13.201  0.4131  0.3041 -0.0080
  868MPD2    C112788   2.432   1.457  13.253  0.2415 -0.2353 -0.0649
  868MPD2    C212789   2.360   1.562  13.310  0.6293 -0.0851 -0.0885
  868MPD2    C312790   2.223   1.562  13.340  1.3882  0.6349 -0.3373
  868MPD2    C412791   2.155   1.458  13.284 -0.4971 -0.0988  0.5053
  868MPD2    C512792   2.222   1.359  13.212  0.0444 -0.2754  0.0306
  868MPD2     H12793   2.408   1.649  13.356 -0.4362  0.4936 -0.0779
  868MPD2    H112794   2.047   1.451  13.291 -0.4684 -0.3316  0.7240
  868MPD2    H212795   2.397   1.260  13.166  1.1666  0.3161  0.8136
  868MPD2    H312796   2.167   1.273  13.176  1.0371 -0.7742 -0.2730
  868MPD2     N12797   2.167   1.668  13.411  0.0950 -0.1173  0.2035
  868MPD2    H512798   2.226   1.750  13.422 -3.1656  2.4776 -1.3654
  868MPD2    N112799   2.566   1.454  13.214  0.6952 -0.2287 -0.0771
  868MPD2    H712800   2.608   1.371  13.174 -1.6849 -1.6805  0.4220
  869MPD2     C12801   3.651   4.200   0.647 -0.2716  0.1304  0.5765
  869MPD2    C112802   3.719   4.309   0.618 -0.3152 -0.1454  0.4691
  869MPD2    C212803   3.851   4.288   0.561 -0.0175 -0.5004 -0.0641
  869MPD2    C312804   3.898   4.160   0.535  0.4549 -0.4872 -0.5624
  869MPD2    C412805   3.827   4.051   0.584  0.2476  0.2482  0.0942
  869MPD2    C512806   3.700   4.071   0.637 -0.2473  0.2462  0.6505
  869MPD2     H12807   3.905   4.372   0.519 -1.8931  1.1732  0.8731
  869MPD2    H112808   3.864   3.950   0.567  0.8694  0.5355 -0.2631
  869MPD2    H212809   3.551   4.215   0.687 -0.2697 -3.0447  1.8367
  869MPD2    H312810   3.640   3.987   0.671  0.9419  0.0974  2.4132
  869MPD2     N12811   4.023   4.135   0.471  0.6927  0.0239  0.0337
  869MPD2    H512812   4.030   4.043   0.428 -1.4798 -0.1343  0.0133
  869MPD2    N112813   3.667   4.431   0.647 -0.4768  0.1526 -0.1540
  869MPD2    H712814   3.569   4.419   0.674 -0.4091  0.4884  0.2402
  870MPD2     C12815   1.891   3.548   1.306 -0.2084  0.5441 -0.1421
  870MPD2    C112816   2.015   3.535   1.244 -0.0921 -0.0210  0.5919
  870MPD2    C212817   2.020   3.482   1.113 -0.0926  0.1577  0.0849
  870MPD2    C312818   1.902   3.443   1.050  0.6101 -0.1530 -0.0479
  870MPD2    C412819   1.779   3.437   1.124 -0.0585  0.3850  0.5049
  870MPD2    C512820   1.776   3.484   1.257  0.3361 -0.6429 -0.4569
  870MPD2     H12821   2.113   3.493   1.060 -0.9497 -0.9066 -1.6471
  870MPD2    H112822   1.690   3.403   1.072 -0.3720  1.1319  0.5555
  870MPD2    H212823   1.873   3.581   1.407 -0.3478  1.5645 -0.4967
  870MPD2    H312824   1.684   3.484   1.313 -1.1953 -2.0050 -2.9817
  870MPD2     N12825   1.917   3.413   0.908  0.6902  0.1688  0.0410
  870MPD2    H512826   2.009   3.430   0.867 -1.1605  4.5404 -2.3179
  870MPD2    N112827   2.126   3.590   1.309  0.1215  0.3512 -0.5827
  870MPD2    H712828   2.114   3.648   1.391 -0.6760  1.1020 -1.2232
  871MPD2     C12829   4.592   2.768  16.493  0.4047  0.4749 -0.0631
  871MPD2    C112830   4.553   2.715  16.611 -0.4217 -0.1420 -0.3845
  871MPD2    C212831   4.567   2.578  16.627 -0.3658 -0.0291  0.5675
  871MPD2    C312832   4.642   2.505  16.530  0.2311  0.1593  0.0022
  871MPD2    C412833   4.681   2.559  16.414 -0.0441 -0.6743 -0.0956
  871MPD2    C512834   4.650   2.692  16.395  0.1214 -0.0637 -0.5564
  871MPD2     H12835   4.548   2.529  16.722 -0.3037 -2.0786 -0.4685
  871MPD2    H112836   4.728   2.508  16.331  1.6319 -0.5136  0.7648
  871MPD2    H212837   4.578   2.872  16.467  1.8033  0.9049  0.9059
  871MPD2    H312838   4.661   2.740  16.299 -0.6442 -1.8636 -1.5507
  871MPD2     N12839   4.674   2.369  16.551 -0.4680  0.1797 -0.4694
  871MPD2    H512840   4.628   2.327  16.631 -1.0291 -1.1256 -1.4706
  871MPD2    N112841   4.470   2.795  16.697  0.0944  0.0020  0.4769
  871MPD2    H712842   4.461   2.888  16.656  0.8046  0.0975  0.5412
  872MPD2     C12843   0.698   4.478  13.937 -0.8937 -0.5380 -0.2060
  872MPD2    C112844   0.726   4.602  13.983 -0.0754  0.2249 -0.0483
  872MPD2    C212845   0.620   4.676  14.046 -0.6811 -0.2330 -0.1894
  872MPD2    C312846   0.493   4.617  14.058 -0.0652  0.8019 -0.1367
  872MPD2    C412847   0.474   4.490  14.011 -0.2612  0.0982 -0.1120
  872MPD2    C512848   0.576   4.425  13.945 -0.0725  0.4082 -0.1334
  872MPD2     H12849   0.642   0.030  14.086  1.6587 -0.3891 -1.0433
  872MPD2    H112850   0.374   4.448  14.017 -0.7122  1.1421 -0.3178
  872MPD2    H212851   0.771   4.418  13.885  0.9976  1.2037  0.4286
  872MPD2    H312852   0.561   4.337  13.883 -0.3447  1.0680 -1.0056
  872MPD2     N12853   0.381   4.684  14.117  0.4939 -0.7287 -0.1357
  872MPD2    H512854   0.296   4.630  14.127  0.9452 -1.2643  0.7642
  872MPD2    N112855   0.852   4.660  13.971 -0.4904  0.0940 -0.1796
  872MPD2    H712856   0.859   0.012  14.004 -0.0870  0.4068 -1.1870
  873MPD2     C12857   2.824   4.543   0.981  0.1807 -0.3077  0.0803
  873MPD2    C112858   2.704   4.594   1.032 -0.3620 -0.5747 -0.6227
  873MPD2    C212859   2.587   4.515   1.024  0.0517 -0.0449 -0.1002
  873MPD2    C312860   2.587   4.392   0.948  0.4872  0.1233  0.0540
  873MPD2    C412861   2.714   4.341   0.914 -1.3051  0.1567 -0.2168
  873MPD2    C512862   2.824   4.419   0.932  0.6130 -0.1329  0.2466
  873MPD2     H12863   2.492   4.553   1.058  0.4533 -1.5313  2.6432
  873MPD2    H112864   2.728   4.256   0.848 -1.4456  1.2081 -1.6070
  873MPD2    H212865   2.918   4.598   0.971 -0.6697  1.0677 -0.3711
  873MPD2    H312866   2.912   4.385   0.878  1.4345  0.0875  1.4512
  873MPD2     N12867   2.467   4.321   0.920  0.3471 -0.2201  0.3046
  873MPD2    H512868   2.474   4.234   0.868 -2.1735 -2.1974  3.2502
  873MPD2    N112869   2.699   4.730   1.074 -0.6865 -0.1827 -0.0603
  873MPD2    H712870   2.788   0.035   1.082 -0.7736 -0.0196 -0.0858
  874MPD2     C12871   1.599   0.057  16.496  0.0722  0.3284 -0.6003
  874MPD2    C112872   1.729   0.008  16.456  0.6418  0.1672  0.3523
  874MPD2    C212873   1.818   0.110  16.416  1.0437 -0.0666 -0.1583
  874MPD2    C312874   1.800   0.247  16.435 -0.2444 -0.6479 -0.0374
  874MPD2    C412875   1.680   0.280  16.488 -0.0913  0.1905 -0.2342
  874MPD2    C512876   1.583   0.195  16.509 -0.2437  0.5878  0.4332
  874MPD2     H12877   1.915   0.080  16.378  1.9308  1.7297  0.6552
  874MPD2    H112878   1.655   0.384  16.507 -0.0437  0.3160 -0.8888
  874MPD2    H212879   1.516   4.735  16.520  1.4027 -1.3747 -0.6969
  874MPD2    H312880   1.487   0.234  16.541 -0.0894 -1.0095  2.8576
  874MPD2     N12881   1.908   0.342  16.415  0.4085 -0.4031  0.2047
  874MPD2    H512882   1.898   0.433  16.460 -2.3701 -0.6832  0.1740
  874MPD2    N112883   1.757   4.620  16.458 -0.3389 -0.1785  1.0909
  874MPD2    H712884   1.673   4.564  16.463  0.9315 -2.0843  1.0991
  875MPD2     C12885   2.681   3.060  14.406  0.9463 -0.4363  0.1988
  875MPD2    C112886   2.639   3.191  14.398 -0.5028  0.2091 -0.0752
  875MPD2    C212887   2.646   3.277  14.510  0.2104 -0.0258  0.4796
  875MPD2    C312888   2.695   3.226  14.629  0.0359  0.9941 -0.1810
  875MPD2    C412889   2.713   3.085  14.646  0.2753  0.2743 -0.6119
  875MPD2    C512890   2.703   3.008  14.530  0.2462 -0.1854  0.9075
  875MPD2     H12891   2.616   3.379  14.490 -2.0561 -0.5140  1.4160
  875MPD2    H112892   2.756   3.048  14.738 -1.3152  3.1757  1.3121
  875MPD2    H212893   2.668   2.992  14.323  1.3602 -0.5319  0.2138
  875MPD2    H312894   2.748   2.909  14.532  0.6002 -0.0529 -0.8235
  875MPD2     N12895   2.716   3.316  14.742 -0.1734  0.2128  0.7547
  875MPD2    H512896   2.697   3.414  14.725 -2.2617 -0.1002  1.2785
  875MPD2    N112897   2.587   3.235  14.274 -0.3810 -0.0282  0.5034
  875MPD2    H712898   2.567   3.157  14.213 -1.5522 -0.0313  0.8903
  876MPD2     C12899   1.863   4.740  16.014 -0.5325  0.9131 -0.6064
  876MPD2    C112900   1.951   4.648  15.961  0.3980 -0.3663 -0.4694
  876MPD2    C212901   1.927   4.514  15.974  0.6551  0.1780 -0.0652
  876MPD2    C312902   1.818   4.467  16.048  0.3309  0.7058  0.0456
  876MPD2    C412903   1.733   4.561  16.112  0.3146  0.3888  0.0715
  876MPD2    C512904   1.752   4.697  16.088  0.7370 -0.1354 -0.4315
  876MPD2     H12905   1.990   4.434  15.937 -2.8949 -2.1142 -1.2205
  876MPD2    H112906   1.651   4.522  16.171  2.1569 -1.1657  1.6052
  876MPD2    H212907   1.879   0.102  15.994  0.2111  1.3246  2.0848
  876MPD2    H312908   1.690   0.021  16.147  2.3985 -0.8260  2.0816
  876MPD2     N12909   1.801   4.329  16.072 -0.5753  0.3520 -0.2577
  876MPD2    H512910   1.880   4.275  16.039 -0.1762  1.0062 -0.3734
  876MPD2    N112911   2.060   4.700  15.891  0.6260  0.3811  0.1252
  876MPD2    H712912   2.064   0.058  15.886  1.4691  0.3095 -0.6355
  877MPD2     C12913   2.077   0.355  15.258  0.4141 -0.6414 -0.1958
  877MPD2    C112914   2.196   0.373  15.304 -0.1898  0.1820  0.1454
  877MPD2    C212915   2.276   0.462  15.237 -0.1289  0.0448 -0.9878
  877MPD2    C312916   2.231   0.523  15.122  0.0082 -0.0724 -0.7488
  877MPD2    C412917   2.099   0.506  15.082  0.5785 -0.0344  0.4080
  877MPD2    C512918   2.030   0.407  15.144  0.5765  0.1304 -0.4344
  877MPD2     H12919   2.375   0.486  15.274 -0.9499 -0.0199  1.2375
  877MPD2    H112920   2.063   0.544  14.987  0.2100 -2.9421 -0.6166
  877MPD2    H212921   2.013   0.283  15.308  0.8638 -3.0772 -3.0946
  877MPD2    H312922   1.933   0.378  15.104 -0.3950  2.5848  0.1335
  877MPD2     N12923   2.310   0.610  15.040  0.5410  0.5096  0.2629
  877MPD2    H512924   2.261   0.665  14.970  0.0244  0.4743  0.6004
  877MPD2    N112925   2.252   0.321  15.427  0.4473 -0.5724  0.1201
  877MPD2    H712926   2.351   0.337  15.441  0.0233  1.9667  0.2214
  878MPD2     C12927   1.622   3.687  13.545  0.4954 -0.5054  0.3306
  878MPD2    C112928   1.692   3.803  13.504 -0.1565  0.0165 -0.6971
  878MPD2    C212929   1.722   3.911  13.587 -0.4590 -0.0757  0.1285
  878MPD2    C312930   1.685   3.905  13.717 -0.7446 -0.3512 -0.0031
  878MPD2    C412931   1.616   3.793  13.764 -0.7161  0.2564 -0.3861
  878MPD2    C512932   1.590   3.689  13.678  0.2210  0.7976 -0.0593
  878MPD2     H12933   1.778   3.999  13.557  0.4368 -0.7469 -0.1540
  878MPD2    H112934   1.570   3.790  13.862  1.2913  2.2410  0.6091
  878MPD2    H212935   1.604   3.606  13.476 -1.3846 -0.1685  0.4440
  878MPD2    H312936   1.537   3.602  13.714 -0.0654  1.5213  1.2834
  878MPD2     N12937   1.720   4.016  13.803  0.0043 -0.0189  0.1187
  878MPD2    H512938   1.766   4.095  13.759  0.6274 -0.7705 -0.5728
  878MPD2    N112939   1.744   3.801  13.367  0.5378  0.3303 -0.4359
  878MPD2    H712940   1.731   3.714  13.317  0.6127 -0.6279  1.2171
  879MPD2     C12941   2.207   1.360  17.014 -0.7773  0.4798  0.3479
  879MPD2    C112942   2.273   1.259  17.068 -0.5495 -0.7621 -0.0567
  879MPD2    C212943   2.245   1.125  17.042  0.7050 -0.1503 -0.0494
  879MPD2    C312944   2.131   1.101  16.967  0.6891 -0.0612  0.2387
  879MPD2    C412945   2.066   1.204  16.901  0.0671  0.1783 -0.5450
  879MPD2    C512946   2.106   1.335  16.930  0.4167  0.1080  0.1234
  879MPD2     H12947   2.307   1.043  17.073 -0.4974 -0.9624  0.2200
  879MPD2    H112948   1.981   1.186  16.837 -0.2620 -1.5536  0.3725
  879MPD2    H212949   2.231   1.465  17.029 -1.4811  0.4366  1.7440
  879MPD2    H312950   2.055   1.421  16.887 -1.7570 -1.1233  0.2314
  879MPD2     N12951   2.079   0.975  16.938  0.4444 -0.4531  0.0360
  879MPD2    H512952   2.000   0.978  16.875 -1.1178  1.4397  2.1139
  879MPD2    N112953   2.381   1.283  17.163 -0.3160 -0.3179 -0.0293
  879MPD2    H712954   2.401   1.382  17.171  2.1508 -0.8457  0.3358
  880MPD2     C12955   3.303   3.167   0.075 -0.0720  0.5345 -0.0424
  880MPD2    C112956   3.232   3.218   0.184 -0.2624 -0.2563  0.1099
  880MPD2    C212957   3.258   3.167   0.304 -0.4999 -0.6164  0.0706
  880MPD2    C312958   3.345   3.069   0.330  0.4349  0.6519 -0.0580
  880MPD2    C412959   3.411   3.011   0.220 -0.7429  0.0795 -0.0579
  880MPD2    C512960   3.392   3.065   0.093 -0.1441  0.0878 -0.1360
  880MPD2     H12961   3.200   3.202   0.389  0.8865  2.3494 -0.2035
  880MPD2    H112962   3.489   2.937   0.231 -0.0313  0.4227 -2.7772
  880MPD2    H212963   3.283   3.208  17.748  0.0806 -1.2742 -0.8372
  880MPD2    H312964   3.456   3.030   0.014 -2.9340 -0.0395 -2.3488
  880MPD2     N12965   3.363   3.033   0.460  0.1644  0.6915 -0.8629
  880MPD2    H512966   3.335   3.100   0.531  1.4965 -0.6096  0.8826
  880MPD2    N112967   3.136   3.316   0.158 -0.2363  0.1621  0.1694
  880MPD2    H712968   3.117   3.329   0.059 -1.0989  0.2915  0.3568
  881MPD2     C12969   2.798   3.198  17.152  0.3567 -0.7963  0.2652
  881MPD2    C112970   2.918   3.201  17.219 -0.7211 -0.1429 -0.2909
  881MPD2    C212971   2.920   3.234  17.350 -0.3145  0.7558 -0.1171
  881MPD2    C312972   2.813   3.301  17.406 -0.0257  0.0276 -0.1266
  881MPD2    C412973   2.698   3.317  17.334 -0.1893  0.6172  0.7992
  881MPD2    C512974   2.695   3.268  17.208  0.8702 -1.0736 -0.0710
  881MPD2     H12975   3.007   3.214  17.412 -0.2000 -1.2116 -0.8908
  881MPD2    H112976   2.612   3.370  17.374 -0.7522 -0.8455  1.5553
  881MPD2    H212977   2.792   3.183  17.044 -1.7709 -1.6378  0.5025
  881MPD2    H312978   2.611   3.296  17.146  1.0829  1.7795  0.9305
  881MPD2     N12979   2.821   3.370  17.531 -0.3251  0.0986  0.0786
  881MPD2    H512980   2.740   3.421  17.563 -0.0013  0.6125  0.0731
  881MPD2    N112981   3.022   3.138  17.149  0.0521 -0.4305 -0.6002
  881MPD2    H712982   3.010   3.105  17.054 -0.6820  2.3263 -1.4645
  882MPD2     C12983   1.976   0.855  14.480 -0.1250 -0.2270 -0.2241
  882MPD2    C112984   2.024   0.796  14.588  0.1799  0.0847  0.2531
  882MPD2    C212985   1.944   0.699  14.650  0.0586  0.3481  0.2917
  882MPD2    C312986   1.818   0.666  14.605 -0.0697 -0.0570 -0.2458
  882MPD2    C412987   1.767   0.741  14.496  0.2269  0.1349 -0.2164
  882MPD2    C512988   1.848   0.829  14.433  0.0355 -0.6942 -0.5050
  882MPD2     H12989   1.979   0.634  14.729 -1.6829 -2.8586 -1.5563
  882MPD2    H112990   1.668   0.719  14.457  0.4066  0.2704 -0.7485
  882MPD2    H212991   2.036   0.933  14.435  2.3715 -1.2474  1.3569
  882MPD2    H312992   1.796   0.890  14.361 -4.5206 -3.0956  0.7659
  882MPD2     N12993   1.742   0.563  14.667 -0.6942 -0.2249  0.3774
  882MPD2    H512994   1.648   0.556  14.628 -0.7031 -0.1018  0.3788
  882MPD2    N112995   2.157   0.831  14.634 -0.3556 -0.3767 -0.1352
  882MPD2    H712996   2.202   0.907  14.583 -1.3480 -0.5223 -1.2214
  883MPD2     C12997   4.297   4.711  16.845 -0.1452  0.2191 -0.2562
  883MPD2    C112998   4.367   0.014  16.732 -0.2969  0.3823 -0.0760
  883MPD2    C212999   4.486   0.082  16.746 -0.3515 -0.2357  0.6095
  883MPD2    C313000   4.544   0.107  16.871 -0.6764 -0.2303  0.0340
  883MPD2    C413001   4.478   0.052  16.980 -0.7462  0.0219  0.9329
  883MPD2    C513002   4.361   4.726  16.965 -0.0554 -0.1211  0.1689
  883MPD2     H13003   4.534   0.124  16.658  0.9256 -2.2871  0.3216
  883MPD2    H113004   4.501   0.068  17.085  0.0805  1.4386  0.5402
  883MPD2    H213005   4.204   4.658  16.826  0.7907 -1.7276  0.5939
  883MPD2    H313006   4.310   4.692  17.054 -1.0710 -0.3541 -0.5027
  883MPD2     N13007   4.667   0.169  16.879  1.2347  0.3392  0.2952
  883MPD2    H513008   4.702   0.205  16.791 -0.1335 -0.4222 -0.5490
  883MPD2    N113009   4.315   0.002  16.598 -0.7787  0.2434 -0.3594
  883MPD2    H713010   4.367   0.040  16.519 -0.0554  1.7945  0.8647
  884MPD2     C13011   0.842   0.626  15.411  0.3858 -0.0026  0.4281
  884MPD2    C113012   0.841   0.730  15.323  0.1193  0.6443 -0.0044
  884MPD2    C213013   0.737   0.816  15.324 -0.1979  0.1595 -0.1139
  884MPD2    C313014   0.636   0.814  15.422  0.2330  0.1603 -0.3229
  884MPD2    C413015   0.639   0.705  15.506 -0.1088 -0.3024 -0.0137
  884MPD2    C513016   0.740   0.607  15.499  0.0370 -0.0391 -0.1395
  884MPD2     H13017   0.736   0.907  15.264 -0.5118  1.5196  1.9773
  884MPD2    H113018   0.562   0.696  15.582 -0.5747 -2.8587 -0.7776
  884MPD2    H213019   0.925   0.555  15.411 -0.1252 -0.6037 -0.2087
  884MPD2    H313020   0.742   0.517  15.558 -0.3867 -0.7626 -1.2286
  884MPD2     N13021   0.534   0.912  15.422  0.6764  0.5894 -0.4169
  884MPD2    H513022   0.540   0.985  15.351  0.0589  0.2394 -0.8252
  884MPD2    N113023   0.948   0.755  15.230  0.0908 -0.8397  0.5172
  884MPD2    H713024   0.948   0.843  15.180 -1.0274 -1.1654 -0.0385
  885MPD2     C13025   4.093   1.381   0.582 -0.7961  0.1339 -0.4283
  885MPD2    C113026   4.218   1.343   0.541 -0.0360 -0.7149 -0.1241
  885MPD2    C213027   4.247   1.335   0.411 -0.0650 -0.0558  0.0451
  885MPD2    C313028   4.154   1.384   0.321  0.0587  0.1283 -0.0047
  885MPD2    C413029   4.023   1.418   0.354 -0.7133 -0.1827  1.2026
  885MPD2    C513030   4.004   1.414   0.488  0.4841 -0.0466 -0.7286
  885MPD2     H13031   4.351   1.312   0.388  0.6325  0.0271  3.0233
  885MPD2    H113032   3.945   1.442   0.281 -1.1083 -1.3727  1.2361
  885MPD2    H213033   4.065   1.379   0.687  2.4104  1.1663  0.4378
  885MPD2    H313034   3.907   1.444   0.527 -0.1396 -0.5701 -1.8644
  885MPD2     N13035   4.192   1.384   0.183  0.0749 -0.0985  0.4575
  885MPD2    H513036   4.286   1.354   0.159  0.0840 -0.2397  0.6678
  885MPD2    N113037   4.313   1.308   0.637  0.4604  0.0974 -0.0480
  885MPD2    H713038   4.289   1.331   0.733  2.6243 -2.6212  1.1451
  886MPD2     C13039   0.554   4.118  15.044 -0.2040  0.0108 -0.6723
  886MPD2    C113040   0.643   4.187  15.124  0.1203 -0.3117 -0.2197
  886MPD2    C213041   0.693   4.304  15.087 -0.0104 -0.1382 -0.5762
  886MPD2    C313042   0.662   4.362  14.969 -0.1457 -0.3124  0.3019
  886MPD2    C413043   0.574   4.295  14.889  0.5348 -0.4482  0.0878
  886MPD2    C513044   0.526   4.173  14.921  0.3386  0.2706 -0.6954
  886MPD2     H13045   0.747   4.359  15.162 -0.1830 -1.3377  0.4293
  886MPD2    H113046   0.538   4.336  14.795 -1.0115  0.9729  1.3113
  886MPD2    H213047   0.523   4.015  15.053 -1.4804  0.2900 -1.8066
  886MPD2    H313048   0.469   4.112  14.852 -2.4290  1.5024  0.4885
  886MPD2     N13049   0.714   4.490  14.949 -0.0443  0.0615 -0.4905
  886MPD2    H513050   0.774   4.520  15.026 -0.1134  0.1583 -0.4743
  886MPD2    N113051   0.683   4.120  15.242  0.0675 -0.5096  0.3922
  886MPD2    H713052   0.647   4.029  15.269  2.5252 -1.5101  0.3627
  887MPD2     C13053   1.414   4.148  15.737  0.1247 -0.2047 -0.0174
  887MPD2    C113054   1.330   4.212  15.646  0.7651  0.2724  1.2050
  887MPD2    C213055   1.374   4.336  15.593 -0.4277  0.4372  0.4336
  887MPD2    C313056   1.491   4.384  15.639 -1.0892 -0.1487 -0.1990
  887MPD2    C413057   1.578   4.325  15.733 -0.4570 -0.2231 -0.1199
  887MPD2    C513058   1.538   4.202  15.777  0.0130  0.0110 -0.2430
  887MPD2     H13059   1.321   4.390  15.515  0.1140  1.7983  1.0158
  887MPD2    H113060   1.655   4.384  15.782 -2.6719  2.5233  0.0634
  887MPD2    H213061   1.389   4.047  15.768  1.0176 -0.5249 -0.3446
  887MPD2    H313062   1.578   4.160  15.868  0.9818 -2.5084 -1.8294
  887MPD2     N13063   1.522   4.504  15.575 -0.2520 -0.5958 -0.7840
  887MPD2    H513064   1.443   4.543  15.525  0.2653  0.8706 -0.4572
  887MPD2    N113065   1.205   4.153  15.602  0.4189 -0.2397  0.2383
  887MPD2    H713066   1.161   4.198  15.523  0.6717  1.5464  1.1128
  888MPD2     C13067   2.916   4.428  14.780  0.8098 -0.4708 -0.1845
  888MPD2    C113068   2.910   4.425  14.915 -0.3098 -0.0550 -0.2225
  888MPD2    C213069   2.976   4.520  14.985  0.1820 -0.5339 -0.4453
  888MPD2    C313070   3.066   4.610  14.925 -0.2589 -0.4443 -0.0061
  888MPD2    C413071   3.072   4.610  14.787 -0.7292 -0.0188 -0.4900
  888MPD2    C513072   2.997   4.519  14.715  0.0534  0.6293 -0.7798
  888MPD2     H13073   2.955   4.531  15.091  1.2524  1.4434 -0.4305
  888MPD2    H113074   3.139   4.674  14.730  0.8511 -0.8546  0.4241
  888MPD2    H213075   2.846   4.373  14.719 -1.4478  0.0487  1.9544
  888MPD2    H313076   2.999   4.525  14.606 -3.1275 -0.2030 -0.9066
  888MPD2     N13077   3.140   4.703  15.004  1.2012  0.0725  0.0056
  888MPD2    H513078   3.119   4.696  15.103  0.5180 -0.6729 -0.1867
  888MPD2    N113079   2.820   4.340  14.981 -0.2635  0.4721 -0.5990
  888MPD2    H713080   2.823   4.341  15.082  2.1368 -3.6258 -0.6330
  889MPD2     C13081   2.139   3.680  13.245 -0.0144  0.2526 -0.4187
  889MPD2    C113082   2.197   3.731  13.126 -0.8796  0.0491 -0.0092
  889MPD2    C213083   2.232   3.867  13.129 -0.1104 -0.0485  0.2741
  889MPD2    C313084   2.193   3.961  13.233  0.0278  0.0808 -0.0780
  889MPD2    C413085   2.118   3.906  13.339 -0.5460 -0.1956  0.5005
  889MPD2    C513086   2.097   3.772  13.341  0.1846 -0.7646 -0.5347
  889MPD2     H13087   2.277   3.911  13.041  0.0491  0.2089  0.4825
  889MPD2    H113088   2.076   3.969  13.416  3.6051 -0.1389  2.7181
  889MPD2    H213089   2.130   3.572  13.258 -0.5576  0.3983  0.3955
  889MPD2    H313090   2.049   3.734  13.431 -3.2252  1.1883 -1.5017
  889MPD2     N13091   2.223   4.097  13.215 -0.5578  0.6054  0.0157
  889MPD2    H513092   2.292   4.109  13.142 -0.5176 -1.0287 -0.2196
  889MPD2    N113093   2.256   3.646  13.028  0.0385  1.0766 -0.3831
  889MPD2    H713094   2.301   3.693  12.951  1.5061  0.1639 -0.0871
  890MPD2     C13095   1.885   1.039  14.853 -0.1398  0.6890  0.4949
  890MPD2    C113096   2.003   1.104  14.891 -0.0493  0.0777 -0.2744
  890MPD2    C213097   2.078   1.065  14.999 -0.1768 -0.0525 -0.1345
  890MPD2    C313098   2.035   0.944  15.058  0.3902  0.6714 -0.3105
  890MPD2    C413099   1.922   0.878  15.014 -0.6495 -0.5343 -0.6612
  890MPD2    C513100   1.835   0.935  14.923 -0.0651 -0.3837  0.6486
  890MPD2     H13101   2.165   1.123  15.028 -0.2793 -0.0374  0.1510
  890MPD2    H113102   1.901   0.782  15.058  0.3784 -0.1082  0.7290
  890MPD2    H213103   1.830   1.085  14.771 -0.0500  1.7011  0.9961
  890MPD2    H313104   1.746   0.886  14.886  0.9705 -1.8589  0.1245
  890MPD2     N13105   2.120   0.908  15.164 -0.2100 -0.2195 -0.7745
  890MPD2    H513106   2.213   0.946  15.176 -0.5162 -0.1537  1.3081
  890MPD2    N113107   2.042   1.217  14.812  0.0569  0.6696  0.0232
  890MPD2    H713108   1.990   1.231  14.726  0.1236 -1.4416 -0.3591
  891MPD2     C13109   0.005   4.257  16.460  0.1709  0.0611  0.3536
  891MPD2    C113110   4.657   4.196  16.539 -0.5315  0.7582  0.6210
  891MPD2    C213111   4.680   4.177  16.675 -0.4565 -0.4134 -0.1850
  891MPD2    C313112   0.053   4.214  16.728 -0.8817 -0.4673  0.4598
  891MPD2    C413113   0.146   4.278  16.648  0.4102 -0.3172  0.3147
  891MPD2    C513114   0.126   4.302  16.517 -0.3452 -0.2431 -0.2177
  891MPD2     H13115   4.605   4.136  16.742 -1.5390 -1.2744 -1.9102
  891MPD2    H113116   0.244   4.309  16.684 -1.1427  1.5431  2.9347
  891MPD2    H213117   4.743   4.275  16.354 -0.2995  2.1033  0.7259
  891MPD2    H313118   0.193   4.348  16.445 -1.0349  3.5672  1.6224
  891MPD2     N13119   0.078   4.193  16.867  0.2501 -0.5830 -0.4609
  891MPD2    H513120   0.014   4.133  16.919  0.2268  1.6652  2.1297
  891MPD2    N113121   4.536   4.176  16.476 -0.6707 -0.2156  0.3523
  891MPD2    H713122   4.524   4.213  16.382 -0.0095  1.4588  0.9365
  892MPD2     C13123   0.996   0.816  14.714 -0.1440 -0.2571 -1.6207
  892MPD2    C113124   0.985   0.718  14.809  0.4061  0.0184 -0.7656
  892MPD2    C213125   1.078   0.613  14.821 -0.1711 -0.6447 -0.1520
  892MPD2    C313126   1.184   0.615  14.743  0.3188 -0.1728  0.2183
  892MPD2    C413127   1.204   0.716  14.656 -0.5869 -0.2666 -0.2823
  892MPD2    C513128   1.109   0.806  14.641 -0.2078  0.0379 -0.6254
  892MPD2     H13129   1.074   0.543  14.903  0.1530 -0.8249 -0.2924
  892MPD2    H113130   1.293   0.734  14.596  1.0162 -0.8190  1.9367
  892MPD2    H213131   0.927   0.899  14.707  0.3014  0.2098 -0.4229
  892MPD2    H313132   1.130   0.877  14.561 -0.7395  2.2998  1.2475
  892MPD2     N13133   1.288   0.525  14.759 -0.5819  0.1251  0.1151
  892MPD2    H513134   1.369   0.552  14.705 -0.2933  0.5203  0.7552
  892MPD2    N113135   0.857   0.720  14.858 -1.1321 -0.2591 -0.1804
  892MPD2    H713136   0.795   0.800  14.850 -0.0229  0.8570  2.2394
  893MPD2     C13137   2.296   3.874   1.016 -0.0569 -0.2661  0.3357
  893MPD2    C113138   2.365   3.956   1.101  0.0523 -0.3511 -0.7449
  893MPD2    C213139   2.301   4.010   1.210 -1.2617  0.1636 -0.5748
  893MPD2    C313140   2.166   3.972   1.229 -0.1180 -0.6439  0.0182
  893MPD2    C413141   2.098   3.883   1.149  0.3352 -0.2948 -0.2234
  893MPD2    C513142   2.160   3.842   1.033 -0.5703  0.2453 -0.4551
  893MPD2     H13143   2.343   4.081   1.281 -3.3208  3.0707 -2.3018
  893MPD2    H113144   1.998   3.850   1.175  0.1979  0.5918  0.3578
  893MPD2    H213145   2.347   3.829   0.931 -1.8908  2.1655 -2.0317
  893MPD2    H313146   2.103   3.767   0.979 -1.5571 -1.2680  2.6838
  893MPD2     N13147   2.098   4.027   1.345  0.0373  0.5213  0.0260
  893MPD2    H513148   2.145   4.083   1.415  0.7608 -0.2185  0.1375
  893MPD2    N113149   2.504   3.972   1.069  0.9572 -0.2688 -0.6997
  893MPD2    H713150   2.534   3.920   0.987 -3.0832 -1.5377 -1.3475
  894MPD2     C13151   0.910   1.523   1.108 -0.2876  0.3002  0.3475
  894MPD2    C113152   0.912   1.639   1.035 -0.3549 -0.2556  0.6922
  894MPD2    C213153   1.032   1.682   0.982 -0.2883 -0.4984  0.0706
  894MPD2    C313154   1.146   1.616   1.003 -0.3021  0.3405  0.0139
  894MPD2    C413155   1.148   1.508   1.084 -0.4911  0.0453 -0.0372
  894MPD2    C513156   1.026   1.464   1.132  0.4071 -0.9393 -0.8417
  894MPD2     H13157   1.029   1.773   0.923  0.6523 -0.4012  0.1730
  894MPD2    H113158   1.235   1.445   1.098  0.3256  0.7202 -2.0794
  894MPD2    H213159   0.823   1.476   1.154 -1.1969  2.4739  0.8617
  894MPD2    H313160   1.024   1.369   1.183 -1.2554 -1.5373 -2.0134
  894MPD2     N13161   1.266   1.668   0.936 -0.2651 -0.4281  0.1912
  894MPD2    H513162   1.265   1.762   0.897 -0.8548 -0.1147  0.9570
  894MPD2    N113163   0.798   1.708   0.998  0.2660 -0.0965 -0.1214
  894MPD2    H713164   0.803   1.791   0.940 -1.3043  0.6846  0.8477
  895MPD2     C13165   0.302   4.207  13.794  0.3486  0.2556  0.3137
  895MPD2    C113166   0.214   4.101  13.809 -0.2358 -0.0826  0.4630
  895MPD2    C213167   0.235   3.985  13.742  0.3524  0.6231  0.4699
  895MPD2    C313168   0.324   3.973  13.641 -0.0641  0.4519 -0.3483
  895MPD2    C413169   0.406   4.082  13.620 -0.3847 -0.5659 -0.0997
  895MPD2    C513170   0.395   4.193  13.697 -0.2203  0.3724 -0.6988
  895MPD2     H13171   0.162   3.905  13.755  2.7796 -1.6602  0.0820
  895MPD2    H113172   0.479   4.085  13.539 -1.7061 -3.9693 -1.4018
  895MPD2    H213173   0.279   4.302  13.841 -1.6236 -0.3816  0.6496
  895MPD2    H313174   0.455   4.278  13.668  2.5652 -0.9526  1.2529
  895MPD2     N13175   0.307   3.862  13.557  0.0404  0.2289 -0.1805
  895MPD2    H513176   0.225   3.805  13.572  0.7110 -0.5174  0.6627
  895MPD2    N113177   0.097   4.108  13.892 -0.3506 -0.0272 -0.0111
  895MPD2    H713178   0.046   4.022  13.906  1.4880 -0.9563  0.9604
  896MPD2     C13179   2.566   2.579   1.493 -0.2790 -0.4700  0.2811
  896MPD2    C113180   2.621   2.542   1.371 -0.3118 -0.3235 -0.0317
  896MPD2    C213181   2.548   2.466   1.280 -0.3253  0.6249 -0.0941
  896MPD2    C313182   2.418   2.437   1.302 -0.6565  0.0894  0.0083
  896MPD2    C413183   2.362   2.488   1.416  0.7936 -0.5419 -0.2385
  896MPD2    C513184   2.441   2.533   1.513 -0.2476 -0.4254 -0.0531
  896MPD2     H13185   2.586   2.455   1.179 -1.5822  0.4526 -0.5553
  896MPD2    H113186   2.260   2.478   1.450  0.4832  2.0651 -0.3831
  896MPD2    H213187   2.622   2.630   1.570  2.6850 -1.2170 -1.3352
  896MPD2    H313188   2.408   2.532   1.617  2.0027 -0.0958  0.6713
  896MPD2     N13189   2.347   2.368   1.200 -0.3669 -0.1719 -0.3390
  896MPD2    H513190   2.394   2.341   1.114  0.6023 -1.0920  0.4866
  896MPD2    N113191   2.746   2.599   1.334 -0.4954 -0.8141 -0.5961
  896MPD2    H713192   2.790   2.671   1.391  1.0381 -1.6227 -0.7758
  897MPD2     C13193   3.327   3.824  11.045 -0.2996 -0.5342 -0.3432
  897MPD2    C113194   3.357   3.954  11.026  0.3203 -0.2729 -0.2326
  897MPD2    C213195   3.290   4.050  11.099 -0.0792 -0.1452  0.5771
  897MPD2    C313196   3.226   4.015  11.212 -0.0817 -0.5871  0.1876
  897MPD2    C413197   3.201   3.882  11.240  0.5734  0.0915  0.5737
  897MPD2    C513198   3.256   3.788  11.157 -0.1156 -0.3227  0.2204
  897MPD2     H13199   3.317   4.154  11.085 -0.1240 -0.3756 -1.2490
  897MPD2    H113200   3.147   3.851  11.329  1.7096  0.7288  1.4879
  897MPD2    H213201   3.378   3.741  10.998  1.2442  1.0064 -1.3916
  897MPD2    H313202   3.245   3.683  11.181  0.8764 -0.4843 -0.0226
  897MPD2     N13203   3.198   4.117  11.298 -0.6894 -0.7470  0.4000
  897MPD2    H513204   3.199   4.212  11.262 -0.3927 -1.5608 -1.7874
  897MPD2    N113205   3.450   3.980  10.926  0.5255 -0.7152 -0.1993
  897MPD2    H713206   3.477   3.898  10.873  2.2703 -1.1511  1.3729
  898MPD2     C13207   0.516   0.008  16.964  0.0360 -0.0047 -0.7061
  898MPD2    C113208   0.614   0.057  16.881 -0.1204 -0.5416  0.6956
  898MPD2    C213209   0.652   0.190  16.892  0.2605  0.7001  0.1603
  898MPD2    C313210   0.608   0.273  16.993  0.4720  0.2971 -0.0374
  898MPD2    C413211   0.510   0.222  17.078 -0.0040 -0.3537 -0.8443
  898MPD2    C513212   0.470   0.092  17.062  0.5559 -0.8262  0.5965
  898MPD2     H13213   0.722   0.224  16.816  0.9316  1.5126  1.1466
  898MPD2    H113214   0.475   0.275  17.166  1.5449  2.0442 -1.6728
  898MPD2    H213215   0.484   4.648  16.967  0.8567 -0.1973  1.5739
  898MPD2    H313216   0.399   0.059  17.137  2.2538 -0.2894  2.4396
  898MPD2     N13217   0.657   0.406  17.004 -0.5800  0.6359  0.0629
  898MPD2    H513218   0.716   0.444  16.931  0.6348 -3.1553 -0.9407
  898MPD2    N113219   0.671   4.723  16.772  0.0212  0.0046  0.2570
  898MPD2    H713220   0.748   0.019  16.719  1.1713  0.8265  2.5163
  899MPD2     C13221   2.261   0.589  17.503 -0.2767  0.3373  0.6519
  899MPD2    C113222   2.126   0.614  17.504 -0.2482 -0.3368 -0.2034
  899MPD2    C213223   2.044   0.527  17.564  0.2642 -0.1042  0.3907
  899MPD2    C313224   2.088   0.406  17.620  0.0945 -0.0635  0.6010
  899MPD2    C413225   2.224   0.380  17.628  0.0386 -0.2258  0.7594
  899MPD2    C513226   2.303   0.475  17.563 -0.3647  0.2072  0.1659
  899MPD2     H13227   1.938   0.546  17.573  0.1537 -0.7721  0.5073
  899MPD2    H113228   2.270   0.291  17.668  1.3471  0.7631  1.4499
  899MPD2    H213229   2.334   0.653  17.455 -1.1393  0.5859 -0.3156
  899MPD2    H313230   2.410   0.464  17.578 -0.6928 -0.9843  1.6296
  899MPD2     N13231   1.998   0.319  17.677 -0.4747  1.0620 -0.5188
  899MPD2    H513232   2.025   0.266  17.759 -0.0772 -2.6692 -3.0515
  899MPD2    N113233   2.081   0.732  17.447 -0.3082 -0.3200 -0.0865
  899MPD2    H713234   2.144   0.810  17.440  0.7564 -1.0647  1.1291
  900MPD2     C13235   1.348   1.872  12.578  0.1889 -0.2174 -0.4953
  900MPD2    C113236   1.253   1.809  12.652 -0.2422 -0.6473  0.1015
  900MPD2    C213237   1.126   1.852  12.661  0.4276  0.5910  0.1454
  900MPD2    C313238   1.091   1.971  12.610  0.2483 -0.4416 -0.2019
  900MPD2    C413239   1.181   2.033  12.531  0.7255 -0.1454  0.2379
  900MPD2    C513240   1.306   1.982  12.510  0.3642 -0.0974  0.1802
  900MPD2     H13241   1.049   1.792  12.707  2.7944 -1.4409  1.4426
  900MPD2    H113242   1.163   2.130  12.486  1.2177  0.1379  0.6421
  900MPD2    H213243   1.453   1.850  12.588  0.4697  0.8400 -1.1079
  900MPD2    H313244   1.373   2.044  12.452  0.7697  1.2574  2.1006
  900MPD2     N13245   0.954   2.017  12.615 -0.2401 -0.8409 -0.7496
  900MPD2    H513246   0.891   1.947  12.652 -0.2376 -0.9194 -0.8915
  900MPD2    N113247   1.296   1.687  12.713 -0.6231  0.1975 -1.2870
  900MPD2    H713248   1.392   1.666  12.689 -0.6873 -1.5503  0.0529
  901MPD2     C13249   1.129   0.711  13.215 -0.0838 -0.9089  0.0156
  901MPD2    C113250   1.230   0.706  13.117  0.4133 -0.1386  0.3616
  901MPD2    C213251   1.279   0.830  13.073 -0.2813 -0.1822  0.1888
  901MPD2    C313252   1.225   0.953  13.108 -0.6616 -0.9453  0.6628
  901MPD2    C413253   1.135   0.954  13.207 -0.7476  0.3335 -0.4885
  901MPD2    C513254   1.088   0.836  13.257  0.1316  0.0231  0.6287
  901MPD2     H13255   1.342   0.821  12.986 -0.5719 -1.2754  0.0823
  901MPD2    H113256   1.102   1.044  13.259 -0.9291  0.4509 -0.8048
  901MPD2    H213257   1.079   0.622  13.250 -1.7421 -0.5541 -1.4637
  901MPD2    H313258   1.002   0.835  13.322 -1.1785 -0.3984 -1.1166
  901MPD2     N13259   1.270   1.066  13.048 -0.1688  0.9622 -0.1744
  901MPD2    H513260   1.346   1.049  12.983 -0.5115 -0.8786 -0.0991
  901MPD2    N113261   1.292   0.591  13.071  0.1429  0.2959  0.0354
  901MPD2    H713262   1.352   0.603  12.990  0.9126 -1.8031  0.2949
  902MPD2     C13263   0.007   4.554  13.244  0.6948 -0.2649  0.2445
  902MPD2    C113264   0.116   4.643  13.221  0.0794 -0.1049  1.0689
  902MPD2    C213265   0.233   4.616  13.147 -0.5052 -0.8550 -0.7119
  902MPD2    C313266   0.237   4.495  13.082 -0.2085 -0.1624  0.2678
  902MPD2    C413267   0.126   4.408  13.100 -0.1733 -0.2687 -0.3642
  902MPD2    C513268   0.015   4.440  13.169 -0.3470 -0.3378  0.5793
  902MPD2     H13269   0.313   4.689  13.139 -0.0030 -1.2781  0.4609
  902MPD2    H113270   0.120   4.316  13.042 -0.1189 -0.2969 -0.3245
  902MPD2    H213271   4.660   4.573  13.300  1.2942 -0.5193  1.3037
  902MPD2    H313272   4.667   4.384  13.160 -1.0898  1.1279 -0.9920
  902MPD2     N13273   0.344   4.457  12.994 -0.3173  0.3761 -0.3953
  902MPD2    H513274   0.329   4.377  12.933 -3.7701  0.9158 -0.2523
  902MPD2    N113275   0.105   0.025  13.289 -0.1904 -0.0687 -0.2359
  902MPD2    H713276   0.012   0.045  13.325 -0.4311 -1.1476 -0.2353
  903MPD2     C13277   0.334   0.283  12.814  0.0497  0.4027  0.5115
  903MPD2    C113278   0.366   0.173  12.737 -0.0347  0.2344  0.9638
  903MPD2    C213279   0.271   0.066  12.736  0.0400 -0.4685  0.8752
  903MPD2    C313280   0.151   0.076  12.811 -0.2051  0.5574  0.2242
  903MPD2    C413281   0.127   0.193  12.882 -0.8802  0.4481 -0.7686
  903MPD2    C513282   0.218   0.297  12.873  0.2522 -0.2686  0.3255
  903MPD2     H13283   0.284   4.728  12.666 -0.0452 -2.7916  3.5993
  903MPD2    H113284   0.045   0.207  12.953  0.3549  1.5214  0.4541
  903MPD2    H213285   0.405   0.364  12.813 -0.2545  0.6508 -1.0088
  903MPD2    H313286   0.191   0.395  12.911  1.1387  0.1112 -0.0284
  903MPD2     N13287   0.058   4.711  12.816 -0.2704  0.2900 -0.0029
  903MPD2    H513288   0.088   4.636  12.754 -1.6759 -1.0641  0.9566
  903MPD2    N113289   0.495   0.168  12.674 -0.1428  0.3264  0.0743
  903MPD2    H713290   0.533   0.258  12.645 -0.1609  0.6656  1.1130
  904MPD2     C13291   0.480   3.326  14.406  0.6276 -0.5429 -0.3399
  904MPD2    C113292   0.477   3.452  14.452  0.5305  0.4962 -0.4778
  904MPD2    C213293   0.563   3.490  14.550  0.5395 -0.5075  0.3055
  904MPD2    C313294   0.653   3.401  14.595 -0.3110 -0.3508 -0.5452
  904MPD2    C413295   0.667   3.280  14.533  0.2530 -0.3866  0.2012
  904MPD2    C513296   0.586   3.241  14.433 -0.3342 -0.3582  0.8814
  904MPD2     H13297   0.560   3.589  14.594 -0.6946 -0.0151 -0.9025
  904MPD2    H113298   0.745   3.209  14.557  1.4947  0.9105  0.0121
  904MPD2    H213299   0.417   3.298  14.322  0.2255 -3.2339  0.8503
  904MPD2    H313300   0.601   3.143  14.390  1.2629 -0.0853  0.8198
  904MPD2     N13301   0.735   3.452  14.703 -0.6127 -0.8269 -0.0340
  904MPD2    H513302   0.737   3.550  14.731  1.7032 -0.4012 -1.6609
  904MPD2    N113303   0.380   3.544  14.403 -0.4299  0.8145 -0.0678
  904MPD2    H713304   0.381   3.638  14.442  3.3652 -0.5085  3.0416
  905MPD2     C13305   4.530   3.472  13.892 -0.2934 -0.0201 -0.1824
  905MPD2    C113306   4.620   3.576  13.880  0.5385  0.6711 -0.0213
  905MPD2    C213307   4.665   3.620  13.759 -0.0814 -0.2934 -0.1333
  905MPD2    C313308   4.614   3.564  13.639 -0.6019  0.6796 -0.3700
  905MPD2    C413309   4.525   3.465  13.645 -0.7710 -0.2509 -0.0565
  905MPD2    C513310   4.485   3.426  13.774 -0.0678  0.0820  0.3932
  905MPD2     H13311   0.001   3.692  13.749  0.3934 -0.4205  2.8045
  905MPD2    H113312   4.490   3.414  13.556  0.6141 -0.6542 -0.3675
  905MPD2    H213313   4.495   3.433  13.987 -0.8014 -1.1306 -0.8192
  905MPD2    H313314   4.425   3.335  13.776  1.4653 -0.9633 -1.1985
  905MPD2     N13315   4.657   3.600  13.509  0.3976 -0.1601 -0.1753
  905MPD2    H513316   4.622   3.544  13.432  1.7637  0.0827 -0.9555
  905MPD2    N113317   4.673   3.624  13.999  0.1369  0.1155  0.5958
  905MPD2    H713318   4.650   3.572  14.083  0.1932 -1.4883 -0.3890
  906MPD2     C13319   2.119   3.932  11.548 -0.1138 -0.5990  0.0809
  906MPD2    C113320   2.051   3.882  11.435 -0.6164 -0.5346  0.2605
  906MPD2    C213321   2.001   3.749  11.435 -0.0436  0.3276 -0.5498
  906MPD2    C313322   2.010   3.665  11.546  0.2937  0.1980  0.2764
  906MPD2    C413323   2.077   3.711  11.654  0.1750 -0.0399 -0.0944
  906MPD2    C513324   2.127   3.845  11.655 -0.0130  0.1033  0.0634
  906MPD2     H13325   1.949   3.710  11.349  2.4626  0.0989 -1.9547
  906MPD2    H113326   2.081   3.654  11.746 -0.8873  0.5705  0.3334
  906MPD2    H213327   2.159   4.032  11.563 -1.2958 -0.1783  0.4505
  906MPD2    H313328   2.158   3.884  11.751  1.0197 -0.0688 -0.1980
  906MPD2     N13329   1.961   3.531  11.556 -0.2611  0.6774  0.3527
  906MPD2    H513330   1.975   3.485  11.645 -0.8082 -1.9029 -0.8771
  906MPD2    N113331   2.037   3.958  11.314  0.1452  1.1724  0.0224
  906MPD2    H713332   1.978   3.914  11.245 -2.0580  1.4187  1.7405
  907MPD2     C13333   0.663   3.105  15.725  0.1755 -0.0313  0.8450
  907MPD2    C113334   0.784   3.033  15.712 -0.4333  0.2009 -0.2253
  907MPD2    C213335   0.874   3.034  15.819  0.6773  0.2427 -0.1196
  907MPD2    C313336   0.843   3.114  15.925 -0.0288 -0.0959 -0.1736
  907MPD2    C413337   0.729   3.195  15.930 -0.4460 -0.0963 -0.0489
  907MPD2    C513338   0.636   3.184  15.834 -0.2772  0.0152  0.1310
  907MPD2     H13339   0.961   2.970  15.823 -0.9360 -2.0232 -1.2938
  907MPD2    H113340   0.718   3.276  16.000 -0.6160 -0.2813  0.1358
  907MPD2    H213341   0.589   3.102  15.646  0.7655  0.8950  0.2615
  907MPD2    H313342   0.544   3.242  15.837 -1.2287 -1.4549 -0.1153
  907MPD2     N13343   0.941   3.122  16.027  0.3217 -0.0844  0.0743
  907MPD2    H513344   1.030   3.076  16.009 -0.4104 -1.9970  1.3153
  907MPD2    N113345   0.815   2.941  15.610 -0.3421 -0.1011  0.0579
  907MPD2    H713346   0.903   2.892  15.614 -0.1670  0.2408  0.4308
  908MPD2     C13347   3.478   3.637  10.106  0.2299 -0.4234  0.5175
  908MPD2    C113348   3.479   3.588  10.237 -0.1179  0.3594 -0.2052
  908MPD2    C213349   3.499   3.670  10.342  0.1024  0.7146  0.5820
  908MPD2    C313350   3.517   3.807  10.316 -0.2194 -0.3981  0.0215
  908MPD2    C413351   3.521   3.853  10.188 -0.1922 -0.0366 -0.4865
  908MPD2    C513352   3.495   3.771  10.083 -0.0604  0.5762  0.0670
  908MPD2     H13353   3.492   3.625  10.441 -1.0721 -2.7924 -1.1096
  908MPD2    H113354   3.548   3.956  10.169  0.0345 -0.0558 -0.2747
  908MPD2    H213355   3.459   3.577  10.018 -0.3666 -0.9210  0.9911
  908MPD2    H313356   3.498   3.807   9.981 -0.3603 -0.9616 -0.4842
  908MPD2     N13357   3.543   3.887  10.430  0.0317 -0.0811 -0.5165
  908MPD2    H513358   3.559   3.827  10.510 -1.1823 -1.5392 -1.3641
  908MPD2    N113359   3.476   3.447  10.246 -0.2745 -0.5640 -0.8344
  908MPD2    H713360   3.461   3.395  10.160  0.2254 -0.5791 -0.9106
  909MPD2     C13361   3.377   1.964  11.838 -0.0590  0.1584 -0.0586
  909MPD2    C113362   3.381   2.099  11.862 -0.4368  0.1592 -0.6793
  909MPD2    C213363   3.292   2.160  11.947 -0.3256 -0.4304 -0.1232
  909MPD2    C313364   3.204   2.079  12.017 -0.2558 -0.0098 -0.5998
  909MPD2    C413365   3.208   1.946  12.008 -0.4341 -0.2589  0.7452
  909MPD2    C513366   3.296   1.890  11.917  0.0451  0.3214  0.1828
  909MPD2     H13367   3.297   2.267  11.964 -1.0146 -0.3124 -0.6904
  909MPD2    H113368   3.139   1.880  12.061 -2.0693  0.4354 -0.5342
  909MPD2    H213369   3.434   1.910  11.763  1.3883  2.8969 -0.9254
  909MPD2    H313370   3.284   1.785  11.890  0.2368  0.0046  1.2969
  909MPD2     N13371   3.122   2.134  12.118 -0.5281  0.1497 -0.1884
  909MPD2    H513372   3.127   2.234  12.135 -2.0243  0.6350 -2.6873
  909MPD2    N113373   3.474   2.183  11.796 -0.1359  0.0102  0.1203
  909MPD2    H713374   3.470   2.282  11.821  1.1365  0.3510 -1.0160
  910MPD2     C13375   0.453   3.564  16.443 -0.2742  0.3824 -0.4437
  910MPD2    C113376   0.564   3.526  16.377  0.0272  0.2479 -0.3123
  910MPD2    C213377   0.568   3.530  16.238  0.0793  0.2658 -0.1649
  910MPD2    C313378   0.464   3.580  16.164 -0.3432 -0.9888 -0.3643
  910MPD2    C413379   0.359   3.621  16.232 -0.3878 -0.1657  0.2382
  910MPD2    C513380   0.352   3.627  16.366 -0.3828  0.1305 -0.1562
  910MPD2     H13381   0.661   3.496  16.193  0.2354  0.8180 -0.2700
  910MPD2    H113382   0.272   3.660  16.179 -1.9927 -0.7877  2.4191
  910MPD2    H213383   0.425   3.551  16.547 -0.4111  2.3036 -0.2388
  910MPD2    H313384   0.265   3.667  16.418 -0.4090  0.6281 -0.5827
  910MPD2     N13385   0.474   3.592  16.022  0.3527  0.4058  0.5307
  910MPD2    H513386   0.399   3.635  15.969 -1.0383 -2.7863 -0.1085
  910MPD2    N113387   0.660   3.446  16.444 -0.5654  0.8399 -0.1291
  910MPD2    H713388   0.724   3.389  16.389 -0.8283  0.7145 -0.3049
  911MPD2     C13389   2.991   3.976  15.751 -0.3095 -0.1608  0.1981
  911MPD2    C113390   3.029   3.968  15.880  0.2699 -0.0112 -0.7305
  911MPD2    C213391   3.003   4.075  15.964 -0.1887  0.1702 -0.2788
  911MPD2    C313392   2.941   4.190  15.917 -0.4077 -0.2803 -0.0007
  911MPD2    C413393   2.904   4.195  15.784  0.3068 -0.2130  0.1011
  911MPD2    C513394   2.931   4.086  15.707  0.2056  0.6628 -0.2029
  911MPD2     H13395   3.030   4.074  16.069 -1.0783  0.1819 -0.0479
  911MPD2    H113396   2.873   4.289  15.739  0.5441  0.6692  1.7918
  911MPD2    H213397   3.014   3.893  15.685  1.4752  0.4626  0.0396
  911MPD2    H313398   2.917   4.094  15.600  0.1288 -0.8759 -0.3066
  911MPD2     N13399   2.903   4.297  16.000  0.8223  0.1929 -0.8454
  911MPD2    H513400   2.863   4.377  15.954  1.1937  0.9728  0.1886
  911MPD2    N113401   3.105   3.861  15.920  0.1490 -0.9303  0.8479
  911MPD2    H713402   3.121   3.791  15.848 -0.7312 -2.7639  2.4310
  912MPD2     C13403   2.580   4.284  15.560  0.0203 -0.0103  1.2018
  912MPD2    C113404   2.566   4.264  15.693  0.7077 -0.3114 -0.0285
  912MPD2    C213405   2.549   4.137  15.748  0.1097  0.6123  0.8816
  912MPD2    C313406   2.571   4.027  15.663  0.4384  0.4062 -0.2356
  912MPD2    C413407   2.590   4.047  15.522 -0.3042  0.8844 -0.8492
  912MPD2    C513408   2.590   4.174  15.478 -0.8729  0.2833 -0.5137
  912MPD2     H13409   2.542   4.115  15.854 -0.0333 -1.0146  0.5374
  912MPD2    H113410   2.606   3.968  15.450  2.4677  1.2395 -0.6581
  912MPD2    H213411   2.585   4.382  15.513  0.5156 -1.3128 -1.4434
  912MPD2    H313412   2.609   4.196  15.373  0.7587  0.8074 -0.1014
  912MPD2     N13413   2.571   3.898  15.721 -0.0283  0.2968  0.0373
  912MPD2    H513414   2.604   3.891  15.817 -0.9708 -1.6346  0.2167
  912MPD2    N113415   2.563   4.375  15.775 -0.2209  0.0734 -0.3361
  912MPD2    H713416   2.594   4.456  15.723  1.5580  0.5140  1.4368
  913MPD2     C13417   3.036   1.492  11.213 -0.0835  0.1778 -0.4448
  913MPD2    C113418   3.031   1.436  11.086  0.4420  0.2990 -0.1068
  913MPD2    C213419   3.091   1.504  10.982 -0.7693 -0.3037 -0.1765
  913MPD2    C313420   3.133   1.633  10.994  0.8101  0.3687 -0.0686
  913MPD2    C413421   3.134   1.690  11.122  0.2398 -0.1445  0.0253
  913MPD2    C513422   3.089   1.615  11.231  0.2921 -0.4549  0.2158
  913MPD2     H13423   3.084   1.469  10.880 -0.5857 -2.3107  0.5021
  913MPD2    H113424   3.165   1.794  11.124 -1.4754  0.3425  1.1190
  913MPD2    H213425   2.994   1.433  11.294  2.0155  0.4207  0.8069
  913MPD2    H313426   3.109   1.653  11.331  1.4018  0.3278 -0.3023
  913MPD2     N13427   3.179   1.703  10.879  0.5564  0.8973  0.1352
  913MPD2    H513428   3.170   1.653  10.791  0.5292  0.0409  0.6189
  913MPD2    N113429   2.972   1.305  11.076 -0.4133 -0.1904  0.1258
  913MPD2    H713430   2.938   1.260  11.160  0.1730 -0.2185  0.3506
  914MPD2     C13431   1.532   0.618  12.315 -0.8674  0.7496 -0.4292
  914MPD2    C113432   1.552   0.690  12.425 -0.3768 -0.7048 -0.3474
  914MPD2    C213433   1.555   0.631  12.549 -0.4773 -0.1556  0.3609
  914MPD2    C313434   1.533   0.493  12.565  0.6359  0.0301 -0.3432
  914MPD2    C413435   1.523   0.421  12.454  0.4352  0.4049  0.4037
  914MPD2    C513436   1.524   0.484  12.334  0.0244  0.3610  0.1009
  914MPD2     H13437   1.564   0.683  12.643 -0.4777  0.4093  0.0496
  914MPD2    H113438   1.515   0.312  12.454 -2.4978  0.6122 -0.6741
  914MPD2    H213439   1.524   0.661  12.216 -0.5542  3.1376  0.5816
  914MPD2    H313440   1.515   0.418  12.248 -0.3682 -1.0506  1.2154
  914MPD2     N13441   1.522   0.436  12.699 -0.7398  0.2877 -0.6045
  914MPD2    H513442   1.533   0.505  12.772 -2.1231 -1.4948  1.3242
  914MPD2    N113443   1.548   0.829  12.409 -0.3805  0.0879 -0.9629
  914MPD2    H713444   1.518   0.860  12.317  0.5105  0.8575 -0.9970
  915MPD2     C13445   4.598   0.806  15.889  0.7633  0.6062 -0.1860
  915MPD2    C113446   4.466   0.794  15.880 -0.5415  0.5756 -0.0452
  915MPD2    C213447   4.380   0.824  15.987  0.2056  0.7416  0.5684
  915MPD2    C313448   4.432   0.862  16.112 -0.1871  0.4887 -0.5946
  915MPD2    C413449   4.570   0.872  16.122  0.2884 -0.2632  0.1315
  915MPD2    C513450   4.651   0.849  16.010  0.0608 -0.1266  0.5268
  915MPD2     H13451   4.272   0.814  15.981  0.1992  1.3958 -0.4296
  915MPD2    H113452   4.624   0.890  16.215 -0.6703  0.8470  0.4772
  915MPD2    H213453   4.662   0.781  15.804 -0.6025 -1.7219 -0.5362
  915MPD2    H313454   0.011   0.879  16.006 -0.5834  1.9516 -0.9048
  915MPD2     N13455   4.343   0.895  16.219 -0.0528  0.0383  1.2599
  915MPD2    H513456   4.244   0.881  16.200 -0.0693  2.2966 -0.4122
  915MPD2    N113457   4.424   0.742  15.760  0.1038 -0.0085  0.4525
  915MPD2    H713458   4.497   0.703  15.701 -0.8336  0.9512 -1.3216
  916MPD2     C13459   2.124   3.938  15.749  0.4294 -0.3584  0.0207
  916MPD2    C113460   2.081   3.855  15.855  0.4859 -0.4131 -0.2245
  916MPD2    C213461   2.098   3.723  15.835 -0.0459 -1.1451 -0.2488
  916MPD2    C313462   2.159   3.665  15.717 -0.4310 -0.1127  0.3029
  916MPD2    C413463   2.208   3.752  15.623 -0.4621  0.1869 -0.0450
  916MPD2    C513464   2.185   3.885  15.638  0.3165  0.4987 -0.3883
  916MPD2     H13465   2.053   3.650  15.902  0.5328 -0.8642  0.4436
  916MPD2    H113466   2.251   3.721  15.528  1.0226  1.9956  0.0208
  916MPD2    H213467   2.123   4.046  15.757  1.1028 -0.3339 -0.1920
  916MPD2    H313468   2.212   3.946  15.552  1.4870 -0.7300 -0.8818
  916MPD2     N13469   2.168   3.528  15.706 -0.5576  0.6659  0.1977
  916MPD2    H513470   2.115   3.471  15.771  0.6718  0.5739  1.1266
  916MPD2    N113471   2.014   3.911  15.966 -0.3805  0.8587  0.9348
  916MPD2    H713472   2.010   4.012  15.975  0.5833  1.0581 -0.7322
  917MPD2     C13473   1.735   1.207  11.210 -0.2285  0.2856  1.0530
  917MPD2    C113474   1.806   1.303  11.270 -0.3692 -0.3793 -0.8957
  917MPD2    C213475   1.811   1.431  11.221  0.4039  0.0751  0.3178
  917MPD2    C313476   1.721   1.467  11.127  0.2233  0.1832  0.1587
  917MPD2    C413477   1.645   1.368  11.067  0.5424  0.5993  0.1611
  917MPD2    C513478   1.649   1.240  11.104  0.6753 -0.3711  0.2557
  917MPD2     H13479   1.866   1.510  11.270  1.9782  0.1383 -1.5483
  917MPD2    H113480   1.587   1.399  10.981  1.0680 -0.5277 -0.5774
  917MPD2    H213481   1.741   1.110  11.259  0.0687 -0.5425 -0.6069
  917MPD2    H313482   1.602   1.157  11.051 -0.4520  0.5959 -0.2607
  917MPD2     N13483   1.701   1.601  11.090  0.9049 -0.2807 -0.4397
  917MPD2    H513484   1.617   1.622  11.037  2.0859  1.6249 -1.5277
  917MPD2    N113485   1.896   1.264  11.373  0.2062  0.2151 -0.3326
  917MPD2    H713486   1.903   1.167  11.402 -0.1266  0.5262  0.7852
  918MPD2     C13487   2.512   1.715  12.125  0.2519  0.7967 -0.3884
  918MPD2    C113488   2.584   1.616  12.064  0.4412 -0.0681 -0.1454
  918MPD2    C213489   2.516   1.518  11.989 -0.7154  0.5321 -0.6259
  918MPD2    C313490   2.377   1.507  11.994 -0.1279  0.0146  0.0458
  918MPD2    C413491   2.303   1.602  12.059  0.0356  0.7791 -0.0900
  918MPD2    C513492   2.373   1.700  12.122  0.8134 -0.1101  0.5211
  918MPD2     H13493   2.573   1.440  11.941 -2.0479 -1.5718  1.2561
  918MPD2    H113494   2.196   1.601  12.070  0.0725 -3.4398 -0.0043
  918MPD2    H213495   2.558   1.789  12.189  0.0704  0.5151  0.0741
  918MPD2    H313496   2.319   1.774  12.179  0.0360 -0.6333  0.4595
  918MPD2     N13497   2.317   1.411  11.912  0.4653  0.4184 -0.3725
  918MPD2    H513498   2.381   1.335  11.888  0.1273 -1.0115  3.1305
  918MPD2    N113499   2.724   1.607  12.072  0.0316  0.2830 -0.0095
  918MPD2    H713500   2.770   1.533  12.021  2.1933  1.5644  0.0555
  919MPD2     C13501   3.131   0.742  11.963  0.5225  0.0200 -0.1251
  919MPD2    C113502   3.052   0.626  11.938 -0.5776  0.0010 -0.0156
  919MPD2    C213503   2.938   0.633  11.856 -0.7923  0.7224 -0.2493
  919MPD2    C313504   2.913   0.749  11.786 -0.2741  0.9810  0.4139
  919MPD2    C413505   2.992   0.861  11.799  0.1225 -0.0395 -0.2958
  919MPD2    C513506   3.102   0.852  11.877 -0.0460 -0.1186 -0.2049
  919MPD2     H13507   2.886   0.544  11.822 -0.4618  1.0680 -1.6372
  919MPD2    H113508   2.970   0.952  11.746  1.1444 -0.2924 -1.1636
  919MPD2    H213509   3.215   0.746  12.032 -0.3250  1.6731  0.7929
  919MPD2    H313510   3.164   0.940  11.885 -0.3315  0.1882 -1.3339
  919MPD2     N13511   2.826   0.746  11.675  0.8793  0.7163 -0.3413
  919MPD2    H513512   2.831   0.834  11.623 -2.3521 -0.0699 -1.9600
  919MPD2    N113513   3.075   0.510  12.022 -0.6413 -1.1923 -0.0810
  919MPD2    H713514   2.998   0.455  12.057 -1.1548 -0.2859  0.2259
  920MPD2     C13515   2.505   1.299  10.947  0.6852 -0.1465 -0.3497
  920MPD2    C113516   2.434   1.184  10.924 -0.5328 -0.8902 -0.0207
  920MPD2    C213517   2.472   1.070  10.997 -0.0407  0.4226 -0.9707
  920MPD2    C313518   2.557   1.083  11.105 -0.4870  0.2670  0.0020
  920MPD2    C413519   2.622   1.203  11.124 -0.3665 -0.2023  0.6356
  920MPD2    C513520   2.599   1.306  11.050 -0.0165 -0.6562  0.3932
  920MPD2     H13521   2.421   0.975  10.984 -0.5109  0.0784  3.3375
  920MPD2    H113522   2.696   1.229  11.199 -0.7990  0.4258  0.8401
  920MPD2    H213523   2.481   1.394  10.901 -1.8231 -2.2420 -3.3634
  920MPD2    H313524   2.655   1.398  11.062 -0.3998 -0.4761  0.7901
  920MPD2     N13525   2.571   0.971  11.183  0.2235 -0.0827  0.5766
  920MPD2    H513526   2.532   0.883  11.148  0.9425 -0.4733  0.7582
  920MPD2    N113527   2.335   1.173  10.824  0.2041 -0.3879  0.7357
  920MPD2    H713528   2.261   1.105  10.839 -0.3406  0.2643  0.9923
  921MPD2     C13529   3.864   3.727  16.592 -0.3174  0.3703  0.4828
  921MPD2    C113530   3.853   3.818  16.495 -0.2642  0.2132 -0.3707
  921MPD2    C213531   3.759   3.805  16.391  0.9266 -0.3057 -0.0288
  921MPD2    C313532   3.667   3.699  16.395 -0.1494 -0.0573 -0.2483
  921MPD2    C413533   3.678   3.604  16.500  0.0293 -0.0602 -0.1495
  921MPD2    C513534   3.777   3.624  16.596  0.6620 -0.6833 -0.1461
  921MPD2     H13535   3.754   3.867  16.302 -1.1144  1.5654  1.3839
  921MPD2    H113536   3.603   3.527  16.517  0.7055 -0.4543  1.0701
  921MPD2    H213537   3.949   3.732  16.659 -0.3637 -0.4802  0.6150
  921MPD2    H313538   3.793   3.554  16.678  1.6543 -0.9781 -0.5933
  921MPD2     N13539   3.556   3.700  16.308 -0.0088  0.1548  0.7196
  921MPD2    H513540   3.542   3.779  16.245  1.1950 -0.6574 -0.5624
  921MPD2    N113541   3.946   3.919  16.506 -0.7008  0.6130 -0.2555
  921MPD2    H713542   4.001   3.921  16.591 -0.7546 -0.8149 -0.1882
  922MPD2     C13543   0.049   1.861  17.462  0.5506  0.2262 -0.8104
  922MPD2    C113544   4.743   1.988  17.438 -0.0879 -0.5278  0.8602
  922MPD2    C213545   4.608   2.013  17.467 -0.6927 -0.8823  0.1837
  922MPD2    C313546   4.521   1.914  17.502  0.6717  0.3943 -0.0092
  922MPD2    C413547   4.573   1.789  17.533 -0.8630 -0.0364  0.2054
  922MPD2    C513548   4.706   1.763  17.506 -0.1805  0.2854 -0.2513
  922MPD2     H13549   4.580   2.115  17.442  2.2042  0.5135  2.7052
  922MPD2    H113550   4.514   1.703  17.564 -2.5220  0.8331 -0.5342
  922MPD2    H213551   0.153   1.835  17.444  0.4810  0.5055 -1.6178
  922MPD2    H313552   4.736   1.661  17.524  0.5853  0.1500 -2.3241
  922MPD2     N13553   4.382   1.952  17.490 -0.1818 -0.8120  0.5165
  922MPD2    H513554   4.369   2.046  17.454  1.7082 -0.6554  0.2003
  922MPD2    N113555   0.079   2.100  17.396  0.6259 -0.4077 -0.2155
  922MPD2    H713556   0.052   2.197  17.407 -0.4262 -0.6381 -0.8000
  923MPD2     C13557   0.805   4.112   8.967 -0.3567  1.0909 -0.8610
  923MPD2    C113558   0.793   4.203   9.067 -0.3061  0.0952 -0.2974
  923MPD2    C213559   0.897   4.195   9.155 -0.2761  0.7629  0.1082
  923MPD2    C313560   1.011   4.116   9.150  0.5345  0.4459  0.6332
  923MPD2    C413561   1.025   4.034   9.045 -0.0504  0.1181 -0.4821
  923MPD2    C513562   0.922   4.030   8.958  0.3493  0.2930 -0.1813
  923MPD2     H13563   0.875   4.259   9.240 -0.5910  0.5786  0.1673
  923MPD2    H113564   1.112   3.970   9.041 -0.6082 -0.7092  0.6569
  923MPD2    H213565   0.730   4.105   8.889 -1.8761 -0.5742  0.7447
  923MPD2    H313566   0.946   3.972   8.870  1.2918 -0.1404  0.3707
  923MPD2     N13567   1.105   4.118   9.250  0.7056 -0.1340  0.1316
  923MPD2    H513568   1.181   4.051   9.238  0.2758 -0.6730  0.4445
  923MPD2    N113569   0.685   4.288   9.087 -0.6618 -0.1856 -0.0990
  923MPD2    H713570   0.615   4.289   9.013 -1.2345  1.8434  0.4709
  924MPD2     C13571   1.499   2.807  15.818  0.4448 -0.4152  0.0645
  924MPD2    C113572   1.540   2.855  15.934 -0.3661 -0.1982 -0.1747
  924MPD2    C213573   1.500   2.981  15.978  0.2803  0.1539 -0.0620
  924MPD2    C313574   1.421   3.062  15.898  0.0840  0.2501  0.3373
  924MPD2    C413575   1.370   3.005  15.779  0.1835 -0.1881 -0.4156
  924MPD2    C513576   1.407   2.875  15.748  0.4621  0.2973  0.3967
  924MPD2     H13577   1.530   3.007  16.079 -1.1210  1.0926  0.1103
  924MPD2    H113578   1.292   3.051  15.718 -0.1646 -1.6302 -1.0423
  924MPD2    H213579   1.533   2.711  15.782  2.2745 -0.4655  1.9459
  924MPD2    H313580   1.364   2.829  15.660  2.0263  0.3376 -0.3824
  924MPD2     N13581   1.370   3.188  15.938 -0.2603 -0.4253  0.2874
  924MPD2    H513582   1.308   3.232  15.871  0.1729 -3.5275 -2.1654
  924MPD2    N113583   1.613   2.760  16.017  0.1909  0.0911  0.6163
  924MPD2    H713584   1.620   2.662  15.992 -0.3075  0.1268  0.3345
  925MPD2     C13585   0.157   0.468  14.813 -0.4205  0.4281  0.3369
  925MPD2    C113586   0.185   0.327  14.819  0.1221  0.5422  0.0185
  925MPD2    C213587   0.176   0.263  14.939  0.4048  0.0629 -0.0273
  925MPD2    C313588   0.139   0.330  15.056 -0.1704 -0.1389 -0.2063
  925MPD2    C413589   0.106   0.463  15.046  0.0888 -0.2941 -0.2199
  925MPD2    C513590   0.113   0.524  14.925 -0.2778  0.0106  0.4031
  925MPD2     H13591   0.222   0.166  14.958  2.1587  0.5940 -1.5765
  925MPD2    H113592   0.070   0.528  15.126  2.5456  0.2777  0.4388
  925MPD2    H213593   0.157   0.525  14.721  0.4403  1.9315  1.2674
  925MPD2    H313594   0.072   0.622  14.908  0.1210 -0.0359 -0.8255
  925MPD2     N13595   0.141   0.253  15.182  1.0708 -0.2918 -1.0352
  925MPD2    H513596   0.168   0.155  15.181  0.7883 -0.4022  2.3255
  925MPD2    N113597   0.212   0.258  14.702 -0.4810 -0.0463 -0.6190
  925MPD2    H713598   0.208   0.157  14.710  1.2565 -0.0773 -0.1722
  926MPD2     C13599   3.161   2.919  13.672 -0.0898 -0.1637  0.1279
  926MPD2    C113600   3.150   3.058  13.664 -0.0356  0.4581  0.0504
  926MPD2    C213601   3.218   3.132  13.560  0.4943 -0.5790  0.4909
  926MPD2    C313602   3.303   3.058  13.481 -0.5847 -0.2174 -0.0421
  926MPD2    C413603   3.314   2.921  13.497  0.0772 -0.0255 -0.0187
  926MPD2    C513604   3.240   2.851  13.586  0.0488 -0.2393  0.2100
  926MPD2     H13605   3.225   3.239  13.542  3.0135 -0.6874  0.8250
  926MPD2    H113606   3.371   2.854  13.434 -1.4408 -1.8859  0.5600
  926MPD2    H213607   3.093   2.866  13.738 -1.4268 -0.1069 -1.1978
  926MPD2    H313608   3.251   2.744  13.597  1.7004 -0.1407 -0.4974
  926MPD2     N13609   3.379   3.119  13.378 -0.1361 -0.4844  0.2089
  926MPD2    H513610   3.456   3.062  13.344 -1.3094 -1.7591 -0.3178
  926MPD2    N113611   3.068   3.134  13.750 -0.3669 -0.1725  0.3180
  926MPD2    H713612   3.064   3.236  13.743 -0.9531 -0.3883 -2.2331
  927MPD2     C13613   4.314   1.024   0.092  0.7756 -0.0092 -0.1551
  927MPD2    C113614   4.180   1.051   0.076 -0.2514  0.3124 -0.1250
  927MPD2    C213615   4.130   1.055  17.721  0.1203 -0.0781  0.3021
  927MPD2    C313616   4.208   1.056  17.604  0.2177 -0.1101  0.8047
  927MPD2    C413617   4.334   1.017  17.616 -0.4360 -0.3289 -0.5177
  927MPD2    C513618   4.386   1.008  17.743 -0.0800 -0.1719 -0.0077
  927MPD2     H13619   4.024   1.071  17.708  0.6826  1.1611 -2.7614
  927MPD2    H113620   4.403   1.014  17.533  1.0698 -3.7543  0.8538
  927MPD2    H213621   4.352   1.008   0.192 -0.2492 -0.7241  0.1199
  927MPD2    H313622   4.494   0.998  17.757 -0.0103  0.3488 -0.1812
  927MPD2     N13623   4.144   1.081  17.480  0.2519 -0.3061 -0.0573
  927MPD2    H513624   4.048   1.111  17.474  0.6690  1.0745  0.2431
  927MPD2    N113625   4.105   1.054   0.194 -0.2409  0.5070  0.0688
  927MPD2    H713626   4.157   1.040   0.279 -2.1674 -3.6232  0.5590
  928MPD2     C13627   1.130   4.579   0.306  0.0281  0.4038 -0.4326
  928MPD2    C113628   1.222   4.616   0.403 -0.6614  0.1202  0.4134
  928MPD2    C213629   1.349   4.559   0.397 -0.6939 -0.5159  0.6329
  928MPD2    C313630   1.389   4.472   0.290 -0.8426  0.0796 -0.4463
  928MPD2    C413631   1.297   4.446   0.195  0.2217 -0.6835  0.2222
  928MPD2    C513632   1.166   4.498   0.201  0.0016 -0.2690 -1.0834
  928MPD2     H13633   1.423   4.594   0.469 -0.2998 -0.3919  0.1732
  928MPD2    H113634   1.308   4.365   0.123 -2.4652 -1.9061  1.1903
  928MPD2    H213635   1.030   4.620   0.300 -1.0338 -1.7145  3.1143
  928MPD2    H313636   1.093   4.469   0.126 -2.2182  2.7506 -0.0608
  928MPD2     N13637   1.524   4.422   0.277  0.0689  0.0522  0.0837
  928MPD2    H513638   1.543   4.382   0.185 -1.8316 -2.6551  0.8456
  928MPD2    N113639   1.189   4.709   0.502  0.1248 -0.0297 -0.0605
  928MPD2    H713640   1.102   0.014   0.482 -0.6716 -1.3224  0.2372
  929MPD2     C13641   1.420   4.247  10.578  0.7002 -0.2001  0.0289
  929MPD2    C113642   1.346   4.138  10.624  0.3009  0.8074  0.4846
  929MPD2    C213643   1.239   4.110  10.544  0.1638 -0.4591 -0.4081
  929MPD2    C313644   1.210   4.172  10.424 -0.2367 -0.1704 -0.6121
  929MPD2    C413645   1.295   4.278  10.376  0.5417 -0.5721 -0.3171
  929MPD2    C513646   1.389   4.315  10.463  0.8460 -0.0591 -0.3172
  929MPD2     H13647   1.175   4.025  10.566 -1.7195  0.7217 -1.2449
  929MPD2    H113648   1.274   4.335  10.287 -1.2651 -0.5760  0.0939
  929MPD2    H213649   1.502   4.286  10.638 -0.2463  1.7487  0.0918
  929MPD2    H313650   1.444   4.405  10.438  1.7360 -0.5163 -0.0336
  929MPD2     N13651   1.088   4.146  10.348 -0.2752  0.6835  1.0268
  929MPD2    H513652   1.068   4.218  10.280  1.2946  0.5109  0.3895
  929MPD2    N113653   1.376   4.077  10.747 -0.1250 -0.5541 -0.9389
  929MPD2    H713654   1.448   4.126  10.799 -0.5531  1.1176 -1.9073
  930MPD2     C13655   2.937   1.063  14.189 -0.5106 -0.0213 -0.4665
  930MPD2    C113656   2.907   1.198  14.203  0.1216 -0.3714  0.2045
  930MPD2    C213657   2.871   1.261  14.084 -0.2844 -0.2121  0.0761
  930MPD2    C313658   2.868   1.201  13.965  0.3608  0.5092 -0.3385
  930MPD2    C413659   2.899   1.066  13.956  0.2391  0.1980  0.2314
  930MPD2    C513660   2.932   0.999  14.073  1.5241  0.6533  0.2083
  930MPD2     H13661   2.839   1.364  14.099 -0.9120 -0.8357  3.0415
  930MPD2    H113662   2.883   1.010  13.865 -2.2877  2.4579 -0.7420
  930MPD2    H213663   2.970   1.000  14.271  0.7188 -0.6753 -1.4595
  930MPD2    H313664   2.954   0.894  14.064 -1.8372 -0.2173  2.1909
  930MPD2     N13665   2.846   1.278  13.848 -0.5619  0.1482  0.6237
  930MPD2    H513666   2.802   1.368  13.869  0.7499  0.3885  2.2957
  930MPD2    N113667   2.926   1.264  14.322 -0.0347  0.2977  0.0069
  930MPD2    H713668   2.975   1.215  14.396 -0.0729 -0.4638 -0.4819
  931MPD2     C13669   4.297   0.787   0.728 -0.7742  0.5213 -0.6486
  931MPD2    C113670   4.159   0.819   0.734 -0.0471  0.4010  0.8714
  931MPD2    C213671   4.076   0.752   0.815  0.8325 -0.4839 -0.1608
  931MPD2    C313672   4.121   0.646   0.896  0.1750 -0.2049 -0.4378
  931MPD2    C413673   4.252   0.607   0.884  0.3000 -0.3347 -0.4123
  931MPD2    C513674   4.339   0.677   0.799  0.3008 -0.3440  0.4078
  931MPD2     H13675   3.970   0.775   0.813  1.2258  1.3700  0.0289
  931MPD2    H113676   4.284   0.523   0.944  0.9258 -0.7638 -1.3581
  931MPD2    H213677   4.353   0.851   0.660  1.1533  0.1556  0.5902
  931MPD2    H313678   4.442   0.643   0.804 -0.0169 -1.4773 -0.9213
  931MPD2     N13679   4.027   0.570   0.977  0.1158 -0.4646 -0.2445
  931MPD2    H513680   4.066   0.490   1.026 -0.3971 -1.8261 -2.0740
  931MPD2    N113681   4.116   0.920   0.649  0.5046 -0.6020 -0.1661
  931MPD2    H713682   4.176   0.957   0.577  0.8601 -1.2677 -0.2197
  932MPD2     C13683   0.078   0.447  11.561  0.0718 -0.3437 -0.2133
  932MPD2    C113684   0.164   0.406  11.657  0.0965  0.4302  0.0944
  932MPD2    C213685   0.174   0.272  11.695 -0.4740 -0.5715 -0.3767
  932MPD2    C313686   0.087   0.172  11.638 -0.5022 -0.7165 -0.2638
  932MPD2    C413687   4.738   0.215  11.546  0.0208 -0.1774 -0.5031
  932MPD2    C513688   4.734   0.353  11.505 -0.1084 -0.3285  0.4157
  932MPD2     H13689   0.252   0.235  11.760 -2.3537 -0.3095  2.0173
  932MPD2    H113690   4.673   0.145  11.494  0.5557 -0.7652 -0.3838
  932MPD2    H213691   0.071   0.547  11.521  0.6666 -0.3061 -0.2210
  932MPD2    H313692   4.663   0.380  11.428 -0.2131  2.1587  1.3945
  932MPD2     N13693   0.113   0.040  11.667 -0.1660  0.3352 -0.3006
  932MPD2    H513694   0.203   0.013  11.705  0.7631  0.8664 -2.1062
  932MPD2    N113695   0.262   0.496  11.716 -0.4830  0.6089  0.0683
  932MPD2    H713696   0.345   0.454  11.757 -0.5855 -1.3490 -1.7637
  933MPD2     C13697   0.763   0.669   0.756 -0.1775  0.5345  0.2594
  933MPD2    C113698   0.803   0.561   0.681  0.1171 -0.0015  0.5348
  933MPD2    C213699   0.718   0.519   0.572  0.2431  0.1338 -0.8954
  933MPD2    C313700   0.611   0.591   0.523 -0.1732  0.3992 -0.3976
  933MPD2    C413701   0.585   0.708   0.590  0.0834  0.4698 -0.3884
  933MPD2    C513702   0.647   0.736   0.713 -0.5342 -0.4523 -0.1304
  933MPD2     H13703   0.735   0.427   0.518 -0.4362  0.2958 -1.3934
  933MPD2    H113704   0.502   0.773   0.566  0.0518 -0.0523 -1.7169
  933MPD2    H213705   0.819   0.711   0.838 -1.5375  0.6776  1.1207
  933MPD2    H313706   0.615   0.825   0.766 -0.1047  0.0937 -0.7943
  933MPD2     N13707   0.553   0.562   0.398 -0.1410  0.1737 -1.1333
  933MPD2    H513708   0.595   0.484   0.348  1.6126  0.6834 -0.4621
  933MPD2    N113709   0.920   0.488   0.720  0.7787  0.5061 -0.7835
  933MPD2    H713710   0.968   0.520   0.803 -1.1523  0.6155  0.2856
  934MPD2     C13711   2.386   1.248   2.075 -0.2129  0.4303 -0.3890
  934MPD2    C113712   2.477   1.167   2.015 -0.0331  0.1107  0.1592
  934MPD2    C213713   2.469   1.136   1.880 -0.7187  0.7385  0.3436
  934MPD2    C313714   2.376   1.192   1.797  0.2890  0.8060 -0.6648
  934MPD2    C413715   2.279   1.263   1.858 -0.4593  0.0577 -0.0041
  934MPD2    C513716   2.281   1.291   1.992  0.5201  0.1802  0.1252
  934MPD2     H13717   2.545   1.075   1.833 -0.1739  1.2245  0.5941
  934MPD2    H113718   2.202   1.319   1.806 -0.8240  0.2079  0.7079
  934MPD2    H213719   2.384   1.272   2.181  1.5882  0.4902 -0.3758
  934MPD2    H313720   2.200   1.344   2.039 -1.5317  0.1219 -3.3628
  934MPD2     N13721   2.361   1.172   1.660 -0.0317 -0.1921  0.3824
  934MPD2    H513722   2.276   1.208   1.618  1.1880  2.5549  0.3052
  934MPD2    N113723   2.583   1.099   2.083  0.2975  0.5514 -0.6196
  934MPD2    H713724   2.643   1.031   2.037 -2.4361 -1.6640 -0.9284
  935MPD2     C13725   2.774   0.504   1.068  0.5815 -0.0585  0.3699
  935MPD2    C113726   2.644   0.516   1.013 -0.1968  0.0622 -0.8075
  935MPD2    C213727   2.567   0.617   1.062  0.4363 -0.3672 -0.0788
  935MPD2    C313728   2.612   0.699   1.159  0.6576  0.0493  0.0923
  935MPD2    C413729   2.738   0.680   1.203 -0.5041  0.3584 -0.5776
  935MPD2    C513730   2.823   0.587   1.161 -0.1386  0.4507  0.1727
  935MPD2     H13731   2.466   0.633   1.026 -0.1978 -2.5156  0.7702
  935MPD2    H113732   2.768   0.748   1.282 -2.0635 -0.4593  0.7050
  935MPD2    H213733   2.835   0.424   1.028  0.2500  0.2514 -0.7491
  935MPD2    H313734   2.931   0.586   1.175 -0.0719  1.9454 -0.2382
  935MPD2     N13735   2.536   0.809   1.206  0.3177 -0.1350 -0.2925
  935MPD2    H513736   2.582   0.859   1.282  0.6706  0.2662 -0.7707
  935MPD2    N113737   2.597   0.429   0.906  0.3372  0.1885  0.5014
  935MPD2    H713738   2.505   0.449   0.868  0.1970 -0.8992  0.2741
  936MPD2     C13739   0.211   3.457  12.520 -0.3802 -0.0433 -0.3269
  936MPD2    C113740   0.265   3.329  12.508  0.4506 -0.3259  0.0107
  936MPD2    C213741   0.394   3.312  12.465  0.3286 -0.2400 -0.4866
  936MPD2    C313742   0.478   3.418  12.452 -0.8023 -0.1648 -0.0341
  936MPD2    C413743   0.423   3.542  12.460  0.4911 -0.6392  0.1363
  936MPD2    C513744   0.289   3.557  12.487 -0.8348 -0.3214  0.6014
  936MPD2     H13745   0.425   3.209  12.460  2.4259  0.3922 -0.5408
  936MPD2    H113746   0.489   3.629  12.455 -0.0235 -0.2771 -0.3008
  936MPD2    H213747   0.108   3.481  12.544  0.5097  3.3287  0.0121
  936MPD2    H313748   0.242   3.654  12.481  0.1209  0.1805  1.2040
  936MPD2     N13749   0.611   3.387  12.414 -0.3573  0.1095 -0.0263
  936MPD2    H513750   0.635   3.288  12.417  0.6936  0.5052  4.3810
  936MPD2    N113751   0.199   3.215  12.554 -0.1007 -0.0295 -0.2341
  936MPD2    H713752   0.262   3.135  12.560 -0.2737 -0.2256 -0.9940
  937MPD2     C13753   3.563   4.608  11.948 -0.1823  0.1197 -0.0200
  937MPD2    C113754   3.577   4.741  11.949 -0.3318  0.1355  0.0757
  937MPD2    C213755   3.655   0.049  11.841 -0.4180  0.4306  1.0326
  937MPD2    C313756   3.729   4.714  11.762 -0.3302  0.5288 -0.1894
  937MPD2    C413757   3.724   4.578  11.780 -0.0092  0.5828  0.7778
  937MPD2    C513758   3.636   4.523  11.871 -0.2078  0.2089 -0.6721
  937MPD2     H13759   3.669   0.156  11.827 -4.4542  0.8448  0.0837
  937MPD2    H113760   3.794   4.515  11.725 -0.4272  2.1966 -1.6175
  937MPD2    H213761   3.493   4.560  12.015 -0.4855  1.5288  0.6824
  937MPD2    H313762   3.629   4.418  11.896 -2.5559  0.7130  0.7782
  937MPD2     N13763   3.810   0.032  11.661 -1.0230  0.3403  0.1085
  937MPD2    H513764   3.795   0.132  11.653  1.9040  0.8688  1.1834
  937MPD2    N113765   3.490   0.087  12.016  0.2432 -0.6488 -0.0268
  937MPD2    H713766   3.470   0.177  11.972  0.4826 -0.1942  0.7989
  938MPD2     C13767   1.647   0.907   0.637  0.2683  0.1547  0.5201
  938MPD2    C113768   1.679   1.030   0.690  0.2786 -0.2655 -0.8026
  938MPD2    C213769   1.663   1.050   0.831 -0.3012  0.1967  0.1730
  938MPD2    C313770   1.624   0.945   0.912  0.2384 -0.8163 -0.6184
  938MPD2    C413771   1.592   0.827   0.848 -0.6345 -0.6942  0.8293
  938MPD2    C513772   1.610   0.799   0.715 -0.0428  0.1784  0.4439
  938MPD2     H13773   1.675   1.152   0.866  1.2476 -0.1427  0.6310
  938MPD2    H113774   1.564   0.742   0.910  1.2089 -2.0151 -0.1210
  938MPD2    H213775   1.640   0.893   0.529 -1.3369 -0.1244  0.6578
  938MPD2    H313776   1.584   0.704   0.670  0.8296 -0.6668  1.7199
  938MPD2     N13777   1.607   0.957   1.052 -0.0259  0.3626  0.0518
  938MPD2    H513778   1.600   0.866   1.097 -0.3864  0.5825  0.4350
  938MPD2    N113779   1.710   1.147   0.612  0.1407 -0.5038  0.0582
  938MPD2    H713780   1.727   1.231   0.667  1.8677  0.3873 -1.8769
  939MPD2     C13781   2.349   2.699   1.027 -0.1747  0.0188  0.1106
  939MPD2    C113782   2.286   2.681   0.908  0.2390 -0.4656  0.1821
  939MPD2    C213783   2.362   2.665   0.792  0.0693  0.2127  0.4350
  939MPD2    C313784   2.501   2.684   0.798 -0.5926  0.5820  0.2532
  939MPD2    C413785   2.560   2.691   0.925  0.2611 -0.2828  0.0802
  939MPD2    C513786   2.484   2.703   1.045  0.7392  0.2093 -0.9061
  939MPD2     H13787   2.316   2.672   0.694 -0.8853 -0.3779  0.8357
  939MPD2    H113788   2.667   2.699   0.938  0.2946 -3.0794  1.5118
  939MPD2    H213789   2.279   2.725   1.105 -1.7564  0.4548 -1.4508
  939MPD2    H313790   2.534   2.710   1.141 -3.6649 -0.0168  1.3811
  939MPD2     N13791   2.570   2.664   0.676 -0.5026 -0.8345  0.0341
  939MPD2    H513792   2.509   2.673   0.595  0.9238 -0.9811 -1.0524
  939MPD2    N113793   2.147   2.686   0.917 -0.0080  0.1865 -0.2889
  939MPD2    H713794   2.107   2.697   1.009  0.7768  1.4820 -0.1029
  940MPD2     C13795   0.897   3.555  13.215  0.2915 -0.1842  0.5156
  940MPD2    C113796   0.943   3.451  13.300  0.1758  0.1710 -0.1790
  940MPD2    C213797   1.061   3.383  13.261  0.1370 -0.0096  0.4474
  940MPD2    C313798   1.118   3.416  13.141  0.2405 -0.2290  0.4767
  940MPD2    C413799   1.075   3.519  13.065 -0.4438  0.1700 -0.3951
  940MPD2    C513800   0.962   3.588  13.105 -0.0743 -0.1163  0.0296
  940MPD2     H13801   1.095   3.297  13.317 -0.1587 -1.5457 -1.7384
  940MPD2    H113802   1.135   3.540  12.977 -0.8733  1.6646 -0.3359
  940MPD2    H213803   0.808   3.616  13.232 -0.3084 -0.3495 -2.0527
  940MPD2    H313804   0.922   3.668  13.043 -2.1046  0.7871  2.5120
  940MPD2     N13805   1.220   3.342  13.076  0.4731 -0.1421 -0.4814
  940MPD2    H513806   1.239   3.375  12.982  0.5121  2.8115  0.5709
  940MPD2    N113807   0.867   3.412  13.414 -0.0741  0.0590  0.3523
  940MPD2    H713808   0.913   3.353  13.481  1.3665  1.0521  0.2439
  941MPD2     C13809   0.336   2.435   9.792 -0.3935 -0.5198 -0.2331
  941MPD2    C113810   0.400   2.408   9.914  0.0148 -0.2463 -0.0390
  941MPD2    C213811   0.330   2.340  10.008  0.1075 -1.3059 -0.0828
  941MPD2    C313812   0.200   2.313   9.989  0.3384  0.7246 -0.9384
  941MPD2    C413813   0.138   2.337   9.869  0.0274 -0.6951  0.1462
  941MPD2    C513814   0.208   2.390   9.772 -0.0427 -0.6493 -0.5660
  941MPD2     H13815   0.384   2.318  10.100 -0.7076 -1.9548  0.2304
  941MPD2    H113816   0.040   2.298   9.845 -0.0231 -0.2339 -0.3933
  941MPD2    H213817   0.390   2.461   9.702  0.1851  1.0901  0.5722
  941MPD2    H313818   0.163   2.401   9.674  0.4515 -0.5246 -0.7788
  941MPD2     N13819   0.120   2.247  10.078 -0.0237  0.4146 -0.0271
  941MPD2    H513820   0.019   2.252  10.068  0.0221  1.1136 -0.1386
  941MPD2    N113821   0.531   2.447   9.938  0.0012  0.6543 -0.5993
  941MPD2    H713822   0.571   2.416  10.026  0.3717  0.2725 -0.9013
  942MPD2     C13823   4.587   3.995   9.677 -0.1246 -0.2258 -0.2693
  942MPD2    C113824   4.639   3.878   9.634  0.2791 -0.1231 -0.4825
  942MPD2    C213825   0.012   3.884   9.556 -0.4389  0.5635  0.1059
  942MPD2    C313826   0.070   4.003   9.516 -0.3465  0.1514 -0.1460
  942MPD2    C413827   0.011   4.117   9.565 -0.7094 -0.5434 -0.4135
  942MPD2    C513828   4.634   4.113   9.634 -0.2417  0.2778  0.0375
  942MPD2     H13829   0.053   3.788   9.526 -1.9403  0.3475 -1.2525
  942MPD2    H113830   0.041   4.219   9.543  0.3187 -1.2873 -2.5238
  942MPD2    H213831   4.500   4.003   9.741 -0.8959  0.3038 -1.3864
  942MPD2    H313832   4.586   4.205   9.664  2.4128  1.2995  1.1527
  942MPD2     N13833   0.182   4.014   9.435  0.1955  0.5361 -0.1273
  942MPD2    H513834   0.212   4.108   9.408  1.2608  0.2410  0.0250
  942MPD2    N113835   4.574   3.752   9.665  0.0785 -0.6636  0.3615
  942MPD2    H713836   4.625   3.675   9.622  0.9011  1.3144 -2.2165
  943MPD2     C13837   0.018   2.518  10.349  0.4850 -0.5607  0.0818
  943MPD2    C113838   4.647   2.502  10.428  0.6396  0.0753  0.0417
  943MPD2    C213839   4.659   2.431  10.548 -0.8090  0.2713  0.4063
  943MPD2    C313840   0.035   2.369  10.583  0.1230 -0.2892  0.5038
  943MPD2    C413841   0.146   2.407  10.513  0.1601 -0.0465  0.0587
  943MPD2    C513842   0.139   2.476  10.393 -0.3099  0.2753  0.3801
  943MPD2     H13843   4.573   2.399  10.606 -1.4731  2.6206  0.7190
  943MPD2    H113844   0.247   2.375  10.536 -0.3281 -1.9149 -0.4359
  943MPD2    H213845   0.019   2.578  10.258  0.9328 -2.5353 -1.2008
  943MPD2    H313846   0.224   2.522  10.344  0.0409 -1.9992 -1.1724
  943MPD2     N13847   0.055   2.273  10.681 -0.2495 -0.5875 -0.6782
  943MPD2    H513848   0.135   2.211  10.681  1.5154  1.6955 -0.6051
  943MPD2    N113849   4.520   2.546  10.382  0.2415  0.3357 -0.5941
  943MPD2    H713850   4.515   2.576  10.285  0.9292  1.3825 -0.2948
  944MPD2     C13851   3.533   0.746  10.769 -0.0818 -0.4408 -0.1250
  944MPD2    C113852   3.603   0.867  10.756  0.1884 -0.3692  0.1143
  944MPD2    C213853   3.561   0.975  10.834  0.7297  0.1651  0.0035
  944MPD2    C313854   3.457   0.970  10.919 -0.5301  0.3823 -0.1643
  944MPD2    C413855   3.381   0.847  10.925 -0.5318 -0.3057 -0.4528
  944MPD2    C513856   3.420   0.739  10.846  0.7755 -0.3606  0.4019
  944MPD2     H13857   3.623   1.064  10.835  0.4039  0.3894  0.0989
  944MPD2    H113858   3.292   0.835  10.987  0.3516 -0.5344  0.7842
  944MPD2    H213859   3.569   0.660  10.715  0.2634 -0.6239  0.3984
  944MPD2    H313860   3.368   0.646  10.864 -1.8057  1.0881  0.3933
  944MPD2     N13861   3.428   1.089  10.990 -0.3474 -0.3554  0.0480
  944MPD2    H513862   3.475   1.171  10.953  0.7299 -0.2174  1.7263
  944MPD2    N113863   3.718   0.873  10.673 -0.6712  0.3104 -0.2196
  944MPD2    H713864   3.771   0.788  10.654  0.7249  1.1447 -0.0489
    1TMC1    C113865   1.794   3.061  15.480  0.3056  0.8307  0.0844
    1TMC1    C213866   1.847   2.990  15.581 -0.3286 -0.1718  0.3865
    1TMC1    C313867   1.804   2.861  15.606 -0.5197 -0.2744 -0.2425
    1TMC1    C413868   1.700   3.003  15.396 -0.1085 -0.3297 -0.7396
    1TMC1    C513869   1.667   2.871  15.417 -0.1304 -0.0757  0.4048
    1TMC1    C613870   1.725   2.800  15.514  0.2323  0.2097  0.2625
    1TMC1     C13871   1.848   3.189  15.442  0.6704  0.2804  0.7366
    1TMC1     O13872   1.917   3.245  15.529  0.6298  0.4659 -0.1474
    1TMC1     H13873   1.941   3.032  15.613 -0.0908 -0.5032  0.1242
    1TMC1    H113874   1.656   3.057  15.314  0.1085 -1.2605 -1.4675
    1TMC1    H213875   1.689   2.704  15.549 -1.7263  1.4655  1.6990
    1TMC1    C713876   1.543   2.822  15.359 -0.7264 -0.2447  0.6960
    1TMC1    C813877   1.883   2.763  15.679  0.3152 -0.3252  0.6120
    1TMC1    O113878   1.508   2.708  15.370  0.4255  0.0774 -0.3783
    1TMC1    O213879   1.889   2.646  15.644  0.2112 -0.0107  0.4109
    1TMC1    O313880   1.464   2.935  15.358  0.1340  0.0014 -0.3999
    1TMC1    H313881   1.510   3.020  15.373 -0.9070  0.3393  0.7867
    1TMC1    O513882   1.980   2.834  15.742 -0.1203 -0.3340  0.3122
    1TMC1    H513883   1.932   2.902  15.795 -1.1216  1.1045 -2.4341
    2MPD2     C13884   2.028   3.475  15.065  0.0653  0.3002 -0.0687
    2MPD2    C113885   1.997   3.351  15.016  0.3022 -0.2758 -0.4618
    2MPD2    C213886   1.939   3.261  15.103  0.1413  0.3217 -0.1279
    2MPD2    C313887   1.913   3.294  15.231 -0.9297  0.2810 -0.4384
    2MPD2    C413888   1.941   3.420  15.283 -0.3217  0.5636  0.2526
    2MPD2    C513889   2.005   3.506  15.199 -0.3650  0.9350  0.7339
    2MPD2     H13890   1.922   3.162  15.062  0.4714  0.4548 -0.5877
    2MPD2    H113891   1.907   3.465  15.376 -2.5422  0.3608 -0.4466
    2MPD2    H213892   2.061   3.544  14.988  1.3449 -1.9754 -1.5491
    2MPD2    H313893   2.030   3.600  15.245 -0.0130  0.5104  1.4158
    2MPD2     N13894   1.854   3.198  15.306 -1.0120  0.0734  0.7444
    2MPD2    H513895   1.818   3.121  15.250  0.9785 -0.3354  0.0168
    2MPD2    N113896   2.014   3.325  14.876 -0.1413 -0.2296 -0.2767
    2MPD2    H713897   2.050   3.403  14.822  0.6345 -0.4639 -0.0890
    3TMC2    C113898   1.979   3.221  14.667  0.1182 -0.5519  0.1743
    3TMC2    C213899   2.042   3.319  14.600 -0.0197 -0.6363  0.5319
    3TMC2    C313900   2.054   3.311  14.465  0.1809 -0.0779  0.2439
    3TMC2    C413901   1.934   3.109  14.602 -0.0010  0.3366  0.2084
    3TMC2    C513902   1.946   3.107  14.468  0.1312  0.5338  0.2580
    3TMC2    C613903   1.998   3.205  14.392 -0.1060  1.0745  0.0923
    3TMC2     C13904   1.969   3.213  14.810  0.3584  0.8336  0.2703
    3TMC2     O13905   1.929   3.106  14.854  0.3110 -0.0600  0.3858
    3TMC2     H13906   2.093   3.398  14.654  0.9316 -0.9265  0.0565
    3TMC2    H113907   1.874   3.027  14.639  0.5030 -0.7624 -1.3731
    3TMC2    H213908   2.005   3.206  14.283 -1.1190 -0.1312  0.0184
    3TMC2    C713909   1.864   2.998  14.419 -0.5524  0.2941 -1.5410
    3TMC2    C813910   2.102   3.434  14.405 -0.1408  1.0540 -0.2836
    3TMC2    O113911   1.884   2.891  14.468  0.4377 -0.0491  0.6636
    3TMC2    O213912   2.198   3.497  14.450 -0.6204 -0.2246 -0.2116
    3TMC2    O513913   2.059   3.436  14.278 -0.6980  0.2142  0.0979
    3TMC2    H513914   1.980   3.380  14.264  0.0934 -0.2410 -2.4290
    4TMC2    C113915   1.114   3.386  13.906  0.1573  0.0862 -0.2189
    4TMC2    C213916   1.120   3.325  13.780  0.4018  0.6957  0.1219
    4TMC2    C313917   1.190   3.207  13.776 -0.2253 -0.5788  0.4824
    4TMC2    C413918   1.174   3.334  14.017 -0.1891 -0.7959  0.6103
    4TMC2    C513919   1.238   3.218  14.002 -0.1454  0.1772  0.5169
    4TMC2    C613920   1.258   3.153  13.881 -0.3245 -0.3579  0.0927
    4TMC2     C13921   1.028   3.494  13.922  0.5092 -0.1056  0.6165
    4TMC2     O13922   1.003   3.526  14.040  0.3409 -0.4677  0.2154
    4TMC2     H13923   1.068   3.361  13.691  3.5240 -2.3117 -2.8983
    4TMC2    H113924   1.179   3.392  14.108 -2.5600  0.4534 -0.0558
    4TMC2    H213925   1.334   3.078  13.866 -0.6242 -0.2332 -2.1403
    4TMC2    C713926   1.330   3.184  14.110  0.5293 -0.0595  0.2823
    4TMC2    C813927   1.204   3.143  13.643 -1.0087 -0.2784 -0.6429
    4TMC2    O113928   1.389   3.270  14.171  0.3223  0.0346  0.2218
    4TMC2    O213929   1.173   3.201  13.540  1.2022  0.3802 -0.1901
    4TMC2    O513930   1.234   3.014  13.647 -0.0173 -0.7293 -0.1271
    4TMC2    H513931   1.224   2.965  13.731 -0.5087  0.1280  0.3039
    5MPD2     C13932   0.687   3.813  13.699  0.4730  0.0410  0.3159
    5MPD2    C113933   0.786   3.788  13.607  0.5421  0.1892 -0.7042
    5MPD2    C213934   0.892   3.711  13.658  0.0851 -0.0311  0.0872
    5MPD2    C313935   0.897   3.659  13.783  0.9723  1.3346  0.0090
    5MPD2    C413936   0.805   3.694  13.876 -0.1433  0.7951 -0.6689
    5MPD2    C513937   0.703   3.774  13.832 -0.1100  0.0242 -0.4143
    5MPD2     H13938   0.974   3.698  13.588  0.0389  1.7150 -0.2972
    5MPD2    H113939   0.804   3.660  13.979  0.0126  4.7092  0.6030
    5MPD2    H213940   0.592   3.854  13.669  0.8572 -0.5074 -1.6681
    5MPD2    H313941   0.619   3.801  13.894 -0.4044 -0.4096 -0.6269
    5MPD2     N13942   1.004   3.569  13.809 -0.3096  1.1306 -0.0430
    5MPD2    H513943   1.054   3.548  13.723  0.1537 -0.1295  0.5343
    5MPD2    N113944   0.775   3.843  13.479  0.0008  0.3979  0.0824
    5MPD2    H713945   0.680   3.873  13.459 -0.2076 -0.8784 -0.8552
    6MPD1     C13946   0.281   0.669  14.029 -0.6708 -1.0321  0.1345
    6MPD1    C113947   0.226   0.622  13.914  0.7833 -0.6129  0.1624
    6MPD1    C213948   0.278   0.507  13.868  0.6846  0.5364  0.0586
    6MPD1    C313949   0.369   0.430  13.941  0.3519  0.3890  1.1725
    6MPD1    C413950   0.424   0.480  14.060 -0.7459 -0.5625 -0.5473
    6MPD1    C513951   0.386   0.605  14.094  0.0801  0.2748  0.1386
    6MPD1     H13952   0.254   0.470  13.768 -0.5398  1.0910  0.1513
    6MPD1    H113953   0.502   0.432  14.118 -0.7124 -1.3917 -1.2829
    6MPD1    H213954   0.265   0.771  14.062 -0.9948 -0.5290 -1.5743
    6MPD1    H313955   0.435   0.650  14.180 -3.4136 -0.4162  2.4730
    6MPD1     N13956   0.410   0.301  13.897 -0.6348  0.2545 -0.3421
    6MPD1    H513957   0.449   0.251  13.976  0.2097  1.2653 -0.1161
    6MPD1    N113958   0.138   0.699  13.837  0.2080  0.2637 -0.2565
    6MPD1    H613959   0.091   0.774  13.887 -0.0075  1.2936 -2.0189
    6MPD1    H713960   0.066   0.652  13.783  2.3500  0.1761 -3.0530
    7MPD2     C13961   0.220   4.322  13.428 -0.9744 -0.1959  0.4830
    7MPD2    C113962   0.348   4.375  13.417 -0.3382  0.3038 -0.9144
    7MPD2    C213963   0.435   4.319  13.322 -0.7451  0.6945 -0.1227
    7MPD2    C313964   0.419   4.194  13.269 -0.1183 -0.6043 -0.5385
    7MPD2    C413965   0.296   4.129  13.289  0.6914  1.1641  0.1033
    7MPD2    C513966   0.198   4.199  13.365 -0.3762  0.7076 -0.3703
    7MPD2     H13967   0.533   4.359  13.300  0.1191 -1.5975 -0.4906
    7MPD2    H113968   0.281   4.046  13.222  0.0193  0.5738  0.9895
    7MPD2    H213969   0.134   4.369  13.474 -0.8858 -0.8563  1.3349
    7MPD2    H313970   0.105   4.146  13.381  0.4062 -1.2164 -2.2257
    7MPD2     N13971   0.530   4.135  13.202 -0.1146 -0.1579  0.5918
    7MPD2    H513972   0.615   4.189  13.199  0.2740 -0.7438  1.0136
    7MPD2    N113973   0.390   4.500  13.475 -0.1676  0.8783  0.7784
    7MPD2    H713974   0.478   4.531  13.436  0.0785  0.2562  0.8494
    8TMC3    C113975   0.678   3.982  13.123  0.4117  0.4883  0.2762
    8TMC3    C213976   0.723   3.907  13.227  0.4922 -0.2807  0.9494
    8TMC3    C313977   0.832   3.953  13.289  0.5949 -0.3096 -0.1762
    8TMC3    C413978   0.751   4.092  13.078  0.0925 -0.2061  0.5929
    8TMC3    C513979   0.860   4.137  13.148  0.4605 -0.2697  0.0927
    8TMC3    C613980   0.910   4.056  13.241  0.2626 -0.3566  0.0092
    8TMC3     C13981   0.539   4.006  13.147 -0.6787  0.0996 -0.0941
    8TMC3     O13982   0.456   3.918  13.141  0.4375 -0.0874  0.7314
    8TMC3     H13983   0.673   3.815  13.254  0.6839 -0.3143  1.1857
    8TMC3    H113984   0.706   4.138  12.990 -1.3449 -0.0345  1.4237
    8TMC3    H213985   0.998   4.094  13.292  0.1290 -0.4564  0.3198
    8TMC3    C713986   0.860   4.280  13.192  0.0992 -0.1094 -0.4443
    8TMC3    C813987   0.881   3.873  13.402  0.3485  0.6649 -0.3143
    8TMC3    O113988   0.751   4.335  13.174 -0.2036  0.1219 -0.0296
    8TMC3    O213989   1.001   3.854  13.414  0.7486 -0.1782 -0.0614
    9TMC3    C113990   0.428   0.112  13.767  0.4029 -0.6947 -0.7828
    9TMC3    C213991   0.563   0.107  13.754  0.1712 -0.4388  0.3863
    9TMC3    C313992   0.623   0.022  13.664  0.3980  0.5169  0.7891
    9TMC3    C413993   0.354   0.032  13.685 -0.1378 -0.4976 -0.1541
    9TMC3    C513994   0.405   4.684  13.601 -0.1618  0.1813  0.3302
    9TMC3    C613995   0.546   4.673  13.596  0.0356 -0.2978 -0.2141
    9TMC3     C13996   0.372   0.241  13.777  0.2885  0.5753  0.3066
    9TMC3     O13997   0.326   0.296  13.679 -0.3087 -0.3003  0.0592
    9TMC3     H13998   0.623   0.182  13.805  0.6160 -0.3581 -0.2424
    9TMC3    H113999   0.247   0.034  13.705 -0.2871  1.1974 -1.0666
    9TMC3    H214000   0.595   4.591  13.545 -0.0092 -1.4432  1.6074
    9TMC3    C714001   0.315   4.583  13.547 -0.0793  0.1260 -0.0041
    9TMC3    C814002   0.766   0.031  13.623  0.6210 -1.0175  0.1906
    9TMC3    O114003   0.199   4.582  13.591 -0.0854 -0.2620 -0.7262
    9TMC3    O214004   0.843   0.102  13.690  0.0248 -0.2911  0.0616
   10MPD2     C14005   1.102   4.477  13.401 -0.5182  0.4477 -0.4819
   10MPD2    C114006   0.980   4.440  13.349  0.8955  0.1443 -0.1017
   10MPD2    C214007   0.875   4.525  13.372 -0.0809  0.8708 -0.2538
   10MPD2    C314008   0.891   4.630  13.464  0.5341  0.1169 -0.0125
   10MPD2    C414009   1.012   4.650  13.527 -0.2663 -0.5152 -0.3063
   10MPD2    C514010   1.117   4.578  13.492 -0.3871  0.1356  0.2095
   10MPD2     H14011   0.778   4.499  13.332  0.2117  0.5103 -0.7260
   10MPD2    H114012   1.042   4.730  13.594  1.2407 -1.0489 -0.3424
   10MPD2    H214013   1.190   4.416  13.383 -0.7256 -0.0274  0.0901
   10MPD2    H314014   1.207   4.587  13.553 -0.9495 -0.9603  1.2041
   10MPD2     N14015   0.782   4.702  13.509  0.1216  0.5640 -0.3500
   10MPD2    H514016   0.706   4.681  13.445 -0.4948  1.1701  0.1944
   10MPD2    N114017   0.976   4.328  13.257  0.1092 -0.1048  0.1900
   10MPD2    H714018   1.057   4.268  13.267 -1.0566 -1.5930  0.6303
   11MPD2     C14019   1.630   2.833  14.333 -0.3274 -0.0069 -0.0509
   11MPD2    C114020   1.660   2.965  14.292 -0.1615  0.5562 -0.4236
   11MPD2    C214021   1.564   3.040  14.219  0.2726 -1.0038 -0.0759
   11MPD2    C314022   1.444   2.977  14.185  1.0225 -0.0748 -0.2865
   11MPD2    C414023   1.425   2.844  14.218  0.4224 -0.7609 -0.8074
   11MPD2    C514024   1.519   2.771  14.286 -0.2911  0.6031  0.7020
   11MPD2     H14025   1.583   3.144  14.195  0.9014 -1.3925 -1.3275
   11MPD2    H114026   1.334   2.790  14.192 -0.1329  0.6394 -1.8169
   11MPD2    H214027   1.688   2.794  14.415 -2.2974  2.3887  2.5063
   11MPD2    H314028   1.507   2.671  14.327  1.9669 -0.1068 -0.3333
   11MPD2     N14029   1.337   3.047  14.127 -0.3250 -0.8125 -0.4736
   11MPD2    H514030   1.257   2.989  14.102 -1.3206 -0.6873  2.3763
   11MPD2    N114031   1.785   3.035  14.316 -0.0821  0.5371  0.3102
   11MPD2    H714032   1.797   3.129  14.281  0.1114 -0.6021 -2.6930
    1MPD1     C14033   3.872   4.117  16.773 -0.4512 -0.0852  0.2482
    1MPD1    C114034   3.993   4.059  16.811  0.0834  0.5973  0.1005
    1MPD1    C214035   4.100   4.143  16.815 -0.3238 -0.1170 -0.3664
    1MPD1    C314036   4.092   4.273  16.776 -0.2170  0.3765 -0.0753
    1MPD1    C414037   3.970   4.331  16.750  0.1786  0.1744 -0.2136
    1MPD1    C514038   3.859   4.254  16.749 -0.0068 -0.5890  0.9076
    1MPD1     H14039   4.198   4.095  16.816  1.3174  3.2564  2.6012
    1MPD1    H114040   3.950   4.434  16.723  0.3103  0.7637  1.9300
    1MPD1    H214041   3.785   4.053  16.762 -0.9797  0.3847  1.8046
    1MPD1    H314042   3.760   4.290  16.721  0.2182 -0.4624  0.2719
    1MPD1     N14043   4.205   4.355  16.771  0.6732  0.2659  0.2624
    1MPD1    H514044   4.191   4.436  16.711 -1.1714  1.4378  2.2540
    1MPD1    N114045   4.000   3.919  16.822 -0.5690 -0.3184 -0.9590
    1MPD1    H614046   4.077   3.899  16.885 -0.2846  0.6606 -0.9978
    1MPD1    H714047   3.914   3.885  16.865 -0.0791  1.9862  1.7932
    2MPD1     C14048   0.182   4.620  17.387  0.0502 -0.1592 -0.4916
    2MPD1    C114049   0.049   4.569  17.405 -0.0173 -0.2890  0.3158
    2MPD1    C214050   4.718   4.552  17.288  0.2925  0.0842  0.2917
    2MPD1    C314051   0.034   4.565  17.163 -0.0341  0.0436 -0.1576
    2MPD1    C414052   0.166   4.596  17.150 -0.6837  0.5499  0.4490
    2MPD1    C514053   0.237   4.626  17.261  0.2620  0.2128  0.3661
    2MPD1     H14054   4.613   4.533  17.302  0.2878 -0.6439 -0.7002
    2MPD1    H114055   0.224   4.603  17.058 -0.7909  0.2066  0.3577
    2MPD1    H214056   0.245   4.639  17.472  0.8718  0.4829 -1.2415
    2MPD1    H314057   0.341   4.654  17.248  0.0650  0.3629 -0.9209
    2MPD1     N14058   4.699   4.538  17.051  0.7986  0.2031  0.5018
    2MPD1    H514059   4.606   4.502  17.068 -0.2319  2.1084 -1.0524
    2MPD1    N114060   4.735   4.572  17.533  0.2802 -0.4862 -0.2121
    2MPD1    H614061   0.054   4.574  17.613 -2.1875  2.3119  1.6704
    2MPD1    H714062   4.671   4.493  17.543 -1.5248  0.6935 -2.6442
    3TMC3    C114063   4.647   4.491  16.822 -0.3578  0.4733 -0.2372
    3TMC3    C214064   4.662   4.526  16.694  0.1982 -0.8036 -0.1171
    3TMC3    C314065   4.562   4.506  16.600 -0.5977  0.2064 -0.5968
    3TMC3    C414066   4.536   4.426  16.869 -1.5447 -0.2418  0.0233
    3TMC3    C514067   4.441   4.396  16.773 -0.0273 -0.1418 -0.8318
    3TMC3    C614068   4.451   4.443  16.640 -0.1545 -0.6353  0.7126
    3TMC3     C14069   0.000   4.547  16.920 -0.5402  0.3638 -0.5552
    3TMC3     O14070   0.090   4.617  16.878 -0.0108 -0.1529 -0.0553
    3TMC3     H14071   0.012   4.574  16.667 -1.0037  1.8983  0.4370
    3TMC3    H114072   4.530   4.371  16.961  2.6085  0.1951  0.5470
    3TMC3    H214073   4.376   4.430  16.563 -0.0916 -2.1793  0.9118
    3TMC3    C714074   4.322   4.335  16.838 -0.1737 -0.0781 -0.1634
    3TMC3    C814075   4.575   4.570  16.468  0.9891 -0.2734 -0.2495
    3TMC3    O114076   4.323   4.275  16.946 -0.2475 -0.2561  0.5340
    3TMC3    O214077   4.475   4.562  16.400 -0.3597  0.2875 -0.2010
    4MPD1     C14078   0.079   0.109  16.114 -0.3850  0.3891 -0.6994
    4MPD1    C114079   0.162   0.083  16.221  0.3008  0.0278  1.0883
    4MPD1    C214080   0.117   0.009  16.327 -0.3956  0.5234  0.2643
    4MPD1    C314081   4.733   4.697  16.328 -0.4557 -0.8859 -0.2348
    4MPD1    C414082   4.644   4.730  16.227  0.3349  0.1489  0.0505
    4MPD1    C514083   4.692   0.062  16.124  0.0636 -0.2024 -0.0683
    4MPD1     H14084   0.180   4.738  16.414  0.2831  0.7233 -0.1943
    4MPD1    H114085   4.537   4.714  16.224  0.3339  0.8434 -3.4587
    4MPD1    H214086   0.108   0.165  16.026 -1.8155  1.2979 -0.5977
    4MPD1    H314087   4.621   0.068  16.043  0.0201  1.2015  0.0707
    4MPD1     N14088   4.700   4.625  16.444 -0.1983 -0.2513 -0.1935
    4MPD1    H514089   0.032   4.607  16.509  0.5612 -1.0852 -1.3084
    4MPD1    N114090   0.294   0.141  16.231  0.4360 -0.3901  0.1332
    4MPD1    H614091   0.348   0.119  16.147  0.3077 -0.6941  0.1328
    4MPD1    H714092   0.353   0.104  16.306 -0.3954  0.3804  1.1675
    1TCq1    O114093   0.359   4.584  11.540  0.0397  0.0179 -0.3195
    1TCq1    C114094   0.441   4.654  11.625 -0.3690 -0.7166  0.5868
    1TCq1    O214095   0.398   4.729  11.711 -0.5746  0.0934  0.0527
    1TCq1    C214096   0.570   4.598  11.616 -0.2290 -0.5251 -0.0612
    1TCq1    C314097   0.597   4.481  11.690  0.6601 -0.3901  0.5783
    1TCq1    C414098   0.729   4.432  11.686 -0.2810 -0.4892 -0.1757
    1TCq1    C514099   0.818   4.476  11.594 -0.4978 -0.8606 -0.3171
    1TCq1    C614100   0.780   4.588  11.521 -0.1790 -0.0525 -0.0893
    1TCq1    C714101   0.662   4.655  11.528  0.2680 -0.7053  0.0506
    1TCq1    C814102   0.859   4.636  11.412  0.0463  0.3618  0.6218
    1TCq1    O414103   0.799   4.705  11.327  0.0335 -0.0357  0.2305
    1TCq1    C914104   0.749   4.299  11.729 -0.3143  0.3678 -0.0640
    1TCq1    O514105   0.848   4.234  11.690  0.3852 -0.4480 -0.3944
    1TCq1    O614106   0.665   4.242  11.801  0.2085  0.6411  0.2797
    1TCq1    H114107   0.406   4.522  11.481 -0.1159 -0.4357  0.0315
    1TCq1    H214108   0.520   4.440  11.753  1.6861 -4.0118 -0.5128
    1TCq1    H314109   0.915   4.431  11.575 -0.5351 -0.1272 -2.3125
    1TCq1    H414110   0.640   0.007  11.483  3.3450 -0.5165 -1.0411
    2MPD1     C14111   1.294   0.085  11.231  0.2635  0.4712  0.2861
    2MPD1    C114112   1.326   0.033  11.355  0.0939 -0.2984  0.1545
    2MPD1    C214113   1.227   4.694  11.418 -0.2810 -0.0674  0.1295
    2MPD1    C314114   1.103   4.681  11.361 -0.3407  0.4375  0.2194
    2MPD1    C414115   1.081   4.731  11.234 -0.1742 -0.2493 -0.4965
    2MPD1    C514116   1.173   0.065  11.173 -0.0484  0.3230  0.6999
    2MPD1     H14117   1.255   4.666  11.518  2.3114 -1.2232 -0.9101
    2MPD1    H114118   0.991   4.697  11.185 -0.1516  0.3325 -0.9405
    2MPD1    H214119   1.354   0.155  11.174  0.3964 -0.4470 -0.6929
    2MPD1    H314120   1.160   0.099  11.071 -0.1537  1.5098  1.1122
    2MPD1     N14121   0.995   4.625  11.439  0.2878  0.4004  0.4574
    2MPD1    H514122   1.021   4.575  11.523 -0.0422  1.2134  1.0364
    2MPD1    N114123   1.443   0.072  11.420  0.2427  0.3493  0.4282
    2MPD1    H614124   1.475   0.015  11.499  4.3609  1.3901 -0.5256
    2MPD1    H714125   1.517   0.077  11.351  0.3453 -0.6927  0.4566
    1TMC1    C114126   2.186   3.048   0.828  0.4556  0.4961 -0.0900
    1TMC1    C214127   2.233   3.029   0.704  0.1123  0.3628  0.0123
    1TMC1    C314128   2.368   3.017   0.682 -0.3051 -0.4385 -0.1380
    1TMC1    C414129   2.271   3.054   0.938 -0.1231 -0.0060  0.4280
    1TMC1    C514130   2.406   3.037   0.916  0.2832  0.6180 -0.0454
    1TMC1    C614131   2.459   3.017   0.788  0.8167 -0.7741 -1.2081
    1TMC1     C14132   2.045   3.049   0.846  0.3556  0.1624  0.4307
    1TMC1     O14133   1.971   3.042   0.749  0.6342 -0.1128  0.1977
    1TMC1     H14134   2.175   3.040   0.613 -0.2767  2.0886  0.4828
    1TMC1    H114135   2.232   3.068   1.038  2.0772 -2.0968  1.5701
    1TMC1    H214136   2.564   2.994   0.778  1.1296  0.3095 -0.4663
    1TMC1    C714137   2.507   3.063   1.017  0.0260 -0.3299 -0.5622
    1TMC1    C814138   2.396   2.946   0.564 -0.1035 -0.4230 -0.0807
    1TMC1    O114139   2.628   3.051   1.001  0.4020  0.7467  0.2810
    1TMC1    O214140   2.329   2.858   0.518  0.0793 -0.0266  0.2205
    1TMC1    O314141   2.447   3.129   1.118  0.1618 -0.3492  0.1608
    1TMC1    H314142   2.349   3.134   1.124  0.0102 -1.3861 -1.2309
    1TMC1    O514143   2.527   2.970   0.537 -1.1060 -0.3247  0.5252
    1TMC1    H514144   2.550   3.054   0.582 -2.5201  1.2382 -1.7452
    2MPD1     C14145   1.620   2.959   1.123 -0.5120 -0.5731  0.6448
    2MPD1    C114146   1.725   2.924   1.196 -0.0183 -0.1715 -0.4114
    2MPD1    C214147   1.852   2.946   1.148  0.8444  0.2304 -0.0049
    2MPD1    C314148   1.877   2.991   1.018 -0.6633  0.1075  0.0796
    2MPD1    C414149   1.764   3.027   0.941  0.4802  0.3681 -0.2046
    2MPD1    C514150   1.643   3.013   0.996 -0.6398  0.3982  0.5427
    2MPD1     H14151   1.926   2.924   1.223 -0.4463 -1.2357  0.8397
    2MPD1    H114152   1.775   3.077   0.845  1.2602 -0.6230 -0.6339
    2MPD1    H214153   1.519   2.957   1.161 -1.0370  2.9351 -0.6146
    2MPD1    H314154   1.551   3.031   0.942 -0.8730  0.3629  0.9312
    2MPD1     N14155   2.006   3.009   0.975  0.2640  0.6794  0.0886
    2MPD1    H514156   2.077   3.001   1.048  1.5032 -1.5354 -1.3489
    2MPD1    N114157   1.706   2.905   1.331 -0.5215  0.1343 -0.1898
    2MPD1    H614158   1.622   2.853   1.356 -1.5263  3.0433  2.5490
    2MPD1    H714159   1.775   2.843   1.372  2.4039  3.7882  0.3916
    1MPD1     C14160   2.044   3.410  12.550 -0.1973  0.1758  0.0353
    1MPD1    C114161   2.056   3.502  12.652 -0.3378  0.6745 -0.2123
    1MPD1    C214162   2.153   3.599  12.644  0.2326  0.0487  0.2530
    1MPD1    C314163   2.243   3.605  12.542  0.3447  0.7993 -0.3393
    1MPD1    C414164   2.224   3.511  12.444  0.7262 -0.8983  0.0061
    1MPD1    C514165   2.128   3.416  12.445 -0.1845  0.2504 -0.1645
    1MPD1     H14166   2.145   3.675  12.721  0.7373 -2.2992  2.6258
    1MPD1    H114167   2.302   3.503  12.369  0.8660 -0.2081  0.0808
    1MPD1    H214168   1.960   3.343  12.537 -1.1233  0.8178  2.7614
    1MPD1    H314169   2.121   3.352  12.358  0.6924  1.2160 -0.9398
    1MPD1     N14170   2.348   3.701  12.545  0.6557 -0.0318  0.0407
    1MPD1    H514171   2.341   3.764  12.625 -1.1452  2.5911 -2.2020
    1MPD1    N114172   1.972   3.498  12.758  0.1991  0.6090 -0.6763
    1MPD1    H614173   1.886   3.449  12.734  0.6178 -0.3457 -0.2313
    1MPD1    H714174   1.941   3.590  12.789 -0.8700  0.4474 -1.2521
    2MPD1     C14175   1.870   4.344  11.530 -0.2162 -0.5661  0.0622
    2MPD1    C114176   1.853   4.369  11.396 -0.0308  0.1356 -0.0224
    2MPD1    C214177   1.945   4.445  11.328 -0.7035 -0.2355  1.1322
    2MPD1    C314178   2.051   4.497  11.396 -0.1319  0.3682  0.1548
    2MPD1    C414179   2.075   4.471  11.527  0.0380  0.2608 -0.3079
    2MPD1    C514180   1.991   4.379  11.589  0.0704  0.4755 -0.4152
    2MPD1     H14181   1.923   4.473  11.225  1.7932  2.2438  1.2613
    2MPD1    H114182   2.156   4.513  11.586  0.4742  0.7511 -1.2638
    2MPD1    H214183   1.803   4.283  11.590  1.1481 -0.0069  2.1341
    2MPD1    H314184   2.005   4.359  11.695  1.0177  0.1478 -0.6037
    2MPD1     N14185   2.123   4.602  11.337  0.5741  0.5370  0.6774
    2MPD1    H514186   2.180   4.651  11.406  0.9802 -1.1291  1.5325
    2MPD1    N114187   1.736   4.318  11.334  0.2301 -0.3951 -0.3436
    2MPD1    H614188   1.740   4.274  11.242  1.8491  1.4110 -1.1373
    2MPD1    H714189   1.698   4.254  11.403  1.1810 -0.7204 -0.1259
    3MPD1     C14190   2.180   0.457  10.535  0.3489  0.3078 -0.0201
    3MPD1    C114191   2.112   0.340  10.553  0.5070  0.0158  0.1354
    3MPD1    C214192   2.145   0.251  10.656  0.0368 -0.4012  0.1709
    3MPD1    C314193   2.241   0.285  10.745  0.6310  0.0406  0.9857
    3MPD1    C414194   2.305   0.407  10.721  0.2609  0.2136  0.2143
    3MPD1    C514195   2.284   0.492  10.620  0.4437  0.2589  0.0262
    3MPD1     H14196   2.096   0.155  10.667 -1.9033  0.5865  0.0182
    3MPD1    H114197   2.383   0.445  10.786  0.5605 -0.0566  0.0181
    3MPD1    H214198   2.151   0.525  10.456 -1.0058 -0.8923 -0.5597
    3MPD1    H314199   2.339   0.585  10.613  0.7945  0.2257  2.2319
    3MPD1     N14200   2.278   0.198  10.851  0.6141 -0.1219 -0.4221
    3MPD1    H514201   2.227   0.110  10.853  1.4003 -0.5290  1.1283
    3MPD1    N114202   2.029   0.293  10.448  0.1195  0.0591  0.0467
    3MPD1    H614203   1.975   0.357  10.389 -0.1854 -0.5325 -0.3183
    3MPD1    H714204   1.972   0.217  10.486 -1.4660  0.7046 -1.0301
    4MPD2     C14205   2.418   4.444  12.489  0.4058  0.0073 -0.2795
    4MPD2    C114206   2.535   4.372  12.463 -0.2268  0.3108 -0.1947
    4MPD2    C214207   2.635   4.433  12.393 -0.1252 -0.1477  0.2342
    4MPD2    C314208   2.619   4.562  12.347  0.5640  0.1621 -0.7890
    4MPD2    C414209   2.503   4.632  12.374  0.0229  0.2982 -0.7436
    4MPD2    C514210   2.400   4.575  12.449 -0.5308 -0.0071 -0.3915
    4MPD2     H14211   2.728   4.381  12.373  0.1928  0.7206 -0.5770
    4MPD2    H114212   2.480   4.726  12.325 -1.8845 -0.0837 -0.5819
    4MPD2    H214213   2.343   4.414  12.562  1.2979 -0.5376  0.4207
    4MPD2    H314214   2.313   4.636  12.469  0.4580  0.7616  1.5482
    4MPD2     N14215   2.722   4.612  12.271  0.2456 -0.0140  0.0928
    4MPD2    H514216   2.797   4.545  12.255 -0.9646 -1.2064 -0.5436
    4MPD2    N114217   2.558   4.241  12.510 -0.3087 -0.8430 -0.3164
    4MPD2    H714218   2.638   4.188  12.477 -0.6141 -2.3392  1.3697
    5TMC3    C114219   2.527   4.031  12.584  0.5890 -1.2307  0.6823
    5TMC3    C214220   2.450   3.936  12.524 -0.2688  0.5687 -0.5064
    5TMC3    C314221   2.509   3.840  12.442  0.9171 -0.2256  0.4862
    5TMC3    C414222   2.663   4.022  12.575 -0.1124  0.2699 -0.3923
    5TMC3    C514223   2.715   3.938  12.485  0.4986  0.4577  0.2160
    5TMC3    C614224   2.642   3.841  12.411  0.2941  0.6447  0.1769
    5TMC3     C14225   2.471   4.166  12.586  0.4948 -1.4560  0.2864
    5TMC3     O14226   2.356   4.187  12.633 -0.8236 -0.1619 -0.0949
    5TMC3     H14227   2.342   3.946  12.525 -0.3162  0.1765 -1.9377
    5TMC3    H114228   2.734   4.072  12.640 -1.6544 -0.1825  1.6541
    5TMC3    H214229   2.686   3.756  12.360  0.3512  0.1193  1.1105
    5TMC3    C714230   2.820   4.003  12.408 -0.1943 -0.2705  0.1649
    5TMC3    C814231   2.446   3.710  12.450  0.4165 -0.0642  0.2660
    5TMC3    O114232   2.807   4.125  12.427  0.1439 -0.0970 -0.3274
    5TMC3    O214233   2.483   3.629  12.370 -1.0466 -0.3368  0.3766
    6TMC3    C114234   2.234   0.005  11.197 -0.0821 -0.5429 -0.1106
    6TMC3    C214235   2.254   0.052  11.072  0.4760 -0.1575 -0.6696
    6TMC3    C314236   2.378   0.104  11.038 -0.2303 -0.0256  0.3294
    6TMC3    C414237   2.335   0.011  11.291 -0.7954  0.1692  0.1541
    6TMC3    C514238   2.458   0.067  11.251 -0.0023 -0.1601  0.5424
    6TMC3    C614239   2.481   0.114  11.128 -0.5207  0.4988  0.2375
    6TMC3     C14240   2.124   4.650  11.211  0.6425 -0.2638 -0.1374
    6TMC3     O14241   2.058   4.620  11.113  0.0609 -0.7789 -0.7417
    6TMC3     H14242   2.183   0.033  10.992 -1.3429  1.1505  0.6233
    6TMC3    H114243   2.327   4.728  11.396 -3.0045  1.0415  0.1996
    6TMC3    H214244   2.564   0.181  11.110 -0.8969  1.4154  1.9457
    6TMC3    C714245   2.579   0.057  11.336 -0.3343 -0.6565 -1.1577
    6TMC3    C814246   2.382   0.207  10.935  0.1798  0.0686  1.2316
    6TMC3    O114247   2.560   0.058  11.455  0.5098  0.1383 -0.1868
    6TMC3    O214248   2.467   0.297  10.945  0.0877  0.0677 -0.5636
    7MPD2     C14249   3.116   4.079  12.001 -0.2969 -0.5252  0.4071
    7MPD2    C114250   3.039   4.165  12.080  0.8276  0.4507 -0.3772
    7MPD2    C214251   2.963   4.110  12.179 -0.4536  0.8638 -0.0438
    7MPD2    C314252   2.967   3.977  12.217  0.9864  0.0921  0.3249
    7MPD2    C414253   3.034   3.895  12.136  0.6427  0.4145  0.2642
    7MPD2    C514254   3.118   3.950  12.038  0.0904  0.0103  0.0908
    7MPD2     H14255   2.904   4.179  12.239  1.3131  1.1836  1.2977
    7MPD2    H114256   3.036   3.790  12.163 -1.7974  0.2851 -0.0682
    7MPD2    H214257   3.174   4.123  11.921 -0.0595  0.2832  1.0232
    7MPD2    H314258   3.183   3.878  11.990  1.3634 -0.2436  2.1886
    7MPD2     N14259   2.891   3.928  12.321  0.1340 -0.3071  0.1440
    7MPD2    H514260   2.898   3.830  12.345 -1.2982 -0.8651 -1.7262
    7MPD2    N114261   3.042   4.300  12.039 -0.2439 -0.3907 -0.4522
    7MPD2    H714262   3.096   4.337  11.962 -1.2544 -0.8607 -1.3862
    8TMC3    C114263   3.006   4.536  12.061  0.7240 -0.3866 -0.6529
    8TMC3    C214264   2.995   4.562  11.927  0.2023  0.0543  0.0978
    8TMC3    C314265   2.912   4.662  11.895  0.3288 -0.4387  0.0123
    8TMC3    C414266   2.946   4.618  12.152  0.2647  0.7418  0.1522
    8TMC3    C514267   2.854   4.719  12.116  0.4029 -0.0493  0.0916
    8TMC3    C614268   2.842   4.741  11.983  0.6792 -0.6226  0.1476
    8TMC3     C14269   2.971   4.401  12.104  0.7608 -0.5641 -1.1449
    8TMC3     O14270   2.886   4.394  12.194  0.0810 -0.3906 -0.1364
    8TMC3     H14271   3.029   4.498  11.847  1.0983  2.0184 -1.0985
    8TMC3    H114272   2.969   4.594  12.255  2.2490 -0.5246 -0.5765
    8TMC3    H214273   2.772   0.069  11.940 -0.0896 -1.1800  0.4649
    8TMC3    C714274   2.732   4.726  12.197  1.1143  0.1466  0.1406
    8TMC3    C814275   2.857   4.680  11.755 -0.2678 -0.1540 -0.0876
    8TMC3    O114276   2.652   0.068  12.184  0.0823 -0.7858  0.0661
    8TMC3    O214277   2.748   4.742  11.748  0.1159 -0.5117 -0.6433
    9MPD2     C14278   3.067   4.703  11.456  0.6712 -0.5214  0.8931
    9MPD2    C114279   2.949   4.692  11.532  0.4255  0.2419  0.4254
    9MPD2    C214280   2.822   4.709  11.472 -0.6761 -0.6175 -0.1764
    9MPD2    C314281   2.816   4.740  11.334 -0.6278  0.1285 -0.4688
    9MPD2    C414282   2.932   0.008  11.265  0.3103 -0.1863 -0.9349
    9MPD2    C514283   3.056   0.001  11.327 -0.0060 -0.8519 -0.2552
    9MPD2     H14284   2.731   4.689  11.527  0.1321  0.4719  1.5594
    9MPD2    H114285   2.936   0.043  11.163  1.2420  1.3564 -0.3703
    9MPD2    H214286   3.162   4.670  11.497  0.4770 -0.4274  1.4262
    9MPD2    H314287   3.139   4.723  11.261  0.9120 -0.1042  0.6520
    9MPD2     N14288   2.697   0.034  11.266 -0.1681 -0.3039 -0.0181
    9MPD2    H514289   2.701   0.041  11.165 -0.2593  3.1744  0.2007
    9MPD2    N114290   2.956   4.645  11.661 -0.8667 -0.0966 -0.0837
    9MPD2    H714291   3.042   4.615  11.706 -1.5184 -1.9982 -0.0892
    1MPD1     C14292   2.457   3.604  14.940 -0.0793  0.7225 -0.3792
    1MPD1    C114293   2.455   3.523  14.830 -0.1181 -0.0380 -0.8885
    1MPD1    C214294   2.402   3.395  14.837 -0.0082 -0.1981  0.4220
    1MPD1    C314295   2.368   3.337  14.959 -0.7218 -0.1750  0.0087
    1MPD1    C414296   2.366   3.422  15.064  0.3518 -0.2122 -0.0048
    1MPD1    C514297   2.419   3.545  15.059 -0.7457 -0.3744  0.5701
    1MPD1     H14298   2.409   3.338  14.745  0.9468 -0.9188  0.9468
    1MPD1    H114299   2.331   3.385  15.159  2.3614 -0.0421  0.7980
    1MPD1    H214300   2.491   3.706  14.954 -1.7139  1.2762 -0.4431
    1MPD1    H314301   2.427   3.606  15.148 -2.1155  1.0314 -0.2745
    1MPD1     N14302   2.342   3.205  14.984  0.1181  0.0651 -0.3968
    1MPD1    H514303   2.334   3.178  15.082  1.0862  0.9034 -0.0939
    1MPD1    N114304   2.520   3.566  14.714 -0.6440 -0.5426  0.1242
    1MPD1    H614305   2.457   3.544  14.637 -0.4761 -2.5963  0.5736
    1MPD1    H714306   2.525   3.668  14.719  0.1383 -0.4772 -1.9090
    2TMC2    C114307   2.142   2.788  14.915  1.0173  0.0908 -0.4612
    2TMC2    C214308   2.209   2.725  15.016 -0.0584  0.5224 -0.0828
    2TMC2    C314309   2.313   2.791  15.071 -0.3367 -0.3136  0.1930
    2TMC2    C414310   2.168   2.919  14.880 -0.1354 -1.0206 -0.5381
    2TMC2    C514311   2.266   2.986  14.951 -0.3619 -0.5923 -0.2049
    2TMC2    C614312   2.355   2.917  15.035 -0.4090  0.0718 -0.5832
    2TMC2     C14313   2.024   2.727  14.862 -0.3479 -0.3987  0.5812
    2TMC2     O14314   2.020   2.605  14.851 -0.5170 -0.1315  0.2442
    2TMC2     H14315   2.188   2.626  15.053  3.7480 -0.2272  0.0126
    2TMC2    H114316   2.103   2.978  14.817 -2.5305 -2.0851  0.9348
    2TMC2    H214317   2.451   2.954  15.066  0.2537 -0.6519 -1.7641
    2TMC2    C714318   2.303   3.112  14.888  0.3766  0.7090 -0.3313
    2TMC2    C814319   2.387   2.719  15.165 -0.7417 -0.6951  0.9067
    2TMC2    O114320   2.265   3.137  14.771 -0.3504 -0.2058  0.1582
    2TMC2    O214321   2.507   2.732  15.202  0.2450  0.1823  0.0893
    2TMC2    O514322   2.290   2.678  15.249  0.2094  0.0311  0.0771
    2TMC2    H514323   2.195   2.682  15.224  0.1883 -0.9696 -0.0083
    3MPD1     C14324   1.545   2.771  14.687 -0.5462  0.1206 -0.0803
    3MPD1    C114325   1.583   2.900  14.718 -0.1095 -0.4096  0.3671
    3MPD1    C214326   1.707   2.905  14.778  0.0679  0.1124 -0.0520
    3MPD1    C314327   1.794   2.797  14.790  0.5125 -0.1582  0.6394
    3MPD1    C414328   1.758   2.677  14.734 -0.0854  0.4910  1.1532
    3MPD1    C514329   1.628   2.665  14.687  0.3559 -0.3538  0.5678
    3MPD1     H14330   1.727   3.000  14.826 -0.2694  1.2782 -2.2460
    3MPD1    H114331   1.822   2.590  14.727  0.7068  1.2213 -0.8314
    3MPD1    H214332   1.444   2.759  14.648  0.2609 -1.7882 -1.5794
    3MPD1    H314333   1.587   2.568  14.661 -1.4705  0.9020 -1.2611
    3MPD1     N14334   1.926   2.824  14.834  0.0534 -0.0027  0.1060
    3MPD1    H514335   1.933   2.920  14.866  0.3171 -0.5909  1.8220
    3MPD1    N114336   1.489   3.001  14.729  0.0605  0.2472 -0.1429
    3MPD1    H614337   1.541   3.087  14.747 -0.2261  0.1042  1.3771
    3MPD1    H714338   1.423   3.003  14.652  0.4546  3.2375 -0.4030
    1TMC1    C114339   0.391   2.498  12.996 -0.0508 -0.0032  0.5224
    1TMC1    C214340   0.404   2.493  12.861 -0.7851  0.3923 -1.0047
    1TMC1    C314341   0.292   2.457  12.789 -0.0431 -0.3069  0.5709
    1TMC1    C414342   0.271   2.473  13.061  0.9363  0.2806  0.6502
    1TMC1    C514343   0.166   2.433  12.983  0.4680 -0.3451 -0.9273
    1TMC1    C614344   0.173   2.431  12.845 -0.3932  0.1720 -0.2438
    1TMC1     C14345   0.517   2.512  13.074 -0.1854 -0.8857  0.1593
    1TMC1     O14346   0.621   2.517  13.010  0.0935  0.0186  0.5837
    1TMC1     H14347   0.486   2.547  12.816  1.0372 -0.6199  1.1323
    1TMC1    H114348   0.266   2.490  13.167 -0.1841  0.9802  0.4837
    1TMC1    H214349   0.083   2.412  12.787 -1.3545 -0.9334  1.6061
    1TMC1    C714350   0.058   2.513  13.021 -0.4619  0.7094  0.2666
    1TMC1    C814351   0.284   2.486  12.651  0.0529 -0.0183 -0.6187
    1TMC1    O114352   4.727   2.557  12.936  0.2212  0.9467  0.0687
    1TMC1    O214353   0.179   2.529  12.603  0.3033  0.3760 -0.3489
    1TMC1    O314354   0.012   2.464  13.144  0.3148  0.1740 -0.3420
    1TMC1    H314355   0.061   2.383  13.170  1.0472  0.4178 -0.9501
    1TMC1    O514356   0.405   2.472  12.585  0.3920  0.5049  0.1220
    1TMC1    H514357   0.477   2.450  12.649 -0.4168 -0.3337  0.7450
    2MPD2     C14358   0.741   2.584  13.255 -0.3901 -0.2129 -0.7965
    2MPD2    C114359   0.621   2.531  13.295  0.0003  0.4571  0.2616
    2MPD2    C214360   0.610   2.506  13.432 -0.3432  0.0865 -0.4187
    2MPD2    C314361   0.719   2.504  13.516 -0.0714 -0.2077 -0.6575
    2MPD2    C414362   0.840   2.550  13.471 -0.8610 -0.1043  0.1674
    2MPD2    C514363   0.847   2.599  13.346  1.0918 -0.0923  0.2485
    2MPD2     H14364   0.512   2.469  13.461 -1.2826  1.3301 -2.0147
    2MPD2    H114365   0.931   2.537  13.529 -1.0631  1.3595  0.8261
    2MPD2    H214366   0.763   2.610  13.151  1.1865 -2.7604 -1.0861
    2MPD2    H314367   0.946   2.633  13.316  0.8626  0.8046  0.5246
    2MPD2     N14368   0.699   2.457  13.648 -0.0246  0.4641 -0.2820
    2MPD2    H514369   0.604   2.442  13.679  0.1166  0.7101  0.2672
    2MPD2    N114370   0.512   2.500  13.210  0.6252  0.0996 -0.6021
    2MPD2    H714371   0.426   2.466  13.251  0.3706  2.0094  0.4413
    3TCq1    O114372   0.487   2.334  14.204 -0.7016 -0.9700 -0.4392
    3TCq1    C114373   0.476   2.355  14.071 -0.4056  0.8626  0.3564
    3TCq1    O214374   0.403   2.441  14.019 -0.1316 -0.3548  0.1517
    3TCq1    C214375   0.596   2.311  14.009 -0.2642 -0.2409  0.3117
    3TCq1    C314376   0.676   2.235  14.078 -0.0243  0.0090  0.4167
    3TCq1    C414377   0.807   2.213  14.040 -0.0521 -0.3591  0.2677
    3TCq1    C514378   0.845   2.276  13.922 -0.2251 -0.4749 -0.2272
    3TCq1    C614379   0.754   2.352  13.848 -0.0126 -0.2040  0.2038
    3TCq1    C714380   0.628   2.359  13.887 -0.1795 -0.5140  0.1181
    3TCq1    C814381   0.802   2.420  13.732  0.2597 -0.0960  0.1195
    3TCq1    O414382   0.925   2.435  13.724  0.2641 -0.0867 -0.0929
    3TCq1    C914383   0.893   2.116  14.108  0.0008 -0.3666  0.0343
    3TCq1    O514384   0.846   2.046  14.200 -0.4182 -0.5137 -0.0059
    3TCq1    O614385   1.008   2.117  14.062  0.2247  0.0892 -0.8373
    3TCq1    H114386   0.515   2.242  14.225 -0.3753 -0.4308  1.4490
    3TCq1    H214387   0.652   2.193  14.175 -0.1035  1.1644  0.9023
    3TCq1    H314388   0.941   2.254  13.876 -0.4631  0.1432 -1.0178
    3TCq1    H414389   0.548   2.412  13.836 -0.9548 -2.4263 -0.6383
    1MPD2     C14390   4.718   3.442  15.260 -0.3623  1.0552 -0.2191
    1MPD2    C114391   4.669   3.385  15.148  0.1613  0.2948 -0.3259
    1MPD2    C214392   4.734   3.276  15.098 -0.6223 -0.6668 -0.1673
    1MPD2    C314393   0.098   3.220  15.166 -0.6659  0.4627  0.3420
    1MPD2    C414394   0.151   3.286  15.271  0.4060 -0.0326 -0.0178
    1MPD2    C514395   0.088   3.393  15.322 -0.1945 -0.1122 -0.0352
    1MPD2     H14396   4.702   3.226  15.007 -0.3647 -1.3928  0.1364
    1MPD2    H114397   0.234   3.252  15.332 -0.7874 -1.8742  0.5619
    1MPD2    H214398   4.666   3.520  15.315 -1.1027  1.5209 -1.5987
    1MPD2    H314399   0.123   3.450  15.407 -1.8263 -0.6324  0.9892
    1MPD2     N14400   0.147   3.099  15.113 -0.3155  0.1624  0.8644
    1MPD2    H514401   0.098   3.063  15.032 -0.4002  1.5684  0.2970
    1MPD2    N114402   4.555   3.427  15.081  0.2444 -0.0121  0.4807
    1MPD2    H714403   4.516   3.516  15.107 -0.5662 -0.1382 -0.2985
    2TMC3    C114404   4.392   3.446  14.898  0.5184  0.3404 -0.0765
    2TMC3    C214405   4.303   3.364  14.834 -0.8668  0.0670  0.4516
    2TMC3    C314406   4.286   3.379  14.701  0.3001  0.4912 -0.3350
    2TMC3    C414407   4.453   3.550  14.832 -0.1282 -0.4671  0.0467
    2TMC3    C514408   4.438   3.561  14.694  0.0801 -0.6941  0.4305
    2TMC3    C614409   4.356   3.473  14.627  0.4407  0.3400 -0.3028
    2TMC3     C14410   4.480   3.359  14.981 -0.6720  0.6241  0.6122
    2TMC3     O14411   4.466   3.243  14.943  0.2078 -0.1690  0.5915
    2TMC3     H14412   4.253   3.287  14.891 -0.0921  1.3909  2.9047
    2TMC3    H114413   4.517   3.619  14.886 -1.1975  0.4555  0.1418
    2TMC3    H214414   4.344   3.479  14.519 -2.6609  0.1495  0.0214
    2TMC3    C714415   4.502   3.657  14.613  0.0650  0.5792 -0.1476
    2TMC3    C814416   4.279   3.256  14.627  0.0518 -0.6392 -0.1903
    2TMC3    O114417   4.491   3.645  14.495  0.1833 -0.0132  0.2337
    2TMC3    O214418   4.254   3.254  14.509  0.0710  0.3107  0.1114
    3TCq1    O114419   0.338   4.676  15.004 -0.3773 -0.9938 -0.3426
    3TCq1    C114420   0.359   4.587  15.101 -0.5518  0.5816 -0.3370
    3TCq1    O214421   0.384   4.619  15.217 -0.7417  0.3432 -0.0237
    3TCq1    C214422   0.267   4.477  15.078 -0.3765 -0.1089 -0.3472
    3TCq1    C314423   0.215   4.422  15.197 -0.4316  0.2704  0.9847
    3TCq1    C414424   0.135   4.305  15.180  0.1043  0.3018  0.0767
    3TCq1    C514425   0.114   4.247  15.057  0.0006 -0.1474 -0.4271
    3TCq1    C614426   0.181   4.298  14.949 -0.7927 -0.3048  0.4769
    3TCq1    C714427   0.256   4.418  14.956  0.3175 -0.8528  0.4591
    3TCq1    C814428   0.148   4.247  14.817 -0.0447  0.0134 -1.0735
    3TCq1    O414429   0.161   4.314  14.712  0.4346 -0.5398 -0.6724
    3TCq1    C914430   0.083   4.242  15.302  0.1075  0.0887 -0.2542
    3TCq1    O514431   0.075   4.316  15.405  0.3308 -0.2503 -0.4618
    3TCq1    O614432   4.740   4.157  15.271  1.1261  0.8365 -0.1648
    3TCq1    H114433   0.316   4.625  14.923 -0.7397 -1.6274  0.1667
    3TCq1    H214434   0.247   4.464  15.291  1.6518  0.9028  0.0071
    3TCq1    H314435   0.049   4.160  15.058 -0.3262  0.1006  0.6332
    3TCq1    H414436   0.298   4.455  14.863  1.5953  0.6394  1.6609
    4MPD2     C14437   0.052   4.079  14.586 -0.4540  0.1864 -0.4410
    4MPD2    C114438   0.031   4.053  14.719  0.1137 -0.7624  0.0202
    4MPD2    C214439   4.689   3.946  14.748 -0.7060  0.5209  0.1705
    4MPD2    C314440   4.630   3.869  14.650 -0.0336  0.0884  0.3148
    4MPD2    C414441   4.653   3.891  14.520 -0.2110 -0.2340  0.2483
    4MPD2    C514442   4.738   3.997  14.489  0.0851  0.1187 -0.2876
    4MPD2     H14443   4.665   3.925  14.852 -3.7275 -0.9172 -0.8464
    4MPD2    H114444   4.602   3.843  14.438 -1.2623 -1.4662  1.6136
    4MPD2    H214445   0.126   4.154  14.561 -0.5468  0.7183  0.8799
    4MPD2    H314446   0.016   4.029  14.388  1.7386 -3.0893 -0.9481
    4MPD2     N14447   4.555   3.756  14.693  0.1097 -0.0691  0.3931
    4MPD2    H514448   4.545   3.754  14.794 -1.3256  1.1112  0.2772
    4MPD2    N114449   0.088   4.126  14.821 -0.2063  0.1014  0.3614
    4MPD2    H714450   0.090   4.079  14.911  2.0086  2.8958  1.7957
    5TMC2    C114451   0.075   2.798  14.943 -0.7399 -0.3648  0.3502
    5TMC2    C214452   0.023   2.703  15.030 -0.4464  0.2453  0.4413
    5TMC2    C314453   0.062   2.718  15.159  0.4429 -0.2077 -0.4281
    5TMC2    C414454   0.171   2.885  14.987  0.1045 -0.6478 -0.1046
    5TMC2    C514455   0.227   2.888  15.113 -0.2186  0.7939  0.4596
    5TMC2    C614456   0.166   2.798  15.199 -0.9546  0.5142  0.8476
    5TMC2     C14457   4.729   2.886  14.874 -0.4198  0.4249 -0.4589
    5TMC2     O14458   4.719   3.000  14.914 -0.2384 -0.1799  0.1534
    5TMC2     H14459   4.668   2.662  15.015  0.3148 -1.0553 -0.9852
    5TMC2    H114460   0.196   2.962  14.915 -0.1393  2.4128  3.0447
    5TMC2    H214461   0.200   2.797  15.302  2.8135 -0.9811 -0.4130
    5TMC2    C714462   0.254   3.024  15.162 -0.2071  0.2893  0.2874
    5TMC2    C814463   0.011   2.622  15.248 -1.2166  0.1604 -0.2527
    5TMC2    O114464   0.317   3.038  15.263  0.4032 -0.0948 -0.6719
    5TMC2    O214465   4.706   2.512  15.216 -0.6922  0.3832  0.5260
    5TMC2    O514466   4.727   2.679  15.363  0.4214  0.0361 -0.0396
    5TMC2    H514467   0.007   2.774  15.360  2.0619 -0.3484  0.3266
    6MPD2     C14468   4.360   2.970  14.546  0.0328 -0.3481  0.6705
    6MPD2    C114469   4.406   3.044  14.650  0.1230 -0.3572  0.1064
    6MPD2    C214470   4.496   2.990  14.740  0.0369  0.1782 -0.0601
    6MPD2    C314471   4.546   2.866  14.711  0.4145 -0.0374  0.8652
    6MPD2    C414472   4.504   2.791  14.604  0.1796 -0.2733 -0.1486
    6MPD2    C514473   4.409   2.844  14.531  0.0415  0.4669 -0.0048
    6MPD2     H14474   4.520   3.048  14.828  1.1682 -0.0947 -0.1800
    6MPD2    H114475   4.549   2.699  14.571  1.9363  1.1126 -1.5568
    6MPD2    H214476   4.289   3.014  14.476  1.0588 -1.0877 -0.8231
    6MPD2    H314477   4.372   2.782  14.450  1.6295  1.0786 -1.2109
    6MPD2     N14478   4.658   2.809  14.780  0.1318  0.4151 -0.0512
    6MPD2    H514479   4.680   2.713  14.755 -1.6715 -0.7440  2.8217
    6MPD2    N114480   4.354   3.167  14.698 -0.0448  0.5419  0.3872
    6MPD2    H714481   4.394   3.185  14.789  0.5017 -2.0207  0.6536
  945NH3     N114482   0.141   3.791   0.150 -0.3154  0.1315 -0.1439
  945NH3     H214483   0.145   3.764   0.052  1.0582 -3.3908  0.9166
  945NH3     H314484   0.238   3.802   0.178  0.1671 -0.4759 -1.5815
  945NH3     H414485   0.105   3.886   0.144  2.0236  0.9138 -2.0495
  946SOD     NA14486   4.585   4.114  15.437  0.1278 -0.2221 -0.0594
  947SOD     NA14487   2.514   0.008  11.692 -0.1567  0.5240 -0.2702
  948SOD     NA14488   1.623   1.389  10.527  0.0057 -0.1099 -0.4531
  949SOD     NA14489   0.569   4.201   0.114 -0.0806  0.1384 -0.2355
  950SOD     NA14490   0.959   4.445  12.329 -0.2238 -0.0952 -0.2752
  951SOD     NA14491   4.141   0.987   7.788  0.3547 -0.1180 -0.4148
  952SOD     NA14492   3.961   2.180  14.834 -0.0201 -0.0180  0.3288
  953SOD     NA14493   1.411   1.266  17.023 -0.2931 -0.2664 -0.5252
  954SOL     OW14494   3.598   0.074   6.013 -0.6279 -0.5553 -0.0955
  954SOL    HW114495   3.678   0.074   6.064 -1.5750  1.4529  1.3950
  954SOL    HW214496   3.529   0.075   6.079 -1.3575  1.5390 -0.8804
  955SOL     OW14497   3.872   4.158   2.911  0.0669 -0.6280  0.2848
  955SOL    HW114498   3.796   4.155   2.852 -0.7934 -0.7664  1.4078
  955SOL    HW214499   3.935   4.167   2.839  0.9159 -1.3455  0.9485
  956SOL     OW14500   3.725   3.664  12.651 -0.0121 -0.0802 -0.4286
  956SOL    HW114501   3.769   3.618  12.722  0.7011  2.7549  0.9820
  956SOL    HW214502   3.637   3.630  12.665 -0.4566  0.8764 -0.9064
  957SOL     OW14503   4.240   0.508   7.842 -0.1151  0.2604 -1.0342
  957SOL    HW114504   4.309   0.573   7.830 -0.8191  0.9295 -1.4177
  957SOL    HW214505   4.281   0.423   7.827 -0.9018 -0.1815 -0.7002
  958SOL     OW14506   4.742   2.774  11.719  0.1087  1.1104 -0.1279
  958SOL    HW114507   0.084   2.776  11.762  0.9279 -1.2718 -1.6570
  958SOL    HW214508   4.743   2.857  11.671  0.9888 -0.0323 -2.0901
  959SOL     OW14509   4.719   0.514   2.916 -0.1252 -0.2139  0.7077
  959SOL    HW114510   4.626   0.497   2.931 -0.3749 -0.1123 -0.7194
  959SOL    HW214511   0.025   0.432   2.922  1.0898  0.6949  2.9520
  960SOL     OW14512   0.464   3.139  16.521  0.1693  0.0398  0.4549
  960SOL    HW114513   0.472   3.051  16.556 -0.4634 -0.4705 -0.6971
  960SOL    HW214514   0.453   3.118  16.429 -2.1666 -1.1959  1.0347
  961SOL     OW14515   2.612   1.142   0.680 -0.0830  0.5520  0.7232
  961SOL    HW114516   2.704   1.141   0.707  0.3231 -2.0103 -0.6536
  961SOL    HW214517   2.576   1.065   0.725 -0.5822 -0.9467 -2.2300
  962SOL     OW14518   4.350   2.005   1.590 -0.2019  0.6458 -0.5549
  962SOL    HW114519   4.306   2.084   1.621 -1.3575  0.1364 -0.9151
  962SOL    HW214520   4.279   1.948   1.562  0.5035 -1.0798  1.1803
  963SOL     OW14521   0.226   0.728  12.719 -0.0071  0.2366 -0.0601
  963SOL    HW114522   0.251   0.707  12.809  0.6504 -0.9236 -0.5141
  963SOL    HW214523   0.177   0.806  12.745  0.1832  0.8268 -1.4899
  964SOL     OW14524   0.454   3.338   8.280  0.5749 -0.5743  0.8280
  964SOL    HW114525   0.445   3.432   8.296  1.7291 -0.7844  2.6985
  964SOL    HW214526   0.390   3.296   8.337 -0.3211 -0.5171 -0.1398
  965SOL     OW14527   2.215   1.678   1.663 -0.3638  0.1654  0.4578
  965SOL    HW114528   2.183   1.757   1.618  0.4685 -1.2413 -2.5837
  965SOL    HW214529   2.300   1.675   1.621  0.5622 -0.1355  2.3508
  966SOL     OW14530   2.988   0.089   9.846  0.1582 -0.1095 -0.2980
  966SOL    HW114531   2.996   0.121   9.936 -0.4622  1.1250 -0.6866
  966SOL    HW214532   3.080   0.065   9.836  0.2820  0.3397 -0.2143
  967SOL     OW14533   0.491   4.180  17.636 -0.5104  0.0173 -0.6305
  967SOL    HW114534   0.526   4.158  17.550 -0.2307  0.3887 -0.6080
  967SOL    HW214535   0.421   4.244  17.621  1.1483  1.8135 -0.6545
  968SOL     OW14536   4.064   3.819   7.824  0.4832  0.9240  0.2505
  968SOL    HW114537   3.973   3.845   7.839  1.2358  2.6871  1.8034
  968SOL    HW214538   4.085   3.859   7.741  2.4158  1.7975  1.1698
  969SOL     OW14539   2.288   2.965   6.722 -0.1008 -0.3812  0.3706
  969SOL    HW114540   2.304   2.935   6.812  1.9123  0.9093  0.4322
  969SOL    HW214541   2.288   3.060   6.733  1.0509 -0.2284 -0.9980
  970SOL     OW14542   2.651   1.059   4.011 -0.3913 -0.0527  0.5794
  970SOL    HW114543   2.647   1.133   4.072 -0.0704  0.9898 -0.6599
  970SOL    HW214544   2.607   1.085   3.930  1.1757 -1.3931 -0.6896
  971SOL     OW14545   3.227   4.728   5.507 -0.3567 -0.0554  0.1362
  971SOL    HW114546   3.177   0.054   5.464  1.7316  0.8252 -0.8887
  971SOL    HW214547   3.272   4.696   5.429  0.4683 -1.5057  1.2132
  972SOL     OW14548   3.820   0.857   2.770  0.4383 -0.3160  0.0204
  972SOL    HW114549   3.886   0.792   2.793 -0.7475 -1.3609  0.4471
  972SOL    HW214550   3.742   0.825   2.816  0.3023  0.9863  0.6981
  973SOL     OW14551   0.609   4.307   0.791 -0.0159  0.3849 -0.1563
  973SOL    HW114552   0.589   4.372   0.858 -1.9968 -0.5212  0.1339
  973SOL    HW214553   0.704   4.298   0.801 -0.1338  0.4369  0.9972
  974SOL     OW14554   2.396   3.842   6.090  0.0191 -0.3264  0.1140
  974SOL    HW114555   2.380   3.844   5.995 -0.3418  0.2340  0.1862
  974SOL    HW214556   2.472   3.784   6.088  0.4331  0.3153 -2.9570
  975SOL     OW14557   3.869   0.108   9.574  0.1118 -0.0180  0.0532
  975SOL    HW114558   3.815   0.041   9.616 -0.0315 -0.1948 -0.4086
  975SOL    HW214559   3.815   0.187   9.579  0.7592  0.4558 -0.5370
  976SOL     OW14560   0.753   3.055   7.683  0.2384 -0.8317 -0.2934
  976SOL    HW114561   0.772   3.084   7.593 -0.2474  0.1091 -0.1015
  976SOL    HW214562   0.837   3.069   7.727 -0.1944 -1.2436  0.6453
  977SOL     OW14563   0.047   4.556   6.021 -0.4909  0.0103 -0.3243
  977SOL    HW114564   0.036   4.461   6.032 -4.1426  0.5586  0.8620
  977SOL    HW214565   4.703   4.581   5.991 -0.1990  0.2573 -0.9786
  978SOL     OW14566   2.705   2.647   5.898  0.0559  0.3904 -0.8082
  978SOL    HW114567   2.645   2.588   5.943  1.8060 -1.6883 -1.2218
  978SOL    HW214568   2.731   2.588   5.827 -0.1810  1.7352 -2.0311
  979SOL     OW14569   1.385   0.975   3.662 -0.4405  0.3498  0.3768
  979SOL    HW114570   1.402   0.924   3.583 -2.0534  1.6541 -0.8188
  979SOL    HW214571   1.343   1.051   3.622 -1.6423  0.1442  1.2205
  980SOL     OW14572   3.709   0.644   3.130  0.3678 -0.1277  0.5242
  980SOL    HW114573   3.618   0.624   3.153  0.2513  0.3534  0.4857
  980SOL    HW214574   3.753   0.699   3.194  1.4509 -1.0038  0.5409
  981SOL     OW14575   0.218   1.312   4.381  0.4758 -0.2886  0.6500
  981SOL    HW114576   0.263   1.329   4.464 -1.5747 -0.7705  1.8549
  981SOL    HW214577   0.159   1.387   4.366 -0.1278 -0.7718  0.6203
  982SOL     OW14578   0.383   4.671   2.174  0.2482 -0.4379  0.3886
  982SOL    HW114579   0.448   4.684   2.243  0.2341 -0.0523  0.3285
  982SOL    HW214580   0.422   4.724   2.104  0.6515 -2.7217 -1.0902
  983SOL     OW14581   1.173   2.350   5.472 -0.2263 -0.2829  0.6553
  983SOL    HW114582   1.232   2.376   5.543 -1.1146  1.2701  0.8188
  983SOL    HW214583   1.120   2.429   5.473  0.8829  0.4586 -1.7751
  984SOL     OW14584   0.837   0.797   8.318 -0.0225  0.4467  0.1682
  984SOL    HW114585   0.873   0.744   8.247  0.9780  2.4367 -0.8131
  984SOL    HW214586   0.814   0.879   8.274 -1.4694 -0.2860 -0.4162
  985SOL     OW14587   2.119   0.885  10.021  0.3987  0.3408 -0.1013
  985SOL    HW114588   2.069   0.907   9.942 -0.4883 -0.4132  0.2442
  985SOL    HW214589   2.157   0.964  10.059  0.5423 -0.2587  1.0118
  986SOL     OW14590   3.917   3.438  12.445 -0.4652  0.3884  0.2661
  986SOL    HW114591   3.830   3.463  12.476  0.1923  0.1039  2.3421
  986SOL    HW214592   3.951   3.393  12.523  0.7863  0.8526 -0.0186
  987SOL     OW14593   1.086   4.243   8.387 -0.0016 -0.1019 -0.3435
  987SOL    HW114594   1.141   4.216   8.314  0.4343 -1.0961  0.3569
  987SOL    HW214595   1.123   4.332   8.391 -1.3795  0.5233 -1.2409
  988SOL     OW14596   3.904   2.071   1.881 -0.4289 -0.8573 -0.1105
  988SOL    HW114597   3.817   2.097   1.851 -0.3870 -1.0700 -0.4238
  988SOL    HW214598   3.955   2.149   1.855 -1.6850 -0.1947 -0.5814
  989SOL     OW14599   1.360   3.552   8.194 -0.4650  0.1743 -0.4525
  989SOL    HW114600   1.287   3.608   8.221 -0.0580 -0.1923  1.4011
  989SOL    HW214601   1.334   3.519   8.108 -2.4629 -0.6483  0.4548
  990SOL     OW14602   0.257   0.301  17.329 -0.3442 -0.2441  0.2426
  990SOL    HW114603   0.184   0.293  17.391 -0.1238  1.7373  0.7544
  990SOL    HW214604   0.321   0.249  17.377  0.0480 -0.1101 -0.1348
  991SOL     OW14605   3.830   0.348   7.507  0.2339  0.1635  0.2043
  991SOL    HW114606   3.774   0.375   7.580  0.4615  1.0630  0.0567
  991SOL    HW214607   3.818   0.254   7.519 -0.7400  0.0109 -1.8814
  992SOL     OW14608   3.418   4.215  11.946 -0.1560 -0.9177  0.0581
  992SOL    HW114609   3.504   4.191  11.912  0.0899 -0.1308  0.1369
  992SOL    HW214610   3.438   4.262  12.027 -0.3114  0.5496 -0.7551
  993SOL     OW14611   3.621   3.613   7.058  0.6140 -0.2411  0.3395
  993SOL    HW114612   3.661   3.565   6.986 -2.9025  1.2252 -2.5690
  993SOL    HW214613   3.695   3.655   7.103  0.4675 -0.3940  0.7209
  994SOL     OW14614   3.690   2.746   5.680 -0.1829  0.4139 -0.2727
  994SOL    HW114615   3.614   2.696   5.708 -0.4834  1.6555  1.1584
  994SOL    HW214616   3.676   2.834   5.715  0.3400 -0.9474  3.3950
  995SOL     OW14617   3.702   2.046   7.803  0.7235  0.3226 -0.1506
  995SOL    HW114618   3.781   2.053   7.858  1.2529 -0.4848 -0.8045
  995SOL    HW214619   3.728   2.103   7.730 -2.2666  2.8935  0.8134
  996SOL     OW14620   1.220   4.350   7.959 -0.1216 -0.0532 -0.0635
  996SOL    HW114621   1.143   4.297   7.937  0.6154 -0.3107 -1.9461
  996SOL    HW214622   1.176   4.429   7.989 -1.7242 -0.6600 -0.8160
  997SOL     OW14623   2.590   2.617  10.743 -0.4163  0.1559  1.0168
  997SOL    HW114624   2.620   2.679  10.810 -0.2643  2.1904 -0.9290
  997SOL    HW214625   2.672   2.568  10.741 -0.0880  0.6740  1.6711
  998SOL     OW14626   0.586   0.132   8.329  0.1393  0.0004  0.5177
  998SOL    HW114627   0.598   0.040   8.354  2.1457 -0.2409 -1.3783
  998SOL    HW214628   0.659   0.129   8.268 -0.3056  1.3913 -0.0817
  999SOL     OW14629   0.389   0.616  16.486 -1.3170 -0.6663  0.2298
  999SOL    HW114630   0.328   0.673  16.439 -0.3206  0.2915  0.1045
  999SOL    HW214631   0.376   0.526  16.455 -1.2382 -0.4180 -0.5183
 1000SOL     OW14632   4.060   3.651   6.418  0.0555  0.4795 -0.0269
 1000SOL    HW114633   3.968   3.668   6.400 -0.0099 -0.7412 -0.8041
 1000SOL    HW214634   4.089   3.697   6.339 -0.7974  0.7079 -0.2104
 1001SOL     OW14635   1.275   2.959   6.339 -0.2512  0.5659 -0.0588
 1001SOL    HW114636   1.356   3.007   6.325 -0.0618  1.3887  3.9539
 1001SOL    HW214637   1.214   3.033   6.335 -2.1182 -0.9139  0.7209
 1002SOL     OW14638   1.406   3.264   4.094  0.0021 -0.1707  0.4775
 1002SOL    HW114639   1.390   3.288   4.185  1.6526  0.9569  0.4623
 1002SOL    HW214640   1.501   3.273   4.094 -0.2440  2.4405 -2.1228
 1003SOL     OW14641   1.499   3.736  17.340  0.4017 -0.5981 -0.4523
 1003SOL    HW114642   1.486   3.742  17.434  0.2641  0.5382 -0.5486
 1003SOL    HW214643   1.568   3.671  17.322 -0.1113 -1.1992 -0.2378
 1004SOL     OW14644   4.649   3.100  17.546  0.1811  0.5558 -0.4216
 1004SOL    HW114645   4.711   3.159  17.588 -0.5692 -0.8707  2.6198
 1004SOL    HW214646   4.586   3.075  17.613  0.0662  0.4806 -0.5553
 1005SOL     OW14647   0.441   3.831   8.155  0.3364  0.0814  0.2054
 1005SOL    HW114648   0.447   3.769   8.082  1.6594 -1.9323  2.0331
 1005SOL    HW214649   0.460   3.901   8.092 -1.9654  2.5066  2.2558
 1006SOL     OW14650   3.396   1.192   7.146  0.8450 -0.2132  0.4252
 1006SOL    HW114651   3.409   1.250   7.071 -0.6810 -0.6478 -0.1781
 1006SOL    HW214652   3.364   1.252   7.213  0.9166  1.1063 -0.7207
 1007SOL     OW14653   2.069   0.284   9.374 -0.1735  0.2968  0.0836
 1007SOL    HW114654   2.151   0.330   9.359  0.2450 -0.4460  0.0876
 1007SOL    HW214655   2.084   0.195   9.341 -1.4448 -0.7230  2.3006
 1008SOL     OW14656   4.434   2.547   2.186  0.1505  0.2414 -0.1061
 1008SOL    HW114657   4.447   2.455   2.210  1.0479 -0.5295 -3.4964
 1008SOL    HW214658   4.362   2.541   2.123 -0.5458  1.0315  0.6239
 1009SOL     OW14659   1.744   1.130   4.685  0.1050  0.3309 -0.1447
 1009SOL    HW114660   1.687   1.202   4.656  0.1816 -0.1779 -1.5676
 1009SOL    HW214661   1.730   1.054   4.629  1.1469  0.8833 -1.1669
 1010SOL     OW14662   1.949   0.765   2.404  0.1364 -0.3887 -0.5322
 1010SOL    HW114663   2.030   0.775   2.454 -0.4376 -0.2995  0.3769
 1010SOL    HW214664   1.917   0.855   2.397  1.4756  0.0760 -0.7534
 1011SOL     OW14665   0.393   0.729   4.517 -0.5626 -0.6429  0.4423
 1011SOL    HW114666   0.318   0.675   4.492 -2.6548  2.5021 -0.0414
 1011SOL    HW214667   0.344   0.788   4.574 -1.7601  1.8628 -3.1694
 1012SOL     OW14668   0.626   1.702   5.925 -0.2373 -0.4241 -0.5787
 1012SOL    HW114669   0.592   1.741   6.005 -1.5722  2.4054 -2.5256
 1012SOL    HW214670   0.709   1.663   5.952 -0.8913 -1.1663  0.3656
 1013SOL     OW14671   1.878   2.986  17.372  0.6561  0.8752  0.6186
 1013SOL    HW114672   1.871   2.951  17.461 -2.9509 -2.9470 -1.2000
 1013SOL    HW214673   1.973   3.001  17.373  0.6245  1.3146 -2.1006
 1014SOL     OW14674   4.321   3.191   5.165 -0.1258  0.2417  0.1874
 1014SOL    HW114675   4.243   3.231   5.203  0.5960  0.9628  0.8965
 1014SOL    HW214676   4.284   3.142   5.092 -0.0494 -0.4810  0.6281
 1015SOL     OW14677   0.245   0.504   5.472 -0.0475  0.1652  0.9094
 1015SOL    HW114678   0.320   0.459   5.511  0.9259  0.5260 -0.5260
 1015SOL    HW214679   0.216   0.553   5.549  2.1861  0.5049  1.5339
 1016SOL     OW14680   1.336   2.198   9.081 -0.6993  0.2889  0.2398
 1016SOL    HW114681   1.338   2.180   8.987 -0.5894  2.3137 -0.1405
 1016SOL    HW214682   1.404   2.265   9.089 -0.8809  0.4318  0.6116
 1017SOL     OW14683   0.891   1.802   7.727 -0.0423  0.8805  0.2449
 1017SOL    HW114684   0.970   1.828   7.775  1.3684 -0.7158 -1.2353
 1017SOL    HW214685   0.841   1.758   7.796 -1.8853  0.1574 -1.5478
 1018SOL     OW14686   3.567   0.772  17.158 -0.4334  0.0083 -0.0632
 1018SOL    HW114687   3.590   0.803  17.246  0.3365  1.1158 -0.6614
 1018SOL    HW214688   3.472   0.781  17.152 -0.5600 -1.2947 -0.1584
 1019SOL     OW14689   1.466   1.271  17.260 -0.0359 -0.4647  0.3479
 1019SOL    HW114690   1.539   1.249  17.319  1.7111  1.0632 -1.2386
 1019SOL    HW214691   1.390   1.235  17.305 -0.3924 -1.0965 -0.7628
 1020SOL     OW14692   2.886   4.326   8.453  0.5993  0.0980 -0.3352
 1020SOL    HW114693   2.826   4.350   8.382  1.3696  0.7098 -0.7825
 1020SOL    HW214694   2.967   4.303   8.408 -1.1806 -0.4956 -3.2427
 1021SOL     OW14695   2.414   0.797  17.234  0.3287 -0.0410  0.2956
 1021SOL    HW114696   2.436   0.889  17.252 -0.7225  0.8331 -2.9166
 1021SOL    HW214697   2.323   0.815  17.210  0.6580  0.9352 -0.1964
 1022SOL     OW14698   2.053   3.838  16.788  0.4563  0.2876 -0.1172
 1022SOL    HW114699   2.127   3.825  16.729  1.6454  1.4768  1.1372
 1022SOL    HW214700   1.986   3.827  16.721  2.6421  3.4907 -2.8080
 1023SOL     OW14701   2.493   4.051   6.244 -0.4226  0.3367  0.4099
 1023SOL    HW114702   2.449   3.988   6.188  3.4348 -2.0958  0.1591
 1023SOL    HW214703   2.531   4.116   6.185 -0.1451  1.2529  1.5853
 1024SOL     OW14704   0.185   4.181   6.853 -0.4676  0.1938  0.3094
 1024SOL    HW114705   0.103   4.222   6.827 -0.4079  1.0547  1.4989
 1024SOL    HW214706   0.234   4.180   6.771  0.9024 -2.0655  1.1476
 1025SOL     OW14707   2.339   2.106  17.737 -0.2332  0.7017  0.3113
 1025SOL    HW114708   2.385   2.022  17.747  0.8222  1.3196  0.7183
 1025SOL    HW214709   2.319   2.106  17.644 -0.2911 -1.3386  0.3246
 1026SOL     OW14710   1.211   2.937   1.125  0.1526  0.0964 -0.2165
 1026SOL    HW114711   1.121   2.952   1.095 -0.2089  2.3333  2.0653
 1026SOL    HW214712   1.243   3.027   1.115  1.5632 -0.5927 -2.1201
 1027SOL     OW14713   4.675   4.014   6.034 -0.4520 -0.4194 -0.4296
 1027SOL    HW114714   4.715   3.992   5.950 -0.5022  0.4383 -0.6803
 1027SOL    HW214715   4.606   3.948   6.033  0.8301 -1.8637  3.8288
 1028SOL     OW14716   0.543   2.326   7.837  0.2572  0.1385  0.0625
 1028SOL    HW114717   0.571   2.416   7.821  2.2055 -0.6488 -0.9740
 1028SOL    HW214718   0.610   2.278   7.787 -1.9418 -1.7560 -1.0357
 1029SOL     OW14719   0.913   3.028   4.714  0.5097  0.2379 -0.2167
 1029SOL    HW114720   0.889   3.115   4.681  1.2744  0.6252  0.2453
 1029SOL    HW214721   1.007   3.045   4.718  0.5347  0.4219 -1.4033
 1030SOL     OW14722   0.495   1.731  16.298  0.3299  0.1388  0.0286
 1030SOL    HW114723   0.513   1.817  16.259  0.9572  0.5613  1.2523
 1030SOL    HW214724   0.440   1.688  16.233 -0.6065 -0.0592  0.9703
 1031SOL     OW14725   1.626   2.237   2.472  0.3787  0.1188 -0.1771
 1031SOL    HW114726   1.647   2.328   2.452 -1.7721  0.9720  1.5809
 1031SOL    HW214727   1.570   2.224   2.395  0.6185  0.2498 -0.3761
 1032SOL     OW14728   1.637   4.577   4.693  0.4884  0.1850 -0.3767
 1032SOL    HW114729   1.600   4.664   4.701  0.1719  0.1966 -2.0560
 1032SOL    HW214730   1.671   4.579   4.603 -0.0248 -0.9745 -0.6009
 1033SOL     OW14731   3.668   0.976   3.061 -0.1308 -0.1638  0.1634
 1033SOL    HW114732   3.762   0.956   3.063 -0.4456 -1.5437  1.2200
 1033SOL    HW214733   3.637   0.948   3.147 -0.4443 -0.7380 -0.1332
 1034SOL     OW14734   1.273   0.775   7.858 -0.0300  0.2124 -0.0217
 1034SOL    HW114735   1.264   0.696   7.911  0.4845 -0.4979 -0.9947
 1034SOL    HW214736   1.328   0.750   7.784 -1.1501 -0.8581 -0.4968
 1035SOL     OW14737   0.858   4.666   7.323  0.5665  1.2062 -0.5266
 1035SOL    HW114738   0.913   4.608   7.375 -1.7112 -1.7035 -1.3332
 1035SOL    HW214739   0.879   0.012   7.351 -1.3011  1.4508  0.0717
 1036SOL     OW14740   0.906   3.358  11.699 -0.2859  0.9150 -0.4275
 1036SOL    HW114741   0.952   3.276  11.684 -0.4697  0.4618  1.5531
 1036SOL    HW214742   0.817   3.326  11.684 -0.9506  2.1083  0.9541
 1037SOL     OW14743   3.082   1.181   8.357  0.2859  0.2356 -0.3195
 1037SOL    HW114744   3.007   1.123   8.357  0.6668 -0.2592 -0.2563
 1037SOL    HW214745   3.119   1.162   8.444 -2.5259 -1.4147  0.5176
 1038SOL     OW14746   2.149   0.469   4.002  0.1516 -0.0464  0.8076
 1038SOL    HW114747   2.220   0.437   4.057  1.8649 -0.1433 -1.4730
 1038SOL    HW214748   2.193   0.460   3.918 -0.0944  0.6374  0.6046
 1039SOL     OW14749   3.614   3.610   5.445  0.2250 -0.2862 -0.3016
 1039SOL    HW114750   3.644   3.697   5.417  0.0379 -0.1044  0.0595
 1039SOL    HW214751   3.526   3.626   5.480 -0.3936 -4.0775 -0.0876
 1040SOL     OW14752   0.978   1.558   7.536  0.2781 -0.6800  0.7612
 1040SOL    HW114753   0.998   1.604   7.618  1.8025  0.8274 -0.4587
 1040SOL    HW214754   0.993   1.467   7.563 -2.1917 -1.8680 -1.8693
 1041SOL     OW14755   0.901   0.084  12.823  0.5586 -0.0797 -0.7443
 1041SOL    HW114756   0.922   0.077  12.730  2.1757 -0.0662 -0.3688
 1041SOL    HW214757   0.842   0.159  12.810  1.3250  0.6930  0.3052
 1042SOL     OW14758   0.365   4.343   8.585  0.1060 -0.0126 -0.2367
 1042SOL    HW114759   0.321   4.259   8.575  2.2452 -1.0689 -0.9407
 1042SOL    HW214760   0.433   4.350   8.518 -0.7441  0.9510 -0.9985
 1043SOL     OW14761   4.317   0.363  11.869  0.0689 -0.2386  0.6036
 1043SOL    HW114762   4.319   0.449  11.827 -1.3618  0.4625  1.9977
 1043SOL    HW214763   4.410   0.359  11.890 -0.3847 -2.0638  2.2554
 1044SOL     OW14764   2.750   4.378   9.668 -0.2707 -0.3119 -0.1713
 1044SOL    HW114765   2.832   4.353   9.711  1.6182  4.2424 -1.0441
 1044SOL    HW214766   2.788   4.430   9.597  2.4220 -3.1135 -0.8100
 1045SOL     OW14767   1.155   2.138  10.423 -0.6455  0.1613 -0.3155
 1045SOL    HW114768   1.113   2.103  10.345  0.8514 -2.3529  0.0052
 1045SOL    HW214769   1.173   2.228  10.395 -0.6265  0.0767 -0.5787
 1046SOL     OW14770   4.279   1.973   2.263 -0.4196 -0.3468 -0.2857
 1046SOL    HW114771   4.285   1.899   2.203 -0.3023  1.2904 -2.2902
 1046SOL    HW214772   4.191   2.000   2.239 -1.0290 -2.3699 -0.2727
 1047SOL     OW14773   3.653   3.411   8.980 -0.3252  0.1242 -0.5167
 1047SOL    HW114774   3.637   3.497   8.941  0.4792  0.1394 -0.8068
 1047SOL    HW214775   3.592   3.409   9.054  2.4679 -2.4111  1.7224
 1048SOL     OW14776   1.436   1.135   4.955  0.1408  0.7676  0.4125
 1048SOL    HW114777   1.510   1.180   4.996  0.2616 -0.9688  2.1049
 1048SOL    HW214778   1.362   1.178   4.998 -1.3376 -2.2862  0.8695
 1049SOL     OW14779   3.253   2.794  16.046  0.1505  0.0350 -0.0126
 1049SOL    HW114780   3.219   2.882  16.063 -3.2699 -0.7082 -3.1609
 1049SOL    HW214781   3.313   2.775  16.119 -0.7315  1.3396  1.0622
 1050SOL     OW14782   2.450   3.195  11.856 -0.0775  0.3283  0.0274
 1050SOL    HW114783   2.424   3.169  11.945  0.9721 -1.8334 -0.3092
 1050SOL    HW214784   2.418   3.285  11.866  0.2888  0.3965  0.5728
 1051SOL     OW14785   3.147   3.156   6.376 -0.7151 -0.3920 -0.3628
 1051SOL    HW114786   3.111   3.110   6.300  0.2281 -3.2751  0.9589
 1051SOL    HW214787   3.075   3.150   6.438  0.3141  0.2798  0.9178
 1052SOL     OW14788   2.890   3.439   3.945  0.2533  0.5426  0.0798
 1052SOL    HW114789   2.929   3.414   3.861  0.5981 -1.5784  0.8648
 1052SOL    HW214790   2.965   3.490   3.975 -0.4434  0.6121  1.7183
 1053SOL     OW14791   4.018   2.343  14.673  0.7884  0.3274 -0.1074
 1053SOL    HW114792   4.078   2.408  14.636 -0.0845  1.1879 -0.0119
 1053SOL    HW214793   3.942   2.350  14.616  0.3450 -1.4083  0.2922
 1054SOL     OW14794   1.185   4.261   4.656 -0.2125  0.8929  0.0005
 1054SOL    HW114795   1.272   4.260   4.695  0.7966  1.2437 -2.2268
 1054SOL    HW214796   1.146   4.174   4.670 -0.6986  0.7527 -2.2256
 1055SOL     OW14797   1.877   0.890   7.907  0.4098 -0.3242 -0.2363
 1055SOL    HW114798   1.830   0.843   7.838  0.3831  0.2484 -0.6033
 1055SOL    HW214799   1.957   0.913   7.861 -0.8003  1.4615 -1.4117
 1056SOL     OW14800   1.471   4.106   3.717  0.5959  0.1451 -0.0732
 1056SOL    HW114801   1.400   4.167   3.739 -0.3789 -0.9136 -0.2591
 1056SOL    HW214802   1.512   4.100   3.804 -0.8243  1.0624  0.6689
 1057SOL     OW14803   3.150   3.469  10.299 -0.4242 -0.2770  0.4211
 1057SOL    HW114804   3.116   3.484  10.211 -0.1786 -0.1424  0.3495
 1057SOL    HW214805   3.225   3.410  10.288 -1.0524 -1.0145  0.1224
 1058SOL     OW14806   2.747   0.155  16.462 -0.2583 -0.4335 -0.0446
 1058SOL    HW114807   2.676   0.168  16.399 -0.8470  0.9809  0.9097
 1058SOL    HW214808   2.747   0.059  16.462  1.4266 -0.4305  0.4155
 1059SOL     OW14809   4.546   1.294   7.555 -0.3091 -0.5162  0.2941
 1059SOL    HW114810   4.529   1.204   7.583 -0.4869 -0.3556  0.6863
 1059SOL    HW214811   4.453   1.308   7.543 -0.3455 -0.4685  0.6301
 1060SOL     OW14812   3.073   0.770  10.276  0.8392  0.1123 -0.4551
 1060SOL    HW114813   3.122   0.789  10.196  0.3387  1.5572 -0.4184
 1060SOL    HW214814   3.009   0.839  10.294  1.1872 -0.0996  1.6604
 1061SOL     OW14815   1.892   2.984   3.305  0.0347 -0.0504 -0.2306
 1061SOL    HW114816   1.915   2.926   3.232  0.3501  0.8829 -0.8765
 1061SOL    HW214817   1.911   2.922   3.375  2.0831  2.1708  1.2062
 1062SOL     OW14818   0.385   2.328   4.075  0.8263 -0.2702  0.7541
 1062SOL    HW114819   0.322   2.272   4.120  0.0222  0.0412  0.0240
 1062SOL    HW214820   0.419   2.371   4.153 -1.1689  1.1966  0.8330
 1063SOL     OW14821   0.308   0.337   0.391  0.1603 -0.6884 -0.5088
 1063SOL    HW114822   0.258   0.410   0.428  2.6958 -0.6645  2.9078
 1063SOL    HW214823   0.315   0.279   0.467 -0.5285  0.9885  0.8563
 1064SOL     OW14824   2.737   4.391   4.694 -0.0878 -0.6366 -0.4226
 1064SOL    HW114825   2.804   4.330   4.726 -0.1804 -1.8232 -2.4999
 1064SOL    HW214826   2.689   4.327   4.642 -0.5930  0.7035 -1.5925
 1065SOL     OW14827   0.752   0.638   2.760  0.1994  0.5154  0.9041
 1065SOL    HW114828   0.745   0.694   2.837 -0.9878  3.0704 -1.0723
 1065SOL    HW214829   0.846   0.620   2.749  0.1202  1.2238 -1.0270
 1066SOL     OW14830   1.159   2.230   7.213  0.4433 -0.2077 -0.1607
 1066SOL    HW114831   1.095   2.276   7.267  0.2468  1.7948 -2.1084
 1066SOL    HW214832   1.214   2.300   7.179  0.6810 -1.1119 -1.6446
 1067SOL     OW14833   3.378   3.221   3.890  0.2827 -0.4459 -0.4065
 1067SOL    HW114834   3.397   3.309   3.857 -0.6285  0.6955  2.0573
 1067SOL    HW214835   3.433   3.172   3.829  0.3099 -0.0151 -0.7319
 1068SOL     OW14836   2.867   0.997   8.074  0.7758 -0.5158 -0.6679
 1068SOL    HW114837   2.809   1.072   8.086  1.6561  0.2720 -1.3520
 1068SOL    HW214838   2.906   1.015   7.988  0.6613 -4.1158 -1.4929
 1069SOL     OW14839   1.082   2.200   8.927  0.6495 -0.6985  0.0212
 1069SOL    HW114840   1.165   2.185   8.882 -0.4940  1.6145 -2.8709
 1069SOL    HW214841   1.077   2.140   9.001  0.7485  1.0818  1.4827
 1070SOL     OW14842   3.773   1.811  11.647 -0.2611 -0.3441  0.5754
 1070SOL    HW114843   3.723   1.817  11.565 -0.3531  0.3314  0.6828
 1070SOL    HW214844   3.733   1.883  11.695  0.6302  0.9560 -0.6371
 1071SOL     OW14845   4.669   2.496   8.017 -0.4711  0.0019 -0.5364
 1071SOL    HW114846   4.705   2.515   8.103 -2.8455  2.2146 -0.0428
 1071SOL    HW214847   4.743   2.523   7.961  0.1113  0.8950  0.6842
 1072SOL     OW14848   1.193   2.253   2.045 -0.3146 -0.2109  0.4801
 1072SOL    HW114849   1.135   2.328   2.053  1.1482  1.1112 -1.1611
 1072SOL    HW214850   1.137   2.186   2.083 -2.0591  0.7566 -0.3789
 1073SOL     OW14851   2.064   1.895   1.588  0.1680  0.1535 -0.6505
 1073SOL    HW114852   2.070   1.947   1.507  4.2644  0.6685 -0.0001
 1073SOL    HW214853   2.027   1.957   1.651  4.0952  0.9880  0.8686
 1074SOL     OW14854   3.420   1.275   6.177 -0.0286 -0.2645 -0.2976
 1074SOL    HW114855   3.420   1.350   6.236 -3.2606  0.7022 -1.5273
 1074SOL    HW214856   3.331   1.281   6.141  0.5603  2.0717 -1.3506
 1075SOL     OW14857   2.658   1.655   7.787  0.1606  0.3638  0.4987
 1075SOL    HW114858   2.583   1.675   7.843  0.0479 -0.9181  0.7912
 1075SOL    HW214859   2.614   1.658   7.702 -0.0827 -1.5702  0.5529
 1076SOL     OW14860   4.380   3.686   5.314  0.1021 -0.6002 -0.4780
 1076SOL    HW114861   4.393   3.601   5.271  1.0970 -0.8387  0.3090
 1076SOL    HW214862   4.292   3.664   5.345 -1.0768  2.5906 -1.5356
 1077SOL     OW14863   4.138   0.815   5.701  0.5839  0.3554  0.1398
 1077SOL    HW114864   4.140   0.719   5.705 -0.9663  0.2593 -1.0610
 1077SOL    HW214865   4.095   0.850   5.779 -3.7755  0.2107 -2.2108
 1078SOL     OW14866   2.201   0.749   2.547  0.5457  0.0341  0.5576
 1078SOL    HW114867   2.224   0.831   2.503  2.2344  0.5239  2.3313
 1078SOL    HW214868   2.264   0.733   2.618  1.3166  2.1109  0.3472
 1079SOL     OW14869   3.987   3.718   1.343  0.1107  0.9434  0.5457
 1079SOL    HW114870   4.050   3.780   1.306 -0.5817  0.7656 -0.9485
 1079SOL    HW214871   4.003   3.631   1.308  1.8643  1.7680 -0.6651
 1080SOL     OW14872   2.233   0.586   0.111 -0.2742 -0.1053  0.8826
 1080SOL    HW114873   2.260   0.534   0.036 -2.6171 -1.1140  0.7374
 1080SOL    HW214874   2.267   0.528   0.180 -1.2912 -2.4938 -0.6114
 1081SOL     OW14875   4.091   4.140   8.733 -0.2814 -0.3517 -0.1507
 1081SOL    HW114876   4.015   4.103   8.777 -0.4707  0.4896  0.2267
 1081SOL    HW214877   4.142   4.059   8.728 -1.1927 -0.9920  1.0291
 1082SOL     OW14878   4.718   1.307   3.438  0.3006 -0.3762  0.0211
 1082SOL    HW114879   4.719   1.279   3.347 -0.7345  0.4791 -0.2546
 1082SOL    HW214880   0.064   1.287   3.464 -0.3316 -1.0016  1.7621
 1083SOL     OW14881   4.343   2.523   8.561  0.1853  0.2463  0.4987
 1083SOL    HW114882   4.378   2.520   8.472 -1.3839  2.1416 -0.1849
 1083SOL    HW214883   4.255   2.490   8.544  0.0743  0.8908 -0.1930
 1084SOL     OW14884   3.093   0.843  16.863  0.3979 -0.1538  0.1400
 1084SOL    HW114885   3.048   0.833  16.947  1.0835  1.1581  0.6701
 1084SOL    HW214886   3.114   0.936  16.866  0.0651 -0.0420 -0.9483
 1085SOL     OW14887   3.776   0.007   3.341 -0.7304 -0.1585 -0.5982
 1085SOL    HW114888   3.729   4.720   3.264 -2.8564  1.8153 -0.0918
 1085SOL    HW214889   3.832   0.061   3.284 -2.1537 -0.4306 -2.2412
 1086SOL     OW14890   4.301   1.040   9.022 -0.3011  0.3433  0.4810
 1086SOL    HW114891   4.269   0.965   9.070 -1.3384 -0.3171 -1.2457
 1086SOL    HW214892   4.294   1.010   8.931  1.1663 -1.4965  0.9752
 1087SOL     OW14893   3.629   3.643   8.883 -0.4309 -1.0820 -0.4948
 1087SOL    HW114894   3.645   3.679   8.796 -0.9099  2.6131  0.9395
 1087SOL    HW214895   3.588   3.715   8.932 -0.2396 -2.2828  1.4440
 1088SOL     OW14896   0.845   4.100  14.288  0.2221 -0.2533  0.4277
 1088SOL    HW114897   0.886   4.069  14.369 -0.2434 -0.0298  0.7461
 1088SOL    HW214898   0.876   4.191  14.285 -1.4573  0.2992  0.0978
 1089SOL     OW14899   3.702   3.473   8.344  0.7428 -0.1866 -0.0777
 1089SOL    HW114900   3.611   3.460   8.369  0.0632  2.1133 -1.3622
 1089SOL    HW214901   3.734   3.386   8.367 -0.5197 -0.3594  1.0387
 1090SOL     OW14902   2.988   4.556   6.275  0.0604 -0.3962 -0.9151
 1090SOL    HW114903   3.066   4.538   6.327  0.2768  1.4460 -0.6013
 1090SOL    HW214904   2.994   4.651   6.277 -0.0080 -0.3882 -1.0577
 1091SOL     OW14905   4.501   4.593   4.231  0.9747 -0.1483  0.3025
 1091SOL    HW114906   4.427   4.532   4.229  1.4642 -0.6837 -1.8373
 1091SOL    HW214907   4.484   4.648   4.307 -0.5264  0.4435 -0.4504
 1092SOL     OW14908   1.313   0.871   7.201 -0.6730 -0.0574  0.3286
 1092SOL    HW114909   1.386   0.821   7.238 -0.0287  0.2914 -0.4652
 1092SOL    HW214910   1.327   0.850   7.109  0.4310 -0.6243  0.6263
 1093SOL     OW14911   4.636   1.415   3.882 -0.5126 -0.7084  0.2061
 1093SOL    HW114912   4.653   1.486   3.820  2.8256 -0.3806  1.4870
 1093SOL    HW214913   4.623   1.466   3.962  0.9873  1.3829 -0.8944
 1094SOL     OW14914   1.440   1.902   5.426 -0.1134 -0.5317  0.1451
 1094SOL    HW114915   1.422   1.809   5.411  0.6412 -0.8312  1.0630
 1094SOL    HW214916   1.369   1.943   5.377  1.3580 -1.1518 -2.4682
 1095SOL     OW14917   0.727   4.403   6.703  0.1259  0.0504 -0.0844
 1095SOL    HW114918   0.773   4.319   6.710  0.0384 -0.0531 -0.7190
 1095SOL    HW214919   0.739   4.449   6.786  0.7010  1.0911 -0.7351
 1096SOL     OW14920   4.727   1.575  11.705 -0.1842  0.4265  0.0942
 1096SOL    HW114921   4.643   1.530  11.691 -0.4060  0.9029 -0.1002
 1096SOL    HW214922   0.040   1.498  11.709  2.2725  2.2693  0.3818
 1097SOL     OW14923   3.520   1.236   4.372 -0.4006  0.0332 -0.7965
 1097SOL    HW114924   3.486   1.324   4.353 -0.7802  0.2334  0.7420
 1097SOL    HW214925   3.441   1.191   4.404 -0.7263 -0.5905 -2.5174
 1098SOL     OW14926   0.813   4.395   3.609 -0.6376  0.1535 -0.3900
 1098SOL    HW114927   0.817   4.487   3.632  0.4322 -0.1444  0.5735
 1098SOL    HW214928   0.728   4.376   3.569 -1.1117 -1.2081  1.2421
 1099SOL     OW14929   3.370   0.375   9.074 -0.5059  0.4796  0.0420
 1099SOL    HW114930   3.386   0.294   9.123 -2.0494 -0.8527 -1.6198
 1099SOL    HW214931   3.445   0.373   9.016 -0.0766  0.5815  0.5955
 1100SOL     OW14932   0.073   0.853   0.437  0.0275  0.5048 -0.6319
 1100SOL    HW114933   0.144   0.813   0.488  0.2940 -0.7443 -1.9863
 1100SOL    HW214934   0.075   0.801   0.356  0.5820  1.5826 -1.3032
 1101SOL     OW14935   3.967   1.118  11.079  0.2839  0.1732  0.1477
 1101SOL    HW114936   4.050   1.165  11.066  0.1205  0.2088 -0.7445
 1101SOL    HW214937   3.902   1.183  11.107  1.4046  0.7529  1.4275
 1102SOL     OW14938   1.452   4.312   7.827  0.3300 -0.0153 -0.0660
 1102SOL    HW114939   1.375   4.327   7.882 -0.9872  1.4910 -2.3459
 1102SOL    HW214940   1.511   4.375   7.869  1.7645 -3.5240  3.2509
 1103SOL     OW14941   0.668   0.312  17.373  0.0784 -0.4145 -0.6158
 1103SOL    HW114942   0.624   0.379  17.321  1.0876  1.0078  0.3557
 1103SOL    HW214943   0.641   0.231  17.329 -0.8151  0.7322 -2.1958
 1104SOL     OW14944   0.051   3.394   6.518  0.3396  1.2137 -0.1501
 1104SOL    HW114945   4.724   3.364   6.461  1.0560  1.5215 -1.2037
 1104SOL    HW214946   0.098   3.318   6.552  0.3366  0.8615 -0.9319
 1105SOL     OW14947   2.528   2.635   8.087 -0.1376 -0.1774  0.4657
 1105SOL    HW114948   2.576   2.694   8.030 -0.6844 -0.0372  0.1548
 1105SOL    HW214949   2.465   2.589   8.031 -0.0328 -1.0657  1.0642
 1106SOL     OW14950   1.444   2.048  14.861 -0.4191 -0.3681 -0.6246
 1106SOL    HW114951   1.528   2.007  14.843 -0.3466  0.5747 -2.3580
 1106SOL    HW214952   1.466   2.089  14.945  4.1393  0.9989 -2.4826
 1107SOL     OW14953   1.111   1.416   4.147 -0.1137 -0.0958 -0.3800
 1107SOL    HW114954   1.168   1.422   4.223 -0.8262  1.7071  0.0069
 1107SOL    HW214955   1.051   1.488   4.163  0.4126  0.1194  0.6312
 1108SOL     OW14956   3.097   3.905   2.539  0.1179  0.2358  0.3564
 1108SOL    HW114957   3.056   3.989   2.561  0.3348  0.8378 -1.5408
 1108SOL    HW214958   3.029   3.848   2.573  1.0644 -1.3627 -0.4625
 1109SOL     OW14959   4.390   1.173   8.711  0.2905  0.2313 -0.1335
 1109SOL    HW114960   4.371   1.266   8.697 -0.8300  0.4433  2.8958
 1109SOL    HW214961   4.473   1.177   8.662  0.5078  2.0368  0.3799
 1110SOL     OW14962   4.009   4.175   2.654 -0.0021  0.6258  0.3292
 1110SOL    HW114963   4.087   4.167   2.600 -0.0866 -1.7456  0.5851
 1110SOL    HW214964   3.959   4.241   2.606  0.0975 -0.6492 -1.5323
 1111SOL     OW14965   0.737   0.370   6.187  0.9014 -0.2882  0.1632
 1111SOL    HW114966   0.731   0.314   6.111  1.3484 -0.1322  0.0105
 1111SOL    HW214967   0.830   0.394   6.194  0.9311 -0.1648 -0.6841
 1112SOL     OW14968   0.865   0.143   6.699 -0.2669 -0.2394 -0.2862
 1112SOL    HW114969   0.860   0.139   6.795  1.0585 -0.6636 -0.2254
 1112SOL    HW214970   0.808   0.070   6.677 -0.4281  0.1116 -1.0457
 1113SOL     OW14971   3.977   3.433  14.727 -0.0866  0.5135 -0.3444
 1113SOL    HW114972   3.970   3.339  14.743  0.3943  0.5136 -0.1336
 1113SOL    HW214973   3.955   3.423  14.634 -0.7832 -2.1220  0.0958
 1114SOL     OW14974   3.956   0.721   3.868  0.1080  0.1921 -0.5076
 1114SOL    HW114975   4.038   0.748   3.827  0.1457 -0.6470 -0.9787
 1114SOL    HW214976   3.900   0.728   3.791  0.0368  1.9440 -0.3068
 1115SOL     OW14977   0.758   2.347   1.868 -0.4799 -0.2243 -0.0082
 1115SOL    HW114978   0.746   2.438   1.896 -2.0396 -0.7448  1.0375
 1115SOL    HW214979   0.837   2.358   1.816 -1.1278  1.5379 -0.6226
 1116SOL     OW14980   0.609   2.819   3.697  0.3622  0.2253 -0.2119
 1116SOL    HW114981   0.617   2.725   3.712 -4.5153 -0.3144 -1.0808
 1116SOL    HW214982   0.685   2.840   3.643  0.6072  0.0025  0.0450
 1117SOL     OW14983   0.807   4.723   6.163  0.3707  0.4996  0.7568
 1117SOL    HW114984   0.845   4.657   6.105 -0.5219  1.2374 -0.6408
 1117SOL    HW214985   0.772   0.041   6.099 -0.1792  0.2822  0.8413
 1118SOL     OW14986   3.287   2.399   8.075 -0.3143  0.0854 -0.4591
 1118SOL    HW114987   3.331   2.387   8.159  1.7378  1.7737 -1.2847
 1118SOL    HW214988   3.258   2.489   8.090  0.7783  0.5467 -1.1318
 1119SOL     OW14989   1.491   2.429  15.223 -0.4934 -0.1019  0.0465
 1119SOL    HW114990   1.584   2.415  15.240  0.2689  2.9713 -1.7375
 1119SOL    HW214991   1.490   2.523  15.237  0.5829 -0.1184  0.2864
 1120SOL     OW14992   1.346   0.510   7.214 -0.2764 -0.2031  0.2931
 1120SOL    HW114993   1.287   0.576   7.177  0.1366  1.0961  1.9459
 1120SOL    HW214994   1.286   0.460   7.270 -0.9309 -1.9404 -1.9637
 1121SOL     OW14995   0.618   4.696  16.238  0.5405 -0.3576  0.1213
 1121SOL    HW114996   0.709   4.688  16.264  1.0529  0.5517 -1.3684
 1121SOL    HW214997   0.573   4.729  16.315 -1.1790 -0.1371 -0.9729
 1122SOL     OW14998   4.377   4.695   9.153 -0.3314  0.0736  0.0522
 1122SOL    HW114999   4.285   4.715   9.136 -0.4681  0.8879  1.8239
 1122SOL    HW215000   4.378   4.599   9.143 -2.3476 -0.0560  1.0751
 1123SOL     OW15001   3.342   4.734  14.228  0.0827 -0.2338 -0.0674
 1123SOL    HW115002   3.344   0.020  14.319 -0.1366  1.5040 -0.6138
 1123SOL    HW215003   3.248   4.721  14.212 -0.0425  0.3179  0.2092
 1124SOL     OW15004   1.629   4.248   6.992  0.2639  0.7367 -0.0387
 1124SOL    HW115005   1.573   4.301   6.935  0.5038  0.9504 -0.0803
 1124SOL    HW215006   1.560   4.230   7.055  0.4853  2.5482  0.7137
 1125SOL     OW15007   3.565   2.978   2.200  0.0195  0.1757 -0.0947
 1125SOL    HW115008   3.502   2.908   2.180  2.1768 -1.5632 -0.7480
 1125SOL    HW215009   3.646   2.931   2.218  0.4063  0.4552 -1.1144
 1126SOL     OW15010   2.317   3.898  17.038 -0.2278  0.4935  0.1560
 1126SOL    HW115011   2.281   3.928  16.955  1.2900  1.3776 -0.1809
 1126SOL    HW215012   2.252   3.832  17.062  0.6421 -0.0804  0.9510
 1127SOL     OW15013   2.724   1.040   1.290  0.2756  0.0865  0.0106
 1127SOL    HW115014   2.688   1.129   1.295  2.3627  0.8942  0.7361
 1127SOL    HW215015   2.761   1.050   1.202  2.4215 -2.3108  0.6349
 1128SOL     OW15016   1.906   2.818   8.816 -0.0262 -0.2316 -0.1118
 1128SOL    HW115017   1.945   2.864   8.890  0.6923 -0.2700 -0.4658
 1128SOL    HW215018   1.862   2.886   8.766 -1.4312 -1.1165 -0.0914
 1129SOL     OW15019   1.561   4.002   0.573  0.1845 -0.2277  0.0098
 1129SOL    HW115020   1.556   4.052   0.655  0.7741 -1.3229  0.7037
 1129SOL    HW215021   1.623   3.938   0.607 -0.5571 -1.1357 -0.3471
 1130SOL     OW15022   4.548   0.146   2.184  0.1382 -0.0161 -0.0079
 1130SOL    HW115023   4.606   0.071   2.195 -2.0408 -1.6232  0.5991
 1130SOL    HW215024   4.529   0.161   2.277 -0.9164 -0.4958 -0.1489
 1131SOL     OW15025   1.566   3.857   5.770  0.4631  0.2849 -0.0703
 1131SOL    HW115026   1.628   3.899   5.711  0.1217  0.5181 -0.2621
 1131SOL    HW215027   1.533   3.931   5.822 -0.4800 -1.1567  1.3976
 1132SOL     OW15028   0.218   1.334  10.729 -0.1034 -0.0247  0.0370
 1132SOL    HW115029   0.142   1.297  10.685 -0.4977 -0.7489  1.3085
 1132SOL    HW215030   0.281   1.293  10.671 -0.1643 -2.1488  1.4729
 1133SOL     OW15031   1.387   0.408   7.962 -0.2383 -0.1177  0.8223
 1133SOL    HW115032   1.475   0.443   7.947  0.3553 -1.6905  0.7182
 1133SOL    HW215033   1.408   0.315   7.957 -0.9820 -0.2302 -0.2329
 1134SOL     OW15034   1.312   3.944   1.633  0.3397 -0.2077  0.2915
 1134SOL    HW115035   1.273   3.938   1.721 -0.3699  1.2231  0.0744
 1134SOL    HW215036   1.383   3.882   1.645  1.0075  0.7652  1.4898
 1135SOL     OW15037   1.241   4.117   0.505  0.4395 -0.0878  0.2139
 1135SOL    HW115038   1.185   4.103   0.582  0.2806 -2.4681 -0.3501
 1135SOL    HW215039   1.255   4.211   0.519  1.1094  0.1212 -1.9200
 1136SOL     OW15040   1.849   2.507   5.651 -0.4186  0.5450 -0.2493
 1136SOL    HW115041   1.847   2.412   5.663 -1.7746  0.3320 -2.3520
 1136SOL    HW215042   1.871   2.521   5.559 -1.0368  0.3070 -0.4305
 1137SOL     OW15043   0.825   0.204  14.065 -0.1039 -0.3409  0.1647
 1137SOL    HW115044   0.757   0.213  14.131 -0.2131 -0.5339  0.0754
 1137SOL    HW215045   0.896   0.242  14.118 -0.5684  1.0521 -0.2124
 1138SOL     OW15046   1.377   1.139   2.717 -0.3244  0.5499  0.0284
 1138SOL    HW115047   1.396   1.136   2.811 -1.6149 -2.3712  0.2088
 1138SOL    HW215048   1.401   1.051   2.689  2.5272  0.9854  1.1175
 1139SOL     OW15049   3.567   0.304   3.087 -0.4896  0.0562 -0.2875
 1139SOL    HW115050   3.645   0.359   3.078 -0.4373 -0.0193 -0.2996
 1139SOL    HW215051   3.508   0.369   3.049  0.2716 -0.2281 -1.9704
 1140SOL     OW15052   1.086   2.125   6.975 -0.0659 -0.2505  0.0482
 1140SOL    HW115053   1.102   2.157   7.064 -0.1626  0.2585 -0.1205
 1140SOL    HW215054   1.116   2.034   6.977 -2.3346 -0.9545  2.1237
 1141SOL     OW15055   2.444   0.366   3.738  0.3127  0.4978  0.0531
 1141SOL    HW115056   2.463   0.455   3.767 -1.4045  0.9093 -0.0954
 1141SOL    HW215057   2.350   0.357   3.725  0.3605 -0.2753  0.2054
 1142SOL     OW15058   1.444   2.696   9.218  0.1220  0.3464  0.1602
 1142SOL    HW115059   1.462   2.609   9.184 -0.7957  0.6493 -1.0898
 1142SOL    HW215060   1.502   2.693   9.295 -0.1533  1.4536  0.4202
 1143SOL     OW15061   0.316   2.968  12.485  0.0500 -0.0527 -0.1014
 1143SOL    HW115062   0.337   2.991  12.394 -0.3071  1.6692  0.2410
 1143SOL    HW215063   0.258   2.896  12.462  0.9263 -1.0545  0.8392
 1144SOL     OW15064   0.505   2.455   3.439  0.1207 -0.0492  0.2939
 1144SOL    HW115065   0.426   2.427   3.486 -0.4767 -2.3595 -2.0859
 1144SOL    HW215066   0.580   2.412   3.481 -0.4599 -0.1929  1.1705
 1145SOL     OW15067   2.422   0.419   8.416 -0.1291  0.3337 -0.2916
 1145SOL    HW115068   2.435   0.462   8.332 -0.8512 -0.1758 -0.6666
 1145SOL    HW215069   2.382   0.481   8.477 -0.2085  1.7442 -1.8011
 1146SOL     OW15070   1.591   4.660   0.676  0.2138  0.1725 -0.6392
 1146SOL    HW115071   1.500   4.656   0.704  0.4357  1.0277  0.1986
 1146SOL    HW215072   1.590   4.597   0.604 -1.4042  0.4278 -0.8479
 1147SOL     OW15073   4.616   0.718   9.717  0.0704 -0.5259  0.2418
 1147SOL    HW115074   4.616   0.624   9.696  0.4871 -0.4908  0.0834
 1147SOL    HW215075   4.698   0.748   9.679  0.1727  0.3735  1.1646
 1148SOL     OW15076   1.867   0.276  13.150  0.2411  0.1763  0.0341
 1148SOL    HW115077   1.892   0.231  13.231 -1.6063 -1.9472 -0.5833
 1148SOL    HW215078   1.888   0.206  13.089  2.0600  1.5775 -0.9382
 1149SOL     OW15079   4.487   3.124  16.576 -0.3851 -0.4601 -0.5363
 1149SOL    HW115080   4.441   3.188  16.522 -0.0651  1.6109  1.6551
 1149SOL    HW215081   4.571   3.114  16.531 -0.1027  1.0660 -0.3510
 1150SOL     OW15082   3.789   3.841   5.386 -0.0579  0.1450  0.6430
 1150SOL    HW115083   3.856   3.805   5.444 -0.8581  2.0039  2.7400
 1150SOL    HW215084   3.825   3.928   5.373  0.7888 -0.6087 -1.9815
 1151SOL     OW15085   2.431   3.341   2.052 -0.2614  0.0436 -0.5410
 1151SOL    HW115086   2.526   3.347   2.050 -0.0623 -2.8240 -0.3410
 1151SOL    HW215087   2.391   3.426   2.033  0.5833  0.3714 -0.8477
 1152SOL     OW15088   2.355   2.323   5.608  0.4618 -0.2607  0.3850
 1152SOL    HW115089   2.415   2.338   5.681  1.7059 -0.7432 -0.5297
 1152SOL    HW215090   2.408   2.267   5.551  0.8904  1.0039 -0.4646
 1153SOL     OW15091   0.030   0.264  12.513 -0.0889  0.6683 -0.0492
 1153SOL    HW115092   4.707   0.279  12.580  1.6096  1.4509  1.4443
 1153SOL    HW215093   0.108   0.311  12.542 -2.0178  2.4128  2.2989
 1154SOL     OW15094   3.671   2.426   9.871  0.0838  0.3544 -0.2637
 1154SOL    HW115095   3.638   2.481   9.943 -0.1352 -0.5698  0.3557
 1154SOL    HW215096   3.754   2.397   9.909  1.0965  2.5716 -0.7837
 1155SOL     OW15097   2.682   3.257   6.265  0.2625  0.0388 -0.3174
 1155SOL    HW115098   2.748   3.326   6.253  1.6848 -1.5014 -1.4366
 1155SOL    HW215099   2.659   3.308   6.343 -1.0591  0.2684 -0.8631
 1156SOL     OW15100   3.600   1.222   4.101 -0.0204 -0.2328 -0.3074
 1156SOL    HW115101   3.629   1.231   4.192  3.3391  2.4712 -1.6881
 1156SOL    HW215102   3.535   1.291   4.088  3.5674  3.0650 -0.4933
 1157SOL     OW15103   2.983   4.668  10.875 -0.0924  0.1161 -0.5977
 1157SOL    HW115104   3.003   4.583  10.914 -0.0050 -0.4860 -1.9492
 1157SOL    HW215105   3.066   4.684  10.830  1.0181 -3.1678  0.3206
 1158SOL     OW15106   3.589   2.866   8.327 -0.1625 -0.1965  0.4056
 1158SOL    HW115107   3.656   2.918   8.284 -0.8579  0.6186  0.3172
 1158SOL    HW215108   3.637   2.811   8.389 -1.8851 -0.6486  1.3238
 1159SOL     OW15109   3.011   3.537  16.902 -0.1346  0.0361 -0.5887
 1159SOL    HW115110   3.064   3.509  16.977  2.8347  2.4514 -1.7721
 1159SOL    HW215111   3.026   3.630  16.887 -2.4899  0.2386 -1.7859
 1160SOL     OW15112   2.243   1.095   0.845  0.1694  0.0044  0.3291
 1160SOL    HW115113   2.295   1.145   0.909  1.6743 -0.7618 -0.2937
 1160SOL    HW215114   2.306   1.030   0.814  0.8163 -0.3685  2.4061
 1161SOL     OW15115   3.842   3.586   2.031 -0.0493  0.2413 -0.0484
 1161SOL    HW115116   3.848   3.654   2.098  1.4317  1.9359 -1.9206
 1161SOL    HW215117   3.756   3.605   1.993  0.3706  0.2726 -0.9947
 1162SOL     OW15118   4.670   1.889   6.731  0.2837  0.1991 -0.1585
 1162SOL    HW115119   0.008   1.903   6.683 -0.0934 -1.4166 -1.3017
 1162SOL    HW215120   4.601   1.920   6.672  0.4628 -0.0456 -0.4981
 1163SOL     OW15121   1.632   2.015   8.558  0.3110  0.3290  0.1357
 1163SOL    HW115122   1.552   2.068   8.554  0.2806  0.3239  0.7356
 1163SOL    HW215123   1.599   1.929   8.534 -1.0591  0.9149 -0.0912
 1164SOL     OW15124   3.327   0.984   3.190 -0.7241  0.0129  0.3905
 1164SOL    HW115125   3.418   0.959   3.204 -0.1227  1.9998 -0.0099
 1164SOL    HW215126   3.336   1.078   3.209  2.0172 -0.3181  0.6218
 1165SOL     OW15127   1.252   1.353  14.793 -0.1745  0.5418  0.9590
 1165SOL    HW115128   1.276   1.402  14.872  2.1847 -0.7390  1.0274
 1165SOL    HW215129   1.222   1.427  14.740  0.7831 -0.4459 -0.9707
 1166SOL     OW15130   2.842   1.691  11.772  0.0473 -0.2552  1.1774
 1166SOL    HW115131   2.869   1.693  11.680 -2.8763  2.7612  0.3702
 1166SOL    HW215132   2.820   1.599  11.785  1.8258 -0.6623  1.2783
 1167SOL     OW15133   3.830   0.545   9.174  0.3180 -0.2108  0.3279
 1167SOL    HW115134   3.785   0.625   9.144 -2.1462 -1.3891  0.8877
 1167SOL    HW215135   3.761   0.500   9.222 -0.7095 -1.2072 -2.0605
 1168SOL     OW15136   2.459   2.325   4.092 -0.6924  0.1592  0.0626
 1168SOL    HW115137   2.426   2.372   4.168 -0.8773 -2.1096  1.4031
 1168SOL    HW215138   2.417   2.387   4.033 -0.9184 -0.5239 -0.4893
 1169SOL     OW15139   1.763   3.612  16.262  0.5641  0.3346  0.1814
 1169SOL    HW115140   1.712   3.684  16.300 -2.2450 -2.8947  2.5594
 1169SOL    HW215141   1.814   3.660  16.198 -1.3837  0.4703 -1.2644
 1170SOL     OW15142   3.241   3.423   8.109 -0.6012  0.1284 -0.8797
 1170SOL    HW115143   3.275   3.510   8.131  0.7194 -0.1869 -1.6621
 1170SOL    HW215144   3.320   3.379   8.078 -0.4818  0.9098 -1.6863
 1171SOL     OW15145   0.424   1.931   2.880  0.1545  0.0387  0.8678
 1171SOL    HW115146   0.465   1.922   2.966 -0.5809 -2.8669  0.9284
 1171SOL    HW215147   0.418   2.025   2.867  0.6588  0.3978  3.2108
 1172SOL     OW15148   3.675   2.793   9.982  0.2074  1.0166  0.4811
 1172SOL    HW115149   3.714   2.832  10.061 -0.9922  0.3762  1.3839
 1172SOL    HW215150   3.586   2.796  10.017 -0.3751  0.2032 -0.9211
 1173SOL     OW15151   2.980   1.950   5.681 -0.5122 -0.0590 -0.4191
 1173SOL    HW115152   3.050   2.015   5.694 -1.6949  1.2013 -0.3179
 1173SOL    HW215153   3.019   1.869   5.712 -2.3865 -0.8174 -0.0749
 1174SOL     OW15154   3.110   3.513   4.440  0.3450  0.1927  0.2847
 1174SOL    HW115155   3.185   3.540   4.493  0.4589  0.1477  0.1486
 1174SOL    HW215156   3.074   3.441   4.492  0.2155 -0.5379 -0.8133
 1175SOL     OW15157   1.217   2.742  17.105  0.1024  0.2345  0.2663
 1175SOL    HW115158   1.300   2.739  17.057 -0.4760  0.5113 -0.7467
 1175SOL    HW215159   1.170   2.674  17.057 -0.9015  1.6808 -0.7862
 1176SOL     OW15160   0.394   0.871  13.173  0.4480 -0.3349  0.9228
 1176SOL    HW115161   0.384   0.828  13.258  1.4688 -0.1530  1.1309
 1176SOL    HW215162   0.424   0.955  13.208  0.2431 -0.8216  2.2292
 1177SOL     OW15163   0.524   1.333   1.833 -0.3497 -0.0773  0.0927
 1177SOL    HW115164   0.554   1.275   1.762  2.1172  4.0841 -2.3315
 1177SOL    HW215165   0.501   1.272   1.902  0.0049 -0.4874 -0.1527
 1178SOL     OW15166   3.728   0.546   2.540 -0.2392 -0.4753  0.0421
 1178SOL    HW115167   3.704   0.540   2.633 -0.4483 -0.9762 -0.0459
 1178SOL    HW215168   3.661   0.608   2.513 -0.1411 -0.3262  0.1415
 1179SOL     OW15169   2.958   0.886   9.175 -0.4333 -0.1305  0.2185
 1179SOL    HW115170   2.896   0.950   9.210 -1.7513 -0.1748 -2.0415
 1179SOL    HW215171   2.896   0.835   9.124  0.9276  1.9004 -3.4263
 1180SOL     OW15172   3.613   2.575   6.965 -0.4945  0.4134 -0.5708
 1180SOL    HW115173   3.618   2.592   6.871  0.4681  0.1562 -0.5628
 1180SOL    HW215174   3.518   2.574   6.975 -0.5770  3.7989 -0.8380
 1181SOL     OW15175   1.597   4.333   3.534 -0.4510 -0.6703 -0.2867
 1181SOL    HW115176   1.531   4.360   3.470 -0.3908  1.4318  0.5533
 1181SOL    HW215177   1.557   4.253   3.568 -1.7917 -1.1836 -3.0199
 1182SOL     OW15178   1.201   1.523   2.321 -0.2400 -0.3192 -0.2982
 1182SOL    HW115179   1.164   1.454   2.266 -0.1454 -1.1765  0.7105
 1182SOL    HW215180   1.125   1.576   2.346 -1.9661 -3.5905  1.4390
 1183SOL     OW15181   0.646   0.526   8.551  0.4794 -0.9315 -0.0607
 1183SOL    HW115182   0.641   0.449   8.608 -0.8431 -0.0320  1.0308
 1183SOL    HW215183   0.573   0.579   8.583  0.0542 -1.2402 -0.5149
 1184SOL     OW15184   2.261   3.814   2.581  0.9477 -0.2550  0.1525
 1184SOL    HW115185   2.262   3.909   2.596 -1.2735 -0.2767  0.5153
 1184SOL    HW215186   2.330   3.798   2.517 -1.4835 -1.0107 -2.2948
 1185SOL     OW15187   4.584   3.260   8.085  0.4812  0.5149  0.2034
 1185SOL    HW115188   4.673   3.271   8.119  0.8562  0.6528 -0.8337
 1185SOL    HW215189   4.562   3.353   8.088 -0.8814  0.1545  1.1663
 1186SOL     OW15190   3.495   4.085   8.572 -0.5359 -0.5798 -0.6509
 1186SOL    HW115191   3.576   4.037   8.590 -0.1410  0.4042  0.2215
 1186SOL    HW215192   3.530   4.175   8.571  0.9146 -1.1630 -2.8625
 1187SOL     OW15193   4.236   1.848   8.870 -0.4407 -0.0160  0.5562
 1187SOL    HW115194   4.292   1.794   8.926 -0.6119  1.0529  1.7318
 1187SOL    HW215195   4.189   1.905   8.930 -1.6559  1.7852 -2.1106
 1188SOL     OW15196   3.578   1.889   9.621  0.2942 -0.3160 -0.4464
 1188SOL    HW115197   3.627   1.902   9.539 -0.9875  1.1268 -0.9963
 1188SOL    HW215198   3.518   1.963   9.608  1.6194  0.9976  0.9635
 1189SOL     OW15199   3.688   1.600   9.311 -0.1275 -0.2915 -0.4134
 1189SOL    HW115200   3.593   1.592   9.320 -0.3168  0.7538 -1.5824
 1189SOL    HW215201   3.705   1.694   9.311  0.4042 -0.3897  2.7302
 1190SOL     OW15202   3.624   4.217   4.290 -0.0681 -0.8504 -0.2859
 1190SOL    HW115203   3.662   4.130   4.299  0.5876 -0.5099  0.2861
 1190SOL    HW215204   3.571   4.220   4.369  1.6851  0.9147  0.8360
 1191SOL     OW15205   4.481   2.368   0.039  0.3577 -0.1324  0.5662
 1191SOL    HW115206   4.476   2.444  17.752  1.5775 -0.3716  0.1470
 1191SOL    HW215207   4.574   2.344   0.043 -0.1048 -2.2996 -1.1125
 1192SOL     OW15208   3.238   3.543  15.297 -0.6209 -0.4760  0.1609
 1192SOL    HW115209   3.227   3.620  15.353  0.7666 -1.5257  1.8843
 1192SOL    HW215210   3.150   3.507  15.300 -0.1563 -1.5979  0.1991
 1193SOL     OW15211   3.033   4.192  10.640 -0.0046  0.1790 -0.1728
 1193SOL    HW115212   3.007   4.102  10.659  1.0369 -0.1341 -0.2702
 1193SOL    HW215213   2.954   4.225  10.598  2.0391  1.0923 -3.2723
 1194SOL     OW15214   0.381   0.317   7.413 -0.2394 -0.4172  0.2594
 1194SOL    HW115215   0.301   0.270   7.439  0.6463 -1.1834  1.6265
 1194SOL    HW215216   0.357   0.350   7.327 -1.3935  1.3456  1.2351
 1195SOL     OW15217   0.772   4.463   8.305 -0.1697  0.0208 -0.0032
 1195SOL    HW115218   0.840   4.524   8.332  0.6098 -0.6574 -0.4452
 1195SOL    HW215219   0.743   4.496   8.220 -0.1675  1.8199  0.7054
 1196SOL     OW15220   4.284   0.809   2.669 -0.4435  0.2836 -0.1742
 1196SOL    HW115221   4.208   0.760   2.701 -0.1364  0.1222  0.3115
 1196SOL    HW215222   4.322   0.840   2.751  0.1802  0.6769 -0.6055
 1197SOL     OW15223   2.772   3.514  16.816  0.2211 -0.9170 -0.4746
 1197SOL    HW115224   2.769   3.605  16.843  2.3686 -0.5026 -1.6750
 1197SOL    HW215225   2.861   3.491  16.844  1.1888  2.1365 -1.0556
 1198SOL     OW15226   0.605   4.225   7.217  1.0087 -0.3160 -0.1260
 1198SOL    HW115227   0.640   4.282   7.286  1.4741  0.5824 -1.1095
 1198SOL    HW215228   0.534   4.182   7.266  1.9268 -2.1758 -0.4168
 1199SOL     OW15229   1.052   0.339  16.640  0.1593 -0.2835 -0.4281
 1199SOL    HW115230   1.044   0.245  16.659 -0.7779  0.1730  1.4363
 1199SOL    HW215231   1.118   0.342  16.571  0.9904 -1.3786  0.3194
 1200SOL     OW15232   1.438   2.259  13.646 -0.4433 -0.3989  1.5388
 1200SOL    HW115233   1.364   2.278  13.588  2.1885  0.4826 -1.5656
 1200SOL    HW215234   1.400   2.183  13.690 -1.3610 -1.0930 -0.4573
 1201SOL     OW15235   4.685   2.307   2.525  0.6913 -0.3745  0.2248
 1201SOL    HW115236   4.621   2.277   2.590 -1.1867 -1.2176 -2.0017
 1201SOL    HW215237   4.730   2.225   2.501 -1.9509 -1.4152 -1.1167
 1202SOL     OW15238   0.389   0.207   4.324  0.0554 -0.1370 -0.1023
 1202SOL    HW115239   0.437   0.141   4.373  0.5304  0.1948 -0.1242
 1202SOL    HW215240   0.314   0.153   4.299  0.1307  1.1163 -3.0715
 1203SOL     OW15241   1.132   2.719   9.171  0.1691 -0.0591 -0.3114
 1203SOL    HW115242   1.161   2.628   9.173  1.1074  0.1652 -3.6858
 1203SOL    HW215243   1.213   2.766   9.194 -0.7562  1.4858 -0.2044
 1204SOL     OW15244   0.429   0.053   1.022 -0.7953 -0.4261  0.3063
 1204SOL    HW115245   0.471   0.007   1.094 -3.8362  0.1407  2.4738
 1204SOL    HW215246   0.361   0.101   1.070 -0.2483 -0.2436  0.8955
 1205SOL     OW15247   1.448   2.285   6.950  0.0680  0.3459  0.3339
 1205SOL    HW115248   1.394   2.320   6.879  0.1989 -0.2702 -0.0781
 1205SOL    HW215249   1.434   2.190   6.949 -0.7410  0.4595  1.3743
 1206SOL     OW15250   2.032   4.348   4.220  0.0569  0.3314  0.1374
 1206SOL    HW115251   1.943   4.324   4.248  0.2577 -0.8334 -0.2198
 1206SOL    HW215252   2.065   4.261   4.198 -0.8780 -0.7482  2.9195
 1207SOL     OW15253   2.020   3.434  11.081 -0.2758 -0.2198  0.5735
 1207SOL    HW115254   2.078   3.507  11.061  1.7987 -1.9937  0.0089
 1207SOL    HW215255   1.991   3.447  11.171 -1.3583 -1.9454  0.4758
 1208SOL     OW15256   0.152   2.135   8.164  0.0784  0.1429  0.0821
 1208SOL    HW115257   0.109   2.089   8.093  1.9779  0.0101 -0.9852
 1208SOL    HW215258   0.226   2.182   8.125  0.1740  0.7695  0.9988
 1209SOL     OW15259   0.876   4.227   8.571 -0.1842  0.5015  0.4276
 1209SOL    HW115260   0.913   4.146   8.607  0.8590  0.0876 -1.5561
 1209SOL    HW215261   0.948   4.245   8.510 -0.8264  0.8877 -0.2150
 1210SOL     OW15262   0.026   4.521  13.806  0.2113 -0.1705 -0.8580
 1210SOL    HW115263   0.066   4.454  13.861 -1.0609  0.9303  1.4043
 1210SOL    HW215264   0.081   4.519  13.727  0.1752 -2.3664 -0.8221
 1211SOL     OW15265   1.454   4.651   8.731  0.1613  0.2477 -0.4657
 1211SOL    HW115266   1.438   4.684   8.820 -0.4384  0.4486 -0.6505
 1211SOL    HW215267   1.468   4.558   8.750  0.4720 -0.0139 -2.0464
 1212SOL     OW15268   0.587   1.100   6.972 -0.0181  0.4784  0.2017
 1212SOL    HW115269   0.555   1.051   7.048 -1.5615 -0.5293 -1.1153
 1212SOL    HW215270   0.510   1.154   6.956 -0.6023 -0.2331  0.5991
 1213SOL     OW15271   1.821   1.164   7.904 -0.4663 -0.5691 -0.1241
 1213SOL    HW115272   1.910   1.189   7.926 -0.0754 -1.9822 -0.0959
 1213SOL    HW215273   1.845   1.098   7.839  1.2166  0.0297 -0.0911
 1214SOL     OW15274   4.001   0.147   8.244  0.5102  0.1763 -0.3093
 1214SOL    HW115275   4.057   0.164   8.168 -0.1443  1.3935 -0.5214
 1214SOL    HW215276   3.915   0.135   8.202  1.1779 -1.1912 -1.2768
 1215SOL     OW15277   1.792   3.613   7.457 -0.2312 -0.4756  0.2383
 1215SOL    HW115278   1.706   3.651   7.435  1.2858  2.0851 -1.3100
 1215SOL    HW215279   1.795   3.547   7.388 -0.0726  0.5838 -0.7832
 1216SOL     OW15280   2.635   4.086   4.841  0.2668  0.3383  0.1621
 1216SOL    HW115281   2.672   3.998   4.839 -1.5403 -0.4241 -0.0860
 1216SOL    HW215282   2.612   4.091   4.748  2.0619 -2.2194 -0.4096
 1217SOL     OW15283   0.075   0.390   6.194  0.4458  0.1510  0.6389
 1217SOL    HW115284   0.150   0.359   6.244  0.0422 -1.9650 -0.0582
 1217SOL    HW215285   0.105   0.433   6.115 -1.0193 -0.4689 -0.2583
 1218SOL     OW15286   1.105   3.786   2.215 -0.2675  0.2558  0.0358
 1218SOL    HW115287   1.074   3.782   2.306  0.4383 -0.3036  0.2512
 1218SOL    HW215288   1.134   3.878   2.214  1.7676 -0.3930 -0.3566
 1219SOL     OW15289   2.133   1.629   2.038  0.0081  0.0895  0.0232
 1219SOL    HW115290   2.213   1.626   2.091 -0.1214 -1.1693  0.1470
 1219SOL    HW215291   2.068   1.598   2.101 -0.7801  0.3715 -0.6559
 1220SOL     OW15292   0.905   4.111  17.568 -0.0508 -0.0548  0.0763
 1220SOL    HW115293   0.989   4.066  17.578  0.0221 -0.0523 -0.4804
 1220SOL    HW215294   0.929   4.167  17.494 -0.7812  0.1219 -0.0193
 1221SOL     OW15295   2.101   0.952   8.355 -0.6017 -0.1910 -0.4140
 1221SOL    HW115296   2.065   0.924   8.439 -1.7579 -1.1502 -1.2372
 1221SOL    HW215297   2.035   0.938   8.287  0.6686  0.9333 -1.8804
 1222SOL     OW15298   0.724   1.401   7.650 -0.6484 -0.2708  0.9243
 1222SOL    HW115299   0.706   1.366   7.563 -3.0727  0.0222  1.3027
 1222SOL    HW215300   0.768   1.483   7.631  2.4216 -2.5629 -1.9511
 1223SOL     OW15301   4.005   4.464   9.676  0.4563 -1.1168 -0.0614
 1223SOL    HW115302   4.070   4.415   9.627  0.8836  1.1027 -1.7207
 1223SOL    HW215303   4.058   4.536   9.711 -0.8558 -0.8389  1.3600
 1224SOL     OW15304   1.740   2.602   8.752 -0.0389 -0.2944  0.6104
 1224SOL    HW115305   1.794   2.659   8.807  1.1380 -0.1308 -0.7018
 1224SOL    HW215306   1.662   2.594   8.807 -0.9306  1.4872 -0.3884
 1225SOL     OW15307   2.944   2.146   8.388 -0.1227 -0.5021 -0.2975
 1225SOL    HW115308   2.893   2.193   8.454 -1.1286 -0.2999 -1.2193
 1225SOL    HW215309   2.888   2.141   8.311 -1.3767 -0.9259  0.6491
 1226SOL     OW15310   2.166   3.361  11.779 -0.1073 -0.0923  0.7649
 1226SOL    HW115311   2.207   3.286  11.822  2.4555  0.7358 -0.2265
 1226SOL    HW215312   2.115   3.399  11.850 -0.1513 -1.5849  1.5367
 1227SOL     OW15313   2.864   3.601   4.894  0.0287 -0.1787 -0.3969
 1227SOL    HW115314   2.887   3.539   4.825  0.3121 -0.2527 -0.2388
 1227SOL    HW215315   2.797   3.650   4.846 -0.0595  1.7160  1.6217
 1228SOL     OW15316   0.121   0.453  15.733  0.1240  0.2656 -0.5149
 1228SOL    HW115317   0.155   0.521  15.675  1.9346 -0.7406 -0.6299
 1228SOL    HW215318   0.145   0.484  15.820 -0.8899 -0.6278  0.0824
 1229SOL     OW15319   2.022   2.813   6.313 -0.3310  0.1954  0.1432
 1229SOL    HW115320   1.941   2.826   6.362 -1.1921  0.4216 -1.3491
 1229SOL    HW215321   2.069   2.890   6.345  0.7755 -0.4326  0.0398
 1230SOL     OW15322   4.472   2.117   5.608  0.6696  0.0280 -0.0888
 1230SOL    HW115323   4.410   2.135   5.678  0.6993  1.1708 -0.3566
 1230SOL    HW215324   4.523   2.053   5.657  0.7809  1.8160  2.1338
 1231SOL     OW15325   0.267   2.381   2.218 -0.0542  0.1569  0.3253
 1231SOL    HW115326   0.171   2.374   2.215 -0.0481  0.1081  0.2541
 1231SOL    HW215327   0.274   2.444   2.289 -2.4221  1.2784 -0.4144
 1232SOL     OW15328   3.523   0.259  16.663  0.4683 -0.5027 -0.0077
 1232SOL    HW115329   3.448   0.313  16.638  1.7784  0.1576 -2.5319
 1232SOL    HW215330   3.597   0.319  16.657 -2.9464  3.7753  0.4218
 1233SOL     OW15331   3.035   3.877   7.198  0.0674 -0.2957  0.0423
 1233SOL    HW115332   3.130   3.882   7.207  0.2673 -0.3362 -2.1799
 1233SOL    HW215333   3.021   3.785   7.174  0.1174  0.2352 -2.0304
 1234SOL     OW15334   3.382   4.046   9.593 -0.3830 -0.1939  0.3769
 1234SOL    HW115335   3.412   4.124   9.640  0.6218  1.2083 -2.6280
 1234SOL    HW215336   3.409   4.071   9.505 -0.3467 -1.4622  0.0345
 1235SOL     OW15337   0.977   4.165   8.004 -0.1406  0.0761  1.1343
 1235SOL    HW115338   0.921   4.143   8.078  1.4559 -3.5742  1.2464
 1235SOL    HW215339   0.914   4.233   7.976  1.3541 -0.0365 -2.5418
 1236SOL     OW15340   3.239   0.252   6.838 -0.0514  0.2438 -0.0691
 1236SOL    HW115341   3.284   0.332   6.812  0.5898 -0.9388 -2.5331
 1236SOL    HW215342   3.175   0.237   6.769 -1.0430  0.8665  0.7061
 1237SOL     OW15343   4.386   1.838   3.017 -0.0117 -0.1034  0.5561
 1237SOL    HW115344   4.473   1.864   3.045 -0.3965  1.4822  0.2674
 1237SOL    HW215345   4.356   1.915   2.969 -3.2192 -2.6355 -1.5585
 1238SOL     OW15346   3.868   3.895  10.782  0.0976  0.5698 -0.1306
 1238SOL    HW115347   3.831   3.866  10.865  3.0478  0.0856  1.0186
 1238SOL    HW215348   3.922   3.968  10.811  2.3251 -1.4737  0.8298
 1239SOL     OW15349   0.489   3.445  11.352  0.0685 -0.5069  0.3684
 1239SOL    HW115350   0.407   3.434  11.305 -0.9408  2.7004  1.3958
 1239SOL    HW215351   0.554   3.464  11.285  0.5485  0.4173  1.0878
 1240SOL     OW15352   1.328   3.034   5.235 -0.0697  0.3647  0.1080
 1240SOL    HW115353   1.250   3.024   5.180 -1.2424  0.1222  1.8348
 1240SOL    HW215354   1.310   3.120   5.274  2.0435  0.3643  1.0580
 1241SOL     OW15355   0.627   1.492   8.670  0.1242 -0.3267 -0.4282
 1241SOL    HW115356   0.674   1.465   8.748  0.2972  1.6837  0.1751
 1241SOL    HW215357   0.701   1.519   8.616 -0.8856  1.9197 -0.7263
 1242SOL     OW15358   0.053   4.014   1.046 -0.1189 -0.0688 -0.0043
 1242SOL    HW115359   0.112   4.081   1.081 -0.0203  0.0038 -0.3069
 1242SOL    HW215360   0.028   4.044   0.959 -1.0713 -1.9306 -0.3762
 1243SOL     OW15361   4.351   0.315  10.737  0.0312 -0.1575  0.6329
 1243SOL    HW115362   4.256   0.321  10.747 -0.3962  0.7373 -4.3171
 1243SOL    HW215363   4.370   0.408  10.732 -0.2476 -0.1278  0.1143
 1244SOL     OW15364   1.927   1.027   7.638 -0.6431 -0.1619  0.4744
 1244SOL    HW115365   1.984   0.950   7.636  0.5646  0.7227  0.8963
 1244SOL    HW215366   1.874   1.027   7.558  1.0900  1.7917 -0.6859
 1245SOL     OW15367   0.078   0.234   1.891  0.0147  0.0067  0.5874
 1245SOL    HW115368   0.072   0.209   1.799 -0.6046  1.2983  0.2737
 1245SOL    HW215369   0.008   0.187   1.936  0.4987 -3.6278 -2.4068
 1246SOL     OW15370   3.305   4.648   5.758  0.4289  0.0037 -0.0723
 1246SOL    HW115371   3.310   4.720   5.822  0.2323  0.8066 -0.9584
 1246SOL    HW215372   3.260   4.691   5.685  2.2428 -2.3931 -2.5773
 1247SOL     OW15373   3.631   2.490   2.607  0.5783 -0.1630 -0.4725
 1247SOL    HW115374   3.546   2.456   2.635 -0.0353  3.2084  1.7243
 1247SOL    HW215375   3.617   2.583   2.590  0.1772  0.0639  1.0939
 1248SOL     OW15376   3.443   2.338  10.407  0.0984 -0.2441 -0.1894
 1248SOL    HW115377   3.489   2.260  10.438  1.3388  0.5464 -0.0733
 1248SOL    HW215378   3.366   2.341  10.463  0.5706  1.6219  0.3428
 1249SOL     OW15379   2.581   2.838   2.641  0.3995 -0.2405  0.0790
 1249SOL    HW115380   2.512   2.783   2.603  1.6146 -1.6634 -0.0720
 1249SOL    HW215381   2.569   2.927   2.608 -0.4696  0.2527  1.6861
 1250SOL     OW15382   3.281   3.542  17.095  0.3178  0.0593 -0.3899
 1250SOL    HW115383   3.356   3.483  17.105  0.0646 -0.0383  0.9207
 1250SOL    HW215384   3.323   3.623  17.063  2.6753 -1.0305 -0.0765
 1251SOL     OW15385   0.205   3.692  15.931  0.4135 -0.2003  0.0022
 1251SOL    HW115386   0.135   3.745  15.970  1.2029  0.3818  0.6268
 1251SOL    HW215387   0.208   3.737  15.847 -1.6046 -0.1761 -0.0663
 1252SOL     OW15388   1.997   3.395   8.724 -0.2837 -0.2314  0.5126
 1252SOL    HW115389   2.037   3.354   8.648 -0.4074 -1.4974  1.1314
 1252SOL    HW215390   1.929   3.453   8.689  1.2823  2.0315  1.1719
 1253SOL     OW15391   2.966   1.926   3.498 -0.1646 -1.1803 -0.3499
 1253SOL    HW115392   3.004   1.862   3.558 -1.7044 -1.3569  0.4531
 1253SOL    HW215393   2.966   2.004   3.552 -0.6561 -1.0872 -0.4820
 1254SOL     OW15394   0.428   3.867   5.744 -0.2285  0.2169  0.5927
 1254SOL    HW115395   0.460   3.906   5.825  2.0456  0.2283 -0.2904
 1254SOL    HW215396   0.424   3.947   5.691 -1.5251 -0.9083 -1.0110
 1255SOL     OW15397   1.387   3.345   4.354 -0.0031 -0.0538  0.4468
 1255SOL    HW115398   1.433   3.277   4.404  0.5381 -0.2310 -0.2845
 1255SOL    HW215399   1.299   3.323   4.383 -0.6140  1.3185 -0.3954
 1256SOL     OW15400   2.943   1.697   9.344  0.4698 -0.4595 -0.3592
 1256SOL    HW115401   2.854   1.694   9.308  1.1384 -0.3926 -2.0077
 1256SOL    HW215402   2.951   1.624   9.404  1.9947  0.5083  0.6203
 1257SOL     OW15403   3.849   4.586   9.079  0.3154  0.5181  0.0682
 1257SOL    HW115404   3.767   4.633   9.064 -0.6343 -0.2359  2.9373
 1257SOL    HW215405   3.819   4.497   9.097 -0.0480  0.5956 -0.1404
 1258SOL     OW15406   2.859   2.063   9.874  0.6154 -0.2688  0.2361
 1258SOL    HW115407   2.954   2.053   9.868  0.5166 -0.9229 -0.2835
 1258SOL    HW215408   2.867   2.157   9.891 -0.6431 -0.3432  1.2090
 1259SOL     OW15409   3.133   0.087   3.082  0.4540  0.1121 -0.2680
 1259SOL    HW115410   3.132   0.110   2.989 -1.3189 -0.0940 -0.3028
 1259SOL    HW215411   3.038   0.095   3.091  0.7027  1.1251  1.5533
 1260SOL     OW15412   3.802   3.816   2.235 -0.8375 -0.7113  0.4801
 1260SOL    HW115413   3.865   3.885   2.254  0.3008 -1.4434 -0.6050
 1260SOL    HW215414   3.749   3.828   2.313  1.7719 -3.2106  2.6129
 1261SOL     OW15415   1.643   3.471   3.512 -0.2617 -0.0672 -0.5491
 1261SOL    HW115416   1.592   3.546   3.482 -2.0575 -0.9764  0.2256
 1261SOL    HW215417   1.657   3.406   3.443  3.6459 -1.0568  1.1382
 1262SOL     OW15418   2.582   0.631   9.485  0.1579 -0.1872 -0.6150
 1262SOL    HW115419   2.531   0.598   9.559 -1.6299  0.8643 -1.3578
 1262SOL    HW215420   2.549   0.720   9.472 -0.3160 -0.3893 -0.7999
 1263SOL     OW15421   3.440   0.404  11.804  0.1525  0.2718  0.3104
 1263SOL    HW115422   3.396   0.467  11.861  0.8708  1.8006 -0.8245
 1263SOL    HW215423   3.524   0.446  11.825 -0.5983  2.1858 -0.4910
 1264SOL     OW15424   3.866   0.337  11.777  0.0285  0.2759  0.0953
 1264SOL    HW115425   3.803   0.355  11.707 -1.3169 -2.0957  0.7246
 1264SOL    HW215426   3.944   0.386  11.751  1.0971 -0.7673  1.3705
 1265SOL     OW15427   2.986   3.358   8.140 -0.4205  0.1013 -0.2117
 1265SOL    HW115428   3.076   3.390   8.127 -0.5393  0.7909  0.6560
 1265SOL    HW215429   2.996   3.264   8.123 -0.5334 -0.1376  1.0269
 1266SOL     OW15430   2.607   0.157   4.371 -0.2519 -0.0866  0.4988
 1266SOL    HW115431   2.550   0.083   4.394 -1.5249  1.4126  2.1518
 1266SOL    HW215432   2.594   0.166   4.277 -1.5465  0.2175  0.6993
 1267SOL     OW15433   3.001   0.378   9.341  0.0597 -0.5651 -0.6131
 1267SOL    HW115434   2.957   0.293   9.343 -2.1666  0.5960  0.3173
 1267SOL    HW215435   2.933   0.423   9.390  2.0856  3.0818 -1.1481
 1268SOL     OW15436   2.210   0.525   2.058 -0.0500 -0.0546  0.3376
 1268SOL    HW115437   2.250   0.539   2.144 -1.7193 -3.4002  1.6313
 1268SOL    HW215438   2.134   0.583   2.064 -0.0563 -0.1725  1.4208
 1269SOL     OW15439   0.542   3.086   4.816  0.2856  0.0102 -0.5445
 1269SOL    HW115440   0.460   3.134   4.802 -0.7565 -1.3000  1.0049
 1269SOL    HW215441   0.518   3.035   4.893  1.4436  0.4114  0.0791
 1270SOL     OW15442   2.727   2.974   1.612  0.1622  0.1453  0.2977
 1270SOL    HW115443   2.733   2.879   1.620 -0.1981  0.4112  3.9588
 1270SOL    HW215444   2.820   2.997   1.613 -0.4351  2.6027 -0.1834
 1271SOL     OW15445   0.478   3.797   2.489  0.1709  0.5323 -0.1219
 1271SOL    HW115446   0.431   3.738   2.547  0.7212  0.0210 -0.1949
 1271SOL    HW215447   0.560   3.748   2.484  1.6893  3.1182 -0.8171
 1272SOL     OW15448   3.722   1.553   6.116 -0.4291  0.1858 -0.4317
 1272SOL    HW115449   3.705   1.587   6.204 -1.5574 -0.0422 -0.5633
 1272SOL    HW215450   3.773   1.474   6.135 -0.6464  0.2955  0.5998
 1273SOL     OW15451   3.748   0.052   5.288  0.1419 -0.6421  0.2992
 1273SOL    HW115452   3.790   0.118   5.233  0.6022 -2.3392 -1.4034
 1273SOL    HW215453   3.813   0.045   5.358  1.6702  1.2918 -0.9349
 1274SOL     OW15454   2.186   2.791   9.673  0.2490  0.2694  0.0829
 1274SOL    HW115455   2.199   2.704   9.710  0.5610 -0.3140 -1.4288
 1274SOL    HW215456   2.258   2.801   9.611 -3.3266  0.2135 -4.0283
 1275SOL     OW15457   3.833   2.468   3.334  0.2362 -0.1912  0.0961
 1275SOL    HW115458   3.837   2.391   3.277 -1.6591 -0.7207  0.6663
 1275SOL    HW215459   3.740   2.487   3.344 -0.2268 -2.3782 -0.0141
 1276SOL     OW15460   1.178   3.509   3.728 -0.1418  0.4325 -0.0444
 1276SOL    HW115461   1.152   3.458   3.804 -1.6476 -0.6947 -1.3375
 1276SOL    HW215462   1.258   3.548   3.765 -1.5364  1.1591  2.2664
 1277SOL     OW15463   1.931   2.788  12.899 -0.0804 -0.5614 -0.6445
 1277SOL    HW115464   1.922   2.883  12.902 -0.1554 -0.5383 -1.6034
 1277SOL    HW215465   1.983   2.773  12.978 -1.2693 -1.2425  0.0020
 1278SOL     OW15466   0.018   3.423  15.945  0.6009 -0.2063 -0.0225
 1278SOL    HW115467   0.046   3.369  16.019 -0.7988 -2.5819 -1.2204
 1278SOL    HW215468   0.092   3.484  15.941  0.8735 -0.4616  1.2159
 1279SOL     OW15469   2.888   0.427   8.396  0.2660 -0.4434 -0.5445
 1279SOL    HW115470   2.950   0.466   8.458 -0.9756  1.0890 -0.2656
 1279SOL    HW215471   2.935   0.427   8.313  1.6352  0.2922  0.2441
 1280SOL     OW15472   2.951   0.229  13.124 -0.4405 -0.1278 -0.3194
 1280SOL    HW115473   2.943   0.236  13.029  0.1804  0.1604 -0.3489
 1280SOL    HW215474   3.044   0.233  13.146 -0.1225  1.3477 -1.9401
 1281SOL     OW15475   2.558   0.097  13.695  0.1280  0.2018  0.1371
 1281SOL    HW115476   2.514   0.124  13.775 -0.4605  0.1375 -0.1641
 1281SOL    HW215477   2.624   0.038  13.731 -1.0797 -1.6784 -0.6771
 1282SOL     OW15478   2.242   0.571   2.879  0.1671 -0.1309 -0.0485
 1282SOL    HW115479   2.278   0.484   2.894  0.2547 -0.0306  0.3069
 1282SOL    HW215480   2.310   0.602   2.820 -1.5092  4.1712  0.2784
 1283SOL     OW15481   1.620   1.056   8.731  0.8427  0.1290  0.5740
 1283SOL    HW115482   1.612   1.020   8.642  0.1301 -1.2048  1.1785
 1283SOL    HW215483   1.690   1.007   8.774  0.8721 -0.6037 -0.3166
 1284SOL     OW15484   2.942   3.597  15.861 -0.6834 -0.2937 -0.4508
 1284SOL    HW115485   2.998   3.522  15.843  0.6729  0.6463 -0.1205
 1284SOL    HW215486   2.909   3.575  15.948 -2.7630 -0.3137 -1.2287
 1285SOL     OW15487   1.134   0.161   8.774  0.2709  0.4265  0.1532
 1285SOL    HW115488   1.170   0.177   8.686  0.9496 -2.7855 -0.1569
 1285SOL    HW215489   1.205   0.113   8.816 -0.4560 -0.3351  0.5078
 1286SOL     OW15490   3.073   3.232   4.997 -0.1929 -0.2857 -0.1092
 1286SOL    HW115491   2.998   3.213   4.941  0.8234 -2.0874 -0.8448
 1286SOL    HW215492   3.063   3.326   5.012 -1.7035 -0.5307  0.3709
 1287SOL     OW15493   0.761   1.497   5.409 -0.1674 -0.1963 -0.2159
 1287SOL    HW115494   0.846   1.475   5.371 -1.1437 -2.9071 -0.8082
 1287SOL    HW215495   0.789   1.520   5.497 -0.5989 -2.3312  0.4728
 1288SOL     OW15496   0.927   0.111   1.062  0.2595 -0.4232  0.4190
 1288SOL    HW115497   0.852   0.156   1.023  0.7308 -0.6313 -0.7340
 1288SOL    HW215498   0.928   0.147   1.150  0.6073  0.4617  0.0546
 1289SOL     OW15499   0.183   4.668   0.277 -0.6720  0.0580 -0.5301
 1289SOL    HW115500   0.094   4.634   0.286  0.6826 -3.8290 -1.7503
 1289SOL    HW215501   0.235   4.600   0.321 -3.9727 -2.3890 -0.4157
 1290SOL     OW15502   4.580   0.242   7.245  0.1231 -0.1777 -0.1512
 1290SOL    HW115503   4.504   0.199   7.284  1.3873 -2.0413  0.2625
 1290SOL    HW215504   4.645   0.172   7.244  1.1543  0.7892 -0.5506
 1291SOL     OW15505   3.967   3.125   2.735  0.0902  0.1719 -0.0212
 1291SOL    HW115506   4.020   3.134   2.814 -0.5816 -3.1886  0.7787
 1291SOL    HW215507   3.888   3.082   2.768  0.7161  0.0984  1.3538
 1292SOL     OW15508   1.492   2.782   8.867  0.4637 -0.1070  0.5516
 1292SOL    HW115509   1.525   2.852   8.923  2.7040 -0.9987  0.3219
 1292SOL    HW215510   1.407   2.821   8.847 -0.2466 -1.7683  0.2789
 1293SOL     OW15511   3.395   1.010   4.114  0.1794  0.5404 -0.2330
 1293SOL    HW115512   3.466   1.074   4.113  0.6648 -0.0682 -4.0667
 1293SOL    HW215513   3.402   0.970   4.201  0.0089 -0.6077 -0.7466
 1294SOL     OW15514   4.507   4.716   2.449 -0.0177  0.3415  0.3449
 1294SOL    HW115515   4.486   4.732   2.541 -3.0530  0.0670 -0.2968
 1294SOL    HW215516   4.593   0.013   2.457 -0.6179  1.5486  0.7077
 1295SOL     OW15517   4.571   0.143  14.723  0.4473 -0.3897 -0.0899
 1295SOL    HW115518   4.615   0.218  14.683  2.7165 -0.9805  1.2953
 1295SOL    HW215519   4.594   0.069  14.666  2.3520 -0.8162  1.2314
 1296SOL     OW15520   1.286   1.956   6.028 -0.0121 -0.6260  0.2096
 1296SOL    HW115521   1.223   1.983   5.961 -2.1842  2.1639  3.3807
 1296SOL    HW215522   1.327   1.889   5.973 -1.1702 -2.7980  1.9895
 1297SOL     OW15523   0.319   1.128   4.177 -0.8818  0.2169 -0.3714
 1297SOL    HW115524   0.375   1.097   4.248 -1.9454  0.3795  0.5263
 1297SOL    HW215525   0.254   1.179   4.224  1.5269  2.5060  0.4299
 1298SOL     OW15526   2.075   3.464   8.015  0.2145 -0.1474  0.5710
 1298SOL    HW115527   2.084   3.534   7.950  0.9491  0.6346  1.5154
 1298SOL    HW215528   2.155   3.413   8.003  0.3597  0.1644  0.1963
 1299SOL     OW15529   1.619   1.215   5.574 -0.4608 -0.6332 -0.6040
 1299SOL    HW115530   1.587   1.271   5.644 -1.1232 -0.7654 -0.8071
 1299SOL    HW215531   1.603   1.132   5.620  1.1515 -0.4884  0.2358
 1300SOL     OW15532   3.572   3.343  14.116 -0.4134 -0.3190 -0.4068
 1300SOL    HW115533   3.662   3.377  14.114 -0.2181 -0.8389 -0.5165
 1300SOL    HW215534   3.529   3.371  14.196  2.9863  1.8143  0.6664
 1301SOL     OW15535   0.072   2.746   9.924 -0.2552 -0.1347  0.2388
 1301SOL    HW115536   0.137   2.700   9.871  0.1014  0.7098 -0.0547
 1301SOL    HW215537   0.007   2.785   9.866 -1.3513  0.0349  1.5701
 1302SOL     OW15538   4.708   3.554   9.463  0.4072  0.3341 -0.7385
 1302SOL    HW115539   4.730   3.574   9.372  0.5110 -0.7667 -0.9507
 1302SOL    HW215540   4.645   3.485   9.441  0.2056  0.8867 -1.8950
 1303SOL     OW15541   3.334   3.165  12.798 -0.0959 -0.6950  0.5279
 1303SOL    HW115542   3.387   3.087  12.817  1.7566 -0.2387 -2.7440
 1303SOL    HW215543   3.261   3.150  12.858 -1.1298  1.8447 -0.0891
 1304SOL     OW15544   0.968   3.262   1.775 -0.5519  0.1651  0.8016
 1304SOL    HW115545   0.988   3.341   1.825 -1.4277  1.6318 -1.1971
 1304SOL    HW215546   1.053   3.250   1.730 -0.7206  0.7434  0.3332
 1305SOL     OW15547   2.130   4.489  12.289 -0.0634  0.8002 -0.8859
 1305SOL    HW115548   2.117   4.485  12.383 -2.3041 -3.4928 -1.4002
 1305SOL    HW215549   2.077   4.566  12.267 -1.2650  0.1212 -0.3557
 1306SOL     OW15550   2.883   2.399   4.933  0.3960  0.2882  0.0088
 1306SOL    HW115551   2.920   2.449   5.005 -1.5967 -1.8094  2.5047
 1306SOL    HW215552   2.918   2.311   4.943 -0.8185 -0.1594  0.3175
 1307SOL     OW15553   1.230   2.560   2.078 -0.5193 -0.0792  0.3973
 1307SOL    HW115554   1.272   2.638   2.115  0.0406 -0.2621  0.1552
 1307SOL    HW215555   1.285   2.545   2.001  0.9797  0.8598  1.2746
 1308SOL     OW15556   0.583   4.129  11.447  0.6035  0.6354  0.4396
 1308SOL    HW115557   0.673   4.097  11.456  1.5814  3.1439 -0.4898
 1308SOL    HW215558   0.568   4.140  11.354 -2.5446 -0.1525  0.8762
 1309SOL     OW15559   3.943   0.079   5.470 -0.0800  0.9467  0.5613
 1309SOL    HW115560   3.966   0.076   5.563 -0.3249 -0.5219  0.5771
 1309SOL    HW215561   4.024   0.084   5.420  0.8693  0.6505  2.0605
 1310SOL     OW15562   4.165   1.443  13.001 -0.0352 -0.8790 -0.0035
 1310SOL    HW115563   4.189   1.472  12.913  0.7638  1.7624  1.1133
 1310SOL    HW215564   4.205   1.506  13.060  1.4281 -1.0544 -0.8265
 1311SOL     OW15565   1.975   2.544   4.931  0.1061  0.0886  0.6038
 1311SOL    HW115566   1.917   2.620   4.926  0.5708  0.4872  1.3514
 1311SOL    HW215567   2.026   2.568   5.008 -1.0577  1.7932  0.8517
 1312SOL     OW15568   0.169   2.962  17.143  0.0560  0.4545  0.0827
 1312SOL    HW115569   0.215   2.882  17.170  4.1851  2.4140 -1.1270
 1312SOL    HW215570   0.112   2.929  17.074  1.8915  1.0419 -1.7070
 1313SOL     OW15571   1.911   1.083  12.745 -0.6237  0.1028  0.1810
 1313SOL    HW115572   1.907   1.110  12.653 -0.2614  0.2311  0.2064
 1313SOL    HW215573   1.825   1.103  12.783 -0.2756  0.3039  0.8453
 1314SOL     OW15574   3.794   4.682   6.469 -1.0151 -0.1860  0.0445
 1314SOL    HW115575   3.793   4.587   6.484 -2.8941 -0.4455 -1.6319
 1314SOL    HW215576   3.880   4.709   6.500 -1.1589  1.3094 -0.8928
 1315SOL     OW15577   3.373   2.568   4.185 -0.5850 -0.7178 -0.4571
 1315SOL    HW115578   3.365   2.649   4.235 -0.1220 -1.2983  0.5457
 1315SOL    HW215579   3.469   2.567   4.180 -0.5327  1.7240  0.2398
 1316SOL     OW15580   2.646   3.965   5.313 -0.5683 -0.0639  0.4484
 1316SOL    HW115581   2.720   4.001   5.362  0.5403 -1.7278  0.0369
 1316SOL    HW215582   2.612   4.045   5.273  1.0675  0.9376  1.0891
 1317SOL     OW15583   0.258   2.608   4.898 -0.5089 -0.7400 -0.2369
 1317SOL    HW115584   0.230   2.666   4.969  1.6853  0.7266 -0.5558
 1317SOL    HW215585   0.241   2.529   4.949  2.0672 -1.1464 -0.0108
 1318SOL     OW15586   0.991   1.742   2.345  0.3451  0.4560  0.1047
 1318SOL    HW115587   0.907   1.768   2.384  0.7368  2.2079 -0.2526
 1318SOL    HW215588   1.036   1.782   2.419  1.3603 -0.8283  0.1963
 1319SOL     OW15589   0.032   1.578   1.562  0.2683 -0.0616  0.0844
 1319SOL    HW115590   0.120   1.557   1.530 -0.0133 -0.0672 -0.6826
 1319SOL    HW215591   4.729   1.516   1.505 -2.3191  0.9909  1.0769
 1320SOL     OW15592   2.545   3.480  17.595 -0.4841 -0.0723 -0.3855
 1320SOL    HW115593   2.494   3.525  17.527 -1.3174 -1.5584 -0.7548
 1320SOL    HW215594   2.488   3.491  17.671  0.1273  1.4708 -0.1370
 1321SOL     OW15595   3.696   4.101   9.523  0.0286 -0.0103 -0.7132
 1321SOL    HW115596   3.704   4.015   9.481  0.1316 -0.1990 -0.3068
 1321SOL    HW215597   3.772   4.143   9.484  1.8376 -2.6156 -0.0031
 1322SOL     OW15598   2.098   0.692   3.075  0.0979 -0.0420 -0.1732
 1322SOL    HW115599   2.152   0.640   3.016  0.4268 -1.7324  1.6250
 1322SOL    HW215600   2.107   0.782   3.043  1.8064 -0.1869 -0.0791
 1323SOL     OW15601   4.239   0.546   3.695  0.1202  0.6630  0.2840
 1323SOL    HW115602   4.230   0.606   3.769  2.0733  0.4433  0.6885
 1323SOL    HW215603   4.244   0.466   3.748  0.2167 -0.7214 -1.7909
 1324SOL     OW15604   4.667   2.368   9.338 -0.4663  0.2265 -0.1080
 1324SOL    HW115605   4.629   2.301   9.283 -0.7359  0.3723 -0.0993
 1324SOL    HW215606   4.604   2.440   9.341  2.0637  2.5193 -1.2220
 1325SOL     OW15607   1.218   0.354   2.770 -0.4058 -0.4277  0.1868
 1325SOL    HW115608   1.258   0.301   2.839  1.8929 -1.7552 -2.1833
 1325SOL    HW215609   1.237   0.288   2.703 -1.7920 -2.0338  1.3835
 1326SOL     OW15610   2.420   0.612  10.178 -0.1164  0.1527 -0.1666
 1326SOL    HW115611   2.473   0.691  10.184 -1.2178  0.9971 -1.8543
 1326SOL    HW215612   2.432   0.578  10.267  0.5093  0.1213 -0.2591
 1327SOL     OW15613   4.659   2.427  17.061  0.1005  0.0390 -0.3461
 1327SOL    HW115614   4.655   2.507  17.113  1.5392  0.2150 -0.5309
 1327SOL    HW215615   4.702   2.460  16.983  2.5037 -1.2316  0.4520
 1328SOL     OW15616   3.093   2.354  13.991  0.2857 -0.5546  0.4831
 1328SOL    HW115617   3.121   2.401  13.913 -0.8663  0.6559  0.8003
 1328SOL    HW215618   3.073   2.430  14.045 -3.1125 -1.3390  0.3323
 1329SOL     OW15619   1.209   3.714   1.174 -0.8050  0.5785  0.2956
 1329SOL    HW115620   1.253   3.658   1.109  0.0898 -1.0552  2.3016
 1329SOL    HW215621   1.270   3.786   1.188 -0.9245  0.7214  0.0843
 1330SOL     OW15622   3.413   3.845   7.931  0.2186 -0.1542  0.2057
 1330SOL    HW115623   3.450   3.898   8.002  1.1047  0.1434 -0.4934
 1330SOL    HW215624   3.331   3.890   7.911  0.4381 -1.3036 -3.1150
 1331SOL     OW15625   3.121   3.820   5.083  0.6228  0.5435 -0.5656
 1331SOL    HW115626   3.139   3.865   5.000  0.6051  0.2684 -0.7185
 1331SOL    HW215627   3.147   3.728   5.073  1.9205  1.0376 -1.6987
 1332SOL     OW15628   2.940   3.955  10.779  0.1326  0.2821 -0.3466
 1332SOL    HW115629   2.920   3.869  10.742  1.5397 -0.3197  0.3012
 1332SOL    HW215630   2.924   3.938  10.872  1.6181  1.5126  0.1314
 1333SOL     OW15631   2.935   1.527   5.950  0.4795  0.1917  0.5411
 1333SOL    HW115632   2.939   1.450   5.893  1.9982  0.8634 -0.2357
 1333SOL    HW215633   2.887   1.502   6.029 -0.5597  2.3702  0.5775
 1334SOL     OW15634   2.290   2.498   3.937 -0.0693 -0.3044  0.1167
 1334SOL    HW115635   2.196   2.491   3.954  0.0407 -0.2425  0.7445
 1334SOL    HW215636   2.292   2.593   3.922  2.4845 -0.6557 -1.6867
 1335SOL     OW15637   2.843   4.414   6.572  0.0334  0.3577  0.0467
 1335SOL    HW115638   2.751   4.410   6.599 -0.4574 -2.6038 -2.1428
 1335SOL    HW215639   2.879   4.353   6.636 -0.2000  0.0383 -0.1290
 1336SOL     OW15640   1.674   2.271   1.270 -0.3438 -0.5862  0.4256
 1336SOL    HW115641   1.606   2.223   1.318 -0.6797  0.6395  1.1802
 1336SOL    HW215642   1.698   2.342   1.329 -1.5838 -1.1137  1.5483
 1337SOL     OW15643   3.924   2.710   5.956 -0.2179  0.1022 -0.1687
 1337SOL    HW115644   4.005   2.674   5.992 -0.4347  1.7975  2.0235
 1337SOL    HW215645   3.939   2.702   5.862 -2.1687 -1.0402 -0.3695
 1338SOL     OW15646   1.145   2.485   5.879  0.4082  0.1226 -0.2709
 1338SOL    HW115647   1.061   2.453   5.912  1.3846 -0.3630  1.8148
 1338SOL    HW215648   1.202   2.471   5.956  0.1036 -3.0550 -0.6231
 1339SOL     OW15649   0.016   3.374   4.494 -0.1741 -0.3162 -0.3057
 1339SOL    HW115650   0.050   3.413   4.413  0.3386 -2.9921 -1.3781
 1339SOL    HW215651   4.665   3.371   4.483 -0.5736  0.8536  2.7429
 1340SOL     OW15652   3.377   1.104  11.530  0.3599 -0.5697  0.1640
 1340SOL    HW115653   3.369   1.027  11.586 -0.5186 -1.4772 -1.2000
 1340SOL    HW215654   3.317   1.160  11.579  0.0324 -1.3879  0.7075
 1341SOL     OW15655   4.008   1.352  10.830  0.2981 -0.6862 -0.0727
 1341SOL    HW115656   4.047   1.266  10.842  0.0635 -0.9844 -1.5253
 1341SOL    HW215657   4.074   1.416  10.858  1.3679 -1.5925 -0.5460
 1342SOL     OW15658   1.953   1.076  13.511 -0.1600 -0.6592  0.0494
 1342SOL    HW115659   1.875   1.086  13.456  1.2181  0.8063 -1.6293
 1342SOL    HW215660   1.955   1.164  13.549  0.8332  0.5628 -2.7690
 1343SOL     OW15661   2.220   2.191  16.988  0.1144 -0.9222 -0.1279
 1343SOL    HW115662   2.181   2.274  16.959  1.7494 -0.3648 -0.7558
 1343SOL    HW215663   2.162   2.155  17.054  0.6783 -1.4803  0.0550
 1344SOL     OW15664   1.967   0.954   6.049 -0.0411  0.5511  0.0927
 1344SOL    HW115665   2.043   0.898   6.031 -0.3308  0.1684  0.0693
 1344SOL    HW215666   1.999   1.041   6.025 -1.5351  0.8980 -0.5760
 1345SOL     OW15667   4.153   1.227   9.164  0.6168  0.2934  0.2756
 1345SOL    HW115668   4.160   1.305   9.108  1.7495  1.3041  1.8177
 1345SOL    HW215669   4.214   1.170   9.118  1.4943  3.0602 -2.0270
 1346SOL     OW15670   0.515   3.726   2.842  0.2212  0.3962  0.2018
 1346SOL    HW115671   0.519   3.822   2.847  0.5155  0.3484  0.8725
 1346SOL    HW215672   0.427   3.724   2.804 -1.3430 -1.6078  3.9675
 1347SOL     OW15673   4.564   2.512   3.774 -0.4598  0.8936  0.1474
 1347SOL    HW115674   4.538   2.540   3.861  0.9021  1.3361  0.4125
 1347SOL    HW215675   4.603   2.596   3.749 -0.9133  1.0144 -0.1576
 1348SOL     OW15676   1.654   1.579   4.096 -0.3384  0.4011  0.2106
 1348SOL    HW115677   1.726   1.574   4.032  2.0753 -1.3921  3.0344
 1348SOL    HW215678   1.632   1.671   4.103  0.0228  0.5441 -0.4695
 1349SOL     OW15679   1.325   1.007  16.405  0.3761 -0.3535 -0.1463
 1349SOL    HW115680   1.312   1.048  16.319 -2.4971  0.4422  0.6699
 1349SOL    HW215681   1.286   0.926  16.372 -0.3634 -0.9926  2.3337
 1350SOL     OW15682   1.649   3.226   2.833 -0.2428 -0.3964 -0.0577
 1350SOL    HW115683   1.624   3.241   2.924  1.6935  0.3493  0.3401
 1350SOL    HW215684   1.590   3.153   2.815 -2.0857  0.6580  1.7262
 1351SOL     OW15685   3.823   1.417   7.259 -0.0823  0.1917  0.5072
 1351SOL    HW115686   3.758   1.486   7.264  2.2129  2.3545  0.4927
 1351SOL    HW215687   3.783   1.346   7.210  1.6598 -0.3259 -0.1779
 1352SOL     OW15688   2.593   1.263   9.531  0.3348  0.0877 -0.0652
 1352SOL    HW115689   2.635   1.342   9.498  1.5306 -1.0008 -1.1352
 1352SOL    HW215690   2.652   1.226   9.597 -2.3565  0.4212  2.5551
 1353SOL     OW15691   2.963   2.163   4.207  0.2872  0.4250  0.0180
 1353SOL    HW115692   2.952   2.127   4.118 -0.1735  1.4127 -0.3239
 1353SOL    HW215693   3.058   2.157   4.216  0.1958  0.3441  0.8518
 1354SOL     OW15694   4.539   1.570   8.377  0.7941  0.0659 -0.5664
 1354SOL    HW115695   4.448   1.550   8.396  0.4662  0.3458 -1.8394
 1354SOL    HW215696   4.549   1.498   8.316 -0.0766  0.7475 -1.5040
 1355SOL     OW15697   3.098   0.078  10.221  0.4252  0.1613 -0.6252
 1355SOL    HW115698   3.124   0.135  10.150  0.8469  1.2135  0.3790
 1355SOL    HW215699   3.183   0.076  10.265 -0.6057 -0.0610  1.3613
 1356SOL     OW15700   3.831   0.765   5.276 -0.0696 -0.4933  0.2570
 1356SOL    HW115701   3.856   0.827   5.344 -0.8818 -1.1643  1.1638
 1356SOL    HW215702   3.774   0.815   5.218 -0.7538 -0.9600  0.5262
 1357SOL     OW15703   1.351   1.340   2.537  0.5338 -0.3683 -0.0094
 1357SOL    HW115704   1.352   1.256   2.582  1.7064 -0.5276 -0.3196
 1357SOL    HW215705   1.321   1.304   2.453 -0.4707 -0.7862  0.5392
 1358SOL     OW15706   2.244   1.015   5.547 -0.2743 -0.1058 -0.0933
 1358SOL    HW115707   2.299   0.981   5.617  3.5368  0.7896 -2.6350
 1358SOL    HW215708   2.157   0.995   5.584 -0.5975  0.0932 -0.7425
 1359SOL     OW15709   0.378   2.862   3.542  0.1414  1.0082 -0.4888
 1359SOL    HW115710   0.459   2.832   3.583 -1.9396 -1.3092  1.9567
 1359SOL    HW215711   0.317   2.813   3.598  0.6114  1.4964  0.4534
 1360SOL     OW15712   1.062   1.840   4.183  0.2846 -0.1673  0.1457
 1360SOL    HW115713   1.104   1.836   4.269 -1.4827  0.1509  1.0245
 1360SOL    HW215714   1.010   1.760   4.195  1.5814 -0.8204  1.5440
 1361SOL     OW15715   3.971   0.963   6.333  0.3965  0.8217 -0.0211
 1361SOL    HW115716   3.898   0.941   6.276  0.4878 -1.4515  0.7144
 1361SOL    HW215717   4.019   1.022   6.275  3.4733 -1.3395  0.2722
 1362SOL     OW15718   3.437   2.697   8.102 -0.3452  0.0903 -0.1078
 1362SOL    HW115719   3.508   2.704   8.166  0.8097 -2.5945 -1.1032
 1362SOL    HW215720   3.489   2.680   8.024 -0.4303  1.5126 -0.4810
 1363SOL     OW15721   0.975   3.946   8.596 -0.3539  0.1116  0.7122
 1363SOL    HW115722   1.034   3.927   8.523  0.1775 -0.3993  1.2791
 1363SOL    HW215723   0.919   3.868   8.592 -0.0547  0.0530 -2.6298
 1364SOL     OW15724   3.670   4.087  11.208  0.1823  0.4446  0.4083
 1364SOL    HW115725   3.594   4.031  11.191  0.9337 -0.1153 -1.0664
 1364SOL    HW215726   3.671   4.079  11.304  1.4897  0.7705  0.4287
 1365SOL     OW15727   3.348   2.569  12.443  0.9025  0.0859  0.7423
 1365SOL    HW115728   3.398   2.594  12.521  3.0763  0.9353 -0.9587
 1365SOL    HW215729   3.356   2.651  12.394 -0.4139 -1.7048 -2.4774
 1366SOL     OW15730   1.518   4.649   6.092  0.6492 -0.6704  0.0473
 1366SOL    HW115731   1.482   4.720   6.147  3.5500  0.8973 -0.0524
 1366SOL    HW215732   1.524   4.574   6.151  0.0894 -0.4598  0.3749
 1367SOL     OW15733   1.285   0.002  16.002  0.1282 -0.1928 -0.0427
 1367SOL    HW115734   1.261   4.653  15.994  0.2136 -0.3645  1.5800
 1367SOL    HW215735   1.241   0.037  15.925  0.1166  0.4147  0.2474
 1368SOL     OW15736   0.143   1.358   9.925 -0.1028  0.1781  0.2517
 1368SOL    HW115737   0.203   1.338   9.854  0.1340 -0.1320  0.5416
 1368SOL    HW215738   0.054   1.366   9.891 -0.0964 -1.0205 -0.0422
 1369SOL     OW15739   1.887   0.497   6.923 -0.5515 -0.6087  0.8118
 1369SOL    HW115740   1.836   0.453   6.855 -0.6447 -1.1365  1.2243
 1369SOL    HW215741   1.937   0.563   6.875 -2.4313  1.1954  1.2970
 1370SOL     OW15742   1.574   2.451  13.820  0.1022  0.3188  0.6586
 1370SOL    HW115743   1.511   2.414  13.758  0.5783  2.6443 -1.1806
 1370SOL    HW215744   1.628   2.372  13.829 -1.6644 -0.7951  1.6797
 1371SOL     OW15745   2.438   4.321   4.090 -0.4578  0.4522 -0.0065
 1371SOL    HW115746   2.432   4.415   4.075 -0.6428  0.9624  3.1358
 1371SOL    HW215747   2.401   4.291   4.007 -2.8377  2.3540  0.3553
 1372SOL     OW15748   2.593   3.609   0.531 -0.6274 -0.2314 -0.1508
 1372SOL    HW115749   2.638   3.587   0.613 -0.8054 -0.2700 -0.0613
 1372SOL    HW215750   2.600   3.526   0.485  2.9684 -0.6211  1.1398
 1373SOL     OW15751   0.074   4.732  12.499 -0.7625 -0.5003  0.6661
 1373SOL    HW115752   0.063   4.709  12.407  0.0666  1.8653 -0.0160
 1373SOL    HW215753   0.066   0.084  12.491 -0.2561 -0.5888 -0.9120
 1374SOL     OW15754   3.860   1.859   4.782 -0.4829 -0.6597  0.5578
 1374SOL    HW115755   3.781   1.879   4.833  0.4695 -0.6286  1.9993
 1374SOL    HW215756   3.926   1.890   4.844  0.4886 -2.1652  0.2645
 1375SOL     OW15757   0.264   2.781   7.977 -0.5201 -0.1471  0.2680
 1375SOL    HW115758   0.187   2.728   7.996 -0.9332  0.7884  1.2383
 1375SOL    HW215759   0.318   2.764   8.055  1.4577  2.5899 -0.4861
 1376SOL     OW15760   0.679   1.866  14.430 -0.0477  0.5942 -0.4874
 1376SOL    HW115761   0.620   1.791  14.439  2.1853 -1.2581 -1.2732
 1376SOL    HW215762   0.644   1.913  14.354  0.4654 -0.5349 -1.4178
 1377SOL     OW15763   2.033   4.501   5.359 -0.4505 -0.1860 -0.0053
 1377SOL    HW115764   2.016   4.595   5.349 -1.4968 -0.5308 -1.3313
 1377SOL    HW215765   2.006   4.506   5.451  0.1983 -0.2014  0.1914
 1378SOL     OW15766   2.523   2.124   2.198 -0.0415  0.0023 -0.0968
 1378SOL    HW115767   2.430   2.126   2.218  0.5748  0.6352  2.7906
 1378SOL    HW215768   2.533   2.196   2.136 -0.3701  0.4921  0.4149
 1379SOL     OW15769   2.468   2.196   5.046 -0.5950  0.3184 -0.4229
 1379SOL    HW115770   2.507   2.283   5.040  0.3804 -0.1298 -0.6213
 1379SOL    HW215771   2.525   2.153   4.982 -0.5837 -0.7155  0.2806
 1380SOL     OW15772   3.367   2.344   3.384  0.1742 -0.5344  0.0197
 1380SOL    HW115773   3.279   2.339   3.422  0.4367 -1.4002  0.5146
 1380SOL    HW215774   3.381   2.253   3.358 -1.1728 -0.6571 -0.3124
 1381SOL     OW15775   3.925   4.527   7.418 -0.6834 -0.0993 -0.2199
 1381SOL    HW115776   3.896   4.443   7.453 -1.2469  0.2281  0.0965
 1381SOL    HW215777   3.909   4.523   7.324 -2.1396  1.2184 -0.0363
 1382SOL     OW15778   0.961   4.594   6.427 -0.1020  0.1951 -0.3469
 1382SOL    HW115779   0.949   4.652   6.351  0.5416  0.4848 -0.2316
 1382SOL    HW215780   0.924   4.513   6.393  0.0534 -0.4490  1.0309
 1383SOL     OW15781   3.782   0.728  13.460  0.2429 -0.7542  0.4080
 1383SOL    HW115782   3.764   0.759  13.371 -0.2632  1.4010  1.2539
 1383SOL    HW215783   3.802   0.811  13.503  0.7513  0.0607 -1.3708
 1384SOL     OW15784   4.049   3.963   5.759 -0.4075  0.0673 -0.0877
 1384SOL    HW115785   4.080   4.029   5.696 -0.8178 -0.4284 -0.8121
 1384SOL    HW215786   4.017   4.016   5.831 -0.6158  0.2592 -0.3216
 1385SOL     OW15787   3.638   1.964   3.553 -0.4386  0.3012 -0.0759
 1385SOL    HW115788   3.705   1.937   3.491  0.3300 -0.3464  1.0374
 1385SOL    HW215789   3.682   2.023   3.614  1.2396 -1.8849  0.8257
 1386SOL     OW15790   3.186   2.861   6.497  0.1629 -0.1686  0.1493
 1386SOL    HW115791   3.159   2.777   6.459 -1.6923  0.1288  0.8303
 1386SOL    HW215792   3.112   2.918   6.475  0.2733  0.3835  1.2018
 1387SOL     OW15793   0.671   3.549   2.940  0.0253 -0.5985 -0.1862
 1387SOL    HW115794   0.700   3.589   3.022 -0.8376  1.8696 -1.0697
 1387SOL    HW215795   0.622   3.622   2.902  0.7897 -0.0533 -0.1164
 1388SOL     OW15796   2.799   3.025   8.004  0.4657  0.4708 -0.1779
 1388SOL    HW115797   2.870   3.043   8.065  2.5618 -2.5698 -1.7625
 1388SOL    HW215798   2.755   3.110   7.999  0.4242  0.4466 -0.2199
 1389SOL     OW15799   2.403   2.445  14.460 -0.4319  0.4043  0.1498
 1389SOL    HW115800   2.358   2.362  14.444 -1.1500  0.7481  0.3933
 1389SOL    HW215801   2.479   2.439  14.401  0.4331 -2.3479  1.5478
 1390SOL     OW15802   4.181   0.769   5.431  0.3596 -0.0889  0.1550
 1390SOL    HW115803   4.116   0.838   5.417 -0.1912 -0.3985  1.1643
 1390SOL    HW215804   4.171   0.745   5.524  0.2713  1.5872  0.5816
 1391SOL     OW15805   2.435   2.297   4.652 -0.3315 -0.5102  0.0529
 1391SOL    HW115806   2.385   2.235   4.599 -1.2783 -0.9148  1.4231
 1391SOL    HW215807   2.394   2.277   4.736 -3.5818  0.3721 -1.3090
 1392SOL     OW15808   1.191   0.180   6.103  0.1456 -0.2897 -0.4088
 1392SOL    HW115809   1.262   0.179   6.167 -0.6608  3.8843  0.5742
 1392SOL    HW215810   1.235   0.150   6.024  0.4303  0.8938 -0.7070
 1393SOL     OW15811   1.969   3.738  17.722 -0.7357 -0.1863  0.0456
 1393SOL    HW115812   1.901   3.799  17.692 -0.0214  1.6410  2.1637
 1393SOL    HW215813   1.933   3.653  17.697  0.0208  0.0089 -1.7096
 1394SOL     OW15814   3.368   3.337   5.952 -0.3555 -0.2389  0.6274
 1394SOL    HW115815   3.347   3.430   5.940  0.2654  0.0175  1.5136
 1394SOL    HW215816   3.288   3.286   5.952  0.4398 -1.4885 -0.6642
 1395SOL     OW15817   1.342   4.319   1.477  0.1554  0.4764 -0.0473
 1395SOL    HW115818   1.352   4.305   1.571  1.7957  2.0116  0.0095
 1395SOL    HW215819   1.429   4.312   1.439  0.8048  1.7189  1.2035
 1396SOL     OW15820   4.566   2.755   9.807  0.1633  0.1505 -0.3159
 1396SOL    HW115821   4.495   2.698   9.779 -0.2184 -0.0518  1.0441
 1396SOL    HW215822   4.525   2.814   9.870  1.3887  1.8894 -1.1685
 1397SOL     OW15823   3.959   0.567  16.642 -0.4442 -0.4497  0.6547
 1397SOL    HW115824   4.049   0.552  16.613  0.0638 -0.3216  2.1521
 1397SOL    HW215825   3.939   0.642  16.586  0.4644 -0.4066  0.3891
 1398SOL     OW15826   3.629   0.114   6.853 -0.1184  0.2070  0.2022
 1398SOL    HW115827   3.708   0.134   6.904  1.1944 -0.2222 -1.6498
 1398SOL    HW215828   3.567   0.158   6.911  0.1896 -1.6882  1.9881
 1399SOL     OW15829   0.466   4.587  16.060  0.3535  0.5371 -0.1266
 1399SOL    HW115830   0.537   4.618  16.116  0.8515  2.2224 -1.6988
 1399SOL    HW215831   0.447   4.676  16.029 -3.1124 -0.0170  0.4027
 1400SOL     OW15832   3.019   0.411   7.420  0.5224 -0.2040 -0.3429
 1400SOL    HW115833   3.045   0.343   7.481  0.6904  1.3649  1.3328
 1400SOL    HW215834   2.926   0.421   7.441  0.3534 -2.8175  0.1499
 1401SOL     OW15835   2.328   2.537   8.831 -0.1521  0.8649 -0.1074
 1401SOL    HW115836   2.247   2.523   8.781 -0.0662 -2.6558  0.7471
 1401SOL    HW215837   2.291   2.590   8.902  0.8389 -0.5367  1.4659
 1402SOL     OW15838   2.276   4.600   2.324 -0.1994 -0.3771 -0.0605
 1402SOL    HW115839   2.199   4.545   2.310 -1.7069  1.2431  1.7771
 1402SOL    HW215840   2.284   4.613   2.419 -0.2726  0.1827 -0.1335
 1403SOL     OW15841   4.393   2.832   1.716  0.1963  0.2485  0.0230
 1403SOL    HW115842   4.384   2.883   1.635  1.0804  0.1883 -0.1066
 1403SOL    HW215843   4.441   2.756   1.686 -0.7078 -1.2979  2.4891
 1404SOL     OW15844   0.449   3.920   1.710  0.7304  0.1839 -0.1795
 1404SOL    HW115845   0.419   4.005   1.741 -0.0550  1.1639 -3.7597
 1404SOL    HW215846   0.392   3.892   1.639  1.7046 -1.9975 -0.1161
 1405SOL     OW15847   0.610   0.999   2.560 -0.0294  0.1298  0.1907
 1405SOL    HW115848   0.597   0.905   2.573  2.7003 -0.3688 -0.6095
 1405SOL    HW215849   0.556   1.035   2.630 -0.2866  0.0371  0.0399
 1406SOL     OW15850   2.203   1.648   4.762 -0.4907  0.4769 -0.6883
 1406SOL    HW115851   2.191   1.581   4.830  0.9536  2.4323  1.4810
 1406SOL    HW215852   2.196   1.730   4.811  0.0325  0.3899 -0.4719
 1407SOL     OW15853   2.152   3.007   6.483 -0.0568 -0.7262 -0.5390
 1407SOL    HW115854   2.202   3.009   6.564 -1.3868 -1.1277  0.2731
 1407SOL    HW215855   2.228   3.012   6.424  0.2734  0.5286 -0.0111
 1408SOL     OW15856   1.000   0.237   4.353 -0.0889 -0.2508 -0.0056
 1408SOL    HW115857   1.034   0.299   4.417  0.0900 -1.4031  1.0174
 1408SOL    HW215858   1.027   0.277   4.270 -0.9734  0.5147  0.0848
 1409SOL     OW15859   2.273   3.477  11.562  0.2749  0.3084  0.1677
 1409SOL    HW115860   2.225   3.432  11.631  0.1387  0.3143  0.0761
 1409SOL    HW215861   2.362   3.454  11.589  0.4107 -1.5969 -1.8338
 1410SOL     OW15862   1.399   2.968   9.109 -0.3634 -0.0883 -0.6828
 1410SOL    HW115863   1.475   2.981   9.165 -1.0619 -0.8372  0.4385
 1410SOL    HW215864   1.392   2.873   9.117 -0.2492 -0.0068  0.3113
 1411SOL     OW15865   0.586   2.386   5.558  0.7157  0.1774  0.6887
 1411SOL    HW115866   0.610   2.321   5.493 -0.3073  1.5384 -1.0506
 1411SOL    HW215867   0.496   2.407   5.536  0.1628 -1.1258  1.7491
 1412SOL     OW15868   3.467   3.384   8.456  0.6328  0.2440  0.0359
 1412SOL    HW115869   3.386   3.371   8.407  0.0682 -0.4678  1.1680
 1412SOL    HW215870   3.473   3.293   8.484 -2.2982 -0.4203 -1.4756
 1413SOL     OW15871   2.702   0.547  13.363 -0.2805 -0.3198  0.4182
 1413SOL    HW115872   2.611   0.522  13.379 -0.8171  2.2649  1.4011
 1413SOL    HW215873   2.704   0.641  13.377 -1.2050  0.0041 -1.7651
 1414SOL     OW15874   2.101   4.036   5.205 -0.8832 -0.3962 -0.3786
 1414SOL    HW115875   2.017   4.081   5.212  0.4408  2.0320  0.3116
 1414SOL    HW215876   2.121   4.028   5.299 -1.6724 -1.2902 -0.3003
 1415SOL     OW15877   1.386   1.699   8.608 -0.2089 -0.0922  0.1408
 1415SOL    HW115878   1.359   1.661   8.524  3.0087 -1.6006 -0.2308
 1415SOL    HW215879   1.331   1.649   8.668 -0.9574 -1.0781 -1.3744
 1416SOL     OW15880   1.522   4.047   5.153 -0.1248 -0.3656  0.1859
 1416SOL    HW115881   1.510   4.103   5.230  1.2128 -1.0212  0.8852
 1416SOL    HW215882   1.617   4.047   5.143 -0.0364 -1.5280  0.9987
 1417SOL     OW15883   3.307   3.483   3.755 -0.6562 -0.2520 -0.3075
 1417SOL    HW115884   3.383   3.456   3.703 -0.7584 -1.1582  0.0233
 1417SOL    HW215885   3.323   3.578   3.751  1.5766 -0.6619 -0.9027
 1418SOL     OW15886   2.350   2.654   4.938 -0.0585  0.0350  0.1322
 1418SOL    HW115887   2.324   2.594   4.869  0.7247  0.2197 -0.3278
 1418SOL    HW215888   2.445   2.662   4.923 -0.2530  0.5535 -0.8768
 1419SOL     OW15889   1.733   0.373  13.391 -0.3547  0.3404 -0.0810
 1419SOL    HW115890   1.640   0.384  13.412 -0.1998 -0.5099  1.0385
 1419SOL    HW215891   1.745   0.380  13.296  0.2060 -1.5804 -0.1632
 1420SOL     OW15892   3.900   4.388  12.483  0.3525  0.6419  0.5313
 1420SOL    HW115893   3.978   4.442  12.473  1.0715 -0.3476  0.8713
 1420SOL    HW215894   3.922   4.302  12.520 -0.8852 -0.4288 -1.1979
 1421SOL     OW15895   0.195   2.853   5.910 -0.2119  0.0514  0.0363
 1421SOL    HW115896   0.185   2.929   5.967  0.1538 -0.2893  0.5672
 1421SOL    HW215897   0.160   2.874   5.824 -1.6222 -0.5251  0.4838
 1422SOL     OW15898   1.928   1.263  12.479  0.8663  0.8093 -0.7265
 1422SOL    HW115899   1.976   1.266  12.397  0.7317  0.4240 -0.8155
 1422SOL    HW215900   1.901   1.354  12.494 -0.3797  0.2650  0.3456
 1423SOL     OW15901   2.332   3.298   6.347  0.5911 -0.3471 -0.7557
 1423SOL    HW115902   2.380   3.381   6.342  0.9278 -0.5019 -0.0499
 1423SOL    HW215903   2.254   3.327   6.300  0.2794  0.3878  0.2263
 1424SOL     OW15904   0.677   2.662   5.865  0.2422 -0.8321 -0.3105
 1424SOL    HW115905   0.596   2.711   5.874  0.1144 -0.7279 -2.0469
 1424SOL    HW215906   0.651   2.593   5.927 -1.8105  1.0892  0.9553
 1425SOL     OW15907   1.992   1.482   1.681 -0.1496 -0.2557  0.0684
 1425SOL    HW115908   2.066   1.543   1.679  1.1982 -1.9154 -0.4318
 1425SOL    HW215909   1.923   1.537   1.718 -1.0066 -0.7577 -0.8049
 1426SOL     OW15910   0.634   3.672   4.148  0.1072 -0.4473  0.1900
 1426SOL    HW115911   0.637   3.675   4.053  1.3176  0.8830  0.2669
 1426SOL    HW215912   0.555   3.725   4.159  0.8758  1.0331 -1.4753
 1427SOL     OW15913   2.901   0.088   3.935 -0.1815 -0.2715 -0.1608
 1427SOL    HW115914   2.832   0.148   3.906 -0.7732 -0.1284  1.5101
 1427SOL    HW215915   2.974   0.093   3.874 -0.0846  0.7038  0.0370
 1428SOL     OW15916   2.716   4.117   2.723  0.0416  0.2567  0.8740
 1428SOL    HW115917   2.640   4.175   2.716 -0.2256 -0.2247 -0.1739
 1428SOL    HW215918   2.676   4.043   2.767 -0.0065 -1.0167 -1.2897
 1429SOL     OW15919   4.605   1.760   9.234  0.2274 -0.0761 -0.6986
 1429SOL    HW115920   4.549   1.780   9.309  1.6828 -1.0228  0.6402
 1429SOL    HW215921   4.634   1.673   9.260  0.3348  0.4275  0.8492
 1430SOL     OW15922   3.926   1.458   9.295  0.5425  0.3760  0.6402
 1430SOL    HW115923   3.966   1.482   9.212  1.0942 -1.7443  0.2866
 1430SOL    HW215924   3.846   1.510   9.294 -0.0233 -0.4428  3.8169
 1431SOL     OW15925   2.231   2.874   5.201  0.4598 -0.1176 -0.1975
 1431SOL    HW115926   2.292   2.946   5.183 -0.7491  1.0141  0.2249
 1431SOL    HW215927   2.235   2.865   5.296 -0.4942 -3.5548 -0.4990
 1432SOL     OW15928   4.613   0.900   1.072  0.2814  0.0943 -0.4606
 1432SOL    HW115929   4.619   0.903   0.977  0.9745 -1.0255 -0.4624
 1432SOL    HW215930   4.640   0.808   1.080  0.4630  0.3542  1.9124
 1433SOL     OW15931   4.543   4.566   1.582  0.2536 -0.8219 -0.2508
 1433SOL    HW115932   4.507   4.540   1.497 -1.3434  0.5359  0.0153
 1433SOL    HW215933   4.599   4.489   1.594  0.3015 -1.0228 -1.7843
 1434SOL     OW15934   1.231   3.442   4.967  0.5664  0.1331  0.3041
 1434SOL    HW115935   1.244   3.537   4.973  0.1056  0.2038  0.1923
 1434SOL    HW215936   1.253   3.409   5.054  0.1032 -1.5422 -0.2240
 1435SOL     OW15937   3.507   1.014   6.130  0.5605  0.3899 -0.2328
 1435SOL    HW115938   3.468   1.102   6.132  0.5636  0.4135 -1.2685
 1435SOL    HW215939   3.439   0.963   6.172 -0.1867  0.3759 -1.4632
 1436SOL     OW15940   2.658   1.393   8.235 -0.3793  0.3588  0.1764
 1436SOL    HW115941   2.667   1.326   8.303 -1.0342  0.1988  0.0998
 1436SOL    HW215942   2.620   1.466   8.284 -0.7128 -0.6334  1.3786
 1437SOL     OW15943   2.647   3.610   9.054 -0.6169  0.0241 -0.7410
 1437SOL    HW115944   2.631   3.674   8.984 -1.4478  0.7352  0.1049
 1437SOL    HW215945   2.555   3.590   9.072 -0.6622  0.2163 -0.7556
 1438SOL     OW15946   0.494   2.355   0.808  0.6830 -0.2373 -0.2431
 1438SOL    HW115947   0.533   2.341   0.722  0.2083 -0.1255 -0.4762
 1438SOL    HW215948   0.527   2.282   0.861  0.8677 -0.1738 -0.2705
 1439SOL     OW15949   3.791   0.939   6.109 -0.3812  0.3488 -1.0298
 1439SOL    HW115950   3.750   0.853   6.096 -0.3860 -0.0839  1.6949
 1439SOL    HW215951   3.715   0.987   6.142 -0.8586 -0.8436 -0.3856
 1440SOL     OW15952   3.825   2.607   5.101  0.5331 -0.5264  0.5663
 1440SOL    HW115953   3.895   2.668   5.078 -1.0520  1.0217 -0.1463
 1440SOL    HW215954   3.802   2.576   5.014  0.7809 -2.9035  1.3546
 1441SOL     OW15955   3.153   3.788   8.774  0.3779 -0.3055  0.0913
 1441SOL    HW115956   3.181   3.832   8.694 -1.0159  0.3766 -0.0343
 1441SOL    HW215957   3.130   3.705   8.733  2.0918 -0.9911  0.5436
 1442SOL     OW15958   4.301   3.665   1.542  0.5650  0.1949  0.4125
 1442SOL    HW115959   4.326   3.742   1.491  1.9336 -0.1256  0.6206
 1442SOL    HW215960   4.205   3.672   1.544  0.6469  0.8348  2.0725
 1443SOL     OW15961   4.021   1.573   4.008  0.0183 -0.2106  0.0128
 1443SOL    HW115962   3.964   1.496   4.011  0.7042 -0.7667 -1.1209
 1443SOL    HW215963   3.994   1.640   4.070 -1.0830 -0.3531 -0.3238
 1444SOL     OW15964   2.307   4.153  12.942  0.0781 -0.0746 -0.1309
 1444SOL    HW115965   2.245   4.227  12.946 -1.2459 -1.2817  1.9451
 1444SOL    HW215966   2.377   4.194  12.891  1.4644 -1.3218  0.7795
 1445SOL     OW15967   4.130   3.226   4.190  0.2953 -0.1688  0.1844
 1445SOL    HW115968   4.201   3.279   4.153  0.0162 -0.9971 -1.4912
 1445SOL    HW215969   4.082   3.193   4.115  1.0759  0.5636 -0.6376
 1446SOL     OW15970   0.682   3.244   4.585 -0.3711  0.2621  0.2398
 1446SOL    HW115971   0.634   3.270   4.663  0.1964  2.5582 -0.1650
 1446SOL    HW215972   0.682   3.322   4.529  0.9106  0.0308 -0.0785
 1447SOL     OW15973   0.826   2.533   8.870  0.4633  0.2180 -0.2089
 1447SOL    HW115974   0.829   2.560   8.962  1.9838  1.7463 -0.7025
 1447SOL    HW215975   0.846   2.440   8.880  3.2219  0.9136  0.6288
 1448SOL     OW15976   3.829   2.596   0.949  0.4314 -0.1425 -0.1700
 1448SOL    HW115977   3.879   2.647   0.884  1.3664 -1.9183 -0.8316
 1448SOL    HW215978   3.868   2.616   1.034  0.6180  2.4806 -0.8597
 1449SOL     OW15979   2.827   3.451   8.762 -0.5690  0.2540 -0.0313
 1449SOL    HW115980   2.899   3.401   8.801  0.0985 -1.3010 -3.2449
 1449SOL    HW215981   2.765   3.381   8.746  2.2476 -2.1749 -0.3715
 1450SOL     OW15982   3.769   0.108  17.376 -0.2979 -0.6474  0.4939
 1450SOL    HW115983   3.789   0.140  17.288  0.1675 -0.2312  0.7577
 1450SOL    HW215984   3.782   0.186  17.429  0.3888  0.0540 -0.7171
 1451SOL     OW15985   3.724   2.066  17.656 -0.1662 -0.3733 -0.0424
 1451SOL    HW115986   3.680   2.121  17.722  1.7598  2.6297 -1.2621
 1451SOL    HW215987   3.765   2.002  17.714 -0.9252 -0.5124  0.3484
 1452SOL     OW15988   0.776   0.881   5.094  1.1652  0.9372  0.2622
 1452SOL    HW115989   0.845   0.827   5.133  2.0917  0.9180 -1.4167
 1452SOL    HW215990   0.696   0.839   5.125  2.0690 -0.5844  0.5643
 1453SOL     OW15991   4.120   1.080  16.163  0.5640  0.5005  0.2333
 1453SOL    HW115992   4.119   1.142  16.236 -1.6713  1.1183 -0.2950
 1453SOL    HW215993   4.027   1.058  16.164  0.6364  0.2751  1.1890
 1454SOL     OW15994   4.708   0.911  12.279 -0.1051 -0.3813 -0.5697
 1454SOL    HW115995   4.662   0.836  12.317 -1.6304  0.7536 -0.1822
 1454SOL    HW215996   4.639   0.976  12.268 -0.8101 -1.1199 -0.5077
 1455SOL     OW15997   4.452   0.109  11.676  0.1312 -0.0744 -0.1936
 1455SOL    HW115998   4.473   0.107  11.770 -0.1019 -1.4765 -0.1687
 1455SOL    HW215999   4.512   0.040  11.648 -0.1663 -0.9606  1.2717
 1456SOL     OW16000   2.794   3.065   0.068 -0.1650  0.0219 -0.2695
 1456SOL    HW116001   2.811   2.977   0.101  1.0307 -0.3942 -1.9865
 1456SOL    HW216002   2.744   3.037  17.763  0.9511 -1.2596 -0.5327
 1457SOL     OW16003   1.065   3.546   1.607 -0.5515  0.2994 -0.2441
 1457SOL    HW116004   1.041   3.619   1.663 -2.2095  0.0557 -0.6286
 1457SOL    HW216005   1.103   3.596   1.535  1.4334  1.1784  1.4423
 1458SOL     OW16006   3.251   4.505   6.018 -0.8586  0.3355  0.2738
 1458SOL    HW116007   3.173   4.452   6.031 -0.6598  0.1025  0.5165
 1458SOL    HW216008   3.220   4.566   5.951 -1.6524 -0.1645  0.1893
 1459SOL     OW16009   2.733   2.895  14.980  0.6673  0.1684  0.0325
 1459SOL    HW116010   2.660   2.861  14.927  0.2667  1.4105 -0.2125
 1459SOL    HW216011   2.749   2.985  14.952  0.3383  0.5680  1.1304
 1460SOL     OW16012   3.575   0.229   3.677 -0.0325  0.1423 -0.0480
 1460SOL    HW116013   3.607   0.141   3.659 -1.6191 -0.6744  1.1564
 1460SOL    HW216014   3.495   0.214   3.727  1.6130 -1.5751  2.0683
 1461SOL     OW16015   2.171   1.813   2.379 -0.3279  0.4488  0.2264
 1461SOL    HW116016   2.147   1.723   2.404  1.1632  0.6849  2.5202
 1461SOL    HW216017   2.217   1.785   2.300 -1.0265 -0.7881  0.2534
 1462SOL     OW16018   4.224   3.539   3.168  0.3865 -0.3146 -0.0875
 1462SOL    HW116019   4.165   3.546   3.242 -0.8894 -1.2729 -1.0128
 1462SOL    HW216020   4.159   3.534   3.098 -1.1174  1.9231  1.1498
 1463SOL     OW16021   0.248   4.136   8.189 -0.6514 -0.1717 -0.5922
 1463SOL    HW116022   0.325   4.161   8.138  2.1452 -1.0467  3.2813
 1463SOL    HW216023   0.187   4.209   8.174  1.7013  2.4873  2.6685
 1464SOL     OW16024   2.047   2.062   1.951  0.2806 -0.0579 -0.2763
 1464SOL    HW116025   2.100   1.985   1.930 -0.4352 -0.5350 -0.3196
 1464SOL    HW216026   1.982   2.010   1.997  1.0208 -0.3288  0.4496
 1465SOL     OW16027   3.429   3.591   5.148  0.4404  0.4526  0.1888
 1465SOL    HW116028   3.354   3.588   5.207  0.4704 -1.6437  0.1354
 1465SOL    HW216029   3.472   3.671   5.176  3.6722 -1.3947  0.4704
 1466SOL     OW16030   2.199   1.461  15.193 -0.2830  0.0913  0.7710
 1466SOL    HW116031   2.198   1.408  15.114  1.3089  1.6331 -0.2953
 1466SOL    HW216032   2.124   1.421  15.236 -0.6141  1.3345  1.3560
 1467SOL     OW16033   1.839   2.427   8.587 -0.2772  0.2491 -0.2108
 1467SOL    HW116034   1.806   2.474   8.664 -0.0477 -1.0067  0.6637
 1467SOL    HW216035   1.761   2.377   8.565  2.0570 -2.9200 -1.3829
 1468SOL     OW16036   1.864   2.106   2.818 -0.3001  0.0723  0.2423
 1468SOL    HW116037   1.839   2.018   2.846 -0.5818  0.5051  1.3237
 1468SOL    HW216038   1.937   2.096   2.757 -0.0273  0.8092  0.4445
 1469SOL     OW16039   2.651   3.028   2.268  0.0830 -0.4564  0.1241
 1469SOL    HW116040   2.614   2.942   2.289 -1.7582  0.2862 -0.0801
 1469SOL    HW216041   2.570   3.067   2.236 -0.8628 -1.4576  1.2947
 1470SOL     OW16042   3.649   1.614   8.018  0.3328  0.3381 -0.0845
 1470SOL    HW116043   3.656   1.693   7.963 -1.4519  0.9804  0.6083
 1470SOL    HW216044   3.668   1.645   8.107 -3.9651 -2.2258  1.6894
 1471SOL     OW16045   2.926   2.440  12.643 -0.0563 -0.7654 -0.2741
 1471SOL    HW116046   2.886   2.512  12.593  0.7383 -1.0686 -1.3348
 1471SOL    HW216047   3.005   2.416  12.595  0.3717 -0.8532  0.4844
 1472SOL     OW16048   3.874   2.849  15.040  0.2133 -0.1543 -0.3177
 1472SOL    HW116049   3.955   2.809  15.071 -1.6080 -2.7732  1.0682
 1472SOL    HW216050   3.900   2.938  15.016  0.7397 -0.0587  0.6131
 1473SOL     OW16051   0.370   1.047  10.729 -0.2510 -0.1677 -1.0386
 1473SOL    HW116052   0.390   1.108  10.658 -2.4966  2.0237  0.1873
 1473SOL    HW216053   0.299   0.990  10.698  1.7268 -0.6309 -4.7268
 1474SOL     OW16054   2.964   3.425   8.415 -0.6283 -0.0483 -0.3895
 1474SOL    HW116055   2.939   3.390   8.330  0.9833 -2.9115  0.3232
 1474SOL    HW216056   2.878   3.438   8.456 -0.3483  3.2487 -0.8129
 1475SOL     OW16057   3.410   3.570   7.266 -0.0933  0.3672  0.1426
 1475SOL    HW116058   3.477   3.562   7.198 -1.5171 -1.5058 -1.0246
 1475SOL    HW216059   3.388   3.477   7.270  0.9013  0.0909 -0.7524
 1476SOL     OW16060   0.010   3.594  15.626 -0.9157 -0.1886 -0.3988
 1476SOL    HW116061   0.044   3.637  15.548  0.9130 -0.8016  0.0620
 1476SOL    HW216062   0.082   3.532  15.639 -1.0142 -0.4774 -1.2103
 1477SOL     OW16063   0.979   4.274  12.478 -0.0312  0.3599 -0.4120
 1477SOL    HW116064   0.970   4.179  12.476  0.8310  0.3023 -2.1809
 1477SOL    HW216065   1.028   4.293  12.558 -1.9475  2.4552  0.2760
 1478SOL     OW16066   1.515   4.651  12.842  0.1133  1.1273  0.1861
 1478SOL    HW116067   1.542   4.564  12.812  1.7554  1.2079  1.4759
 1478SOL    HW216068   1.473   4.678  12.760  1.6135  1.4495 -0.4658
 1479SOL     OW16069   0.347   1.223   6.927 -0.2766  0.1212 -1.0775
 1479SOL    HW116070   0.371   1.314   6.942  0.7620 -0.2042 -0.7459
 1479SOL    HW216071   0.271   1.219   6.986  0.2265 -0.9336 -0.4892
 1480SOL     OW16072   2.283   0.780   9.724 -0.4971  0.0399 -0.3383
 1480SOL    HW116073   2.331   0.706   9.687 -0.1995 -0.5744  1.2792
 1480SOL    HW216074   2.277   0.759   9.817  3.4581 -0.3625 -0.1438
 1481SOL     OW16075   4.688   2.139   5.952  0.3859  0.1067  0.0207
 1481SOL    HW116076   4.719   2.227   5.931  1.0387  0.0133  0.5594
 1481SOL    HW216077   4.600   2.165   5.978  0.8693  3.1648 -1.3714
 1482SOL     OW16078   3.959   3.336   8.554 -0.1149  0.3885  0.0345
 1482SOL    HW116079   3.865   3.339   8.574 -0.3088  0.1051 -0.8590
 1482SOL    HW216080   3.998   3.323   8.641  0.5528  0.3173 -0.2747
 1483SOL     OW16081   3.983   2.136   8.441  0.1770 -0.0220  0.2412
 1483SOL    HW116082   4.058   2.077   8.447 -0.4195 -0.6881  0.9644
 1483SOL    HW216083   3.962   2.135   8.347 -1.4023  0.1150  0.5993
 1484SOL     OW16084   1.818   2.539  12.911  0.7436 -0.2392 -0.4627
 1484SOL    HW116085   1.826   2.634  12.899 -2.2819  0.3946  2.6696
 1484SOL    HW216086   1.853   2.507  12.828  1.1152  1.5884 -1.0154
 1485SOL     OW16087   0.074   2.719   2.223  0.3675 -0.0394  0.5642
 1485SOL    HW116088   0.044   2.781   2.289  1.5383  1.6779 -0.5300
 1485SOL    HW216089   0.127   2.654   2.271 -1.0399 -2.1791 -0.8018
 1486SOL     OW16090   0.758   0.360   5.472 -0.3523  0.0866 -0.2188
 1486SOL    HW116091   0.665   0.381   5.462 -0.1107  0.4619 -1.7315
 1486SOL    HW216092   0.794   0.394   5.390 -0.5286  2.7093  0.8029
 1487SOL     OW16093   2.158   3.536   0.810 -0.1493  0.1204  0.3696
 1487SOL    HW116094   2.252   3.527   0.795 -0.2480  0.0460 -0.2192
 1487SOL    HW216095   2.156   3.629   0.788 -3.1813  0.0806  0.4894
 1488SOL     OW16096   1.835   2.552   3.521 -0.0105 -0.3531  0.0721
 1488SOL    HW116097   1.794   2.513   3.443  1.6748  0.0621 -1.0374
 1488SOL    HW216098   1.853   2.472   3.571  1.7837  0.3999  0.6418
 1489SOL     OW16099   0.818   2.572   4.913  0.2740  0.5486  0.5356
 1489SOL    HW116100   0.741   2.621   4.941 -1.4185 -1.9059  0.1456
 1489SOL    HW216101   0.826   2.525   4.997 -0.6477 -3.4192 -1.5771
 1490SOL     OW16102   0.426   3.809   6.429 -0.1866 -0.1003  0.2493
 1490SOL    HW116103   0.506   3.860   6.445  1.5976 -2.5341 -0.8671
 1490SOL    HW216104   0.443   3.747   6.358  2.5312  1.2114 -0.2442
 1491SOL     OW16105   3.723   2.995   0.368 -0.6370 -0.2431  0.2681
 1491SOL    HW116106   3.751   2.945   0.292 -0.7360  1.5579 -0.9485
 1491SOL    HW216107   3.641   2.950   0.389 -0.9164  0.3921  0.5289
 1492SOL     OW16108   1.848   2.089   2.497 -0.5570  0.1674 -0.0792
 1492SOL    HW116109   1.828   2.004   2.536  1.7474  0.0230  0.8436
 1492SOL    HW216110   1.764   2.131   2.481 -0.1461  1.4459  1.1678
 1493SOL     OW16111   3.551   2.986   7.810  0.1635  0.1384 -0.0793
 1493SOL    HW116112   3.555   2.972   7.905 -0.2251 -0.5218 -0.1632
 1493SOL    HW216113   3.465   2.950   7.790  0.3328 -1.8718  2.7862
 1494SOL     OW16114   3.164   0.607   7.555 -0.2159 -0.9534 -0.0955
 1494SOL    HW116115   3.106   0.543   7.514 -1.4251 -0.7336  1.2648
 1494SOL    HW216116   3.227   0.620   7.484  1.5862  0.2865  1.7183
 1495SOL     OW16117   0.564   4.429   9.615 -0.2418  0.1129  0.5694
 1495SOL    HW116118   0.606   4.350   9.581  0.1516  0.4190  0.3431
 1495SOL    HW216119   0.540   4.399   9.703 -0.9254 -1.0842 -0.0360
 1496SOL     OW16120   2.457   1.457   4.068  0.1933  0.8738  0.3230
 1496SOL    HW116121   2.515   1.386   4.095 -0.1674  0.8584  1.0349
 1496SOL    HW216122   2.413   1.420   3.992  1.0591 -0.3841  0.4361
 1497SOL     OW16123   2.960   1.638   2.816  0.1388  0.1261 -0.0546
 1497SOL    HW116124   2.884   1.602   2.862 -0.0765 -0.0662 -0.5709
 1497SOL    HW216125   2.953   1.733   2.827  0.9843  0.2419 -0.4928
 1498SOL     OW16126   3.041   3.302   4.220  0.0048 -0.2613  0.7765
 1498SOL    HW116127   2.949   3.290   4.244 -0.5091 -0.3722 -1.2162
 1498SOL    HW216128   3.039   3.397   4.206  1.2371 -0.4862 -0.8346
 1499SOL     OW16129   2.913   4.564   3.746 -0.0295 -0.5077  0.2476
 1499SOL    HW116130   2.832   4.616   3.750  0.4930  0.3590 -0.6753
 1499SOL    HW216131   2.894   4.489   3.803  0.6196  0.2538  1.4628
 1500SOL     OW16132   0.252   3.746   8.580 -0.0071  0.8128  0.0218
 1500SOL    HW116133   0.310   3.670   8.592 -1.1590  0.2547  2.0994
 1500SOL    HW216134   0.308   3.810   8.624  0.4841  1.2124 -1.1945
 1501SOL     OW16135   0.383   0.860  12.543  0.1335  0.5351  0.3442
 1501SOL    HW116136   0.320   0.925  12.509 -0.8595  0.6915  2.4882
 1501SOL    HW216137   0.342   0.813  12.616  0.5181 -2.0042 -1.0899
 1502SOL     OW16138   0.084   1.775   2.863  0.5112 -0.0240  0.2200
 1502SOL    HW116139   0.139   1.819   2.927 -0.8124  1.0046  0.6484
 1502SOL    HW216140   0.023   1.740   2.928 -0.9757 -0.8646 -1.5973
 1503SOL     OW16141   4.414   2.982  17.279  0.2538 -0.4387 -0.3467
 1503SOL    HW116142   4.407   3.035  17.200  1.2703 -0.0368 -0.1664
 1503SOL    HW216143   4.399   3.044  17.350 -0.9793 -1.0816 -0.0387
 1504SOL     OW16144   1.724   0.647  17.103 -0.9819  0.0078 -0.4603
 1504SOL    HW116145   1.807   0.605  17.128 -1.1595 -0.0520  0.0190
 1504SOL    HW216146   1.665   0.583  17.143 -0.3866 -0.7622 -0.8116
 1505SOL     OW16147   2.961   4.149   7.352  0.2465 -0.5744 -0.0325
 1505SOL    HW116148   2.926   4.125   7.438 -1.2266 -1.4242 -0.8658
 1505SOL    HW216149   2.987   4.064   7.316  1.4207 -0.0513 -0.3891
 1506SOL     OW16150   1.215   2.389  14.586 -0.0641 -0.2384 -0.0884
 1506SOL    HW116151   1.269   2.420  14.658 -1.8473 -0.9023  1.5246
 1506SOL    HW216152   1.223   2.295  14.601 -0.2060 -0.4859 -1.5792
 1507SOL     OW16153   1.696   2.408  17.709 -0.3118  0.1105 -0.4591
 1507SOL    HW116154   1.726   2.330  17.755 -1.6020  0.2310  0.6128
 1507SOL    HW216155   1.723   2.482  17.763  1.5558 -0.7550 -0.2093
 1508SOL     OW16156   0.570   2.886  16.622  0.6593  0.4496 -0.5456
 1508SOL    HW116157   0.582   2.792  16.614 -1.0088  0.1917  0.0069
 1508SOL    HW216158   0.640   2.900  16.558  3.0696 -0.7936  1.8013
 1509SOL     OW16159   3.624   2.567   4.599 -0.7834  0.5084  0.0202
 1509SOL    HW116160   3.615   2.505   4.527 -0.5174 -0.3539  0.7416
 1509SOL    HW216161   3.717   2.587   4.588 -0.5105 -0.6575  0.2385
 1510SOL     OW16162   2.307   1.326   6.646 -0.0823 -0.1409 -0.2497
 1510SOL    HW116163   2.362   1.353   6.572 -0.9624 -0.4437 -1.0197
 1510SOL    HW216164   2.260   1.409   6.655  1.2016  0.5724 -0.1235
 1511SOL     OW16165   2.124   2.144   2.989 -0.2912  0.5302 -0.7899
 1511SOL    HW116166   2.149   2.068   2.936  0.9988  0.7517 -0.4851
 1511SOL    HW216167   2.064   2.107   3.054  0.4170  3.2127  1.3750
 1512SOL     OW16168   2.679   4.237   7.754 -0.2523 -0.0571  0.6147
 1512SOL    HW116169   2.731   4.266   7.828  0.2403 -1.0747  0.6647
 1512SOL    HW216170   2.600   4.205   7.798 -1.8542  3.8621  0.6424
 1513SOL     OW16171   4.144   0.418   8.352 -0.6348  0.8638 -0.1472
 1513SOL    HW116172   4.097   0.347   8.307  0.5833 -0.1021  0.1181
 1513SOL    HW216173   4.150   0.390   8.443  1.1886 -0.3530 -0.6409
 1514SOL     OW16174   0.339   3.762   6.665 -0.6237 -0.4309  0.0191
 1514SOL    HW116175   0.282   3.838   6.661  1.1820  0.9325  0.3138
 1514SOL    HW216176   0.379   3.757   6.579  0.1548  1.5522  0.2705
 1515SOL     OW16177   0.102   3.669   3.483  0.3653 -0.1837 -0.0016
 1515SOL    HW116178   0.060   3.725   3.418  0.9040 -0.0302 -0.2169
 1515SOL    HW216179   0.195   3.675   3.462  0.6330 -1.7127  0.7813
 1516SOL     OW16180   0.655   0.634   4.488 -0.1769 -0.3484 -0.2021
 1516SOL    HW116181   0.563   0.655   4.499 -0.0819  0.1594 -0.3772
 1516SOL    HW216182   0.700   0.715   4.508 -1.8881  0.7279 -0.7464
 1517SOL     OW16183   1.093   0.346   3.650  0.0558 -0.2239 -0.1725
 1517SOL    HW116184   1.015   0.291   3.647  1.4136 -2.1430  0.1940
 1517SOL    HW216185   1.061   0.435   3.636 -1.2538 -0.3653  1.9020
 1518SOL     OW16186   2.561   0.701  11.036  0.3358  0.0235  0.5756
 1518SOL    HW116187   2.499   0.629  11.036 -0.7127  0.9287  2.0087
 1518SOL    HW216188   2.576   0.739  10.949 -0.3547  0.3571  0.6089
 1519SOL     OW16189   1.324   3.440   2.841 -0.4417  0.1498  0.0254
 1519SOL    HW116190   1.254   3.386   2.878 -0.3611 -1.0497 -1.5711
 1519SOL    HW216191   1.331   3.412   2.750 -0.0554  0.5322 -0.0596
 1520SOL     OW16192   4.626   3.359   7.750 -0.5535 -0.7036 -0.6980
 1520SOL    HW116193   4.555   3.358   7.814 -0.8607  2.3029 -0.9968
 1520SOL    HW216194   4.624   3.452   7.730 -0.8502 -0.4696  0.4099
 1521SOL     OW16195   0.317   4.683   2.929  0.1849  0.2339  0.1290
 1521SOL    HW116196   0.332   0.010   2.866 -1.5311  1.7394  1.4165
 1521SOL    HW216197   0.258   4.624   2.883  0.8656  0.3668 -0.9098
 1522SOL     OW16198   1.027   1.241   5.682  0.5074  0.1953 -0.0801
 1522SOL    HW116199   0.932   1.229   5.681  0.4003  0.7210  3.9262
 1522SOL    HW216200   1.055   1.151   5.698  1.3392  0.5380  0.3949
 1523SOL     OW16201   3.357   4.519  16.730 -0.4350 -0.0188 -0.0578
 1523SOL    HW116202   3.311   4.558  16.804  1.3435  1.5553  0.2104
 1523SOL    HW216203   3.446   4.551  16.743 -0.8003  0.0981  2.0601
 1524SOL     OW16204   2.480   4.364   5.993 -0.2525  0.2619 -0.1139
 1524SOL    HW116205   2.569   4.397   5.984 -0.1580 -0.2175 -0.8849
 1524SOL    HW216206   2.441   4.449   6.015 -0.6867  0.0441 -0.0311
 1525SOL     OW16207   1.397   3.261   6.057  0.5210  0.2370  0.4485
 1525SOL    HW116208   1.436   3.321   5.994 -0.3690  0.5219  0.1645
 1525SOL    HW216209   1.302   3.271   6.047  0.3612 -1.0445  0.6898
 1526SOL     OW16210   0.396   3.849   1.456  0.3674  0.7443  0.2171
 1526SOL    HW116211   0.391   3.754   1.465  4.0680  0.6122  1.2246
 1526SOL    HW216212   0.324   3.867   1.396 -0.9776 -2.0401  1.0252
 1527SOL     OW16213   1.281   0.629   8.108 -0.7098 -0.2581 -0.6282
 1527SOL    HW116214   1.319   0.643   8.194 -0.2759 -0.8686 -0.7200
 1527SOL    HW216215   1.336   0.560   8.070 -0.4151 -0.8274  0.8463
 1528SOL     OW16216   4.505   0.676   2.549  0.5603  0.4300  0.1684
 1528SOL    HW116217   4.516   0.584   2.571  4.9637  0.7184 -0.8476
 1528SOL    HW216218   4.431   0.684   2.610  2.6720 -1.2411  2.9280
 1529SOL     OW16219   1.256   1.622   8.132  0.6213  0.3837  0.5215
 1529SOL    HW116220   1.311   1.699   8.116  3.0789 -0.9952  2.3567
 1529SOL    HW216221   1.305   1.549   8.096 -1.4817 -0.7015 -0.1280
 1530SOL     OW16222   4.406   3.461   8.704 -0.3870  0.3550 -0.5868
 1530SOL    HW116223   4.420   3.555   8.710  0.4734  0.1541  0.6088
 1530SOL    HW216224   4.317   3.445   8.736  0.0459 -0.1752  0.3248
 1531SOL     OW16225   3.352   1.874   5.930  0.3859 -0.0341 -1.0049
 1531SOL    HW116226   3.405   1.811   5.978 -2.1173 -1.8270 -0.5937
 1531SOL    HW216227   3.277   1.823   5.901  0.7178 -1.0737 -0.0197
 1532SOL     OW16228   4.202   2.433  11.292 -0.6291  0.4403 -0.3873
 1532SOL    HW116229   4.261   2.441  11.217  0.3565  1.8508  0.5449
 1532SOL    HW216230   4.227   2.519  11.328  0.5137 -0.6672  1.4422
 1533SOL     OW16231   0.544   1.244   7.787 -0.0915 -0.3372  0.0168
 1533SOL    HW116232   0.450   1.234   7.779 -0.0459 -0.8343  0.0716
 1533SOL    HW216233   0.575   1.310   7.726  2.0801 -2.0281 -0.7145
 1534SOL     OW16234   1.758   2.560   2.403 -0.5565  0.0521 -0.8484
 1534SOL    HW116235   1.779   2.595   2.489 -2.0523 -0.8836 -0.1073
 1534SOL    HW216236   1.846   2.549   2.367  0.3319  2.6807  0.5420
 1535SOL     OW16237   2.616   1.180   5.547 -0.0639 -0.1721 -0.4927
 1535SOL    HW116238   2.541   1.220   5.504 -0.8565  1.8700  2.7224
 1535SOL    HW216239   2.659   1.250   5.596 -1.2115 -0.3104  0.7283
 1536SOL     OW16240   1.822   0.448   6.204 -0.5703  0.2704  0.3230
 1536SOL    HW116241   1.768   0.495   6.141 -0.6425 -1.9618 -1.2844
 1536SOL    HW216242   1.803   0.354   6.204 -3.1577  0.8112  1.6082
 1537SOL     OW16243   1.561   2.518  12.352  0.4353  0.1462  0.2902
 1537SOL    HW116244   1.645   2.563  12.342 -0.0541  1.3803  1.6848
 1537SOL    HW216245   1.518   2.580  12.412 -1.2623 -0.5001 -0.2782
 1538SOL     OW16246   3.701   0.961   3.767  0.1177  0.8848 -0.3768
 1538SOL    HW116247   3.761   0.937   3.837 -0.0609  0.8910 -0.2227
 1538SOL    HW216248   3.617   0.936   3.807 -0.4333  1.2957 -1.2687
 1539SOL     OW16249   4.146   0.521   5.715 -0.4871 -0.4047 -0.6265
 1539SOL    HW116250   4.226   0.469   5.702 -1.1486 -1.6046  0.1300
 1539SOL    HW216251   4.111   0.497   5.801  0.2994 -0.4412 -0.3167
 1540SOL     OW16252   4.247   2.706   8.087  1.2676 -0.4525 -0.4836
 1540SOL    HW116253   4.207   2.633   8.134  0.7346  0.8318  1.0618
 1540SOL    HW216254   4.311   2.661   8.031 -0.2333 -4.0194  0.6913
 1541SOL     OW16255   4.478   2.446   4.265 -0.3402 -0.2350 -0.2394
 1541SOL    HW116256   4.385   2.469   4.267 -0.6450 -1.2872 -1.7182
 1541SOL    HW216257   4.477   2.359   4.305 -0.0256  0.2345  0.7870
 1542SOL     OW16258   0.044   1.653   9.051 -0.0698  0.1223 -0.4450
 1542SOL    HW116259   0.009   1.741   9.067 -1.0114  0.0010 -1.8942
 1542SOL    HW216260   0.012   1.609   9.130 -0.0629 -1.5459 -1.3661
 1543SOL     OW16261   3.063   2.299   5.443 -0.5150 -0.4557  0.5862
 1543SOL    HW116262   2.980   2.312   5.397  0.5921  0.3078 -1.1758
 1543SOL    HW216263   3.131   2.326   5.382 -0.2940  0.4521  1.2346
 1544SOL     OW16264   4.112   0.671   8.254  0.6420  0.0031  0.1834
 1544SOL    HW116265   4.118   0.587   8.298 -0.6321  1.1467  2.5448
 1544SOL    HW216266   4.018   0.657   8.237  0.2379 -0.8185  3.2326
 1545SOL     OW16267   0.171   1.164  14.147 -0.3490  0.0958  0.6046
 1545SOL    HW116268   0.102   1.098  14.139  0.8970 -1.0013 -1.0323
 1545SOL    HW216269   0.227   1.143  14.073  0.5704 -0.4816  1.4690
 1546SOL     OW16270   1.793   2.383   7.311  0.7673 -0.0755 -0.3551
 1546SOL    HW116271   1.712   2.342   7.281  0.1543 -0.9844  2.4810
 1546SOL    HW216272   1.851   2.314   7.278 -1.0263 -1.4097 -0.7026
 1547SOL     OW16273   4.212   3.444   6.535 -0.2973 -0.2334 -0.8790
 1547SOL    HW116274   4.293   3.493   6.551  0.6720 -1.6200 -1.5516
 1547SOL    HW216275   4.162   3.516   6.495 -2.7205 -0.0652  2.3793
 1548SOL     OW16276   4.742   1.673   8.508 -0.2556 -0.1871  0.6979
 1548SOL    HW116277   4.724   1.612   8.579  2.0860 -1.0388  0.5485
 1548SOL    HW216278   4.687   1.631   8.441  1.7957 -1.6550 -0.0505
 1549SOL     OW16279   1.578   0.512   2.978 -0.9019 -0.3539 -0.5576
 1549SOL    HW116280   1.569   0.443   2.912 -0.2779 -0.7748 -0.1976
 1549SOL    HW216281   1.668   0.540   2.957 -0.6527  1.0928  2.4249
 1550SOL     OW16282   0.238   1.997   1.865  0.3401  0.1442 -0.4100
 1550SOL    HW116283   0.297   2.031   1.797  0.9015  1.6755  0.8408
 1550SOL    HW216284   0.250   1.903   1.854  1.6403  0.2213  0.2357
 1551SOL     OW16285   4.102   1.142   9.415 -0.0618 -0.2564  0.5259
 1551SOL    HW116286   4.128   1.171   9.328 -0.5464 -0.4546  0.3161
 1551SOL    HW216287   4.057   1.224   9.434 -1.4515 -0.3388 -2.4163
 1552SOL     OW16288   1.835   1.613   5.151 -0.3174 -0.0770  0.0448
 1552SOL    HW116289   1.825   1.645   5.061 -0.1750  2.0573  0.8026
 1552SOL    HW216290   1.821   1.697   5.195  4.1504  0.5778  0.2753
 1553SOL     OW16291   0.758   3.781   0.592  0.4391  0.6450 -0.0385
 1553SOL    HW116292   0.717   3.714   0.537  0.5476  0.8514 -0.3658
 1553SOL    HW216293   0.758   3.731   0.674  0.3845  1.7657  0.6373
 1554SOL     OW16294   0.065   3.083   1.699 -0.3556  0.2358  0.2458
 1554SOL    HW116295   4.723   3.068   1.738 -0.9568  2.9810 -0.0131
 1554SOL    HW216296   0.099   2.994   1.694 -0.3109  0.3525 -1.6238
 1555SOL     OW16297   4.486   2.467   5.408  0.1500 -0.4046  0.2966
 1555SOL    HW116298   4.545   2.439   5.338  1.7584  0.9907  1.1062
 1555SOL    HW216299   4.435   2.387   5.418  0.7030 -0.9403 -1.1775
 1556SOL     OW16300   4.293   1.657  13.146  0.2891 -0.3774  0.1091
 1556SOL    HW116301   4.357   1.716  13.186 -0.3394  0.3545  0.0395
 1556SOL    HW216302   4.290   1.696  13.058  0.3305 -1.9534 -0.5788
 1557SOL     OW16303   2.290   0.366   7.437 -0.1400  0.2826  0.0221
 1557SOL    HW116304   2.202   0.403   7.444  0.4144  1.5853 -0.0185
 1557SOL    HW216305   2.271   0.324   7.353 -1.1712  3.5290 -1.3453
 1558SOL     OW16306   0.872   3.977  12.311 -0.1784 -0.7189 -0.3387
 1558SOL    HW116307   0.892   3.954  12.402  1.2898 -0.0464 -0.4928
 1558SOL    HW216308   0.807   3.910  12.292  0.9005 -2.4940  2.1051
 1559SOL     OW16309   2.411   3.972   4.339 -0.3659  0.3476 -0.2876
 1559SOL    HW116310   2.373   3.942   4.422  0.1031  2.1817  0.6033
 1559SOL    HW216311   2.384   4.064   4.345  1.4024  0.8102  0.6057
 1560SOL     OW16312   3.817   1.011  15.074  0.1637 -0.1587  0.1461
 1560SOL    HW116313   3.809   1.091  15.021 -1.5072 -0.6212 -0.3107
 1560SOL    HW216314   3.896   0.971  15.038 -0.8715 -0.2814 -2.0080
 1561SOL     OW16315   3.378   3.492  11.510 -0.5282  0.0832 -0.3895
 1561SOL    HW116316   3.379   3.468  11.417  1.0631 -0.8094 -0.1468
 1561SOL    HW216317   3.425   3.575  11.510 -2.3605  1.1088 -1.5284
 1562SOL     OW16318   0.879   2.937  11.115  0.2524 -0.2092  0.3849
 1562SOL    HW116319   0.814   2.879  11.076 -0.5470 -1.3968  3.4958
 1562SOL    HW216320   0.836   3.020  11.093 -2.3879 -1.3407  1.1960
 1563SOL     OW16321   4.375   3.307  10.658 -0.4301  0.0240  0.5143
 1563SOL    HW116322   4.376   3.389  10.708  1.5871  0.6196 -0.4908
 1563SOL    HW216323   4.326   3.257  10.724  0.2123 -0.5747  0.5376
 1564SOL     OW16324   3.412   1.630   6.047 -0.2080 -0.7661  0.8136
 1564SOL    HW116325   3.494   1.647   6.093  1.2013 -0.7939 -1.6543
 1564SOL    HW216326   3.444   1.552   6.001  0.2182 -0.2292  0.2028
 1565SOL     OW16327   2.460   3.348   4.683 -0.2092  0.1241 -0.0207
 1565SOL    HW116328   2.489   3.330   4.594  3.4350 -1.4118  1.4474
 1565SOL    HW216329   2.462   3.444   4.687  1.3678  0.1140 -0.5377
 1566SOL     OW16330   4.502   0.558   8.461  0.4754 -0.3769 -0.3579
 1566SOL    HW116331   4.590   0.531   8.487  0.1886 -0.0520  0.9955
 1566SOL    HW216332   4.458   0.576   8.545  1.2888  0.8730 -0.2017
 1567SOL     OW16333   4.689   3.586   3.676  0.1754 -0.0390  0.6845
 1567SOL    HW116334   4.712   3.494   3.661 -2.1778 -0.2740 -1.3530
 1567SOL    HW216335   0.019   3.630   3.633  1.3084 -0.9249  1.6850
 1568SOL     OW16336   3.058   0.155   8.103  0.0786  0.3332 -0.0817
 1568SOL    HW116337   3.110   0.149   8.022  1.5731  0.2075  0.8819
 1568SOL    HW216338   2.970   0.164   8.068  1.1370  0.3469 -2.7954
 1569SOL     OW16339   0.280   2.328   5.957 -0.7987  0.7449  0.3726
 1569SOL    HW116340   0.195   2.305   5.919  0.1267 -0.7823 -0.7842
 1569SOL    HW216341   0.269   2.417   5.991 -0.3562  0.8818  0.1557
 1570SOL     OW16342   2.513   0.390  12.286 -0.2075  0.1154 -0.1203
 1570SOL    HW116343   2.533   0.318  12.346 -0.7088 -0.7126 -0.9534
 1570SOL    HW216344   2.464   0.448  12.345  0.2994  2.1568 -1.7165
 1571SOL     OW16345   3.461   3.494   4.080  0.1534  0.2422 -0.0935
 1571SOL    HW116346   3.551   3.468   4.101  0.4288  1.1785 -0.1162
 1571SOL    HW216347   3.415   3.415   4.107  0.3257 -0.3759 -1.6263
 1572SOL     OW16348   0.586   3.660   5.895  0.0196  0.1976 -0.5810
 1572SOL    HW116349   0.534   3.683   5.817  0.5837 -0.6719 -1.2206
 1572SOL    HW216350   0.548   3.577   5.924  0.0242  0.1491 -0.7121
 1573SOL     OW16351   0.775   3.258  17.751 -0.2529  0.4993  0.2639
 1573SOL    HW116352   0.840   3.227  17.689 -0.2268  2.2865 -0.5954
 1573SOL    HW216353   0.734   3.317  17.689 -1.3955  1.9149  2.3652
 1574SOL     OW16354   1.551   0.997   6.346  0.2742  0.2752 -0.1055
 1574SOL    HW116355   1.538   1.082   6.388  0.3114 -0.0033  0.4718
 1574SOL    HW216356   1.563   0.944   6.425  2.1868  0.2779 -0.3918
 1575SOL     OW16357   2.086   3.418   5.221  0.2246 -0.1166  0.7702
 1575SOL    HW116358   2.042   3.355   5.279 -1.0501 -0.5010 -0.6232
 1575SOL    HW216359   2.029   3.412   5.145 -0.1985 -0.3813  1.1049
 1576SOL     OW16360   1.744   2.900   6.385 -0.0108 -0.2806  0.0124
 1576SOL    HW116361   1.757   2.994   6.397  4.6060 -0.7743 -1.3915
 1576SOL    HW216362   1.711   2.869   6.470  1.7795 -3.3219 -0.3944
 1577SOL     OW16363   3.192   4.176   0.755  0.0287 -0.2748 -0.4839
 1577SOL    HW116364   3.113   4.174   0.701  0.4681  0.8886 -1.1654
 1577SOL    HW216365   3.149   4.182   0.840  0.1354  2.0500 -0.5818
 1578SOL     OW16366   4.037   3.526   3.360  0.2476  0.7322 -0.1494
 1578SOL    HW116367   3.990   3.596   3.405  1.4152  1.3614  0.0804
 1578SOL    HW216368   4.009   3.455   3.418  1.2208  0.1985 -0.3423
 1579SOL     OW16369   1.695   4.162   5.398 -0.2436 -0.1774  0.8351
 1579SOL    HW116370   1.745   4.179   5.478 -0.1805 -0.4704  0.8599
 1579SOL    HW216371   1.612   4.127   5.430  0.2854 -1.2444  1.0520
 1580SOL     OW16372   1.698   3.448   8.839  0.0632 -0.2310  0.1926
 1580SOL    HW116373   1.741   3.465   8.923  1.9103 -0.4003 -0.7208
 1580SOL    HW216374   1.609   3.484   8.848 -0.2951 -0.9200 -0.6235
 1581SOL     OW16375   0.178   1.833   6.971  0.0694  0.0333  0.1240
 1581SOL    HW116376   0.115   1.896   7.005 -2.5774 -1.9997 -0.9884
 1581SOL    HW216377   0.130   1.750   6.972  0.2816 -0.1393 -2.8233
 1582SOL     OW16378   0.916   3.043   8.468 -0.3886  0.1658 -0.0597
 1582SOL    HW116379   0.916   2.951   8.443 -2.6049  0.9109 -2.7969
 1582SOL    HW216380   0.872   3.043   8.553  1.2375  0.5598  0.8057
 1583SOL     OW16381   4.326   2.695   5.464  0.4069  0.3345  0.6940
 1583SOL    HW116382   4.387   2.623   5.473 -0.1654 -0.2541 -0.1249
 1583SOL    HW216383   4.265   2.657   5.527  0.8255 -1.2297  0.1461
 1584SOL     OW16384   0.865   2.706   3.910 -0.2049 -0.5579 -0.1762
 1584SOL    HW116385   0.870   2.746   3.823 -1.4434  0.3330  0.1646
 1584SOL    HW216386   0.810   2.771   3.953 -0.8309  0.8491 -3.1616
 1585SOL     OW16387   4.363   0.232   6.566 -0.4125  0.2305 -0.5638
 1585SOL    HW116388   4.429   0.270   6.507 -1.3227  1.0375 -1.0559
 1585SOL    HW216389   4.363   0.290   6.641 -0.7962 -0.3012 -0.1528
 1586SOL     OW16390   1.758   3.662  15.873 -0.0466 -0.4862  0.3362
 1586SOL    HW116391   1.775   3.593  15.809  0.5751  0.5700 -0.6458
 1586SOL    HW216392   1.844   3.672  15.915 -0.2170 -1.3634  0.8841
 1587SOL     OW16393   1.778   1.512  12.158 -0.0356  0.3081  0.2648
 1587SOL    HW116394   1.767   1.553  12.072 -1.5123  0.0843  0.3485
 1587SOL    HW216395   1.755   1.593  12.205  1.9456  1.5941 -0.9523
 1588SOL     OW16396   2.052   2.860   0.460  0.0930 -0.3680 -0.4733
 1588SOL    HW116397   2.142   2.833   0.441  0.3336  0.8787 -1.1621
 1588SOL    HW216398   2.040   2.820   0.546 -1.7170 -0.5953 -0.8274
 1589SOL     OW16399   0.446   2.020   5.471  0.1523  0.0264 -0.1468
 1589SOL    HW116400   0.436   1.935   5.515 -1.8248  0.9823  1.2039
 1589SOL    HW216401   0.393   2.076   5.528  1.4800  0.2506  0.8844
 1590SOL     OW16402   0.325   4.578  12.358 -0.1993 -0.7175  0.4358
 1590SOL    HW116403   0.354   4.669  12.356  1.3896 -1.3163 -3.3441
 1590SOL    HW216404   0.256   4.594  12.294  1.1637  0.4353 -0.7293
 1591SOL     OW16405   2.406   4.459   8.974 -0.5521  0.1758  0.0210
 1591SOL    HW116406   2.447   4.379   9.006  0.0586 -0.1033 -1.4469
 1591SOL    HW216407   2.481   4.519   8.980  0.2276 -0.6267 -1.6780
 1592SOL     OW16408   1.919   2.567   5.394  0.0570  0.1677  0.2062
 1592SOL    HW116409   1.887   2.479   5.374  0.7247  0.2469 -1.2125
 1592SOL    HW216410   2.013   2.548   5.385  0.1835  2.3691 -3.0047
 1593SOL     OW16411   2.235   0.064   9.063  0.3419  0.5072  0.3866
 1593SOL    HW116412   2.297   0.071   9.136 -0.3693  1.2628  0.9181
 1593SOL    HW216413   2.281   0.107   8.991  0.8898 -2.5214 -1.0749
 1594SOL     OW16414   0.780   2.200  14.999  0.2483  0.2665 -0.0644
 1594SOL    HW116415   0.861   2.247  15.020  0.3000  0.3330 -0.4186
 1594SOL    HW216416   0.790   2.115  15.042  1.2215 -0.1275 -1.0632
 1595SOL     OW16417   3.585   1.180   2.877 -0.0283 -0.3425  0.5080
 1595SOL    HW116418   3.529   1.243   2.923 -2.5517 -1.2389 -1.2970
 1595SOL    HW216419   3.582   1.101   2.931  2.0753 -0.1959  0.8397
 1596SOL     OW16420   3.698   2.906   9.128  0.1575  0.1352  0.3835
 1596SOL    HW116421   3.782   2.946   9.151  0.3529  0.4031 -0.7953
 1596SOL    HW216422   3.660   2.960   9.059  0.7388  0.0145 -0.0361
 1597SOL     OW16423   0.848   3.917   0.272  0.1001 -0.4855  0.2390
 1597SOL    HW116424   0.890   3.839   0.309 -0.4761 -1.4416 -1.1313
 1597SOL    HW216425   0.919   3.960   0.224 -0.9714  1.0597  0.0334
 1598SOL     OW16426   0.437   3.088   1.916  0.7211  0.0299  0.2701
 1598SOL    HW116427   0.393   3.030   1.979 -0.5478  0.1538 -0.5061
 1598SOL    HW216428   0.407   3.054   1.832  1.2959  0.4225 -0.0903
 1599SOL     OW16429   4.410   0.319   2.352 -0.3055  0.3104  0.2594
 1599SOL    HW116430   4.336   0.283   2.400  0.4805 -2.0818 -0.2738
 1599SOL    HW216431   4.386   0.288   2.265 -0.8047  0.6823  0.2659
 1600SOL     OW16432   0.262   3.439  11.162  0.4763 -0.0373 -0.5699
 1600SOL    HW116433   0.249   3.461  11.069  0.5745  1.2196 -0.2863
 1600SOL    HW216434   0.184   3.388  11.180 -0.7721  1.4108 -1.8007
 1601SOL     OW16435   4.556   2.803   7.819 -0.3305  0.2251  0.7658
 1601SOL    HW116436   4.564   2.893   7.787 -0.9269 -0.3504 -0.9576
 1601SOL    HW216437   4.639   2.765   7.792 -0.1874  0.2386  1.1805
 1602SOL     OW16438   4.517   0.952   3.915  0.0712  0.4411  0.7133
 1602SOL    HW116439   4.426   0.979   3.920 -0.2826 -0.8543  1.2006
 1602SOL    HW216440   4.520   0.857   3.923 -0.5699  0.6694  3.5612
 1603SOL     OW16441   4.615   4.131   3.059  0.0885  0.7886  0.7666
 1603SOL    HW116442   4.536   4.179   3.034  0.4809  0.1860 -1.5894
 1603SOL    HW216443   4.624   4.170   3.147  0.7412 -1.8880  1.8710
 1604SOL     OW16444   0.843   0.080   9.373 -0.3506 -0.7638  0.4921
 1604SOL    HW116445   0.825   0.002   9.425 -2.1931 -0.4739  0.2664
 1604SOL    HW216446   0.901   0.131   9.429 -2.5469  1.0830  1.0790
 1605SOL     OW16447   2.633   2.740   6.632 -0.3046  0.7804 -0.2949
 1605SOL    HW116448   2.595   2.672   6.687 -0.2504  2.3601  1.7065
 1605SOL    HW216449   2.589   2.720   6.549  0.3486  2.1633 -0.9832
 1606SOL     OW16450   2.600   1.417  10.580  0.0227 -0.3305  0.0440
 1606SOL    HW116451   2.518   1.402  10.626 -0.9988 -1.1027 -2.0537
 1606SOL    HW216452   2.572   1.440  10.491 -0.0187 -0.4890  0.0166
 1607SOL     OW16453   0.087   1.429   7.953  0.1118  0.0926 -0.2560
 1607SOL    HW116454   0.045   1.343   7.962 -1.8580  0.9979 -0.7449
 1607SOL    HW216455   0.036   1.455   7.876  0.5201 -2.0204 -1.2535
 1608SOL     OW16456   4.584   0.709  15.492  0.1454 -0.1091 -0.2968
 1608SOL    HW116457   4.677   0.686  15.489  0.3806  0.6911  0.6603
 1608SOL    HW216458   4.550   0.660  15.417 -3.0511  1.8343 -0.1238
 1609SOL     OW16459   2.127   1.161  10.139  0.5394 -0.0977  0.3776
 1609SOL    HW116460   2.036   1.152  10.167 -0.1947  1.7908 -1.4493
 1609SOL    HW216461   2.132   1.256  10.136 -2.0522  0.0389  0.3236
 1610SOL     OW16462   0.832   2.220   1.003 -0.1429 -0.4201 -0.1396
 1610SOL    HW116463   0.822   2.143   0.946 -0.6509 -0.2745 -0.2420
 1610SOL    HW216464   0.916   2.195   1.042  1.5725  1.4231 -2.5744
 1611SOL     OW16465   3.064   1.862   9.163 -0.6424  0.3100 -0.0562
 1611SOL    HW116466   3.106   1.947   9.173 -1.3424  0.6067  0.3504
 1611SOL    HW216467   3.057   1.839   9.256  1.2698  2.1748  0.5267
 1612SOL     OW16468   4.565   2.769   4.513  0.0646  0.3279 -0.5180
 1612SOL    HW116469   4.574   2.704   4.582 -1.5159 -0.1157 -0.7293
 1612SOL    HW216470   4.647   2.759   4.464 -0.4455  0.2420 -1.3470
 1613SOL     OW16471   2.874   2.323   9.019  0.0465 -0.0797  0.0184
 1613SOL    HW116472   2.896   2.242   8.973 -0.8424 -0.8703  0.9978
 1613SOL    HW216473   2.937   2.329   9.091  1.0331  1.4687 -0.9573
 1614SOL     OW16474   0.265   0.390  12.279  0.1603  0.0956 -0.5377
 1614SOL    HW116475   0.315   0.465  12.247 -0.8171  0.8021 -0.3800
 1614SOL    HW216476   0.237   0.415  12.367  2.7318  1.8038 -0.1999
 1615SOL     OW16477   4.563   0.082  11.907  0.1823  0.0307  0.7099
 1615SOL    HW116478   4.629   0.151  11.901  0.1110 -0.0556 -0.8941
 1615SOL    HW216479   4.592   0.044  11.990 -0.0557 -1.0466  0.3007
 1616SOL     OW16480   0.537   2.195   3.890 -0.4127 -0.2333 -0.1952
 1616SOL    HW116481   0.616   2.241   3.917  1.0611 -2.1634 -1.1771
 1616SOL    HW216482   0.468   2.234   3.943 -1.2001  0.5863 -1.8463
 1617SOL     OW16483   1.253   2.882  16.734  0.3497  0.6421  0.2610
 1617SOL    HW116484   1.265   2.806  16.791 -0.5387 -0.4611 -1.0300
 1617SOL    HW216485   1.328   2.861  16.679 -0.8648 -0.9569 -0.7628
 1618SOL     OW16486   3.762   2.180   7.551  0.8992 -0.1591  1.1260
 1618SOL    HW116487   3.700   2.195   7.480  1.7744 -1.8403  0.0115
 1618SOL    HW216488   3.808   2.100   7.525  0.9071  0.7353 -1.5227
 1619SOL     OW16489   2.361   1.624  10.770  0.4977  0.1578  0.6586
 1619SOL    HW116490   2.369   1.641  10.676 -0.8665  1.0228  0.6968
 1619SOL    HW216491   2.439   1.569  10.775  0.0975 -0.5542 -1.0730
 1620SOL     OW16492   2.728   2.095   4.320  0.1629  0.3058  0.1939
 1620SOL    HW116493   2.763   2.008   4.340  1.4030  1.1696  1.7621
 1620SOL    HW216494   2.805   2.126   4.272  0.1737  0.4410  0.2985
 1621SOL     OW16495   2.461   1.381  13.597  0.6462 -0.3767  0.3477
 1621SOL    HW116496   2.384   1.327  13.612 -0.7683  2.1339  2.2203
 1621SOL    HW216497   2.484   1.370  13.505  0.8773 -1.0022  0.4866
 1622SOL     OW16498   4.630   3.898  15.494  0.3893 -0.3228 -0.3554
 1622SOL    HW116499   4.584   3.814  15.500 -1.2493  0.4720 -1.7082
 1622SOL    HW216500   4.673   3.888  15.409 -1.8587  2.6207 -1.8344
 1623SOL     OW16501   1.308   1.213   3.589 -0.0432 -0.1301 -0.3952
 1623SOL    HW116502   1.344   1.245   3.506 -0.7261  1.8279  0.0794
 1623SOL    HW216503   1.217   1.193   3.565  0.6547 -1.2322 -2.1810
 1624SOL     OW16504   2.891   2.203  10.667  0.2853 -0.0293 -0.3444
 1624SOL    HW116505   2.959   2.226  10.604 -1.0476  1.2078 -1.3242
 1624SOL    HW216506   2.872   2.286  10.710 -1.8988 -2.6526  3.7982
 1625SOL     OW16507   3.626   1.037   5.489 -0.0791  0.0790  0.8803
 1625SOL    HW116508   3.678   0.977   5.542  1.1602  0.9860  0.6902
 1625SOL    HW216509   3.574   0.976   5.437 -1.3120  0.6162  1.4842
 1626SOL     OW16510   3.215   3.937   9.770  0.5038 -0.0054  0.4291
 1626SOL    HW116511   3.191   3.852   9.734 -1.7055  0.6895  0.2654
 1626SOL    HW216512   3.271   3.968   9.699  0.8282 -0.8769  0.3085
 1627SOL     OW16513   4.295   1.544   8.487  0.7134  0.6060  0.2246
 1627SOL    HW116514   4.253   1.528   8.403  0.3478 -1.7544  0.8635
 1627SOL    HW216515   4.284   1.637   8.507 -1.8515 -0.4111  3.5954
 1628SOL     OW16516   0.651   3.703   8.303 -0.0275  0.0619  0.2243
 1628SOL    HW116517   0.660   3.797   8.315 -1.1322 -0.0120  1.5835
 1628SOL    HW216518   0.646   3.703   8.207 -1.1318  0.8029  0.2789
 1629SOL     OW16519   0.184   1.075   0.531 -0.3011 -0.1240 -0.5324
 1629SOL    HW116520   0.124   1.148   0.514 -0.7165  0.1290  1.9400
 1629SOL    HW216521   0.150   1.014   0.467 -1.2904  0.0277 -0.1523
 1630SOL     OW16522   4.168   2.762   8.692 -0.8466  0.6377 -0.5081
 1630SOL    HW116523   4.204   2.802   8.771  0.2049 -0.8560 -0.2190
 1630SOL    HW216524   4.229   2.691   8.672 -2.4663 -0.5759 -1.1642
 1631SOL     OW16525   3.917   1.753   5.095 -0.1446 -0.8551  0.0579
 1631SOL    HW116526   3.891   1.819   5.159 -1.0449 -0.4018 -0.7719
 1631SOL    HW216527   4.012   1.770   5.090 -0.1435 -0.9499 -0.2169
 1632SOL     OW16528   3.607   0.694   5.526  0.5255 -0.0650  0.2483
 1632SOL    HW116529   3.631   0.675   5.616 -1.4764 -1.6154  0.4523
 1632SOL    HW216530   3.617   0.605   5.494 -2.1220 -0.6367  1.0019
 1633SOL     OW16531   3.977   0.767  14.434  0.0838 -0.0317 -0.5329
 1633SOL    HW116532   4.021   0.753  14.517 -1.0860  0.1774  0.1287
 1633SOL    HW216533   3.940   0.679  14.422  2.7089 -1.2320  0.2536
 1634SOL     OW16534   0.200   2.071  11.302 -0.1719 -0.3026 -0.7321
 1634SOL    HW116535   0.107   2.092  11.310  0.2518  1.0839  0.5367
 1634SOL    HW216536   0.225   2.063  11.394  1.8049  0.9225 -1.1740
 1635SOL     OW16537   3.949   0.282   2.194 -0.4441 -0.2960  0.2802
 1635SOL    HW116538   3.928   0.190   2.209 -2.5449  0.5454  2.6146
 1635SOL    HW216539   3.858   0.310   2.196 -0.0707  0.8462  1.4405
 1636SOL     OW16540   3.266   1.266  10.311  0.2977  0.0603  0.0841
 1636SOL    HW116541   3.207   1.271  10.387  0.8466  0.7575  0.4654
 1636SOL    HW216542   3.342   1.304  10.354 -1.2424  0.3256  2.6239
 1637SOL     OW16543   1.404   1.376   2.942 -0.2646  0.2658  0.8402
 1637SOL    HW116544   1.326   1.366   2.888 -0.0297 -0.5995  0.6719
 1637SOL    HW216545   1.416   1.287   2.974  3.1080  1.3061  2.4253
 1638SOL     OW16546   4.684   0.022   5.573  0.0022  0.0916 -0.2757
 1638SOL    HW116547   4.675   0.106   5.618 -1.0554  0.2711 -0.8003
 1638SOL    HW216548   4.645   0.048   5.489 -2.7487 -3.0168  0.0352
 1639SOL     OW16549   2.326   1.731   8.277  0.5196 -0.3719  0.0903
 1639SOL    HW116550   2.305   1.680   8.355  0.8402  1.6434  1.4998
 1639SOL    HW216551   2.386   1.791   8.320  1.3493 -0.1011 -1.4522
 1640SOL     OW16552   0.622   4.305   0.313  0.7573  0.0144 -0.8628
 1640SOL    HW116553   0.597   4.260   0.394 -0.7534  0.9006 -0.8406
 1640SOL    HW216554   0.661   4.387   0.342 -0.1392  0.3624 -0.6573
 1641SOL     OW16555   3.286   0.704   1.078  0.1155 -0.0819 -1.0463
 1641SOL    HW116556   3.351   0.730   1.143 -1.5435  1.0462  0.1520
 1641SOL    HW216557   3.314   0.759   1.005  0.5647  0.6284 -0.3398
 1642SOL     OW16558   0.982   4.550   2.480  0.1287  0.7454 -0.5440
 1642SOL    HW116559   0.899   4.543   2.433 -1.4858  2.6826  2.0543
 1642SOL    HW216560   0.937   4.538   2.564 -1.1493 -0.7792 -1.4484
 1643SOL     OW16561   4.525   0.935   8.514 -0.1336  0.4136 -0.3738
 1643SOL    HW116562   4.528   1.029   8.531 -0.6941  0.7111 -1.9782
 1643SOL    HW216563   4.616   0.910   8.532  0.0467  1.0741 -0.3950
 1644SOL     OW16564   1.697   0.221  11.542  0.3645  0.1084  0.4819
 1644SOL    HW116565   1.792   0.208  11.534 -0.1484 -2.3121 -1.5508
 1644SOL    HW216566   1.683   0.225  11.637  0.3267  1.2875  0.4318
 1645SOL     OW16567   4.622   3.626   6.786  0.3720 -0.2211 -0.2500
 1645SOL    HW116568   4.608   3.721   6.792  1.2317 -0.2631  2.6499
 1645SOL    HW216569   4.716   3.621   6.806  0.2908 -0.3571  0.1033
 1646SOL     OW16570   0.109   1.123   8.169  1.1051  0.3016 -0.1464
 1646SOL    HW116571   0.158   1.041   8.177  1.0644  0.0518 -2.2841
 1646SOL    HW216572   0.139   1.175   8.243  0.9735  3.6764 -2.4876
 1647SOL     OW16573   2.605   1.386  14.464  0.3970 -0.1641  0.3146
 1647SOL    HW116574   2.567   1.320  14.406  0.5659  0.9880 -1.1169
 1647SOL    HW216575   2.655   1.434  14.398  0.9360  0.2768  1.0348
 1648SOL     OW16576   0.516   2.705  11.868  0.3971  0.6439  0.2535
 1648SOL    HW116577   0.554   2.647  11.803 -1.2505  1.6064 -1.5758
 1648SOL    HW216578   0.549   2.667  11.949  0.1723  1.8149  0.8917
 1649SOL     OW16579   0.935   0.210   2.372 -0.0303 -0.5738  0.1931
 1649SOL    HW116580   1.008   0.259   2.409  1.8603 -0.3850 -3.7862
 1649SOL    HW216581   0.976   0.153   2.307 -0.3106  0.0569 -0.5371
 1650SOL     OW16582   0.442   2.210   2.119  0.7727 -0.0269 -0.6299
 1650SOL    HW116583   0.511   2.254   2.169  0.9677 -1.5543  0.4659
 1650SOL    HW216584   0.377   2.271   2.153 -0.1681 -2.6035  2.2359
 1651SOL     OW16585   0.708   4.648   1.131 -0.0307  0.5210 -0.1316
 1651SOL    HW116586   0.692   4.652   1.226  1.5005 -0.6200  0.1827
 1651SOL    HW216587   0.804   4.647   1.137  0.0900  2.1880 -1.8405
 1652SOL     OW16588   3.218   0.483  11.016 -0.1790 -0.1122 -0.1767
 1652SOL    HW116589   3.148   0.541  10.986 -0.0053  0.5624  0.7529
 1652SOL    HW216590   3.155   0.413  11.035  0.1490 -0.5387 -0.6556
 1653SOL     OW16591   4.233   3.823  11.294 -0.5668 -0.6622  0.4503
 1653SOL    HW116592   4.319   3.781  11.288 -1.1381 -1.6442 -0.7619
 1653SOL    HW216593   4.247   3.885  11.366 -0.7987  0.4834 -0.4908
 1654SOL     OW16594   0.823   1.701  13.313  0.3104  0.2300 -0.7380
 1654SOL    HW116595   0.911   1.665  13.297  1.3746  2.0212  1.0410
 1654SOL    HW216596   0.808   1.734  13.225  0.6308 -0.1089 -0.9191
 1655SOL     OW16597   3.333   3.261   4.144 -0.0096  0.0824 -0.2818
 1655SOL    HW116598   3.343   3.222   4.058  3.7257 -0.5157  0.4286
 1655SOL    HW216599   3.238   3.266   4.155 -0.0592 -0.2700 -0.5646
 1656SOL     OW16600   4.099   2.732   2.722 -0.2581  0.2687 -0.2892
 1656SOL    HW116601   4.170   2.687   2.675 -1.0497 -1.7818  0.4850
 1656SOL    HW216602   4.045   2.754   2.646 -2.1539 -0.2379  0.9052
 1657SOL     OW16603   2.567   0.613   3.787  0.0842  0.0089  0.4958
 1657SOL    HW116604   2.636   0.590   3.724 -1.7989 -1.6201 -0.9902
 1657SOL    HW216605   2.620   0.654   3.855 -0.4645  1.2613  0.1710
 1658SOL     OW16606   4.041   2.061   2.163  0.6102  0.0519 -0.2145
 1658SOL    HW116607   3.989   2.131   2.125  0.7400 -0.6418 -1.6721
 1658SOL    HW216608   3.991   2.060   2.245 -0.4317 -2.1927 -0.8823
 1659SOL     OW16609   0.022   1.173  10.635 -0.4657 -0.4719 -0.0272
 1659SOL    HW116610   0.073   1.092  10.644 -1.1617 -0.8666  0.4624
 1659SOL    HW216611   4.673   1.147  10.629 -0.5772 -0.4972  1.7734
 1660SOL     OW16612   0.516   3.258   4.017 -0.0497  0.0116 -0.4510
 1660SOL    HW116613   0.520   3.180   3.961  2.1861  0.6921 -1.2559
 1660SOL    HW216614   0.443   3.304   3.976  0.4058 -0.0185 -1.3031
 1661SOL     OW16615   0.285   4.131  10.648 -0.3062  0.0583  0.8796
 1661SOL    HW116616   0.359   4.077  10.621 -2.1174 -2.1236  0.2734
 1661SOL    HW216617   0.300   4.134  10.742 -0.2219 -0.0177  0.8684
 1662SOL     OW16618   1.752   0.974   7.305 -0.5845  0.0117  0.5349
 1662SOL    HW116619   1.814   1.032   7.349 -0.1027  0.7810 -1.1717
 1662SOL    HW216620   1.667   1.005   7.337 -0.9253 -1.2115  0.8285
 1663SOL     OW16621   3.085   1.483   1.083 -0.2187  0.4513 -0.0394
 1663SOL    HW116622   3.051   1.429   1.154 -1.6949  0.3581 -0.8152
 1663SOL    HW216623   3.008   1.491   1.026  1.0435  0.2429 -1.7808
 1664SOL     OW16624   3.851   1.510   4.983 -0.1015 -0.5541  0.3307
 1664SOL    HW116625   3.882   1.599   4.998 -1.8688  0.5184 -2.5084
 1664SOL    HW216626   3.931   1.471   4.947 -0.2675 -1.7151  1.2154
 1665SOL     OW16627   2.411   1.767   7.901 -0.0353 -0.6087 -0.0150
 1665SOL    HW116628   2.377   1.777   7.812 -2.7763 -0.3882  1.0636
 1665SOL    HW216629   2.323   1.768   7.939  0.1503 -1.5497  0.4247
 1666SOL     OW16630   4.365   0.685   9.984  0.3287 -0.1817  0.3300
 1666SOL    HW116631   4.426   0.757   9.993  1.2050 -0.4421 -3.5595
 1666SOL    HW216632   4.339   0.698   9.893 -0.0207 -3.0362  0.0034
 1667SOL     OW16633   0.853   4.355   5.854  0.1868 -0.0464  0.4530
 1667SOL    HW116634   0.914   4.290   5.818  0.5787  0.0761  0.8992
 1667SOL    HW216635   0.779   4.335   5.798 -1.9069  1.1180  2.7967
 1668SOL     OW16636   2.993   1.233   1.250  0.5574  0.4125 -0.2371
 1668SOL    HW116637   2.905   1.266   1.232 -0.4600 -2.0149  0.2200
 1668SOL    HW216638   2.992   1.241   1.345 -1.0626  1.7657 -0.3642
 1669SOL     OW16639   1.366   2.601   1.823  0.5642  0.4806  0.3258
 1669SOL    HW116640   1.443   2.646   1.786  1.4532 -0.1037  1.4490
 1669SOL    HW216641   1.366   2.520   1.771  0.5796  1.6421 -1.4549
 1670SOL     OW16642   2.118   0.806   7.783  0.1329  0.2448  0.2148
 1670SOL    HW116643   2.125   0.722   7.737  1.7980  0.1392  0.6523
 1670SOL    HW216644   2.212   0.819   7.794 -0.1452  1.3342  1.2713
 1671SOL     OW16645   2.680   3.542   8.436  0.3659  0.1055 -0.0518
 1671SOL    HW116646   2.654   3.468   8.491  1.2502  0.2234  0.5249
 1671SOL    HW216647   2.620   3.523   8.364  1.9441 -1.4769 -0.9522
 1672SOL     OW16648   2.629   3.404   3.808 -0.1052 -0.7518 -0.2297
 1672SOL    HW116649   2.584   3.421   3.891  0.1270  0.4104 -0.3330
 1672SOL    HW216650   2.699   3.469   3.804 -1.6101  0.9639  1.4030
 1673SOL     OW16651   0.243   1.493  12.560  0.2065  0.4550  0.8679
 1673SOL    HW116652   0.166   1.550  12.561  0.4258  0.7355  1.9522
 1673SOL    HW216653   0.301   1.523  12.490 -0.9914  0.0344 -0.2830
 1674SOL     OW16654   3.119   4.671   9.335 -0.4540 -0.3962  0.2436
 1674SOL    HW116655   3.147   4.582   9.354 -3.5924 -1.4735 -0.2515
 1674SOL    HW216656   3.036   4.662   9.289 -0.6222 -0.0090  0.4627
 1675SOL     OW16657   1.850   4.595   2.501 -0.1117  0.7368 -0.4775
 1675SOL    HW116658   1.906   4.674   2.502 -1.2249  1.5163  0.5779
 1675SOL    HW216659   1.771   4.639   2.472 -0.3010  1.4084  1.0427
 1676SOL     OW16660   0.575   1.189   0.636 -0.0262  0.0935  0.0902
 1676SOL    HW116661   0.605   1.142   0.558  1.2311 -1.0422  1.2560
 1676SOL    HW216662   0.645   1.175   0.700 -1.4436 -0.0147  1.6021
 1677SOL     OW16663   2.442   1.786   6.063 -0.2531 -0.2270 -0.0663
 1677SOL    HW116664   2.394   1.868   6.078 -0.6829 -0.9917  2.6847
 1677SOL    HW216665   2.375   1.731   6.024  2.0643 -1.9204 -1.6761
 1678SOL     OW16666   4.123   2.684  15.104 -0.4371 -0.5238  0.8261
 1678SOL    HW116667   4.158   2.602  15.138 -0.8673 -0.8828  0.3922
 1678SOL    HW216668   4.064   2.663  15.032  2.8718  2.0707 -2.6385
 1679SOL     OW16669   2.977   0.579   5.094  0.2677  0.1313 -0.6788
 1679SOL    HW116670   3.035   0.558   5.020 -0.3073 -1.3139 -0.7284
 1679SOL    HW216671   3.036   0.556   5.167 -0.4467  0.6927  0.0693
 1680SOL     OW16672   3.353   4.421   9.766 -0.2861  0.3010  0.0027
 1680SOL    HW116673   3.415   4.460   9.827 -0.5031 -2.4683  2.0263
 1680SOL    HW216674   3.420   4.360   9.734  0.2561 -0.0872  1.8543
 1681SOL     OW16675   3.577   2.398   1.376  0.2134 -0.1534  0.0550
 1681SOL    HW116676   3.552   2.486   1.404 -1.3748  0.1246 -2.2853
 1681SOL    HW216677   3.550   2.403   1.285 -0.7515 -0.1288  0.3507
 1682SOL     OW16678   2.314   0.020  17.496 -0.0096 -0.1239  0.3993
 1682SOL    HW116679   2.347   4.728  17.578  1.7586 -1.9570 -1.1202
 1682SOL    HW216680   2.317   4.690  17.434 -1.3241  0.1833 -0.0403
 1683SOL     OW16681   0.939   3.213   7.348  0.1978 -0.3193 -0.0440
 1683SOL    HW116682   0.846   3.195   7.362  0.0756  0.0760 -0.3398
 1683SOL    HW216683   0.983   3.154   7.409 -0.4987  0.0368  0.8023
 1684SOL     OW16684   1.025   4.490   6.060 -0.5738 -0.8478 -0.4453
 1684SOL    HW116685   0.962   4.456   5.996  0.5861 -1.3956 -1.2881
 1684SOL    HW216686   1.011   4.440   6.141 -2.0493  1.2680  0.5883
 1685SOL     OW16687   4.370   0.093   6.916  0.5507  0.0735  0.0236
 1685SOL    HW116688   4.427   0.040   6.861  0.1850 -0.2836 -0.0077
 1685SOL    HW216689   4.388   0.067   7.006  1.4870 -1.4734 -0.6156
 1686SOL     OW16690   3.454   4.037   5.427  0.6531  0.4119 -0.1588
 1686SOL    HW116691   3.378   4.038   5.484  2.0933  2.0276  1.7145
 1686SOL    HW216692   3.498   4.122   5.434 -2.2247  1.7358  1.5841
 1687SOL     OW16693   4.294   0.600  11.728  0.1864 -0.7329  0.3780
 1687SOL    HW116694   4.221   0.562  11.679  0.1585 -0.8563  0.5151
 1687SOL    HW216695   4.353   0.618  11.655 -0.9828 -0.1596 -0.4269
 1688SOL     OW16696   0.292   1.841   4.825 -0.3327  0.2807 -0.2601
 1688SOL    HW116697   0.317   1.897   4.751  1.7907 -0.2355  0.0962
 1688SOL    HW216698   0.377   1.825   4.865 -0.1903  2.3690  0.2942
 1689SOL     OW16699   3.497   2.115  13.223 -0.1585 -0.3602  0.0295
 1689SOL    HW116700   3.448   2.055  13.168 -0.1068  1.1709 -1.6786
 1689SOL    HW216701   3.429   2.171  13.260 -0.9890 -1.7237  0.5569
 1690SOL     OW16702   1.253   3.105  11.409 -0.4654  0.2179  0.5206
 1690SOL    HW116703   1.252   3.079  11.317 -0.5125 -0.7482  0.7916
 1690SOL    HW216704   1.160   3.092  11.431 -0.7203  0.1352 -0.6369
 1691SOL     OW16705   1.583   0.646   1.816  0.1144  0.2945 -0.4630
 1691SOL    HW116706   1.603   0.573   1.758 -0.9828 -0.1975 -0.2251
 1691SOL    HW216707   1.633   0.711   1.767  0.1686 -0.1551 -1.0045
 1692SOL     OW16708   0.446   4.201  11.660 -0.5656  0.3091  0.1731
 1692SOL    HW116709   0.520   4.227  11.714 -1.6427 -0.0163  1.7934
 1692SOL    HW216710   0.486   4.154  11.586  0.6297  3.0100 -0.8952
 1693SOL     OW16711   4.349   4.619  15.779  0.8551  0.1459  0.2191
 1693SOL    HW116712   4.310   4.664  15.854 -0.3368  0.2319 -0.4543
 1693SOL    HW216713   4.430   4.670  15.780  0.1560  1.3038 -0.8050
 1694SOL     OW16714   2.966   0.608   6.244  0.1454 -0.7169 -0.3352
 1694SOL    HW116715   2.900   0.658   6.293  1.2800 -0.5889  1.0384
 1694SOL    HW216716   2.991   0.541   6.307  1.1114 -1.3314 -1.3737
 1695SOL     OW16717   3.784   1.125   1.890  0.4119 -0.1568  0.3109
 1695SOL    HW116718   3.856   1.188   1.892  1.4863 -1.3185 -2.7713
 1695SOL    HW216719   3.822   1.055   1.836  0.0865 -1.4720  1.7931
 1696SOL     OW16720   3.790   0.872   2.464 -0.4108 -0.0654 -0.6068
 1696SOL    HW116721   3.770   0.863   2.557 -2.3318 -2.4632 -1.2403
 1696SOL    HW216722   3.883   0.847   2.461 -0.9591 -2.0867 -1.0557
 1697SOL     OW16723   0.486   0.722  16.698 -0.2732 -0.3920 -0.7656
 1697SOL    HW116724   0.575   0.742  16.667 -0.5478  0.7628 -0.7944
 1697SOL    HW216725   0.464   0.658  16.630 -0.5178 -1.9324  0.7618
 1698SOL     OW16726   1.411   2.431  17.367 -0.1203 -0.3701  0.0992
 1698SOL    HW116727   1.414   2.384  17.284  1.7974 -0.0917  0.0196
 1698SOL    HW216728   1.409   2.523  17.341  0.6395 -0.4399 -0.2139
 1699SOL     OW16729   0.292   2.211  14.692  0.0464 -0.6205  0.3578
 1699SOL    HW116730   0.377   2.184  14.658 -0.1431  0.6243 -1.0643
 1699SOL    HW216731   0.285   2.148  14.764  2.2647 -2.2851 -0.8933
 1700SOL     OW16732   4.158   3.798   2.359 -0.1479 -0.6802  0.1037
 1700SOL    HW116733   4.106   3.827   2.433  1.7531 -0.2577  1.2739
 1700SOL    HW216734   4.116   3.715   2.338 -0.6931 -0.4567  0.3279
 1701SOL     OW16735   0.798   3.611   3.169 -0.6022  0.2727 -0.3860
 1701SOL    HW116736   0.757   3.657   3.242  0.4559  0.0822  0.3385
 1701SOL    HW216737   0.863   3.678   3.146 -0.0284 -0.1663 -0.0311
 1702SOL     OW16738   3.209   4.452   6.418 -0.3359 -0.0764  0.1843
 1702SOL    HW116739   3.184   4.386   6.482 -1.4668 -0.5202 -0.7155
 1702SOL    HW216740   3.238   4.528   6.469 -2.8763  0.5100  0.7750
 1703SOL     OW16741   2.467   0.138  13.444  0.2116 -0.4531  0.3694
 1703SOL    HW116742   2.406   0.212  13.438  0.0514 -0.6775 -0.7204
 1703SOL    HW216743   2.481   0.133  13.539  1.5715  0.3874  0.2165
 1704SOL     OW16744   3.903   2.069   5.945 -0.2149 -0.3475 -0.3551
 1704SOL    HW116745   3.851   2.078   6.025  1.6590  0.8712  0.7331
 1704SOL    HW216746   3.922   1.976   5.935  2.3345  0.0184  0.9137
 1705SOL     OW16747   3.327   3.715   7.501 -0.7154 -0.6257  0.3149
 1705SOL    HW116748   3.352   3.684   7.414 -1.5241 -1.8841  0.5340
 1705SOL    HW216749   3.382   3.656   7.552  0.0225 -0.6052 -0.4564
 1706SOL     OW16750   1.135   4.315  11.650 -0.3832  0.3549  0.2897
 1706SOL    HW116751   1.055   4.262  11.646 -0.5804  0.7499 -1.1162
 1706SOL    HW216752   1.176   4.295  11.567 -2.0272  1.0570 -0.6996
 1707SOL     OW16753   1.487   4.035   8.778  0.5939 -0.8856  0.0078
 1707SOL    HW116754   1.392   4.048   8.783  0.9336  1.3265  0.3941
 1707SOL    HW216755   1.509   3.962   8.837 -0.7060 -1.2684  0.0212
 1708SOL     OW16756   2.710   3.820   9.375  0.7513  0.0146  0.0589
 1708SOL    HW116757   2.634   3.869   9.407  0.9964  1.1246 -1.0487
 1708SOL    HW216758   2.779   3.885   9.388  1.3534 -0.4347 -0.8621
 1709SOL     OW16759   1.065   3.605   4.115  0.1758  0.0221  0.0543
 1709SOL    HW116760   1.091   3.541   4.049 -1.4119  0.9382 -1.4391
 1709SOL    HW216761   1.109   3.681   4.077  1.0815 -0.0852  0.8858
 1710SOL     OW16762   0.959   4.231   1.881 -0.5813  0.0887 -0.2054
 1710SOL    HW116763   1.025   4.274   1.935  1.4930 -0.8821 -1.9311
 1710SOL    HW216764   0.883   4.277   1.916  0.1617  1.2960 -0.1800
 1711SOL     OW16765   4.265   1.003   4.003  0.0965 -0.0336 -0.2795
 1711SOL    HW116766   4.201   0.991   4.073  0.8305 -1.2264  0.1789
 1711SOL    HW216767   4.256   1.093   3.972  1.7465  1.0514  2.3946
 1712SOL     OW16768   3.730   3.527   1.188  0.7585  0.1299 -0.1886
 1712SOL    HW116769   3.809   3.478   1.209  0.9844  0.3243 -0.5785
 1712SOL    HW216770   3.746   3.543   1.095  1.3778 -0.2327 -0.1479
 1713SOL     OW16771   2.743   2.991   6.216  0.2569 -0.2884  0.0584
 1713SOL    HW116772   2.690   2.947   6.282  1.5100 -0.3532  1.0306
 1713SOL    HW216773   2.712   3.082   6.217 -0.7711 -0.6831  2.6740
 1714SOL     OW16774   2.223   3.279   1.191 -0.2435  0.0478  0.1849
 1714SOL    HW116775   2.203   3.293   1.283 -0.3773  0.4708  0.0936
 1714SOL    HW216776   2.234   3.370   1.162 -0.3959  0.5509  1.7294
 1715SOL     OW16777   4.330   4.485   1.767  0.2647  0.3742  0.3329
 1715SOL    HW116778   4.282   4.428   1.706 -1.3807  1.6547  0.4472
 1715SOL    HW216779   4.368   4.542   1.700 -0.3806 -0.3734 -0.6917
 1716SOL     OW16780   0.142   4.101   1.368 -0.3734 -0.2086 -0.8343
 1716SOL    HW116781   0.047   4.091   1.363 -0.4443  1.0629 -2.3403
 1716SOL    HW216782   0.169   4.024   1.317  1.8588 -1.1018  1.7546
 1717SOL     OW16783   0.342   1.551   4.899 -0.3268 -0.0728 -0.4361
 1717SOL    HW116784   0.338   1.621   4.964 -0.9151 -0.4497 -0.0725
 1717SOL    HW216785   0.428   1.576   4.864 -0.7927  1.0775 -0.7832
 1718SOL     OW16786   3.824   0.604   8.364 -0.1417 -0.1876 -0.0656
 1718SOL    HW116787   3.859   0.579   8.450 -3.0869 -0.0170  1.1833
 1718SOL    HW216788   3.784   0.689   8.381  0.4881 -0.0828  0.9323
 1719SOL     OW16789   0.244   3.727   7.726  0.1391 -0.3464  0.3824
 1719SOL    HW116790   0.243   3.804   7.782  1.4496  0.1944 -0.3347
 1719SOL    HW216791   0.242   3.771   7.641 -3.8089 -1.2121  0.0346
 1720SOL     OW16792   3.567   3.698   2.703 -0.2808 -0.4045 -0.3938
 1720SOL    HW116793   3.514   3.699   2.783  0.6124  0.5847  0.1915
 1720SOL    HW216794   3.562   3.605   2.682  0.5976 -0.4466 -0.4122
 1721SOL     OW16795   0.350   4.082  15.572  0.0220 -0.4830 -0.4187
 1721SOL    HW116796   0.319   4.172  15.586 -0.5879 -0.8151  0.4010
 1721SOL    HW216797   0.428   4.077  15.627  1.3849 -2.1116 -2.5111
 1722SOL     OW16798   0.977   3.383   4.279 -0.5223 -0.0095 -0.7540
 1722SOL    HW116799   1.021   3.456   4.234  1.0796 -0.9772 -0.7247
 1722SOL    HW216800   0.901   3.373   4.221 -0.5919  0.7147 -0.7879
 1723SOL     OW16801   0.867   1.202   6.235  0.5197  0.0260  0.1002
 1723SOL    HW116802   0.776   1.193   6.263  0.5924 -1.2108 -0.0511
 1723SOL    HW216803   0.905   1.126   6.280 -0.2281 -2.1383 -2.9596
 1724SOL     OW16804   0.987   3.445   1.977  0.4592 -0.1088 -0.2139
 1724SOL    HW116805   0.950   3.381   2.037 -1.9281 -0.6703 -2.2948
 1724SOL    HW216806   0.918   3.480   1.921  1.2653  0.4535 -0.8759
 1725SOL     OW16807   4.360   2.060  15.100 -0.2462  1.0101 -0.1598
 1725SOL    HW116808   4.439   2.112  15.118  1.0386 -0.4874 -1.3786
 1725SOL    HW216809   4.326   2.038  15.186  2.8083 -2.1792  0.2128
 1726SOL     OW16810   4.100   4.202   6.000  0.8159 -0.5546  0.3603
 1726SOL    HW116811   4.109   4.228   6.091 -1.0073 -2.6012  1.1247
 1726SOL    HW216812   4.009   4.218   5.972  1.0022 -0.6483 -0.3045
 1727SOL     OW16813   0.181   3.113   6.018 -0.0763  0.6226 -0.4107
 1727SOL    HW116814   0.108   3.131   6.077 -0.9059  1.0636 -1.5798
 1727SOL    HW216815   0.205   3.203   5.996  2.7384 -0.2775 -1.0134
 1728SOL     OW16816   1.903   3.122   6.507  0.3054  0.3073 -0.0528
 1728SOL    HW116817   1.929   3.121   6.599 -0.1602 -0.2943  0.0685
 1728SOL    HW216818   1.984   3.084   6.473  0.1881 -1.4229  1.6310
 1729SOL     OW16819   1.072   3.057  15.261 -0.8426  0.1415 -0.1640
 1729SOL    HW116820   1.107   3.058  15.172  0.6215 -1.9083  0.3959
 1729SOL    HW216821   1.046   3.149  15.265 -1.3117 -0.0360  0.9131
 1730SOL     OW16822   0.638   1.558  11.291  0.0828  0.0973 -0.4226
 1730SOL    HW116823   0.575   1.532  11.357  1.7426 -1.9050  0.4011
 1730SOL    HW216824   0.601   1.639  11.256 -0.0726  0.4168  0.4946
 1731SOL     OW16825   3.458   0.362  10.336  0.0789  0.1120  0.6472
 1731SOL    HW116826   3.451   0.394  10.425 -3.2162 -0.9062  0.7596
 1731SOL    HW216827   3.376   0.386  10.294  0.0719 -1.1150 -0.0786
 1732SOL     OW16828   4.432   0.676   7.579 -0.5400  0.5956 -0.4927
 1732SOL    HW116829   4.486   0.597   7.576  0.2897  1.0797  1.6695
 1732SOL    HW216830   4.435   0.698   7.672 -2.1249  0.9827 -0.5201
 1733SOL     OW16831   2.556   0.666   8.892 -0.2154 -0.2589 -0.2985
 1733SOL    HW116832   2.584   0.581   8.859  0.6864  0.2290 -0.7941
 1733SOL    HW216833   2.575   0.657   8.986  0.8016 -1.0429 -0.5779
 1734SOL     OW16834   4.256   1.078   5.687  0.0147  0.0621  0.3076
 1734SOL    HW116835   4.181   1.121   5.645  0.1118  0.1362  0.2118
 1734SOL    HW216836   4.250   0.983   5.680 -0.2330  0.1200 -0.3043
 1735SOL     OW16837   0.812   0.775   2.412  0.6274  0.1026 -0.1633
 1735SOL    HW116838   0.799   0.846   2.474 -0.4584  0.5849 -0.9414
 1735SOL    HW216839   0.735   0.727   2.444  0.9799 -0.9014 -0.8096
 1736SOL     OW16840   0.553   2.745   4.406  0.2260  0.1215 -0.0062
 1736SOL    HW116841   0.599   2.811   4.457 -1.5796  0.7194  0.8219
 1736SOL    HW216842   0.622   2.678   4.412  0.1692 -0.0444 -1.1328
 1737SOL     OW16843   1.157   1.474   5.721 -0.7788 -0.0487  0.6332
 1737SOL    HW116844   1.130   1.382   5.725 -3.0467  0.5832 -0.4077
 1737SOL    HW216845   1.199   1.464   5.636  1.3391 -0.5528  1.7280
 1738SOL     OW16846   4.449   1.314   9.021 -0.2138  0.0939 -0.7573
 1738SOL    HW116847   4.491   1.255   8.958  0.7859 -0.0317  0.0355
 1738SOL    HW216848   4.421   1.385   8.963  0.8717 -0.1317 -1.5565
 1739SOL     OW16849   3.166   4.010   3.105  0.0058  0.4745 -0.6211
 1739SOL    HW116850   3.252   3.970   3.115  0.8852  2.1410 -1.5186
 1739SOL    HW216851   3.159   4.007   3.009 -2.5627 -0.9171 -0.3884
 1740SOL     OW16852   4.071   2.225   3.195  0.5081 -0.3294  0.7815
 1740SOL    HW116853   4.042   2.192   3.109 -1.9290  2.3779  0.5876
 1740SOL    HW216854   4.015   2.165   3.245  0.1293 -1.7918 -1.3654
 1741SOL     OW16855   1.755   1.658   4.347 -0.0311 -0.1789  0.4689
 1741SOL    HW116856   1.787   1.661   4.257 -2.0510 -0.8465 -0.2570
 1741SOL    HW216857   1.798   1.577   4.373 -2.1310 -1.4749 -0.0807
 1742SOL     OW16858   1.895   0.901  14.045 -0.0803  0.0074 -0.2203
 1742SOL    HW116859   1.927   0.860  14.126  0.3987 -0.3284 -0.5770
 1742SOL    HW216860   1.965   0.951  14.004  1.1387 -0.0030  1.8624
 1743SOL     OW16861   4.661   1.060   9.818 -0.7318 -0.4082  0.3128
 1743SOL    HW116862   4.630   1.047   9.729 -0.1091 -0.4511  0.1046
 1743SOL    HW216863   4.740   1.007   9.826 -1.2638 -1.2642 -0.1278
 1744SOL     OW16864   3.538   1.417   7.280 -0.7636  0.0629  0.6538
 1744SOL    HW116865   3.443   1.425   7.287 -0.8390 -0.1974 -0.0874
 1744SOL    HW216866   3.568   1.407   7.370 -0.7812  1.4294  0.8191
 1745SOL     OW16867   0.733   3.481  17.104  0.1326 -0.1113  0.1212
 1745SOL    HW116868   0.827   3.462  17.105 -0.2802 -2.0720  0.4309
 1745SOL    HW216869   0.702   3.459  17.191  0.9632 -1.9671 -0.0621
 1746SOL     OW16870   1.957   3.354   7.150  0.5889  0.3612 -0.5899
 1746SOL    HW116871   2.043   3.386   7.179  1.4846 -0.4190 -2.3875
 1746SOL    HW216872   1.928   3.422   7.090 -1.1393 -1.0464 -1.3526
 1747SOL     OW16873   0.064   4.002   7.729  0.1394  0.6379  0.1641
 1747SOL    HW116874   0.021   4.082   7.760 -2.6861 -0.9694  0.4288
 1747SOL    HW216875   4.731   3.945   7.740 -0.0915  0.7528 -0.8184
 1748SOL     OW16876   4.377   3.244   6.641 -0.6718 -0.2755  0.0169
 1748SOL    HW116877   4.295   3.228   6.688 -0.1190 -1.8686  0.4218
 1748SOL    HW216878   4.358   3.334   6.615 -1.4783 -0.4044  0.1615
 1749SOL     OW16879   2.619   0.226   2.341  0.2157 -0.0281  0.4837
 1749SOL    HW116880   2.583   0.268   2.262  0.1475  0.1536  0.6113
 1749SOL    HW216881   2.552   0.252   2.404  2.8203  0.7870  2.8838
 1750SOL     OW16882   1.252   2.514   2.352 -0.2324  0.1645 -0.5799
 1750SOL    HW116883   1.182   2.554   2.301 -1.2422 -0.0634  0.6107
 1750SOL    HW216884   1.307   2.481   2.281  0.9912  2.9464 -0.9218
 1751SOL     OW16885   4.604   1.489   3.166 -0.4836  0.3884 -0.2227
 1751SOL    HW116886   4.629   1.480   3.258  0.6340 -0.1832 -0.5823
 1751SOL    HW216887   4.530   1.549   3.166 -0.5244  0.3456 -5.6034
 1752SOL     OW16888   0.322   0.976   9.038  0.0949  0.0186 -0.0359
 1752SOL    HW116889   0.233   0.961   9.006  0.0019  1.1060 -0.2757
 1752SOL    HW216890   0.288   1.007   9.122 -0.4396  1.7548 -0.9051
 1753SOL     OW16891   0.482   1.313   2.528 -0.4568  0.7136 -0.3043
 1753SOL    HW116892   0.469   1.379   2.460  0.1620  0.5935 -0.5434
 1753SOL    HW216893   0.421   1.245   2.500 -0.2766  0.3241  0.2428
 1754SOL     OW16894   3.821   1.831   4.481 -0.0301  0.7044 -0.0431
 1754SOL    HW116895   3.798   1.911   4.529 -0.7860  0.0206  0.7253
 1754SOL    HW216896   3.914   1.814   4.498 -0.5713 -0.4414  1.7943
 1755SOL     OW16897   0.502   0.744   8.656  0.6050  0.3074  0.3819
 1755SOL    HW116898   0.444   0.817   8.637  1.2270  0.7797  0.3067
 1755SOL    HW216899   0.525   0.754   8.749  1.6430 -1.5571  0.3342
 1756SOL     OW16900   4.062   4.534  11.812 -0.2098  0.7712 -0.1823
 1756SOL    HW116901   4.107   4.618  11.802 -1.2801  1.7147  2.7378
 1756SOL    HW216902   4.021   4.522  11.727  0.7799  0.6317 -0.6407
 1757SOL     OW16903   3.687   2.431   1.920 -0.0280  0.6045 -0.4564
 1757SOL    HW116904   3.693   2.491   1.846 -1.1919  0.5349 -0.6151
 1757SOL    HW216905   3.659   2.352   1.874 -1.5237 -0.0952  1.6085
 1758SOL     OW16906   2.737   2.170   2.458  0.4981  0.3085  0.1623
 1758SOL    HW116907   2.737   2.074   2.461  0.7569  0.2419 -1.6266
 1758SOL    HW216908   2.645   2.195   2.451  0.3904  0.0227  0.5656
 1759SOL     OW16909   0.980   4.642   8.332  0.2967  0.0157  0.0699
 1759SOL    HW116910   0.941   4.725   8.362  0.0144 -0.1436  0.1465
 1759SOL    HW216911   1.067   4.673   8.308  0.0698  0.9022  0.4085
 1760SOL     OW16912   4.392   2.428   9.542 -0.5935  0.1578  0.0476
 1760SOL    HW116913   4.387   2.355   9.479 -0.7284  1.0966 -1.0295
 1760SOL    HW216914   4.436   2.501   9.499 -2.0231  0.7782 -0.3673
 1761SOL     OW16915   4.149   1.325   2.234 -0.2935 -0.1573  1.3244
 1761SOL    HW116916   4.178   1.399   2.180  0.2942 -0.5530  1.0937
 1761SOL    HW216917   4.123   1.260   2.169  2.1228 -0.8774  1.0614
 1762SOL     OW16918   3.422   2.801   1.966  0.0024  0.4635 -0.5102
 1762SOL    HW116919   3.402   2.713   1.933  0.5263  0.7388 -1.5614
 1762SOL    HW216920   3.342   2.849   1.985 -0.2176 -0.9777  2.2678
 1763SOL     OW16921   2.422   0.046   3.160 -0.6772 -0.2209  0.2290
 1763SOL    HW116922   2.504   0.074   3.201  0.3694 -2.6800 -0.1681
 1763SOL    HW216923   2.394   0.131   3.126  1.0597  0.2540 -0.0236
 1764SOL     OW16924   3.203   1.657   6.616 -0.5789 -0.3435  0.0432
 1764SOL    HW116925   3.223   1.711   6.693 -0.3288 -0.5069  0.0941
 1764SOL    HW216926   3.248   1.695   6.541  0.7636  1.3598  1.7133
 1765SOL     OW16927   0.527   3.610   3.479 -0.4783 -0.2300  0.0430
 1765SOL    HW116928   0.510   3.516   3.479  0.7758 -0.4692 -0.8373
 1765SOL    HW216929   0.462   3.633   3.412 -0.0759  0.0881 -0.2384
 1766SOL     OW16930   4.093   2.886   0.528 -0.0533  0.6732 -0.4014
 1766SOL    HW116931   4.153   2.898   0.602 -1.3715  0.8292  0.6240
 1766SOL    HW216932   4.160   2.871   0.461  2.1583  1.3454  1.6471
 1767SOL     OW16933   3.951   0.424  11.144  0.6107  0.5007  0.3490
 1767SOL    HW116934   3.924   0.498  11.090 -0.4926 -1.1371 -1.3479
 1767SOL    HW216935   3.880   0.360  11.137  1.5004 -0.4358 -0.0095
 1768SOL     OW16936   0.053   1.789  11.387 -0.0761 -0.2447 -0.2800
 1768SOL    HW116937   4.722   1.770  11.445 -0.0444  2.1850  0.5487
 1768SOL    HW216938   0.032   1.754  11.300 -0.2246 -2.4182  0.6451
 1769SOL     OW16939   4.477   2.954  17.701  0.3099 -0.1800  0.0681
 1769SOL    HW116940   4.477   2.975   0.023  2.3525 -0.1872  0.0794
 1769SOL    HW216941   4.392   2.911  17.701  0.6584 -0.8618  2.7545
 1770SOL     OW16942   3.154   4.293   7.275  0.1531  0.3173  0.3505
 1770SOL    HW116943   3.144   4.362   7.340  1.1636  2.0810 -1.3657
 1770SOL    HW216944   3.080   4.235   7.295  0.2693  1.3890  3.8024
 1771SOL     OW16945   0.271   2.131   7.813 -0.0969 -1.0967 -0.2103
 1771SOL    HW116946   0.300   2.175   7.893  0.9612 -0.5535 -0.8907
 1771SOL    HW216947   0.308   2.188   7.746 -0.4840 -0.6291 -0.0247
 1772SOL     OW16948   4.594   2.936   4.242  0.1417  0.2165  0.1442
 1772SOL    HW116949   4.622   2.931   4.150  0.3777 -1.6241  0.2967
 1772SOL    HW216950   4.500   2.922   4.228  0.4108 -0.4572 -1.0472
 1773SOL     OW16951   0.667   2.221   8.102 -0.6938  0.4553 -0.4958
 1773SOL    HW116952   0.713   2.300   8.073  0.1321 -1.1082 -3.4518
 1773SOL    HW216953   0.619   2.198   8.022 -1.8536 -0.6541  0.5291
 1774SOL     OW16954   3.401   3.762   8.970 -0.1794  0.4910  0.4334
 1774SOL    HW116955   3.351   3.680   8.970 -1.2003  1.1005  0.3697
 1774SOL    HW216956   3.329   3.823   8.952 -2.0875 -1.5785  0.9670
 1775SOL     OW16957   3.700   1.771  16.533  0.5113 -0.6175 -0.4287
 1775SOL    HW116958   3.768   1.818  16.484  0.8311 -1.6069 -0.9442
 1775SOL    HW216959   3.724   1.780  16.625  2.8674 -0.8696 -0.9958
 1776SOL     OW16960   1.299   1.810  15.679  0.1287  0.1344  0.4328
 1776SOL    HW116961   1.393   1.830  15.679  0.5205 -1.7779  0.8523
 1776SOL    HW216962   1.278   1.844  15.766  0.8713  0.4043  0.5068
 1777SOL     OW16963   0.668   3.181  11.679 -0.1332  0.1277 -0.1238
 1777SOL    HW116964   0.666   3.113  11.612 -0.4350 -0.1125  0.1302
 1777SOL    HW216965   0.633   3.124  11.747  0.2167 -2.4595 -2.0818
 1778SOL     OW16966   4.636   3.441   9.020 -0.2422  0.0429 -0.1094
 1778SOL    HW116967   4.595   3.394   9.093 -0.4254 -3.7403 -2.6132
 1778SOL    HW216968   4.694   3.373   8.984 -1.3646 -0.6118 -0.6910
 1779SOL     OW16969   1.229   0.284   4.803 -0.2885  0.7670 -0.3978
 1779SOL    HW116970   1.211   0.238   4.721 -0.5056 -0.1539  0.1697
 1779SOL    HW216971   1.285   0.357   4.777 -1.2905  1.3868 -0.8527
 1780SOL     OW16972   1.866   3.569   6.977 -0.0756 -0.4730 -0.3783
 1780SOL    HW116973   1.842   3.547   6.887 -0.8643  0.4498 -0.3888
 1780SOL    HW216974   1.864   3.664   6.981  0.1305 -0.4873  0.1386
 1781SOL     OW16975   4.726   3.262   2.268 -0.8090  0.3513 -0.4254
 1781SOL    HW116976   4.721   3.256   2.172  0.4717  2.2952 -0.6156
 1781SOL    HW216977   4.635   3.253   2.298  0.5157  0.5408  3.5743
 1782SOL     OW16978   2.526   0.400  15.462  0.1205  0.3831 -1.1289
 1782SOL    HW116979   2.541   0.493  15.479  0.2522  0.2974 -0.7774
 1782SOL    HW216980   2.590   0.368  15.399  1.2643  0.3745  0.0449
 1783SOL     OW16981   4.056   2.874   4.061  0.1236 -0.2375 -0.0879
 1783SOL    HW116982   4.056   2.962   4.021 -1.4784  0.6415  1.8146
 1783SOL    HW216983   3.962   2.860   4.072  0.4831 -0.9250  1.9734
 1784SOL     OW16984   0.897   0.965   6.878 -0.2381 -0.2477  0.0103
 1784SOL    HW116985   0.853   0.883   6.859 -0.3181  0.1949 -1.6660
 1784SOL    HW216986   0.827   1.030   6.880  0.0608 -0.0078  2.6958
 1785SOL     OW16987   1.319   4.059   6.218 -0.0650 -0.5463  0.3238
 1785SOL    HW116988   1.332   4.004   6.141 -1.3882  0.6800 -0.7902
 1785SOL    HW216989   1.378   4.024   6.284 -1.0446 -0.1078  1.4196
 1786SOL     OW16990   2.094   1.349   2.280  0.3707  0.0606 -0.1389
 1786SOL    HW116991   2.162   1.299   2.325  1.7261 -0.6508 -2.9439
 1786SOL    HW216992   2.029   1.284   2.255 -0.0144  0.1546  0.6110
 1787SOL     OW16993   3.808   1.566   5.244  0.0436  1.0476 -0.1443
 1787SOL    HW116994   3.845   1.643   5.201  1.3880 -0.4307 -1.5805
 1787SOL    HW216995   3.816   1.498   5.178  4.9586  0.3852  1.1934
 1788SOL     OW16996   4.599   1.212   4.627  0.6343  0.2486 -0.1860
 1788SOL    HW116997   4.566   1.203   4.716 -1.1634  0.7577 -0.8150
 1788SOL    HW216998   4.648   1.293   4.641 -2.5277  1.8992  1.1113
 1789SOL     OW16999   0.643   4.676   1.872  0.3685 -0.2754 -0.2469
 1789SOL    HW117000   0.718   4.683   1.814  0.1839  0.6294 -0.3765
 1789SOL    HW217001   0.596   4.598   1.843  1.7090 -0.9976 -0.4540
 1790SOL     OW17002   2.773   0.321  11.865  0.0177 -0.0466 -0.4691
 1790SOL    HW117003   2.733   0.381  11.802 -0.2774 -0.1626 -0.3902
 1790SOL    HW217004   2.720   0.243  11.848 -0.8987  0.6904 -1.0389
 1791SOL     OW17005   1.496   2.836   7.749  0.2031  0.1108 -0.6414
 1791SOL    HW117006   1.491   2.931   7.736 -0.2731  0.0180 -1.1329
 1791SOL    HW217007   1.592   2.833   7.745  0.1843 -0.2915 -0.7379
 1792SOL     OW17008   4.650   4.302   3.284 -0.6126 -0.0646 -0.3189
 1792SOL    HW117009   4.716   4.302   3.353  0.5168  2.3311 -1.4175
 1792SOL    HW217010   4.577   4.334   3.337  0.8901  1.9968  0.5138
 1793SOL     OW17011   2.831   0.734   2.998 -0.1245  0.2462 -0.1234
 1793SOL    HW117012   2.848   0.652   2.951 -0.0523  0.6162 -0.7358
 1793SOL    HW217013   2.869   0.721   3.085 -1.2053 -1.3917  0.1017
 1794SOL     OW17014   2.352   4.443   4.606 -0.2802  0.1197  0.0731
 1794SOL    HW117015   2.333   4.361   4.559 -1.2584 -0.1770  0.9965
 1794SOL    HW217016   2.396   4.409   4.684 -1.2410 -1.1633  0.0464
 1795SOL     OW17017   1.319   4.736   4.305  0.6447 -0.5336  0.2029
 1795SOL    HW117018   1.358   4.662   4.351  0.6078 -0.3424  0.5383
 1795SOL    HW217019   1.228   4.707   4.291 -0.4164  2.0870  1.7471
 1796SOL     OW17020   1.738   1.466   9.996 -0.4431  0.5431  0.1520
 1796SOL    HW117021   1.668   1.437  10.054 -1.1245 -0.3803 -1.1423
 1796SOL    HW217022   1.700   1.548   9.963 -0.5689 -0.2556 -1.6979
 1797SOL     OW17023   1.265   1.958   4.880 -0.2651 -0.1625  0.0334
 1797SOL    HW117024   1.323   1.974   4.954 -0.1013 -2.7448  0.4583
 1797SOL    HW217025   1.220   1.884   4.921 -0.1645  0.7176  1.7185
 1798SOL     OW17026   2.326   3.814  12.814 -0.1677  0.6442 -0.9006
 1798SOL    HW117027   2.247   3.866  12.801  0.0553  0.5481 -2.6630
 1798SOL    HW217028   2.386   3.873  12.860  0.6716 -1.0835  0.2001
 1799SOL     OW17029   4.101   3.122   3.461  0.1284  0.5231  0.1459
 1799SOL    HW117030   4.184   3.155   3.426 -0.5462  1.7848 -0.2887
 1799SOL    HW217031   4.077   3.065   3.388  0.0947  0.8216 -0.0776
 1800SOL     OW17032   3.897   3.278   9.029 -0.2451  0.0812  0.1835
 1800SOL    HW117033   3.947   3.303   8.952  0.6141  1.6908  1.2653
 1800SOL    HW217034   3.812   3.311   9.000 -0.8611  0.4271  2.3657
 1801SOL     OW17035   1.522   1.689   3.312 -0.5475  0.1573  0.1201
 1801SOL    HW117036   1.454   1.644   3.262 -0.3000  0.7002 -0.6946
 1801SOL    HW217037   1.493   1.675   3.403 -0.9687 -0.9966 -0.1968
 1802SOL     OW17038   0.811   4.638   8.044 -0.1754  0.0437 -0.3392
 1802SOL    HW117039   0.905   4.620   8.034  0.0470  1.4649 -0.7920
 1802SOL    HW217040   0.821   4.729   8.072  2.9683  0.0344 -1.4081
 1803SOL     OW17041   2.174   0.982   7.500 -0.1102  0.2100 -0.4842
 1803SOL    HW117042   2.141   1.039   7.431 -0.0740 -0.3959 -1.0042
 1803SOL    HW217043   2.211   0.907   7.453  1.1568 -0.4616  1.5956
 1804SOL     OW17044   4.594   2.773   0.878  0.4946 -0.4172 -1.0392
 1804SOL    HW117045   4.532   2.755   0.807 -0.9006 -1.9541  0.5595
 1804SOL    HW217046   4.659   2.706   0.855  1.1647 -0.5614  1.2572
 1805SOL     OW17047   4.721   3.706   8.599  0.2654 -0.5233  0.1903
 1805SOL    HW117048   0.064   3.747   8.596 -1.3165  2.8997  1.1299
 1805SOL    HW217049   4.701   3.679   8.509 -1.2851 -0.2801  0.4595
 1806SOL     OW17050   3.056   2.530  17.495  1.0729 -0.6597 -0.1835
 1806SOL    HW117051   2.987   2.548  17.432  1.3288 -0.8217 -0.5076
 1806SOL    HW217052   3.066   2.612  17.544  1.2049 -2.3754  2.6554
 1807SOL     OW17053   3.597   1.737   4.351 -1.4250  0.1751 -0.4541
 1807SOL    HW117054   3.577   1.659   4.403  1.2962 -1.5737 -2.0578
 1807SOL    HW217055   3.687   1.762   4.373 -1.6669  1.0933 -0.4959
 1808SOL     OW17056   2.646   0.178   3.142  0.4294 -0.0289  0.1594
 1808SOL    HW117057   2.615   0.269   3.142 -2.7208 -1.1108 -2.6573
 1808SOL    HW217058   2.696   0.169   3.061  1.4395 -0.9355  0.8887
 1809SOL     OW17059   2.810   2.712   8.230  0.0603  0.6177  0.2638
 1809SOL    HW117060   2.771   2.626   8.246  1.9332 -0.2105  0.4434
 1809SOL    HW217061   2.758   2.769   8.286  0.9530  0.2378  1.4788
 1810SOL     OW17062   3.604   3.921   6.408  0.0802  0.4731  0.2031
 1810SOL    HW117063   3.515   3.917   6.444  0.3743 -0.2416  0.8554
 1810SOL    HW217064   3.601   3.949   6.316 -0.5286  0.8177  0.3273
 1811SOL     OW17065   4.176   4.129   2.438 -0.3574  1.0878 -0.1700
 1811SOL    HW117066   4.246   4.070   2.410 -1.3837 -1.3958  2.4653
 1811SOL    HW217067   4.223   4.212   2.429  0.1331  0.8587  0.2701
 1812SOL     OW17068   1.236   4.625   3.466  0.2226 -0.1159 -0.0915
 1812SOL    HW117069   1.230   4.627   3.562 -1.6650  1.3550 -0.2417
 1812SOL    HW217070   1.158   4.575   3.441  0.3074 -0.6915  0.7711
 1813SOL     OW17071   4.041   0.481   9.371 -0.1134  0.2399 -0.6919
 1813SOL    HW117072   3.984   0.515   9.301  0.4837  0.2819 -1.1585
 1813SOL    HW217073   4.112   0.546   9.371 -1.3772  1.5959  0.8201
 1814SOL     OW17074   0.817   1.605   8.438 -0.0869  0.1629  0.0589
 1814SOL    HW117075   0.761   1.557   8.377 -1.3909  1.5284  0.1790
 1814SOL    HW217076   0.894   1.550   8.431 -1.7947 -2.1195 -0.8031
 1815SOL     OW17077   4.393   4.614  14.456  0.4393  0.0943 -0.4337
 1815SOL    HW117078   4.403   4.551  14.385  0.5901 -1.4530  0.9521
 1815SOL    HW217079   4.453   4.678  14.418 -1.0634 -0.3077 -3.4534
 1816SOL     OW17080   3.600   3.123   7.137 -0.7773 -0.0373 -0.4311
 1816SOL    HW117081   3.652   3.154   7.211  0.5602 -3.5515  0.1124
 1816SOL    HW217082   3.650   3.045   7.112 -0.2566  1.2291 -3.4235
 1817SOL     OW17083   3.077   3.485   3.260  0.6341 -0.1034  0.3148
 1817SOL    HW117084   3.017   3.411   3.269  0.2850  0.1905  0.4027
 1817SOL    HW217085   3.089   3.496   3.166 -2.0329  1.1587  0.1456
 1818SOL     OW17086   4.307   2.735   4.810 -0.3146 -0.6509  0.3442
 1818SOL    HW117087   4.299   2.641   4.797  0.7303 -0.7621  0.5436
 1818SOL    HW217088   4.380   2.722   4.870  0.4497  1.0208 -0.2059
 1819SOL     OW17089   0.482   2.660  11.418 -0.0530  0.7681 -0.1276
 1819SOL    HW117090   0.470   2.740  11.469  2.4141  1.5999 -0.8517
 1819SOL    HW217091   0.425   2.676  11.343 -0.0927  1.5540  0.0677
 1820SOL     OW17092   1.167   2.623   3.212 -0.2179  0.1444 -0.8160
 1820SOL    HW117093   1.253   2.619   3.170 -1.2381 -0.2885 -2.8848
 1820SOL    HW217094   1.160   2.542   3.261 -1.1150  1.3102  0.9791
 1821SOL     OW17095   3.530   1.998   5.422  0.3301 -0.1497 -0.4156
 1821SOL    HW117096   3.467   1.962   5.360 -0.5264 -1.0125  0.9571
 1821SOL    HW217097   3.484   1.988   5.506  4.0453  0.7464  1.7042
 1822SOL     OW17098   1.219   2.179  14.779 -0.2514  0.3830  0.2729
 1822SOL    HW117099   1.302   2.131  14.780 -1.4026 -1.6295 -1.7115
 1822SOL    HW217100   1.158   2.114  14.813  0.9326 -0.7229  0.2664
 1823SOL     OW17101   1.467   2.767   1.384  0.1274 -0.2723  0.2288
 1823SOL    HW117102   1.494   2.762   1.476  2.1308 -1.5541 -0.4418
 1823SOL    HW217103   1.386   2.814   1.404 -0.1606 -2.1309  3.4623
 1824SOL     OW17104   3.579   3.104   8.983 -0.1612  0.2521  0.1514
 1824SOL    HW117105   3.528   3.081   8.905 -0.4655  3.3548 -0.5757
 1824SOL    HW217106   3.618   3.183   8.945 -1.1109 -0.3443 -2.0652
 1825SOL     OW17107   2.436   1.049   9.384  0.1127 -0.0439  0.1933
 1825SOL    HW117108   2.471   1.133   9.414  1.0672 -0.7200  0.9828
 1825SOL    HW217109   2.484   0.989   9.442  0.0119 -1.2588 -0.9631
 1826SOL     OW17110   2.959   0.792  17.111 -0.1157  0.2147  0.2274
 1826SOL    HW117111   2.904   0.842  17.171  0.5898  1.5028 -0.1904
 1826SOL    HW217112   3.022   0.754  17.173  0.1592 -0.3804 -0.4135
 1827SOL     OW17113   0.205   1.699   7.691 -0.3047 -0.0090 -0.2788
 1827SOL    HW117114   0.166   1.785   7.676 -1.4175 -0.3631  0.6571
 1827SOL    HW217115   0.284   1.725   7.740  0.4971  0.1304 -1.6367
 1828SOL     OW17116   3.408   1.973   2.069 -0.2801 -0.0393  0.0209
 1828SOL    HW117117   3.343   1.975   2.139 -0.0274  1.4558  0.2167
 1828SOL    HW217118   3.481   2.016   2.114  0.3474  2.3585 -3.3344
 1829SOL     OW17119   4.184   0.399   4.262 -0.7595 -0.3859  0.2384
 1829SOL    HW117120   4.193   0.490   4.234 -0.3121  0.0662  1.8559
 1829SOL    HW217121   4.270   0.356   4.263 -0.5382  0.0948  1.5126
 1830SOL     OW17122   1.210   0.075   7.563 -0.6245 -0.3739  0.2312
 1830SOL    HW117123   1.273   0.147   7.557 -2.3550  1.1860  0.8642
 1830SOL    HW217124   1.135   0.114   7.519 -0.7569 -1.6304 -0.6599
 1831SOL     OW17125   0.114   4.440   4.221  0.2722 -0.1580 -0.2333
 1831SOL    HW117126   0.079   4.512   4.274  0.1802 -0.2256 -0.2016
 1831SOL    HW217127   0.080   4.356   4.252  1.5063 -0.4766  0.2551
 1832SOL     OW17128   4.505   3.533  13.262  0.0102 -0.5762  0.5433
 1832SOL    HW117129   4.435   3.471  13.240 -0.4233  0.1650 -0.1460
 1832SOL    HW217130   4.544   3.556  13.178 -1.0139  1.7672  0.7160
 1833SOL     OW17131   0.236   1.571  14.484 -0.2442  0.3611  0.2049
 1833SOL    HW117132   0.158   1.606  14.526  0.4579  2.3494 -0.1473
 1833SOL    HW217133   0.196   1.513  14.419  3.0630 -2.7588  0.9757
 1834SOL     OW17134   4.038   0.828   8.907  0.3243  0.3619 -0.5105
 1834SOL    HW117135   4.105   0.881   8.864  0.4701  1.7629  1.4912
 1834SOL    HW217136   3.961   0.883   8.895  0.6405  0.9773  0.3474
 1835SOL     OW17137   3.795   3.274  11.073 -0.0967 -0.4161 -0.3868
 1835SOL    HW117138   3.738   3.269  11.149  1.5627  1.4676  0.9942
 1835SOL    HW217139   3.835   3.361  11.079  1.9024 -1.4070  0.6914
 1836SOL     OW17140   1.533   4.717  16.960 -0.3667  0.5908 -0.3578
 1836SOL    HW117141   1.551   4.738  17.052  0.0300  0.6959 -0.4548
 1836SOL    HW217142   1.470   4.649  16.981  2.1756 -2.1514 -1.7106
 1837SOL     OW17143   2.697   2.228  17.213  0.3630  0.3170 -0.0725
 1837SOL    HW117144   2.693   2.301  17.151 -1.0570  1.5888  1.5370
 1837SOL    HW217145   2.670   2.159  17.151  0.2649  1.2815 -1.1133
 1838SOL     OW17146   2.787   0.746  10.422 -0.8862  0.6250 -0.1807
 1838SOL    HW117147   2.849   0.674  10.434 -0.9737  0.5465 -0.2036
 1838SOL    HW217148   2.837   0.825  10.440  1.3830 -1.2425  1.7313
 1839SOL     OW17149   4.362   1.762   2.079  0.0468 -0.4645 -0.3146
 1839SOL    HW117150   4.290   1.765   2.017  0.7614 -0.2038 -1.1252
 1839SOL    HW217151   4.402   1.675   2.069  1.9190  0.2493  0.8410
 1840SOL     OW17152   4.161   3.953   1.330 -0.1461  0.0021 -0.0525
 1840SOL    HW117153   4.146   3.988   1.242 -1.7105  0.4756  0.4003
 1840SOL    HW217154   4.256   3.947   1.337 -0.0803  0.9412 -0.1285
 1841SOL     OW17155   1.625   3.868   1.287  0.3330 -0.4123 -0.2078
 1841SOL    HW117156   1.714   3.898   1.267  0.0519 -0.3570 -1.3755
 1841SOL    HW217157   1.619   3.896   1.379  0.4928  3.0066 -1.2506
 1842SOL     OW17158   2.271   2.648   6.715  0.1867 -0.3150  0.1214
 1842SOL    HW117159   2.236   2.723   6.667  0.1051  0.0506  0.7451
 1842SOL    HW217160   2.215   2.639   6.792 -3.2024  0.6903 -2.1982
 1843SOL     OW17161   2.274   2.359  10.769  0.2858 -0.8213  0.6706
 1843SOL    HW117162   2.342   2.373  10.835 -0.0925  1.6887  0.5125
 1843SOL    HW217163   2.286   2.265  10.757  1.4827 -0.5183 -0.4773
 1844SOL     OW17164   0.537   2.432  11.150  0.1201  0.5361  0.5389
 1844SOL    HW117165   0.445   2.436  11.177 -0.0498 -1.3058  0.2659
 1844SOL    HW217166   0.583   2.481  11.218  2.2188  1.9749 -1.9161
 1845SOL     OW17167   4.504   0.297   8.635 -0.4832 -0.2286 -0.7763
 1845SOL    HW117168   4.573   0.230   8.638  2.6678  2.9329 -2.9749
 1845SOL    HW217169   4.484   0.311   8.727 -2.0106 -0.5616 -1.0534
 1846SOL     OW17170   2.855   2.708   6.241  0.2023 -0.1346  0.0183
 1846SOL    HW117171   2.858   2.783   6.182 -0.8434 -1.5381 -1.8149
 1846SOL    HW217172   2.760   2.695   6.240  0.0494  0.8632  1.1393
 1847SOL     OW17173   2.609   1.704   2.009  0.1545 -0.0932 -0.6537
 1847SOL    HW117174   2.647   1.790   1.989 -0.9148  1.1526  2.6463
 1847SOL    HW217175   2.531   1.730   2.057 -1.1307  0.9257 -3.2793
 1848SOL     OW17176   0.755   2.659   1.266  0.1997 -0.7429  0.4384
 1848SOL    HW117177   0.827   2.712   1.234  1.7674 -2.7804  0.5874
 1848SOL    HW217178   0.811   2.600   1.317  2.0181  2.8744  2.6118
 1849SOL     OW17179   2.965   1.462   5.340  0.1466  0.6260 -0.0479
 1849SOL    HW117180   3.055   1.428   5.336  0.4236  1.2585  0.8003
 1849SOL    HW217181   2.915   1.382   5.322  1.1440 -0.4218  1.8250
 1850SOL     OW17182   1.656   2.780   3.160  0.7131 -0.2065 -0.1671
 1850SOL    HW117183   1.687   2.802   3.073  0.4459  1.8815  0.2699
 1850SOL    HW217184   1.694   2.696   3.188  1.6809 -0.0755 -1.1126
 1851SOL     OW17185   0.625   0.495   8.107 -0.4508  0.1980  0.0889
 1851SOL    HW117186   0.571   0.573   8.121 -0.0030  0.7540 -1.3122
 1851SOL    HW217187   0.559   0.426   8.114 -1.3660  1.0681 -0.0500
 1852SOL     OW17188   0.647   1.645   2.226 -0.4665 -0.5723  0.0236
 1852SOL    HW117189   0.602   1.680   2.304 -0.0811 -0.1818  0.0693
 1852SOL    HW217190   0.565   1.626   2.180 -0.1098 -0.8020 -0.5104
 1853SOL     OW17191   0.900   3.946   2.601  0.6776 -0.2394  0.4777
 1853SOL    HW117192   0.944   3.976   2.521  0.2534  1.8587  1.0451
 1853SOL    HW217193   0.809   3.975   2.588 -0.0195 -1.6871  2.0772
 1854SOL     OW17194   4.464   3.703  11.293 -0.5654 -0.2385 -0.4911
 1854SOL    HW117195   4.468   3.611  11.265 -1.0218 -1.2261  2.7431
 1854SOL    HW217196   4.531   3.695  11.361  0.3750 -0.6273 -1.4588
 1855SOL     OW17197   0.736   3.932   3.143  0.6800 -0.0647 -0.1158
 1855SOL    HW117198   0.819   3.928   3.095  0.2933 -0.9754 -0.7165
 1855SOL    HW217199   0.725   4.024   3.163 -0.2500  0.2322 -1.9515
 1856SOL     OW17200   0.434   2.703   3.921  0.6789  0.2948 -0.9483
 1856SOL    HW117201   0.461   2.733   4.008  3.6875 -1.1781 -1.3556
 1856SOL    HW217202   0.524   2.675   3.902  1.3823  0.8379  1.4602
 1857SOL     OW17203   1.603   2.102   9.196 -0.1521 -0.3352  0.3772
 1857SOL    HW117204   1.585   2.013   9.226 -0.6449  0.0967  1.3477
 1857SOL    HW217205   1.556   2.118   9.114 -1.0569 -2.6510  0.4286
 1858SOL     OW17206   3.352   0.777   3.648  0.4501 -0.0050 -0.0610
 1858SOL    HW117207   3.373   0.734   3.731  1.7236  1.1925  0.2331
 1858SOL    HW217208   3.379   0.864   3.677 -0.1229 -0.7624  2.8226
 1859SOL     OW17209   1.781   3.854   6.309 -0.1459 -0.6310 -0.3918
 1859SOL    HW117210   1.721   3.928   6.297  0.3939 -0.2105 -0.5155
 1859SOL    HW217211   1.753   3.802   6.234 -0.3960 -0.2831 -0.5391
 1860SOL     OW17212   1.147   2.941   1.904  0.0308  0.3536 -0.6212
 1860SOL    HW117213   1.128   2.908   1.992 -0.3234  0.0607 -0.8040
 1860SOL    HW217214   1.064   2.922   1.860 -0.5529 -0.3811  0.7934
 1861SOL     OW17215   4.060   2.249   2.446  0.8219 -0.3841 -0.3065
 1861SOL    HW117216   3.989   2.194   2.479  1.3936  0.2249  1.9220
 1861SOL    HW217217   4.016   2.320   2.398  0.5963 -0.3972 -0.1153
 1862SOL     OW17218   2.969   3.247   7.662 -0.0765  0.5453  0.4351
 1862SOL    HW117219   2.914   3.183   7.616  1.1331  0.0633 -0.3376
 1862SOL    HW217220   3.014   3.183   7.717  2.8636  0.2989 -2.2473
 1863SOL     OW17221   1.672   1.994   6.991 -0.3118  0.3832 -0.6438
 1863SOL    HW117222   1.585   2.017   6.959 -0.5400  0.0022 -0.2765
 1863SOL    HW217223   1.645   1.951   7.071  0.8262 -0.1167 -0.5219
 1864SOL     OW17224   0.050   4.658   0.834  0.3756  0.4767  0.2277
 1864SOL    HW117225   4.709   4.632   0.796  0.8954  1.2508 -1.4546
 1864SOL    HW217226   0.054   0.008   0.814  1.3110  0.0601 -1.5592
 1865SOL     OW17227   3.995   2.816   6.815 -0.1809  0.0788  0.2261
 1865SOL    HW117228   3.935   2.884   6.845 -1.7445 -1.9271  1.6731
 1865SOL    HW217229   4.075   2.846   6.857  0.1984  0.0328 -0.4659
 1866SOL     OW17230   1.933   0.621   2.149 -0.1499 -0.2578  0.2985
 1866SOL    HW117231   1.843   0.619   2.117  0.2807 -0.4403 -0.9103
 1866SOL    HW217232   1.928   0.677   2.227 -1.5738 -0.3693  0.2694
 1867SOL     OW17233   0.187   2.842   1.726  0.0923  0.6741 -0.2863
 1867SOL    HW117234   0.263   2.790   1.752 -0.0738  0.4493 -0.2523
 1867SOL    HW217235   0.116   2.787   1.760  0.3694  0.6041  0.1809
 1868SOL     OW17236   4.575   1.224  17.249 -0.1869 -0.1295  0.5669
 1868SOL    HW117237   4.602   1.153  17.191 -0.4127  2.2430 -2.4557
 1868SOL    HW217238   4.621   1.217  17.332 -0.0158  1.5623  0.6256
 1869SOL     OW17239   3.083   1.679   3.587 -0.3034 -0.7489  0.3983
 1869SOL    HW117240   3.026   1.627   3.531 -0.2364 -0.5966  0.1875
 1869SOL    HW217241   3.082   1.631   3.669 -0.4375 -2.7134 -0.7506
 1870SOL     OW17242   3.100   1.406   2.980  0.3443 -0.2538 -0.1061
 1870SOL    HW117243   3.169   1.441   2.923 -0.7817  0.1319 -1.2266
 1870SOL    HW217244   3.038   1.364   2.920 -1.6797  1.6025  0.7166
 1871SOL     OW17245   2.702   0.313  13.532  0.0830  0.1504 -0.1535
 1871SOL    HW117246   2.655   0.242  13.575  0.3431 -0.2263 -0.4916
 1871SOL    HW217247   2.634   0.361  13.484  1.9381  1.1323 -1.7901
 1872SOL     OW17248   1.836   1.725   9.574  0.1549 -0.5801 -0.1570
 1872SOL    HW117249   1.757   1.678   9.601  0.1843 -1.1261 -1.0482
 1872SOL    HW217250   1.834   1.799   9.635  0.0459  0.1509 -1.0581
 1873SOL     OW17251   3.939   4.348   6.659 -0.1510 -0.3641  0.6818
 1873SOL    HW117252   3.982   4.272   6.619  0.5439  1.0598 -1.2212
 1873SOL    HW217253   3.861   4.354   6.605  0.7349  1.7814 -0.3281
 1874SOL     OW17254   3.118   0.796   9.774 -0.0673  0.7707 -0.5093
 1874SOL    HW117255   3.200   0.768   9.815  0.1123  0.2856 -1.1977
 1874SOL    HW217256   3.105   0.878   9.821  1.7895 -0.4932  2.2442
 1875SOL     OW17257   1.990   3.168  11.738 -0.3780 -0.1483  0.8465
 1875SOL    HW117258   2.048   3.241  11.755  0.6464 -1.1481  1.6787
 1875SOL    HW217259   2.049   3.102  11.700  1.4289  1.8778  0.1435
 1876SOL     OW17260   1.709   1.786   4.795  0.3349  0.2960  0.2200
 1876SOL    HW117261   1.798   1.779   4.762 -0.0702  1.8138 -1.1616
 1876SOL    HW217262   1.723   1.834   4.877  0.2053  1.3290 -0.3699
 1877SOL     OW17263   3.008   4.278   4.700 -0.0309  0.6555  0.6334
 1877SOL    HW117264   2.996   4.200   4.647  1.5670  1.2303 -0.5585
 1877SOL    HW217265   3.030   4.347   4.637 -0.6541  0.0988 -0.1911
 1878SOL     OW17266   1.588   0.557  13.885 -0.3853 -0.2698 -0.5338
 1878SOL    HW117267   1.621   0.647  13.889 -1.5450  0.0668  1.4000
 1878SOL    HW217268   1.611   0.514  13.967  1.9898  0.2566 -0.9443
 1879SOL     OW17269   3.403   2.748   9.584 -0.6691  0.6162  0.3794
 1879SOL    HW117270   3.412   2.666   9.633  1.5654  0.7594  0.1873
 1879SOL    HW217271   3.498   2.756   9.581 -0.6685 -0.0014 -0.9684
 1880SOL     OW17272   0.111   1.242   7.102  1.0523  0.1428 -0.4249
 1880SOL    HW117273   0.052   1.313   7.076  2.1021  0.9745 -0.5702
 1880SOL    HW217274   0.141   1.263   7.191 -0.9443  1.0689  0.0194
 1881SOL     OW17275   1.097   0.539   3.038  0.4458  0.2374 -0.8346
 1881SOL    HW117276   1.048   0.458   3.022  1.9600 -0.8069 -0.1720
 1881SOL    HW217277   1.064   0.594   2.967  0.5915 -2.0958 -2.6787
 1882SOL     OW17278   4.360   0.046   2.677 -0.6826 -0.0583 -0.3982
 1882SOL    HW117279   4.373   0.041   2.772  0.0453 -2.2341 -0.6151
 1882SOL    HW217280   4.327   0.136   2.674 -0.9073 -0.1630 -0.9409
 1883SOL     OW17281   0.164   4.041   4.923 -0.0337 -0.2058 -0.2108
 1883SOL    HW117282   0.090   4.053   4.983 -0.0400  1.8958 -0.6546
 1883SOL    HW217283   0.124   4.005   4.844 -0.5849 -0.5003  0.2021
 1884SOL     OW17284   3.945   4.050   2.342  0.0949  0.6197  0.1250
 1884SOL    HW117285   4.019   4.094   2.385  0.6215 -0.1101 -0.0414
 1884SOL    HW217286   3.865   4.080   2.386 -0.4096 -0.7498  0.1227
 1885SOL     OW17287   1.985   2.475   9.004 -0.0114  0.6007  0.4082
 1885SOL    HW117288   2.004   2.508   8.915  1.4907  1.6679  1.1199
 1885SOL    HW217289   2.073   2.447   9.031 -0.4046  0.4028  1.4439
 1886SOL     OW17290   0.929   2.746   8.740  0.6479 -0.2085 -0.0837
 1886SOL    HW117291   1.017   2.776   8.764 -0.1135  1.1033  1.0608
 1886SOL    HW217292   0.900   2.674   8.797  3.6221 -1.2424  0.1167
 1887SOL     OW17293   4.367   3.323   3.740  0.0365  0.4405  0.0303
 1887SOL    HW117294   4.296   3.307   3.802 -1.5787  1.2130 -1.6225
 1887SOL    HW217295   4.343   3.399   3.686 -1.1953  0.8848  1.2301
 1888SOL     OW17296   2.786   2.517   2.647  0.2911  0.3915  0.2778
 1888SOL    HW117297   2.753   2.606   2.645 -0.8360 -0.0678 -1.5650
 1888SOL    HW217298   2.775   2.487   2.737 -1.3339  0.3634  0.0664
 1889SOL     OW17299   1.316   3.199   1.133 -0.0060 -0.2931  0.0876
 1889SOL    HW117300   1.341   3.247   1.054  1.5551  1.5783  1.7207
 1889SOL    HW217301   1.394   3.216   1.186  0.5431 -0.3004 -0.7144
 1890SOL     OW17302   1.685   1.859   3.466  0.6922 -0.1194  0.4132
 1890SOL    HW117303   1.613   1.922   3.475  1.2472  0.4432  0.8616
 1890SOL    HW217304   1.629   1.789   3.432 -0.2072  0.8542 -0.1295
 1891SOL     OW17305   2.409   2.026   4.502 -0.0220 -0.4049 -0.0220
 1891SOL    HW117306   2.390   1.935   4.525  0.9426 -1.2457 -2.5442
 1891SOL    HW217307   2.361   2.051   4.423 -0.1893 -1.4668 -0.2546
 1892SOL     OW17308   2.050   2.914   4.133 -0.0643 -0.1394 -0.2383
 1892SOL    HW117309   2.064   2.941   4.224 -0.3557 -0.1931 -0.1780
 1892SOL    HW217310   1.954   2.911   4.132 -0.1133  0.1927  1.8869
 1893SOL     OW17311   4.382   1.681   2.385  0.5672 -0.0021  0.2853
 1893SOL    HW117312   4.388   1.674   2.290 -0.4697 -1.7070  0.3550
 1893SOL    HW217313   4.288   1.694   2.398  0.2706 -0.0324 -1.9209
 1894SOL     OW17314   2.833   3.199  12.451 -0.1460  0.1614 -0.2257
 1894SOL    HW117315   2.801   3.278  12.408  2.0777  0.9470 -0.4393
 1894SOL    HW217316   2.926   3.220  12.461  1.0426 -4.6862 -1.0439
 1895SOL     OW17317   3.035   0.518   9.075  0.6396 -0.5536 -0.0514
 1895SOL    HW117318   3.007   0.483   9.160 -1.1881  1.1047  0.0185
 1895SOL    HW217319   3.101   0.580   9.105 -1.1951 -0.3678  3.6047
 1896SOL     OW17320   2.223   0.199   1.665 -0.5116 -0.1742  0.2481
 1896SOL    HW117321   2.313   0.168   1.660 -0.2381  0.8172 -0.9061
 1896SOL    HW217322   2.236   0.262   1.736  1.5539  0.5250 -0.7569
 1897SOL     OW17323   4.157   2.832   4.619  0.0118 -0.0597  0.2786
 1897SOL    HW117324   4.153   2.926   4.638  1.0225 -0.0190  0.3140
 1897SOL    HW217325   4.186   2.787   4.698 -0.1760 -2.7834 -1.2118
 1898SOL     OW17326   2.754   3.781  16.864 -0.1814  0.0826 -0.0016
 1898SOL    HW117327   2.843   3.807  16.885 -0.7302 -0.9287  3.4995
 1898SOL    HW217328   2.712   3.858  16.826 -0.8110 -0.5525 -0.6144
 1899SOL     OW17329   1.649   1.722   9.946  0.0559  0.1263  0.0831
 1899SOL    HW117330   1.618   1.788  10.007 -0.7339  0.0279 -0.2124
 1899SOL    HW217331   1.613   1.753   9.863  2.8603  1.7428 -0.5314
 1900SOL     OW17332   3.377   0.878  11.692  0.4363  0.2167 -0.6839
 1900SOL    HW117333   3.453   0.824  11.669 -0.0703 -0.6912 -0.2446
 1900SOL    HW217334   3.399   0.890  11.784  0.4608 -0.9108 -0.5422
 1901SOL     OW17335   3.280   2.356  11.104  0.6388  0.3685 -0.3545
 1901SOL    HW117336   3.339   2.297  11.057  0.2212  1.2429 -1.9764
 1901SOL    HW217337   3.337   2.421  11.144 -1.1271  1.1811  0.8163
 1902SOL     OW17338   3.180   3.126   6.964  0.0181 -0.3851  0.1678
 1902SOL    HW117339   3.225   3.103   6.883  2.3264  1.5460  0.8744
 1902SOL    HW217340   3.095   3.156   6.932 -0.4488 -0.5519  1.2279
 1903SOL     OW17341   2.792   4.276  10.538 -0.1890  0.4886 -0.0392
 1903SOL    HW117342   2.774   4.366  10.510 -0.3485  0.9701  1.6190
 1903SOL    HW217343   2.705   4.237  10.528  0.7694 -2.0499  1.4299
 1904SOL     OW17344   4.673   2.775   5.160 -1.0171  0.1521 -0.5796
 1904SOL    HW117345   4.636   2.694   5.126 -2.4898  0.9861 -0.9234
 1904SOL    HW217346   4.626   2.845   5.115  0.1712  0.3788 -1.4965
 1905SOL     OW17347   3.708   0.377   2.302  0.1021  0.2125  0.1129
 1905SOL    HW117348   3.617   0.366   2.273  0.8052 -1.1043 -1.5736
 1905SOL    HW217349   3.694   0.426   2.383  1.9267 -2.3833  1.9926
 1906SOL     OW17350   3.055   4.489   4.529 -0.5948  0.0531 -0.2322
 1906SOL    HW117351   3.009   4.547   4.590 -1.1819  0.1125 -0.7227
 1906SOL    HW217352   2.992   4.492   4.456 -0.0635 -3.2105 -0.8016
 1907SOL     OW17353   3.909   3.763   8.458 -0.3090  0.0628 -0.1087
 1907SOL    HW117354   3.895   3.703   8.385  4.7136  0.8446 -1.7066
 1907SOL    HW217355   3.992   3.727   8.489 -0.8467  0.9398  2.3485
 1908SOL     OW17356   2.211   3.765   5.784 -0.3489  0.3698 -0.1259
 1908SOL    HW117357   2.218   3.860   5.773  0.3258  0.0489 -2.6434
 1908SOL    HW217358   2.302   3.743   5.764 -0.1297 -0.1909  1.5608
 1909SOL     OW17359   1.018   3.123   3.935  0.5613  0.2034  0.2210
 1909SOL    HW117360   0.971   3.084   4.009  0.0297 -0.3238 -0.3902
 1909SOL    HW217361   0.943   3.137   3.878 -1.5662 -1.2355  2.6626
 1910SOL     OW17362   3.729   4.595   2.484  0.6932 -0.0030 -0.1859
 1910SOL    HW117363   3.818   4.626   2.466  0.5312  0.6875  0.2143
 1910SOL    HW217364   3.677   4.667   2.449 -1.6532 -1.0082  1.2419
 1911SOL     OW17365   0.576   0.067   2.322  0.7232 -0.2777  0.1855
 1911SOL    HW117366   0.613   0.121   2.253  0.4246  0.2560  0.4399
 1911SOL    HW217367   0.567   0.130   2.394  0.3953 -0.4532  0.2998
 1912SOL     OW17368   0.299   1.951  14.815 -0.4564  0.0926  0.4658
 1912SOL    HW117369   0.285   1.856  14.819 -0.0874 -0.1061 -3.2298
 1912SOL    HW217370   0.339   1.978  14.898  2.3444  1.1609 -1.2260
 1913SOL     OW17371   4.186   1.196   3.176 -0.0057  0.2292  0.1202
 1913SOL    HW117372   4.127   1.189   3.101  0.8140  0.7758 -0.5772
 1913SOL    HW217373   4.275   1.210   3.144 -0.1388  2.8232  0.9513
 1914SOL     OW17374   2.894   0.968   1.670  0.1477 -0.9386  0.2928
 1914SOL    HW117375   2.899   0.964   1.575  0.2206 -0.0640  0.2647
 1914SOL    HW217376   2.986   0.943   1.678  0.6620  0.7693 -0.4665
 1915SOL     OW17377   2.046   4.440  12.695  0.1277 -0.0056 -0.4147
 1915SOL    HW117378   2.042   4.508  12.627  0.4441  1.9345  1.5271
 1915SOL    HW217379   2.050   4.364  12.636  0.3762  1.2474 -2.0174
 1916SOL     OW17380   4.655   2.299   4.411  0.3201  0.0677  0.7043
 1916SOL    HW117381   4.663   2.362   4.339  0.3402 -0.8715 -0.1207
 1916SOL    HW217382   4.730   2.326   4.464  0.5990 -0.0056  0.3466
 1917SOL     OW17383   0.366   3.036   2.713 -0.2100 -0.5091 -0.2589
 1917SOL    HW117384   0.410   3.033   2.798 -1.0990  2.0374  0.2675
 1917SOL    HW217385   0.434   3.070   2.654  0.7018 -1.0878  0.4715
 1918SOL     OW17386   0.947   1.809   2.770 -0.6540  0.2124  0.0402
 1918SOL    HW117387   0.904   1.725   2.752 -0.0973  0.2009 -1.2230
 1918SOL    HW217388   0.993   1.823   2.687  1.5032  1.3381  1.4345
 1919SOL     OW17389   0.580   2.827  15.871  0.1985  0.2100  0.3425
 1919SOL    HW117390   0.643   2.892  15.842  0.2739  0.6272  1.4565
 1919SOL    HW217391   0.498   2.840  15.822  0.5922  1.4670  0.0365
 1920SOL     OW17392   4.303   1.414   3.687 -0.4065  0.0865 -0.2529
 1920SOL    HW117393   4.247   1.489   3.706  2.5133  1.6811  2.2190
 1920SOL    HW217394   4.310   1.424   3.592 -2.2449 -2.8617 -0.6772
 1921SOL     OW17395   0.075   0.765   7.728  0.0508 -0.1003  0.0185
 1921SOL    HW117396   0.165   0.747   7.755 -0.2722 -1.2594  0.3359
 1921SOL    HW217397   0.036   0.677   7.732  0.6663 -0.3767 -0.0369
 1922SOL     OW17398   3.009   0.603  12.441  0.3478  0.3802 -0.3538
 1922SOL    HW117399   2.935   0.543  12.447 -0.0200  0.8964  0.2509
 1922SOL    HW217400   2.982   0.632  12.353 -2.1371 -2.8167 -0.6157
 1923SOL     OW17401   0.572   0.465   2.936 -0.1559  0.3788 -0.3898
 1923SOL    HW117402   0.616   0.473   3.021 -1.0577  1.1916 -0.0065
 1923SOL    HW217403   0.508   0.534   2.951  0.4721  0.4594  1.9388
 1924SOL     OW17404   1.508   1.334   5.775 -0.3723  0.4017 -0.3383
 1924SOL    HW117405   1.416   1.314   5.790 -0.1001  0.4687  1.3979
 1924SOL    HW217406   1.502   1.409   5.716  0.9956 -1.0019 -2.2515
 1925SOL     OW17407   1.803   3.459  15.714  0.8008  0.5827 -0.1378
 1925SOL    HW117408   1.848   3.425  15.636  2.2490 -1.4395  1.5989
 1925SOL    HW217409   1.807   3.383  15.772  1.9375 -0.0550 -1.0272
 1926SOL     OW17410   0.959   0.860   8.824  0.0018 -0.0762 -0.3967
 1926SOL    HW117411   0.953   0.887   8.732 -1.0282 -0.1741 -0.3585
 1926SOL    HW217412   0.895   0.789   8.828  0.1259 -0.1585  0.1129
 1927SOL     OW17413   3.279   2.064   7.018 -0.1609 -0.0683  0.0264
 1927SOL    HW117414   3.345   2.010   7.061 -2.2573 -3.9143 -1.5627
 1927SOL    HW217415   3.213   2.078   7.085 -1.1416 -0.4165 -0.8717
 1928SOL     OW17416   4.249   2.816   8.329 -0.0163  0.2363 -0.2775
 1928SOL    HW117417   4.243   2.781   8.240  0.3990  0.7223 -0.4944
 1928SOL    HW217418   4.342   2.839   8.337 -0.2063  0.1258  2.3230
 1929SOL     OW17419   4.014   1.303  15.361 -0.2611  0.0095  0.0189
 1929SOL    HW117420   4.004   1.208  15.361 -2.9405  0.3091 -2.3036
 1929SOL    HW217421   4.074   1.308  15.436 -1.3138 -1.3421  0.9412
 1930SOL     OW17422   3.439   0.911   6.569  0.3182  0.3308  0.1613
 1930SOL    HW117423   3.532   0.892   6.558 -0.0864 -0.8633 -1.1391
 1930SOL    HW217424   3.441   0.983   6.632 -0.7594 -0.0305  0.6130
 1931SOL     OW17425   3.911   2.850   6.542  0.1118  0.4100 -0.1796
 1931SOL    HW117426   3.938   2.836   6.633  0.4161  0.4252 -0.2664
 1931SOL    HW217427   3.995   2.877   6.505  0.8391 -0.9631  0.4740
 1932SOL     OW17428   2.488   3.150   8.362  0.2591 -0.6259  0.1799
 1932SOL    HW117429   2.509   3.065   8.323  1.2140  0.0663 -0.8407
 1932SOL    HW217430   2.496   3.199   8.280 -2.3155 -1.1810 -0.4088
 1933SOL     OW17431   1.163   0.492   8.359  0.2711  0.3985  0.2019
 1933SOL    HW117432   1.076   0.492   8.400 -0.0615 -0.4902 -0.5312
 1933SOL    HW217433   1.170   0.588   8.363  0.2933  0.3972  0.1957
 1934SOL     OW17434   3.893   2.726   7.818  0.3224  0.2256  0.0687
 1934SOL    HW117435   3.852   2.754   7.736  1.8820  2.1875 -0.0280
 1934SOL    HW217436   3.977   2.689   7.793 -0.2763 -0.9320 -0.2605
 1935SOL     OW17437   1.298   2.814   5.525  0.3452 -0.1085 -0.2744
 1935SOL    HW117438   1.383   2.810   5.571  0.7052  0.5811 -0.8729
 1935SOL    HW217439   1.235   2.776   5.585  1.3517  0.3646  1.0957
 1936SOL     OW17440   3.884   2.283   0.363  0.1162 -0.2104  0.6377
 1936SOL    HW117441   3.799   2.268   0.405 -0.0322  3.1345  1.5896
 1936SOL    HW217442   3.888   2.223   0.289 -0.3924 -0.8495  1.1272
 1937SOL     OW17443   1.979   4.092   5.600  0.2889  0.0026  0.4129
 1937SOL    HW117444   1.944   4.029   5.537  0.4066  1.0861 -0.7361
 1937SOL    HW217445   1.898   4.127   5.636  0.1968  1.0582 -0.8424
 1938SOL     OW17446   2.531   0.800   2.944 -0.0837  0.5549 -0.5319
 1938SOL    HW117447   2.493   0.855   3.012 -0.2589  1.2698 -1.2085
 1938SOL    HW217448   2.607   0.764   2.990  0.1113  1.9912  0.2464
 1939SOL     OW17449   4.518   1.368   5.852  0.4914  0.1727 -0.0403
 1939SOL    HW117450   4.473   1.400   5.931 -3.8566  0.1337 -2.5027
 1939SOL    HW217451   4.489   1.440   5.796 -2.1736 -0.9055 -0.0353
 1940SOL     OW17452   0.525   3.995   2.843  0.0861  0.2011  0.0270
 1940SOL    HW117453   0.506   4.035   2.758 -0.8539 -0.7031 -0.1851
 1940SOL    HW217454   0.536   4.079   2.888 -2.3192  0.7509 -0.4051
 1941SOL     OW17455   4.365   1.026   9.346  0.2775 -0.2969  0.1344
 1941SOL    HW117456   4.304   0.971   9.297 -1.0898  1.2611  0.0820
 1941SOL    HW217457   4.348   1.001   9.437 -1.5231  1.6772  0.3405
 1942SOL     OW17458   4.287   2.482   4.934 -0.4275  0.1583 -0.1961
 1942SOL    HW117459   4.323   2.395   4.948  1.1921  1.0365  1.0002
 1942SOL    HW217460   4.193   2.464   4.942  0.0903 -2.4521 -0.1580
 1943SOL     OW17461   3.246   1.035   0.062 -0.2881 -0.0997  0.4867
 1943SOL    HW117462   3.172   1.082   0.022 -0.4339  0.2964  1.2186
 1943SOL    HW217463   3.284   0.996  17.754  1.4363  1.1152  0.7223
 1944SOL     OW17464   3.852   2.080   2.365 -0.1578  0.5357 -0.5991
 1944SOL    HW117465   3.814   2.165   2.391  1.3333  1.6494 -2.0620
 1944SOL    HW217466   3.839   2.022   2.440  2.8776  0.7199  0.0657
 1945SOL     OW17467   1.306   2.997  14.505 -0.3480  0.0875  0.5041
 1945SOL    HW117468   1.266   2.912  14.527  0.1819 -0.1384  0.5850
 1945SOL    HW217469   1.360   2.973  14.429 -2.4032 -0.1110 -0.9192
 1946SOL     OW17470   2.297   0.643   8.561  0.0191 -0.4585  0.6281
 1946SOL    HW117471   2.217   0.597   8.536 -0.5113  1.7733 -1.8751
 1946SOL    HW217472   2.294   0.632   8.656  0.4824 -2.1016  0.4388
 1947SOL     OW17473   4.678   0.444   9.291  0.3213 -0.1723 -0.4928
 1947SOL    HW117474   0.013   0.391   9.284 -0.0975 -1.1810  2.4891
 1947SOL    HW217475   4.622   0.392   9.349  0.3520  0.2719 -0.0714
 1948SOL     OW17476   4.275   2.217   2.080 -0.5264 -0.0354 -0.0709
 1948SOL    HW117477   4.201   2.160   2.099 -0.9681  0.3828 -0.5673
 1948SOL    HW217478   4.240   2.305   2.069  0.4993  0.1899 -1.4933
 1949SOL     OW17479   3.572   3.146   4.217  0.1047 -0.2223 -0.1232
 1949SOL    HW117480   3.491   3.196   4.203  0.8136  0.8593 -0.3454
 1949SOL    HW217481   3.560   3.067   4.164  1.6437 -0.9509  0.6035
 1950SOL     OW17482   1.684   2.006  12.161 -0.5042 -0.0498  0.4070
 1950SOL    HW117483   1.734   1.995  12.080 -0.0699  0.7245  0.5757
 1950SOL    HW217484   1.683   2.100  12.178  1.5571 -0.5676  3.5627
 1951SOL     OW17485   3.202   0.876   6.892 -0.0032  0.1779 -0.3705
 1951SOL    HW117486   3.228   0.843   6.978  2.3472  3.1620  0.0657
 1951SOL    HW217487   3.218   0.970   6.898  1.3745 -0.0362 -0.7023
 1952SOL     OW17488   4.713   1.978  13.124 -0.4895 -0.1214  0.0636
 1952SOL    HW117489   4.729   2.006  13.214  0.4799  3.1160 -1.0942
 1952SOL    HW217490   0.058   1.951  13.098 -0.1566  0.2324  0.8384
 1953SOL     OW17491   2.919   3.174  16.213  0.3004  0.2469  0.3303
 1953SOL    HW117492   2.842   3.230  16.207  0.0464 -0.2709 -1.1789
 1953SOL    HW217493   2.878   3.093  16.244  0.7410 -0.6224 -1.3548
 1954SOL     OW17494   0.857   1.320   2.712 -0.2931  0.1853  0.4004
 1954SOL    HW117495   0.910   1.253   2.756  0.2869  1.8384  2.2197
 1954SOL    HW217496   0.835   1.268   2.635  0.5940 -1.0993  1.0148
 1955SOL     OW17497   0.014   2.037   7.047  1.2320  0.5320 -0.1526
 1955SOL    HW117498   4.705   2.086   6.984  1.2244  1.6942  0.7529
 1955SOL    HW217499   4.731   2.091   7.121 -2.6691  0.6835 -1.6710
 1956SOL     OW17500   0.536   1.421   7.089 -0.1053 -0.1958  0.4507
 1956SOL    HW117501   0.619   1.377   7.109  0.2801  0.9372  1.2910
 1956SOL    HW217502   0.505   1.468   7.166 -2.6146 -0.5572 -0.3291
 1957SOL     OW17503   1.242   2.779   6.141 -0.6527 -0.1757  0.1534
 1957SOL    HW117504   1.247   2.842   6.213  2.2057  0.9850 -1.0533
 1957SOL    HW217505   1.303   2.712   6.173 -1.1417  0.6149  2.7450
 1958SOL     OW17506   1.479   2.457   3.846 -0.4004 -0.0084  0.6498
 1958SOL    HW117507   1.459   2.411   3.765  0.8548 -0.6891  0.7202
 1958SOL    HW217508   1.412   2.524   3.857 -0.6320 -0.0918 -0.2273
 1959SOL     OW17509   2.654   2.267   6.530  0.5271  0.1936 -0.0301
 1959SOL    HW117510   2.685   2.231   6.447  0.6147  2.0877 -0.7975
 1959SOL    HW217511   2.572   2.219   6.539 -0.2831  2.1446  3.1675
 1960SOL     OW17512   3.598   1.611   6.372  0.5114 -0.8017 -0.2887
 1960SOL    HW117513   3.506   1.612   6.348  0.2801 -1.7929  0.5801
 1960SOL    HW217514   3.594   1.684   6.434  1.2009  0.2025 -1.4131
 1961SOL     OW17515   2.910   3.268   3.318 -0.2891  0.3917  0.1158
 1961SOL    HW117516   2.860   3.285   3.239 -0.9042  1.5181  0.7560
 1961SOL    HW217517   2.901   3.173   3.323  1.2750  0.1702 -1.1978
 1962SOL     OW17518   4.697   3.260   7.477 -0.2041 -0.2962 -0.0623
 1962SOL    HW117519   0.018   3.318   7.437 -0.4019  0.1362  0.2516
 1962SOL    HW217520   4.693   3.304   7.562  0.7016 -0.3663  0.0106
 1963SOL     OW17521   1.498   0.337  14.170 -0.2326  0.0757  0.1858
 1963SOL    HW117522   1.590   0.318  14.191  0.4753  1.6504 -1.4068
 1963SOL    HW217523   1.488   0.285  14.091  2.6480 -1.0104  0.5457
 1964SOL     OW17524   1.331   0.086   7.209 -0.3201  0.2586 -0.1974
 1964SOL    HW117525   1.298   0.113   7.295 -2.1236  1.3741 -1.2393
 1964SOL    HW217526   1.256   0.115   7.156  0.2775  1.5200 -0.3493
 1965SOL     OW17527   4.518   4.578   8.834 -0.5538 -0.0173  0.3614
 1965SOL    HW117528   4.526   4.646   8.900  0.8692  1.2422 -1.1011
 1965SOL    HW217529   4.491   4.502   8.885  1.2764 -1.1674 -0.3564
 1966SOL     OW17530   0.698   3.709   8.000 -0.2877  0.8892  0.7443
 1966SOL    HW117531   0.792   3.728   7.998 -0.4843  1.8861  0.6995
 1966SOL    HW217532   0.666   3.782   7.947  0.5642  0.8980  0.2539
 1967SOL     OW17533   3.573   0.641  13.638 -0.2559  0.6768  0.2308
 1967SOL    HW117534   3.637   0.669  13.573  1.9635 -2.5805  1.0654
 1967SOL    HW217535   3.586   0.547  13.630  0.8485  0.7592  1.0578
 1968SOL     OW17536   4.294   3.514   4.783 -0.1266  0.4413  0.4227
 1968SOL    HW117537   4.329   3.438   4.829 -0.9340 -0.4184 -0.3744
 1968SOL    HW217538   4.300   3.590   4.841  0.9983 -0.2186  1.1580
 1969SOL     OW17539   3.729   4.392  11.523  0.1850 -0.3388  0.2664
 1969SOL    HW117540   3.799   4.450  11.554  1.0820 -1.3182  0.0724
 1969SOL    HW217541   3.773   4.308  11.529 -1.2510 -1.1841 -1.0577
 1970SOL     OW17542   4.420   4.486  17.191 -0.3124  0.2902  0.4722
 1970SOL    HW117543   4.391   4.546  17.260  1.8134 -1.1571  2.6044
 1970SOL    HW217544   4.336   4.443  17.172  0.3630 -0.6769 -0.3014
 1971SOL     OW17545   4.147   3.620  17.015  0.2721  0.3019  0.0358
 1971SOL    HW117546   4.229   3.659  16.982 -0.2302  2.9354  1.8875
 1971SOL    HW217547   4.112   3.570  16.941  0.4717 -0.6935  0.6259
 1972SOL     OW17548   3.897   2.747   9.414 -0.0039 -0.7267 -0.3136
 1972SOL    HW117549   3.897   2.678   9.480 -3.2327  0.0740  0.5131
 1972SOL    HW217550   3.988   2.750   9.385  0.0013 -0.9315 -0.3185
 1973SOL     OW17551   4.016   2.735   8.462 -0.0112  0.5168  0.2407
 1973SOL    HW117552   4.054   2.725   8.549 -1.7484  0.6377  1.0115
 1973SOL    HW217553   4.092   2.759   8.409  0.5885 -1.6450  0.1198
 1974SOL     OW17554   1.807   3.300   6.307 -0.5729  0.0215 -0.1684
 1974SOL    HW117555   1.782   3.235   6.241 -0.2434 -0.4690  0.1979
 1974SOL    HW217556   1.848   3.240   6.368  2.6318  1.4953 -0.8855
 1975SOL     OW17557   2.796   1.367   6.983  0.3779 -0.1459  0.0335
 1975SOL    HW117558   2.814   1.288   6.932 -1.1458  0.3127 -1.2181
 1975SOL    HW217559   2.794   1.431   6.912  1.3406 -0.4383 -0.2603
 1976SOL     OW17560   4.561   2.107   9.956 -0.4259  0.1548  0.6675
 1976SOL    HW117561   4.548   2.168   9.883 -1.1840 -1.3559 -0.4712
 1976SOL    HW217562   4.545   2.029   9.903 -0.8611  1.5420 -1.2448
 1977SOL     OW17563   2.574   1.140   3.490  0.5136  0.5891  0.0287
 1977SOL    HW117564   2.500   1.127   3.431 -0.7375 -1.2776  2.0330
 1977SOL    HW217565   2.652   1.119   3.438 -0.0952 -0.6827 -0.3670
 1978SOL     OW17566   4.392   0.569   4.761 -0.4568 -0.2418  0.1870
 1978SOL    HW117567   4.338   0.583   4.840 -0.3580  1.1289  0.0180
 1978SOL    HW217568   4.370   0.647   4.711  3.0305  1.0318  0.6485
 1979SOL     OW17569   3.551   3.494  17.371 -0.4437 -0.8559 -0.2114
 1979SOL    HW117570   3.613   3.563  17.394 -1.1199 -0.1559 -0.4647
 1979SOL    HW217571   3.484   3.505  17.438  0.2780 -0.1570  0.3958
 1980SOL     OW17572   4.148   4.035   2.107 -0.2023 -0.1085  0.8757
 1980SOL    HW117573   4.079   4.063   2.167 -1.4569  0.1391 -0.6684
 1980SOL    HW217574   4.173   3.947   2.136  2.0653  0.1220 -0.3577
 1981SOL     OW17575   2.013   0.215   2.913  0.2468  0.2453 -0.0332
 1981SOL    HW117576   1.984   0.175   2.994  1.8634 -1.3313 -0.2294
 1981SOL    HW217577   1.994   0.308   2.920  0.6445  0.4239 -1.1908
 1982SOL     OW17578   0.153   2.945   0.092  0.4551 -0.2027 -0.3083
 1982SOL    HW117579   0.210   2.930   0.168  0.4039  1.2927  0.0439
 1982SOL    HW217580   0.173   3.036   0.067 -0.8422  0.3614  0.7166
 1983SOL     OW17581   1.574   1.981  10.043 -0.3130 -0.1517 -0.0002
 1983SOL    HW117582   1.580   2.032  10.124 -1.5420 -2.4806  1.5609
 1983SOL    HW217583   1.574   2.049   9.976  2.1360  1.1611  1.3577
 1984SOL     OW17584   0.838   2.494   0.963 -0.2521 -0.0027 -0.1580
 1984SOL    HW117585   0.931   2.489   0.983 -0.3345  1.4613  0.6149
 1984SOL    HW217586   0.820   2.406   0.994 -0.4667 -0.1418 -0.6729
 1985SOL     OW17587   0.134   3.004   9.267  0.2098  1.0728  0.3585
 1985SOL    HW117588   0.183   2.977   9.190 -0.0920 -2.0341  1.2696
 1985SOL    HW217589   0.188   3.080   9.291  1.0288  0.8737 -0.8467
 1986SOL     OW17590   1.682   2.682   6.217  1.0269  0.3451 -0.2463
 1986SOL    HW117591   1.724   2.745   6.275  0.7406  0.8646 -0.6078
 1986SOL    HW217592   1.744   2.609   6.223  1.4519  0.5881 -1.5706
 1987SOL     OW17593   3.472   0.542   2.229 -0.1383  0.1919  0.0944
 1987SOL    HW117594   3.402   0.565   2.168 -1.1629 -0.1806  1.1204
 1987SOL    HW217595   3.438   0.591   2.304  0.0810 -1.6352  1.3793
 1988SOL     OW17596   4.015   3.156   3.975 -0.0985  0.2342  0.0202
 1988SOL    HW117597   4.033   3.138   3.883  0.2211 -3.8965  0.8925
 1988SOL    HW217598   3.926   3.192   3.979 -0.3219 -0.4417  1.2813
 1989SOL     OW17599   2.218   0.991   5.261 -0.4404  0.4313 -0.3933
 1989SOL    HW117600   2.285   1.042   5.215 -0.1544  0.7389  0.3644
 1989SOL    HW217601   2.235   0.998   5.355 -0.2123  1.3538 -0.5017
 1990SOL     OW17602   3.939   0.062   8.898 -0.1659 -0.0705  0.4093
 1990SOL    HW117603   3.906   0.120   8.966 -3.2677  0.5008 -1.5630
 1990SOL    HW217604   3.903   4.723   8.930 -1.0375  0.2160  0.1777
 1991SOL     OW17605   3.330   0.879   5.570  0.1942  0.0924  0.0310
 1991SOL    HW117606   3.380   0.899   5.491 -1.6450 -1.3285 -1.4873
 1991SOL    HW217607   3.288   0.798   5.543 -1.4025  1.1094 -0.4876
 1992SOL     OW17608   1.702   1.746   6.859  0.1200  0.5930 -0.2032
 1992SOL    HW117609   1.699   1.829   6.906 -0.4186  1.3063 -1.4915
 1992SOL    HW217610   1.784   1.703   6.884 -1.1558 -0.3805  2.2691
 1993SOL     OW17611   2.746   3.857   1.987  0.4056 -0.3104  0.1999
 1993SOL    HW117612   2.803   3.930   1.963  1.0710 -0.9602 -0.2352
 1993SOL    HW217613   2.781   3.821   2.069  2.3919 -2.4579 -1.5651
 1994SOL     OW17614   0.897   2.788   3.660  0.2600  0.6306  0.3248
 1994SOL    HW117615   0.937   2.755   3.579 -0.2427  3.5703 -1.1262
 1994SOL    HW217616   0.964   2.855   3.677  1.2091 -0.6621  1.7579
 1995SOL     OW17617   3.674   2.059   3.982  0.1444 -0.2518  0.0413
 1995SOL    HW117618   3.735   2.003   4.031  1.3319  0.6445 -0.3979
 1995SOL    HW217619   3.725   2.067   3.901  2.3338  0.4347  1.4895
 1996SOL     OW17620   0.282   0.814   6.663  0.3235  0.4458 -0.4656
 1996SOL    HW117621   0.321   0.731   6.634  0.3256  0.0415  0.7039
 1996SOL    HW217622   0.295   0.802   6.757 -0.3477  0.4612 -0.3744
 1997SOL     OW17623   2.278   3.444   3.001 -0.0644  0.5081  0.1872
 1997SOL    HW117624   2.305   3.527   2.962  2.4029 -0.5648 -0.4081
 1997SOL    HW217625   2.219   3.400   2.939  1.5735  0.9444 -1.6708
 1998SOL     OW17626   3.054   3.510  16.635  0.7068  0.4181  0.5251
 1998SOL    HW117627   3.123   3.447  16.654  0.1214  0.1801  1.8484
 1998SOL    HW217628   3.046   3.546  16.723  0.6762 -2.3556  1.6541
 1999SOL     OW17629   1.044   1.071   1.729  0.1051 -0.0445  0.5489
 1999SOL    HW117630   1.043   1.160   1.766  0.4008  0.2834 -0.2304
 1999SOL    HW217631   0.997   1.090   1.647  1.6296 -0.2530 -0.3757
 2000SOL     OW17632   1.102   3.298   5.587  0.0507 -0.4755  0.0647
 2000SOL    HW117633   1.181   3.315   5.639  0.0319 -0.3836  0.0638
 2000SOL    HW217634   1.098   3.203   5.585  0.5924 -0.5047  0.4422
 2001SOL     OW17635   4.672   4.370   4.791  0.8781  0.3204  0.2125
 2001SOL    HW117636   0.018   4.404   4.783  1.5020 -1.6589 -1.0270
 2001SOL    HW217637   4.665   4.350   4.884 -0.8224  1.2163  0.2750
 2002SOL     OW17638   2.266   0.299   3.156 -0.3364 -0.4701 -0.1410
 2002SOL    HW117639   2.319   0.360   3.206 -0.7151 -1.6951  1.7338
 2002SOL    HW217640   2.195   0.287   3.218  0.2612  0.1562  0.6562
 2003SOL     OW17641   1.861   1.547   8.848  0.0927  0.0345  0.5644
 2003SOL    HW117642   1.909   1.576   8.925 -0.2142  3.0806 -0.3959
 2003SOL    HW217643   1.801   1.619   8.830  1.0774  1.4714  3.1236
 2004SOL     OW17644   1.651   3.593   4.841  0.4861 -0.8185  0.6963
 2004SOL    HW117645   1.664   3.632   4.928  0.7273  0.4831  0.0789
 2004SOL    HW217646   1.625   3.506   4.873  1.8639 -1.4543  0.0916
 2005SOL     OW17647   1.166   2.464  17.242 -0.0629 -0.4793 -0.5558
 2005SOL    HW117648   1.072   2.446  17.253 -0.2859  0.2683 -1.2482
 2005SOL    HW217649   1.200   2.473  17.331  3.1316  0.2579 -1.8633
 2006SOL     OW17650   0.327   3.631   8.324 -0.2951  0.4207  0.4688
 2006SOL    HW117651   0.297   3.682   8.400 -4.1961 -0.9497 -0.1062
 2006SOL    HW217652   0.358   3.701   8.268 -0.8091 -1.4090 -2.1057
 2007SOL     OW17653   1.955   3.839   7.516 -0.9438 -0.5296  0.5991
 2007SOL    HW117654   1.901   3.764   7.541  1.4679 -1.4733  2.9510
 2007SOL    HW217655   1.995   3.873   7.596  0.4166  1.4426 -0.9151
 2008SOL     OW17656   1.280   2.998   2.574  0.4329 -0.3303  0.3006
 2008SOL    HW117657   1.292   2.931   2.507 -1.0755 -0.3252  0.0282
 2008SOL    HW217658   1.187   2.993   2.594  0.4146  0.8607  0.5273
 2009SOL     OW17659   3.773   4.413   3.562  0.2068  0.0152  0.1473
 2009SOL    HW117660   3.719   4.492   3.558  3.0938  1.9842  0.8154
 2009SOL    HW217661   3.721   4.360   3.623 -0.5661  0.2071 -0.3438
 2010SOL     OW17662   3.976   2.195  17.654 -0.0469 -0.6356 -0.4348
 2010SOL    HW117663   3.888   2.157  17.656  0.4035 -1.6466  0.4388
 2010SOL    HW217664   4.000   2.222  17.743  2.7280 -0.7138 -1.1467
 2011SOL     OW17665   2.246   2.251   6.409  0.3860 -0.0806  0.2105
 2011SOL    HW117666   2.183   2.202   6.356 -1.6646  2.5387  0.1782
 2011SOL    HW217667   2.284   2.194   6.474  1.3823 -0.4166 -0.6699
 2012SOL     OW17668   4.651   1.701   6.940 -0.2933  0.0584  0.6167
 2012SOL    HW117669   4.579   1.738   6.992 -1.4785 -0.5309 -0.6197
 2012SOL    HW217670   4.662   1.770   6.875 -1.3542 -1.2423 -0.9370
 2013SOL     OW17671   3.953   0.203   3.196  0.1610 -0.8857 -0.0178
 2013SOL    HW117672   3.876   0.253   3.171 -0.0511 -0.8618  0.7016
 2013SOL    HW217673   4.008   0.273   3.231 -0.9590 -0.6539  1.2702
 2014SOL     OW17674   0.787   0.079  15.448  0.1442 -0.1638  0.6038
 2014SOL    HW117675   0.779   0.086  15.353  0.2997  1.6118  0.7106
 2014SOL    HW217676   0.798   0.171  15.473 -0.9664  0.4081 -1.0236
 2015SOL     OW17677   1.457   3.309   8.551  0.6103  0.1516 -0.3798
 2015SOL    HW117678   1.408   3.355   8.620 -2.2360 -0.3462 -2.0348
 2015SOL    HW217679   1.492   3.237   8.603 -1.6700  0.7873  2.0842
 2016SOL     OW17680   4.644   4.559   8.588  0.1083  0.2255 -0.5387
 2016SOL    HW117681   4.738   4.548   8.600 -0.1597 -1.8160 -0.3521
 2016SOL    HW217682   4.617   4.606   8.666  0.1484 -1.9253  0.7763
 2017SOL     OW17683   1.054   3.758   3.452  0.4512  0.4048 -0.9021
 2017SOL    HW117684   1.115   3.737   3.382  1.9005  0.1676  0.4256
 2017SOL    HW217685   1.095   3.700   3.516  0.4883  1.9125  0.4543
 2018SOL     OW17686   3.107   3.719   3.420  0.3234  0.3593  0.2380
 2018SOL    HW117687   3.091   3.637   3.373 -0.6251  0.4496  0.4034
 2018SOL    HW217688   3.195   3.735   3.386 -0.2431 -0.8309 -1.8008
 2019SOL     OW17689   2.555   4.317  10.056  0.2694 -0.8987  0.2188
 2019SOL    HW117690   2.630   4.364  10.019  0.1030  1.6833  3.1874
 2019SOL    HW217691   2.536   4.245   9.996  0.2488 -1.5561  1.0307
 2020SOL     OW17692   0.220   3.662  15.409  0.1876 -0.6128  0.2876
 2020SOL    HW117693   0.254   3.649  15.320  0.2462  0.8074  0.1026
 2020SOL    HW217694   0.241   3.754  15.423 -0.4116 -0.3956 -0.2398
 2021SOL     OW17695   2.114   0.046   5.942  0.3350 -0.4989 -0.1185
 2021SOL    HW117696   2.193   0.098   5.929 -0.6917  0.5172 -2.1437
 2021SOL    HW217697   2.130   4.725   5.873  0.2555 -1.0768  0.3991
 2022SOL     OW17698   0.468   0.396   5.601 -0.4311  0.2547 -0.5333
 2022SOL    HW117699   0.496   0.425   5.688  1.9435  0.8613 -1.5046
 2022SOL    HW217700   0.482   0.302   5.614 -1.3663  0.0603 -1.0206
 2023SOL     OW17701   3.821   2.368  14.477  0.1032  0.4249  0.3461
 2023SOL    HW117702   3.773   2.286  14.471  0.1094  0.3991  0.6718
 2023SOL    HW217703   3.742   2.423  14.478 -0.8917 -0.9909  0.1459
 2024SOL     OW17704   3.829   4.333   9.865  0.5134 -0.4220  0.3053
 2024SOL    HW117705   3.920   4.313   9.842  0.8199  0.3276  0.8804
 2024SOL    HW217706   3.801   4.395   9.798  3.4307  0.9594  0.3736
 2025SOL     OW17707   4.260   1.045   2.444 -0.8594  1.0875 -0.4724
 2025SOL    HW117708   4.319   0.990   2.393  1.9002  3.7432 -0.1746
 2025SOL    HW217709   4.285   1.018   2.532 -1.5011  0.0904 -0.5958
 2026SOL     OW17710   0.735   4.108   5.995 -0.6674  0.7170  0.2616
 2026SOL    HW117711   0.734   4.177   6.061 -3.5801 -0.4641  1.4617
 2026SOL    HW217712   0.726   4.167   5.920 -0.7026  0.7242  0.2716
 2027SOL     OW17713   3.778   2.336   7.253  0.2519 -0.3224  0.4125
 2027SOL    HW117714   3.860   2.322   7.301  0.0244 -0.2892  0.8123
 2027SOL    HW217715   3.809   2.404   7.193 -2.9936  3.0376  2.5170
 2028SOL     OW17716   3.466   0.843   5.337 -0.6557  0.2406 -0.0741
 2028SOL    HW117717   3.530   0.865   5.268 -1.1600  0.6896 -0.3992
 2028SOL    HW217718   3.509   0.788   5.403 -0.3053 -0.1600 -0.6309
 2029SOL     OW17719   2.247   2.408   2.458  0.5081  0.0266  0.2844
 2029SOL    HW117720   2.206   2.340   2.511  0.1687 -0.1409 -0.1939
 2029SOL    HW217721   2.321   2.430   2.515  2.2914 -0.1328 -1.9910
 2030SOL     OW17722   2.402   2.620   0.317  0.0251 -0.5401 -0.5611
 2030SOL    HW117723   2.317   2.629   0.359  0.5186  0.3989  0.2427
 2030SOL    HW217724   2.424   2.528   0.331 -1.0337 -1.0417 -2.1964
 2031SOL     OW17725   0.833   2.173  10.486  0.0231 -0.5148  0.2833
 2031SOL    HW117726   0.881   2.208  10.561  1.6978 -0.6119 -0.7568
 2031SOL    HW217727   0.846   2.254  10.436 -0.8871 -0.8124 -0.4319
 2032SOL     OW17728   2.491   2.359   2.594  0.7589  0.3372  0.4328
 2032SOL    HW117729   2.458   2.280   2.635  2.1198 -0.5904 -0.2409
 2032SOL    HW217730   2.556   2.390   2.658  0.5705  2.2499 -0.3009
 2033SOL     OW17731   3.388   4.110   8.302  0.1814 -0.1636  0.2373
 2033SOL    HW117732   3.440   4.048   8.251 -2.4540 -0.7820 -1.7250
 2033SOL    HW217733   3.417   4.095   8.392 -1.4724 -0.2568  0.7500
 2034SOL     OW17734   3.688   1.151   9.762  0.3090  0.0048 -0.2976
 2034SOL    HW117735   3.687   1.156   9.857 -0.0556  1.9345 -0.3989
 2034SOL    HW217736   3.691   1.241   9.731  0.3992 -0.3361 -1.3050
 2035SOL     OW17737   1.236   2.798  10.317  0.5298  0.4964  0.2965
 2035SOL    HW117738   1.167   2.746  10.360  0.4418  0.3242 -0.0482
 2035SOL    HW217739   1.260   2.861  10.384  0.1580  0.9204  0.0300
 2036SOL     OW17740   0.554   1.259   8.481 -0.0255  0.1085 -0.4231
 2036SOL    HW117741   0.612   1.230   8.410  1.5406  1.4164  0.2997
 2036SOL    HW217742   0.616   1.300   8.541  0.7530 -1.1695 -0.3567
 2037SOL     OW17743   3.912   0.425  10.281  0.0318 -0.5142 -0.3400
 2037SOL    HW117744   3.957   0.508  10.294 -1.2860  0.0351  0.6996
 2037SOL    HW217745   3.884   0.421  10.372  1.3423 -0.2237  0.0718
 2038SOL     OW17746   1.144   3.349  12.206 -0.0441 -0.1389  0.5973
 2038SOL    HW117747   1.229   3.370  12.244  0.8229  0.3913 -1.6134
 2038SOL    HW217748   1.111   3.433  12.174 -0.2103 -1.2892 -2.2657
 2039SOL     OW17749   2.294   2.751   2.065 -0.2005 -0.0099 -0.6445
 2039SOL    HW117750   2.275   2.723   1.976 -1.0587 -1.5807  0.0293
 2039SOL    HW217751   2.226   2.817   2.077  1.5347  1.9302 -1.5177
 2040SOL     OW17752   1.061   2.168   8.205 -0.5262  0.6745  0.2515
 2040SOL    HW117753   1.143   2.118   8.207 -1.3155 -0.6005  0.9307
 2040SOL    HW217754   1.013   2.116   8.269  1.3110  0.7101  1.6563
 2041SOL     OW17755   3.389   1.340   9.151  0.3715 -0.7482 -0.6812
 2041SOL    HW117756   3.323   1.394   9.195  1.2081 -0.3045  0.0318
 2041SOL    HW217757   3.389   1.369   9.060 -0.9515 -4.3167 -1.8383
 2042SOL     OW17758   0.872   2.057   9.141  0.3187 -0.1041 -0.0942
 2042SOL    HW117759   0.890   1.970   9.106  1.0987 -0.2578  0.6852
 2042SOL    HW217760   0.957   2.091   9.170 -0.5908  1.3940  0.8432
 2043SOL     OW17761   1.181   1.723   4.383  0.4644  0.4673 -0.6261
 2043SOL    HW117762   1.165   1.628   4.382  1.3990  0.2790  0.9412
 2043SOL    HW217763   1.277   1.725   4.378  0.4445 -0.4686 -1.3519
 2044SOL     OW17764   3.809   2.571   6.513  0.3349  0.6407 -0.0831
 2044SOL    HW117765   3.805   2.562   6.417  1.2767  1.1222 -0.1716
 2044SOL    HW217766   3.862   2.651   6.514 -1.4302  1.7759  0.7521
 2045SOL     OW17767   3.098   1.029   2.913  0.6792 -0.2696 -0.5672
 2045SOL    HW117768   3.142   1.114   2.900 -0.7894  1.2509  4.6363
 2045SOL    HW217769   3.154   0.977   2.855  0.5531 -1.0856  0.0523
 2046SOL     OW17770   4.702   0.943   3.682  0.2515 -0.2494 -0.0019
 2046SOL    HW117771   4.691   0.854   3.651  0.1847 -0.7600  1.4798
 2046SOL    HW217772   4.642   0.941   3.757 -1.1605 -4.0226 -1.2561
 2047SOL     OW17773   4.291   1.342   2.478 -0.0181  0.0576 -0.3741
 2047SOL    HW117774   4.269   1.249   2.473  0.8200  0.0317 -3.6476
 2047SOL    HW217775   4.246   1.368   2.398  2.4549 -1.0040 -2.1104
 2048SOL     OW17776   0.070   1.152   6.778 -0.2636  0.0649 -0.0605
 2048SOL    HW117777   0.132   1.183   6.712  1.3207  2.2605  2.4576
 2048SOL    HW217778   0.044   1.238   6.813  1.9899  1.8278 -2.7523
 2049SOL     OW17779   4.238   0.923   8.461  0.1640 -0.8735 -0.4327
 2049SOL    HW117780   4.217   0.884   8.546  0.8065 -0.1379  0.0640
 2049SOL    HW217781   4.330   0.900   8.454  0.9822  2.2024  0.1622
 2050SOL     OW17782   2.687   1.654   9.208 -0.0445  0.0234  0.2906
 2050SOL    HW117783   2.616   1.592   9.191 -0.3461  0.3301  0.4162
 2050SOL    HW217784   2.625   1.724   9.229 -0.2410  0.5502 -2.0305
 2051SOL     OW17785   2.405   3.959   1.951 -0.4282  0.3849 -0.1742
 2051SOL    HW117786   2.362   4.025   1.895 -0.6970  0.6598  0.3607
 2051SOL    HW217787   2.331   3.934   2.006 -1.1055  0.9898 -0.7973
 2052SOL     OW17788   3.090   3.932   6.710  0.3002 -0.0597  0.1573
 2052SOL    HW117789   3.080   3.956   6.802 -0.8841 -0.1190  0.0488
 2052SOL    HW217790   3.128   3.845   6.724 -0.3510 -0.3838 -0.1192
 2053SOL     OW17791   4.439   4.013   7.903 -0.3744 -0.1603  0.3207
 2053SOL    HW117792   4.378   4.061   7.958 -1.0735 -0.1373 -0.4721
 2053SOL    HW217793   4.406   3.923   7.910 -0.0241 -0.2779  0.4702
 2054SOL     OW17794   2.915   0.391  16.194  0.3110 -0.0961  0.1522
 2054SOL    HW117795   2.945   0.470  16.148 -0.8871 -0.4848 -1.3036
 2054SOL    HW217796   2.917   0.418  16.286 -0.3060  2.2690 -0.5080
 2055SOL     OW17797   0.978   1.993   7.526 -0.3024 -0.0309 -0.2537
 2055SOL    HW117798   0.937   1.950   7.601  0.8198  0.5351  0.6638
 2055SOL    HW217799   1.028   2.061   7.570 -0.0567 -0.9668  0.9015
 2056SOL     OW17800   4.244   1.077   8.217  0.2099 -0.3198 -0.2591
 2056SOL    HW117801   4.161   1.081   8.168  1.5523  0.8738 -2.4182
 2056SOL    HW217802   4.228   1.020   8.293 -1.2558  0.5196  0.0760
 2057SOL     OW17803   0.180   2.805   5.073  0.0268  0.1838  0.2358
 2057SOL    HW117804   0.114   2.841   5.013 -0.8416 -1.3263  0.2898
 2057SOL    HW217805   0.126   2.781   5.148  0.1300 -0.8916 -0.0405
 2058SOL     OW17806   3.910   0.562  10.007  0.5291 -0.3618  0.0355
 2058SOL    HW117807   4.001   0.538   9.988 -0.2215 -2.6826 -0.6118
 2058SOL    HW217808   3.855   0.505   9.953  0.0388  1.4045 -1.3338
 2059SOL     OW17809   3.482   1.392   0.154 -0.7713 -0.3402 -0.5633
 2059SOL    HW117810   3.402   1.378   0.204 -1.3906 -1.6478 -1.9071
 2059SOL    HW217811   3.542   1.404   0.227 -0.9197  2.3611 -0.8754
 2060SOL     OW17812   4.623   4.557   7.364  0.2443 -0.4724 -0.3879
 2060SOL    HW117813   4.639   4.472   7.323  3.6833 -0.7312  1.3908
 2060SOL    HW217814   4.543   4.527   7.406  0.3383 -2.3947 -1.6118
 2061SOL     OW17815   0.384   2.188   4.928 -0.0988  0.5003  0.6328
 2061SOL    HW117816   0.328   2.191   5.006 -0.6424 -0.0732  0.2634
 2061SOL    HW217817   0.321   2.210   4.860 -0.3077 -2.0787 -0.0265
 2062SOL     OW17818   0.626   3.458  11.093 -0.2929 -0.0383  0.0441
 2062SOL    HW117819   0.575   3.398  11.039 -0.3645 -0.6580  0.7927
 2062SOL    HW217820   0.714   3.426  11.077  0.7609  2.5999  0.4461
 2063SOL     OW17821   0.126   2.623   0.288  0.3341  0.1755 -0.0050
 2063SOL    HW117822   0.115   2.605   0.195  1.6069  1.5258 -0.4101
 2063SOL    HW217823   0.037   2.656   0.295  0.7749  1.4797 -0.5322
 2064SOL     OW17824   3.534   1.893   1.013 -0.8217 -0.1760  0.4527
 2064SOL    HW117825   3.478   1.964   1.044 -2.7766 -1.7662  0.5266
 2064SOL    HW217826   3.614   1.908   1.065 -1.3982  1.0172  1.0164
 2065SOL     OW17827   2.239   2.349   0.666  0.1027  0.1352 -0.1429
 2065SOL    HW117828   2.283   2.427   0.632 -1.9030  1.8339  1.1488
 2065SOL    HW217829   2.308   2.287   0.687  0.0926 -0.0026 -0.5050
 2066SOL     OW17830   0.401   1.822   2.632  0.2712 -0.2158 -0.6778
 2066SOL    HW117831   0.370   1.732   2.645 -1.6238  0.4379 -0.7649
 2066SOL    HW217832   0.413   1.850   2.722  0.1016 -1.1581 -0.3589
 2067SOL     OW17833   2.981   4.468   7.471  0.5110  0.4847 -0.5181
 2067SOL    HW117834   2.889   4.477   7.445  0.5454  0.8409 -0.5100
 2067SOL    HW217835   2.996   4.556   7.506 -0.0966  0.9172 -1.3547
 2068SOL     OW17836   1.519   0.488   8.881  0.1506 -0.7603  0.6212
 2068SOL    HW117837   1.484   0.571   8.913  0.4717 -0.8372  1.1795
 2068SOL    HW217838   1.612   0.503   8.868  0.5975 -3.0294  1.2109
 2069SOL     OW17839   2.399   3.538   9.108  0.5986 -0.2657 -0.6421
 2069SOL    HW117840   2.343   3.571   9.178 -0.1239 -1.0211 -0.8607
 2069SOL    HW217841   2.339   3.529   9.034  2.9678  0.0090 -2.6041
 2070SOL     OW17842   4.315   2.417  11.046 -0.1525  0.1344  0.3183
 2070SOL    HW117843   4.300   2.346  10.984  0.0111  0.2391  0.1590
 2070SOL    HW217844   4.322   2.496  10.993  0.1316 -1.6670 -2.2913
 2071SOL     OW17845   4.598   0.818   3.063 -0.6924  0.4723 -0.0752
 2071SOL    HW117846   4.562   0.758   3.128 -1.9243 -0.3120 -1.4871
 2071SOL    HW217847   4.640   0.878   3.125 -2.8870  2.1069 -0.1719
 2072SOL     OW17848   0.008   0.756   2.766 -0.5652  0.5681  0.3978
 2072SOL    HW117849   0.082   0.743   2.825  0.1343 -1.9442 -1.0310
 2072SOL    HW217850   4.692   0.688   2.796  0.8001 -1.8115 -2.2817
 2073SOL     OW17851   1.353   1.064   8.127 -0.0411 -0.2377 -0.3478
 2073SOL    HW117852   1.443   1.051   8.098 -0.4955  2.5110 -3.0512
 2073SOL    HW217853   1.366   1.133   8.193 -1.4479 -2.4797  2.2842
 2074SOL     OW17854   0.232   3.506  10.894 -0.1735  0.5507  0.0450
 2074SOL    HW117855   0.158   3.445  10.893  2.1405 -2.2843  0.7270
 2074SOL    HW217856   0.204   3.583  10.845  0.7515  0.4972 -0.5746
 2075SOL     OW17857   0.028   0.068   6.876 -0.3213 -0.3886 -0.1771
 2075SOL    HW117858   4.720   0.057   6.796  1.4300  0.8607 -1.4766
 2075SOL    HW217859   4.741   4.729   6.915 -0.3785 -0.2163  0.1403
 2076SOL     OW17860   0.250   0.665   1.313 -0.0471  0.1547  0.2003
 2076SOL    HW117861   0.192   0.693   1.242  1.5030  1.2210 -0.6464
 2076SOL    HW217862   0.199   0.693   1.389  2.0400 -0.3565  1.7798
 2077SOL     OW17863   0.563   3.085   6.737  0.4451  0.4815 -0.0165
 2077SOL    HW117864   0.572   2.990   6.744  1.6170  0.7539  2.3002
 2077SOL    HW217865   0.585   3.106   6.646  2.6090 -0.0075  0.4067
 2078SOL     OW17866   3.948   1.813   5.920  0.0418 -0.4015  0.4713
 2078SOL    HW117867   3.866   1.781   5.957 -1.7803  2.1876 -1.2747
 2078SOL    HW217868   3.954   1.767   5.837  1.1107  0.2148  0.2124
 2079SOL     OW17869   0.980   1.209   7.320 -0.2764 -0.4270  0.2052
 2079SOL    HW117870   1.026   1.127   7.338 -2.2954 -1.5325  0.3135
 2079SOL    HW217871   0.967   1.202   7.225  1.6385  0.9486 -0.1448
 2080SOL     OW17872   3.566   1.664  15.751 -0.6468 -0.5011 -0.0456
 2080SOL    HW117873   3.580   1.688  15.843  0.4520 -0.9828 -0.0917
 2080SOL    HW217874   3.629   1.720  15.706  0.7936 -0.6799  1.7393
 2081SOL     OW17875   1.149   1.879   9.259 -0.4756 -0.7457 -0.2726
 2081SOL    HW117876   1.137   1.892   9.165  0.9712  0.3036 -0.3098
 2081SOL    HW217877   1.167   1.968   9.288  0.1769 -0.9299 -0.1034
 2082SOL     OW17878   4.582   1.516   4.141 -0.3305  0.1222 -0.3066
 2082SOL    HW117879   4.551   1.600   4.174 -0.9229 -0.8107  1.4971
 2082SOL    HW217880   4.507   1.457   4.134  0.3255 -0.7677  0.0961
 2083SOL     OW17881   2.829   3.083   5.280 -0.5358 -0.5752  0.0402
 2083SOL    HW117882   2.737   3.055   5.285 -0.2457 -1.4148  0.6005
 2083SOL    HW217883   2.813   3.160   5.226  0.3980  0.7382  1.6135
 2084SOL     OW17884   3.144   4.251   3.244 -0.1113  0.4486  0.3092
 2084SOL    HW117885   3.070   4.196   3.270 -0.1663  0.9459  1.2168
 2084SOL    HW217886   3.178   4.184   3.186 -1.1463  1.3341 -1.3271
 2085SOL     OW17887   4.174   0.821   6.091 -0.2069  0.0900 -0.5249
 2085SOL    HW117888   4.138   0.889   6.034 -2.0688 -2.0586 -1.9413
 2085SOL    HW217889   4.195   0.758   6.023  0.5981 -0.2615  0.0604
 2086SOL     OW17890   0.486   2.660   1.448 -0.0811  0.4544  0.2604
 2086SOL    HW117891   0.522   2.627   1.365 -0.2816 -1.6337  0.9899
 2086SOL    HW217892   0.437   2.583   1.476  1.1919 -0.7588 -0.8379
 2087SOL     OW17893   2.822   1.492  11.480 -0.3242 -0.1463 -0.1361
 2087SOL    HW117894   2.887   1.517  11.546  0.6525  0.9954 -1.5415
 2087SOL    HW217895   2.792   1.406  11.511 -0.7222  0.3480  0.8427
 2088SOL     OW17896   2.337   2.625   5.848  0.0500  0.4340 -0.4238
 2088SOL    HW117897   2.352   2.540   5.808  1.6279  0.1487  0.7673
 2088SOL    HW217898   2.390   2.619   5.928 -1.3827 -0.7267  0.4292
 2089SOL     OW17899   1.582   3.859  15.944  0.1377 -0.4203 -0.0560
 2089SOL    HW117900   1.635   3.793  15.900 -1.3200 -1.1784 -0.6958
 2089SOL    HW217901   1.502   3.819  15.910 -0.0016 -1.7482  1.8368
 2090SOL     OW17902   3.273   4.273   9.150  0.3994  0.0575 -0.6024
 2090SOL    HW117903   3.356   4.317   9.132 -0.0552  1.4257  0.6466
 2090SOL    HW217904   3.226   4.276   9.067 -0.1357 -0.6103 -0.3314
 2091SOL     OW17905   3.928   2.006  14.975 -0.0591 -0.0261 -0.0098
 2091SOL    HW117906   3.890   1.920  14.956  1.9171 -1.0234  0.5306
 2091SOL    HW217907   3.949   1.999  15.069  1.2145  1.2630 -0.1961
 2092SOL     OW17908   2.288   4.709   8.019 -0.1459  0.3177  0.1443
 2092SOL    HW117909   2.250   0.053   8.005  0.2820  0.5259  0.2672
 2092SOL    HW217910   2.322   4.708   8.109  1.1220  1.7976 -0.3005
 2093SOL     OW17911   2.155   4.703   3.688  0.6179 -0.6076  0.1755
 2093SOL    HW117912   2.189   0.001   3.768 -0.4924 -0.3986  0.5408
 2093SOL    HW217913   2.070   0.004   3.681  0.1875 -1.5489 -0.5246
 2094SOL     OW17914   3.490   1.459  12.424 -0.2995  0.0010  0.5702
 2094SOL    HW117915   3.404   1.475  12.463  0.1955  1.5597  1.0284
 2094SOL    HW217916   3.506   1.365  12.432 -0.9385 -0.3142 -1.8470
 2095SOL     OW17917   2.771   3.754   7.895  0.0555  0.0709 -0.6158
 2095SOL    HW117918   2.814   3.777   7.812  0.6499 -0.1099 -0.3552
 2095SOL    HW217919   2.846   3.701   7.922 -0.6193 -0.6773 -0.1780
 2096SOL     OW17920   4.413   0.699  10.447  0.5008 -0.2232 -0.0265
 2096SOL    HW117921   4.421   0.789  10.414 -0.2406  0.1880  0.9262
 2096SOL    HW217922   4.373   0.657  10.371 -0.8968  2.0305 -0.5396
 2097SOL     OW17923   1.763   3.924   4.093  0.2506 -0.5439  0.4401
 2097SOL    HW117924   1.854   3.895   4.087  0.0989 -1.1492  1.0841
 2097SOL    HW217925   1.746   3.926   4.187  1.0451 -0.4564  0.5780
 2098SOL     OW17926   1.647   2.520  13.414  0.3768  0.2395 -0.2356
 2098SOL    HW117927   1.586   2.563  13.474  1.3536  2.1899 -0.6382
 2098SOL    HW217928   1.699   2.595  13.383  0.5767  0.3176  0.2906
 2099SOL     OW17929   3.158   3.732   1.890  0.1570 -0.2065  0.1547
 2099SOL    HW117930   3.137   3.698   1.977  0.8614  0.1676  0.4676
 2099SOL    HW217931   3.106   3.670   1.838 -1.7440 -0.4202  2.3669
 2100SOL     OW17932   1.088   4.038   1.021  0.2507 -0.6419 -0.2811
 2100SOL    HW117933   1.070   4.051   1.114  1.4828 -1.2275  0.0353
 2100SOL    HW217934   1.020   3.978   0.989  0.6985 -0.5106 -1.4776
 2101SOL     OW17935   1.469   1.688   4.433 -0.7147 -0.1842  0.5553
 2101SOL    HW117936   1.461   1.746   4.508 -1.7866 -0.8654  0.9586
 2101SOL    HW217937   1.563   1.669   4.438 -1.0160 -1.1166  2.3851
 2102SOL     OW17938   2.609   1.559   3.600 -0.3099  0.1671 -0.2329
 2102SOL    HW117939   2.601   1.609   3.681 -0.4038  0.3104 -0.3310
 2102SOL    HW217940   2.697   1.584   3.571 -0.6023  2.3597  0.7617
 2103SOL     OW17941   0.225   1.714   1.875 -0.2171  0.6187 -0.6903
 2103SOL    HW117942   0.246   1.631   1.916  1.4003  1.4742  0.2044
 2103SOL    HW217943   0.130   1.728   1.884 -0.3061 -0.6142  0.3111
 2104SOL     OW17944   3.863   0.324   3.606  0.5421 -0.0916  0.2148
 2104SOL    HW117945   3.851   0.359   3.695  2.9870  2.0920 -0.2954
 2104SOL    HW217946   3.771   0.319   3.582  0.4149  2.0125  0.2476
 2105SOL     OW17947   1.986   3.906   9.801  0.2049 -0.2693 -0.4549
 2105SOL    HW117948   1.940   3.944   9.876  0.7604 -1.8057  0.6806
 2105SOL    HW217949   2.059   3.969   9.801  0.6799 -0.8312 -2.0016
 2106SOL     OW17950   2.957   2.185   6.575  0.1129 -0.4081  0.1005
 2106SOL    HW117951   3.030   2.124   6.581  2.4048  2.1020 -2.2966
 2106SOL    HW217952   2.978   2.248   6.644  2.0475 -1.1996  0.2242
 2107SOL     OW17953   0.821   1.201  16.130 -0.6857 -0.2052  0.1819
 2107SOL    HW117954   0.890   1.144  16.164  0.6638  1.7532  0.7665
 2107SOL    HW217955   0.828   1.282  16.181  0.0403 -0.3498  0.3119
 2108SOL     OW17956   0.147   0.552   6.820 -0.1413  0.0100 -0.3848
 2108SOL    HW117957   0.172   0.475   6.870  1.6270  0.9806  0.2265
 2108SOL    HW217958   0.230   0.598   6.828 -0.5461  1.4829 -4.3279
 2109SOL     OW17959   4.476   3.006   4.680  0.3413 -0.2489  0.4250
 2109SOL    HW117960   4.499   2.927   4.630 -1.5707  0.9927 -2.4140
 2109SOL    HW217961   4.386   3.022   4.651  1.5900  2.2772 -2.0635
 2110SOL     OW17962   2.872   1.851   4.329  0.4289  0.3762  0.0361
 2110SOL    HW117963   2.869   1.755   4.332  2.5358  0.3474  0.9182
 2110SOL    HW217964   2.950   1.883   4.375 -0.1398  2.0693 -0.1827
 2111SOL     OW17965   1.853   1.417   7.800  0.2164  0.2050 -0.3790
 2111SOL    HW117966   1.806   1.337   7.821  0.1824  0.1644 -0.6080
 2111SOL    HW217967   1.796   1.466   7.741 -2.0810 -0.9864  0.8539
 2112SOL     OW17968   1.220   3.568   2.067  0.0805  0.1495  0.0679
 2112SOL    HW117969   1.192   3.649   2.110  0.8012  1.5264 -2.1076
 2112SOL    HW217970   1.133   3.529   2.056  0.2909 -0.6265  1.0827
 2113SOL     OW17971   2.804   1.172   8.846 -0.3821  0.4775 -0.3287
 2113SOL    HW117972   2.898   1.156   8.839 -0.3204 -0.1211  1.5985
 2113SOL    HW217973   2.814   1.175   8.942  1.1741  2.9684 -0.5691
 2114SOL     OW17974   2.480   3.250   7.701  0.2429  0.0332  0.3069
 2114SOL    HW117975   2.491   3.155   7.703  1.0059  0.1330  0.7224
 2114SOL    HW217976   2.569   3.272   7.675 -0.4969  2.1170 -0.4512
 2115SOL     OW17977   0.888   4.183   3.167  0.0329 -0.1937 -0.1281
 2115SOL    HW117978   0.953   4.231   3.115  1.7271 -3.2028 -0.8397
 2115SOL    HW217979   0.943   4.124   3.219  0.1352 -0.4026 -0.4648
 2116SOL     OW17980   4.233   0.671   9.440  0.4917  0.1865  0.2567
 2116SOL    HW117981   4.186   0.705   9.517 -0.3284 -2.6609  1.0084
 2116SOL    HW217982   4.300   0.615   9.479  0.6660 -0.7899 -1.4630
 2117SOL     OW17983   4.579   1.497   8.062 -0.6920  0.1272  0.7229
 2117SOL    HW117984   4.527   1.425   8.027  0.2612  0.0180 -0.4532
 2117SOL    HW217985   4.661   1.477   8.019 -1.1278  1.7567 -0.8456
 2118SOL     OW17986   3.360   4.545   6.623 -0.0154 -0.2393  0.8340
 2118SOL    HW117987   3.296   4.523   6.690  1.2250 -1.1122  1.7411
 2118SOL    HW217988   3.425   4.601   6.665  0.3329  1.6247 -2.1621
 2119SOL     OW17989   1.435   0.540   4.974  0.1653 -0.4139 -0.1710
 2119SOL    HW117990   1.497   0.534   4.901  1.2184  3.9363  0.3638
 2119SOL    HW217991   1.467   0.460   5.015  1.7966  0.4379  0.2163
 2120SOL     OW17992   3.349   1.377  12.936  0.4604  0.0505 -0.1791
 2120SOL    HW117993   3.437   1.398  12.906  0.4460  0.3173 -0.0333
 2120SOL    HW217994   3.362   1.426  13.017 -1.8325 -0.1497  0.3041
 2121SOL     OW17995   3.479   0.437  16.927 -0.4484 -0.4773  0.5332
 2121SOL    HW117996   3.498   0.478  16.842  0.7943  2.0031  2.0082
 2121SOL    HW217997   3.568   0.439  16.963  0.3003 -0.1278 -1.3304
 2122SOL     OW17998   0.501   1.947   2.074 -0.3320 -0.4772 -0.1941
 2122SOL    HW117999   0.435   1.903   2.129  0.7407 -0.6937  0.9130
 2122SOL    HW218000   0.474   2.038   2.071  0.8380 -0.1807 -1.3671
 2123SOL     OW18001   0.391   3.078  11.097 -0.0586  0.4325  0.1027
 2123SOL    HW118002   0.472   3.127  11.087  0.7567 -0.9113  0.0107
 2123SOL    HW218003   0.387   3.087  11.192  2.0054 -2.3840  0.4756
 2124SOL     OW18004   0.048   2.552   1.604 -0.0997  0.4295 -0.2053
 2124SOL    HW118005   0.072   2.493   1.676 -0.5210  1.9267  1.1478
 2124SOL    HW218006   0.111   2.516   1.542  0.0954 -0.5034  0.5336
 2125SOL     OW18007   0.744   0.178   2.125  0.2429  0.1536  0.4167
 2125SOL    HW118008   0.835   0.194   2.101 -0.3274  0.8761 -1.2442
 2125SOL    HW218009   0.696   0.253   2.088 -0.4625 -0.2901  0.4219
 2126SOL     OW18010   4.296   2.087   4.893 -0.1251  0.1243 -0.1749
 2126SOL    HW118011   4.341   2.134   4.963  0.1951 -1.0640  0.4224
 2126SOL    HW218012   4.361   2.101   4.824  1.0143 -0.2467  0.8285
 2127SOL     OW18013   1.769   2.223  10.022 -0.0210  0.0246 -0.1573
 2127SOL    HW118014   1.764   2.280  10.099  1.3969  2.1720 -1.6732
 2127SOL    HW218015   1.844   2.270   9.986 -0.8822  1.0465 -0.6067
 2128SOL     OW18016   3.938   1.308  13.668  0.0269 -0.6512 -0.1569
 2128SOL    HW118017   3.960   1.280  13.579  3.2401  1.5275 -0.0624
 2128SOL    HW218018   3.903   1.396  13.654 -0.6924 -0.7995  0.6890
 2129SOL     OW18019   3.083   1.596   6.949  0.2340 -0.1393  0.7441
 2129SOL    HW118020   3.117   1.681   6.922 -0.0715 -0.3471 -0.2817
 2129SOL    HW218021   2.990   1.618   6.960  1.1528  3.0095  2.2884
 2130SOL     OW18022   4.529   0.682   7.265 -0.1163 -0.1710  0.1516
 2130SOL    HW118023   4.534   0.614   7.332  3.7952 -0.7793 -0.7068
 2130SOL    HW218024   4.455   0.664   7.207  0.9646  2.3868 -2.0646
 2131SOL     OW18025   4.453   3.529   6.607  0.2340 -0.1730  0.0913
 2131SOL    HW118026   4.532   3.537   6.659  0.4906  1.0293 -0.4816
 2131SOL    HW218027   4.484   3.579   6.532  1.1612  0.6717  1.0438
 2132SOL     OW18028   4.008   1.256   4.919 -0.8322  0.1487  0.0748
 2132SOL    HW118029   3.970   1.236   5.004  0.3849  1.5142  0.9381
 2132SOL    HW218030   4.096   1.287   4.941 -1.4896  0.5884  2.0709
 2133SOL     OW18031   3.745   3.713   3.329  1.0337  0.1548 -0.1397
 2133SOL    HW118032   3.741   3.758   3.244  0.4706 -1.1555 -0.8038
 2133SOL    HW218033   3.709   3.627   3.307  2.6323 -0.3078 -0.9818
 2134SOL     OW18034   4.256   2.868  10.257 -0.4420 -0.4689  0.1750
 2134SOL    HW118035   4.228   2.955  10.227 -0.4583 -0.0642  1.3801
 2134SOL    HW218036   4.345   2.891  10.231 -0.2482  0.8865  2.0021
 2135SOL     OW18037   2.735   1.403   2.568 -0.2283  0.1805 -0.4585
 2135SOL    HW118038   2.655   1.422   2.519 -0.5519 -0.4288 -0.1539
 2135SOL    HW218039   2.794   1.423   2.496 -1.5157 -0.2635 -1.6367
 2136SOL     OW18040   3.265   2.857   7.122  0.4995  0.6591 -0.7827
 2136SOL    HW118041   3.237   2.878   7.211 -2.3854 -1.7005 -1.1583
 2136SOL    HW218042   3.263   2.941   7.075 -3.1344  0.8995 -0.1744
 2137SOL     OW18043   0.695   2.890   0.137  0.0080 -0.3844 -0.1219
 2137SOL    HW118044   0.774   2.891   0.191 -0.4842  1.9475  0.5643
 2137SOL    HW218045   0.726   2.908   0.049  0.4011  0.5746  0.2065
 2138SOL     OW18046   1.644   3.494   6.406 -0.1074 -0.0976 -0.7770
 2138SOL    HW118047   1.693   3.433   6.351 -1.1224 -0.9514 -0.7288
 2138SOL    HW218048   1.576   3.435   6.439 -1.1919 -0.1507 -3.0549
 2139SOL     OW18049   3.078   4.238   0.291 -0.1763 -0.1811 -0.3006
 2139SOL    HW118050   3.020   4.237   0.215 -1.0293  2.6473  0.3468
 2139SOL    HW218051   3.063   4.155   0.337  0.3154  0.5700  1.2300
 2140SOL     OW18052   0.526   3.193   1.247 -0.4033 -0.0957 -0.0485
 2140SOL    HW118053   0.515   3.165   1.338  1.9125  0.7820  0.5111
 2140SOL    HW218054   0.455   3.142   1.209  0.1209  2.0583 -3.9213
 2141SOL     OW18055   3.970   4.622  17.104 -0.2840 -0.3315  0.4060
 2141SOL    HW118056   4.029   4.552  17.129  1.3022  0.8854  0.0993
 2141SOL    HW218057   4.027   4.689  17.065 -1.3059  0.9109  1.0172
 2142SOL     OW18058   2.673   0.377   6.240  0.4440  0.0860 -0.4158
 2142SOL    HW118059   2.675   0.473   6.247 -0.6036  0.2040 -1.6824
 2142SOL    HW218060   2.751   0.355   6.190  0.6410  1.0680 -0.5482
 2143SOL     OW18061   4.376   1.387   7.901  0.0153  0.3576 -0.6425
 2143SOL    HW118062   4.378   1.299   7.862  0.8670  1.0450 -2.1622
 2143SOL    HW218063   4.333   1.372   7.985  0.7316  1.1874 -0.1234
 2144SOL     OW18064   4.195   0.123   6.381  0.2631  0.2211 -0.0587
 2144SOL    HW118065   4.114   0.111   6.432  2.1028  0.2285  2.8366
 2144SOL    HW218066   4.237   0.194   6.429 -1.7107 -0.3111  2.4935
 2145SOL     OW18067   4.578   3.824   2.388  0.1905 -0.3274 -0.3254
 2145SOL    HW118068   4.614   3.754   2.333  1.5382 -0.0629  0.2216
 2145SOL    HW218069   4.530   3.763   2.444 -1.0745  1.7482  0.8514
 2146SOL     OW18070   1.371   4.121  11.749 -0.2668 -0.6976 -0.2982
 2146SOL    HW118071   1.448   4.178  11.744 -1.4226  0.8752 -0.1812
 2146SOL    HW218072   1.295   4.180  11.749  0.9930  0.9460 -1.4311
 2147SOL     OW18073   1.092   3.550   0.945 -0.5195 -0.4945 -0.7623
 2147SOL    HW118074   1.094   3.501   1.027  1.9094 -0.3189 -0.7190
 2147SOL    HW218075   1.033   3.496   0.891  1.6842 -1.5213 -2.1249
 2148SOL     OW18076   4.174   0.477   9.975 -0.7064  0.1159  0.4445
 2148SOL    HW118077   4.240   0.418   9.939 -0.1091  0.9139  0.2156
 2148SOL    HW218078   4.210   0.565   9.959 -1.7327  0.2858 -1.0283
 2149SOL     OW18079   4.161   2.860   0.914 -0.0929 -0.4502 -0.2790
 2149SOL    HW118080   4.123   2.796   0.855  0.5975 -0.6068 -0.5501
 2149SOL    HW218081   4.110   2.850   0.995 -0.6958  0.5062 -0.5271
 2150SOL     OW18082   0.765   2.879  17.287 -0.3902  0.2721  0.8279
 2150SOL    HW118083   0.689   2.900  17.232  0.1657  2.5967  0.9665
 2150SOL    HW218084   0.795   2.960  17.328  2.1528  1.7771 -4.1499
 2151SOL     OW18085   2.788   2.812  14.173  0.1676 -0.4349  0.0006
 2151SOL    HW118086   2.774   2.719  14.152  0.4966 -0.3637 -0.5199
 2151SOL    HW218087   2.872   2.822  14.219  1.1333  1.1368 -2.1462
 2152SOL     OW18088   0.930   3.954   7.420  0.0537  0.1487  0.0960
 2152SOL    HW118089   0.958   4.045   7.429  0.6782  0.1304 -1.5807
 2152SOL    HW218090   1.002   3.939   7.359 -0.5990  1.0969 -0.9246
 2153SOL     OW18091   3.870   1.417  12.484 -0.3036  0.7270  0.0145
 2153SOL    HW118092   3.825   1.446  12.405  1.0171 -0.0905 -1.0386
 2153SOL    HW218093   3.799   1.410  12.547 -1.4971 -0.3147 -1.4594
 2154SOL     OW18094   1.294   2.893  12.440 -0.4127 -0.5314  0.1701
 2154SOL    HW118095   1.388   2.906  12.452 -0.4875  1.8173 -2.0270
 2154SOL    HW218096   1.263   2.980  12.463 -0.2627 -0.8272  1.5255
 2155SOL     OW18097   1.195   2.983   4.564 -0.2138 -0.1775 -0.2763
 2155SOL    HW118098   1.164   2.985   4.473 -0.7823  0.2830 -0.0678
 2155SOL    HW218099   1.141   2.908   4.588  1.5785 -1.7707 -1.1664
 2156SOL     OW18100   4.432   0.758   6.382  0.5254 -0.4459  0.0239
 2156SOL    HW118101   4.463   0.669   6.366 -0.0234 -0.2496 -2.1347
 2156SOL    HW218102   4.482   0.774   6.462 -0.4155  1.6320  0.2124
 2157SOL     OW18103   4.325   3.375   4.059 -0.2313 -0.3334 -0.3766
 2157SOL    HW118104   4.391   3.347   4.122 -2.2785  0.0356  1.9400
 2157SOL    HW218105   4.381   3.414   3.992  1.1883  1.1013  1.6334
 2158SOL     OW18106   2.300   4.193   2.186  0.4301  0.4933  0.1190
 2158SOL    HW118107   2.281   4.241   2.267  0.6872 -1.2221  1.2086
 2158SOL    HW218108   2.254   4.110   2.196  1.3667  0.3104  3.0213
 2159SOL     OW18109   2.808   1.417  11.856  0.0614  0.3290 -0.2521
 2159SOL    HW118110   2.818   1.334  11.902  0.2006  0.6661  0.3333
 2159SOL    HW218111   2.831   1.388  11.768  1.1787 -2.3497  0.9101
 2160SOL     OW18112   2.122   1.922  10.118 -0.1506  0.5022 -0.2149
 2160SOL    HW118113   2.032   1.893  10.128 -0.2087  1.1579  1.0222
 2160SOL    HW218114   2.122   1.986  10.189 -0.3074  1.3353 -0.9662
 2161SOL     OW18115   2.903   1.306   1.506  0.7429 -0.0137 -0.0520
 2161SOL    HW118116   2.868   1.392   1.529  0.4323  0.0373 -0.7211
 2161SOL    HW218117   2.851   1.251   1.564  1.9001  0.8070  1.7487
 2162SOL     OW18118   0.523   3.996   1.040  0.3237  0.1792 -0.4699
 2162SOL    HW118119   0.495   4.076   1.086 -0.8846  1.7551 -3.9018
 2162SOL    HW218120   0.593   3.965   1.098 -0.1544  2.0675  1.1397
 2163SOL     OW18121   3.533   2.189   9.888 -0.0788 -0.3872  0.3384
 2163SOL    HW118122   3.594   2.260   9.870 -0.9631  0.6281  1.3390
 2163SOL    HW218123   3.499   2.213   9.974 -0.5360 -0.8457  0.2858
 2164SOL     OW18124   2.575   0.331  10.498  0.0904  0.5925 -0.1664
 2164SOL    HW118125   2.634   0.372  10.435 -0.0809  0.6647 -0.2784
 2164SOL    HW218126   2.537   0.401  10.551 -1.7736  0.2006 -1.0053
 2165SOL     OW18127   2.879   4.665  13.061  0.2670 -0.2085  0.2660
 2165SOL    HW118128   2.902   4.718  13.138  1.7626 -3.2056  1.9047
 2165SOL    HW218129   2.917   4.713  12.988 -0.9166 -0.4076 -0.4712
 2166SOL     OW18130   4.410   0.308   2.808  0.0008  0.0141 -0.4595
 2166SOL    HW118131   4.452   0.316   2.894  0.7262 -0.7589 -0.7430
 2166SOL    HW218132   4.362   0.391   2.808  1.2378  0.7234  4.7292
 2167SOL     OW18133   1.154   2.293  14.147 -0.2431 -0.3879  0.0867
 2167SOL    HW118134   1.118   2.210  14.116  2.4117 -0.4661 -2.7543
 2167SOL    HW218135   1.108   2.298  14.231 -2.8986 -4.2829 -1.1385
 2168SOL     OW18136   3.902   4.653   5.933 -0.1398 -0.0414  0.7860
 2168SOL    HW118137   3.923   4.660   6.026  3.0521 -1.4178  0.1694
 2168SOL    HW218138   3.820   4.603   5.932 -0.8167  1.0707  0.4639
 2169SOL     OW18139   1.313   1.558   8.374  0.5349 -0.1130  0.1065
 2169SOL    HW118140   1.281   1.584   8.288 -0.6011 -0.6996  0.3404
 2169SOL    HW218141   1.372   1.488   8.346  0.8168  1.0078 -2.1085
 2170SOL     OW18142   2.143   3.833   8.288  0.5077 -0.1371 -0.2204
 2170SOL    HW118143   2.052   3.834   8.258 -0.0103 -1.3741  1.2937
 2170SOL    HW218144   2.138   3.800   8.378 -0.3320 -0.7635 -0.4861
 2171SOL     OW18145   1.165   2.994   2.885 -0.1258 -0.1873  0.5584
 2171SOL    HW118146   1.178   3.047   2.964  0.9582  2.4585 -1.3944
 2171SOL    HW218147   1.241   2.936   2.877 -0.6540 -0.6583 -1.0533
 2172SOL     OW18148   2.648   1.172  13.125 -0.0368  0.1056 -0.6044
 2172SOL    HW118149   2.709   1.154  13.053 -1.1424 -0.4878 -1.3871
 2172SOL    HW218150   2.595   1.093  13.133 -1.4096  0.8892 -1.8890
 2173SOL     OW18151   0.478   2.430   1.639  0.2687 -0.0633 -0.3036
 2173SOL    HW118152   0.407   2.376   1.673  0.5438 -0.0085  0.3534
 2173SOL    HW218153   0.512   2.374   1.569  0.0029  0.0816 -0.5490
 2174SOL     OW18154   0.144   0.633   4.801 -0.7089  0.3133 -0.2063
 2174SOL    HW118155   0.054   0.624   4.767 -1.2430  0.5060  1.1456
 2174SOL    HW218156   0.163   0.725   4.779 -0.8489  0.4739  0.3355
 2175SOL     OW18157   1.326   2.568  10.838  0.5269 -0.7326 -0.0484
 2175SOL    HW118158   1.242   2.571  10.885  0.4898 -0.5976 -0.1225
 2175SOL    HW218159   1.383   2.590  10.911  1.6691 -0.8949 -0.9016
 2176SOL     OW18160   2.354   4.325  11.716  0.0947  0.1145 -0.6719
 2176SOL    HW118161   2.285   4.288  11.662  0.1935 -0.8802 -0.1244
 2176SOL    HW218162   2.302   4.372  11.781  1.5353  0.1382  0.4743
 2177SOL     OW18163   1.689   0.803   2.580 -0.0145  0.5759  0.1006
 2177SOL    HW118164   1.692   0.708   2.593  0.1170 -0.2392 -5.6886
 2177SOL    HW218165   1.739   0.818   2.500 -0.5248  0.3755 -0.2623
 2178SOL     OW18166   2.982   4.020   3.292  0.1043  0.1485 -0.1640
 2178SOL    HW118167   2.915   4.037   3.227  2.1175 -2.5052 -2.9258
 2178SOL    HW218168   3.051   3.979   3.240 -0.9857 -1.6628 -0.1768
 2179SOL     OW18169   0.921   2.061   4.104 -0.1170 -0.0498 -0.2043
 2179SOL    HW118170   0.976   1.983   4.110 -2.6533 -1.8274 -0.2133
 2179SOL    HW218171   0.835   2.020   4.111 -0.5339  0.5847 -1.6361
 2180SOL     OW18172   0.544   4.245   6.548  0.4207 -0.6504  0.1017
 2180SOL    HW118173   0.537   4.311   6.480  1.5564  0.9114  1.5175
 2180SOL    HW218174   0.603   4.296   6.604 -0.6994  1.1981 -0.4060
 2181SOL     OW18175   0.890   3.673  14.221 -0.0773 -0.1004  0.1088
 2181SOL    HW118176   0.939   3.751  14.246 -2.1501  0.5526  2.1942
 2181SOL    HW218177   0.935   3.635  14.146 -0.3587 -0.0029 -0.1089
 2182SOL     OW18178   2.283   0.083   4.123 -0.2210  0.3175  0.2684
 2182SOL    HW118179   2.245   0.129   4.197  0.6455  0.3803  0.6744
 2182SOL    HW218180   2.294   4.741   4.165 -2.9563  0.3800  1.0682
 2183SOL     OW18181   0.445   0.486   8.862  0.2838 -0.0182  0.2406
 2183SOL    HW118182   0.509   0.553   8.882 -1.6606  1.7688  0.4483
 2183SOL    HW218183   0.499   0.423   8.814  0.0738  0.6178 -0.8274
 2184SOL     OW18184   0.705   4.488  12.003  0.6787  0.3689 -0.7442
 2184SOL    HW118185   0.710   4.397  11.972  0.7991 -0.2900  1.2061
 2184SOL    HW218186   0.625   4.518  11.961 -1.5400 -1.7871  2.0003
 2185SOL     OW18187   0.687   4.369   1.426  0.4084 -0.3195 -0.3622
 2185SOL    HW118188   0.744   4.442   1.403  1.9226 -1.1937  0.6233
 2185SOL    HW218189   0.733   4.318   1.493  0.2229  0.1411  0.1115
 2186SOL     OW18190   0.654   4.182   2.148 -0.1634 -0.0856  0.0944
 2186SOL    HW118191   0.699   4.185   2.063 -1.4476 -0.3922 -0.5960
 2186SOL    HW218192   0.646   4.277   2.158 -2.9203 -0.3227 -0.0254
 2187SOL     OW18193   2.318   4.688   7.388  0.3990  0.0443  0.3401
 2187SOL    HW118194   2.335   4.609   7.336 -0.2096 -0.4917  0.9632
 2187SOL    HW218195   2.307   0.015   7.324  0.4319 -0.7948 -0.5996
 2188SOL     OW18196   0.821   2.382  12.913 -0.3578 -0.7925  0.0187
 2188SOL    HW118197   0.901   2.422  12.947  0.9562 -0.9442 -2.8684
 2188SOL    HW218198   0.761   2.451  12.939  0.4544 -1.0801  2.6256
 2189SOL     OW18199   4.632   1.424   6.295  0.1238  0.0533 -0.1286
 2189SOL    HW118200   4.681   1.392   6.219  2.0536 -1.3168  1.6839
 2189SOL    HW218201   4.541   1.422   6.263  1.0071  1.4648 -2.7361
 2190SOL     OW18202   3.188   3.117   1.751 -0.5974 -0.4822  0.0542
 2190SOL    HW118203   3.106   3.130   1.798 -0.4094  0.5936  0.1020
 2190SOL    HW218204   3.233   3.199   1.772  2.6829 -2.6154  1.3807
 2191SOL     OW18205   3.647   0.619   4.226  0.4637  0.0444  0.2305
 2191SOL    HW118206   3.680   0.652   4.310  0.3831  0.4732  0.0938
 2191SOL    HW218207   3.628   0.530   4.254  0.0845 -0.1355 -0.6008
 2192SOL     OW18208   4.313   0.924  14.654  0.1222  0.4719  0.2697
 2192SOL    HW118209   4.387   0.867  14.636  1.1372  2.4998 -1.8637
 2192SOL    HW218210   4.279   0.925  14.565  1.5388 -0.9070 -0.2790
 2193SOL     OW18211   4.230   3.556  13.910 -0.1599  0.3132 -0.1895
 2193SOL    HW118212   4.224   3.643  13.869 -0.9719 -0.6300 -2.0542
 2193SOL    HW218213   4.170   3.516  13.846  1.9455  1.0176 -2.6138
 2194SOL     OW18214   1.282   1.072  17.037 -0.0101  0.1983 -0.1849
 2194SOL    HW118215   1.250   1.017  16.966  4.2728 -1.3379 -0.9221
 2194SOL    HW218216   1.229   1.043  17.111 -1.0260  0.4017 -0.8364
 2195SOL     OW18217   3.261   3.093   8.928 -0.7180 -0.0873  0.0755
 2195SOL    HW118218   3.271   3.184   8.955  0.6614 -0.8811  2.2294
 2195SOL    HW218219   3.328   3.091   8.859  0.1672  0.0519  0.9331
 2196SOL     OW18220   0.700   1.027  11.803  0.2708 -0.5139  0.6121
 2196SOL    HW118221   0.643   0.976  11.861  0.5118 -1.6085 -0.1257
 2196SOL    HW218222   0.754   1.082  11.860 -1.1956  0.5628  0.9544
 2197SOL     OW18223   2.024   3.253   1.836  0.7594  0.0258  0.3718
 2197SOL    HW118224   2.086   3.212   1.776  1.3614  0.2461  0.8470
 2197SOL    HW218225   1.939   3.212   1.815  0.4204  2.0221 -2.1683
 2198SOL     OW18226   4.398   4.378   7.165  0.4692  0.0348  0.8200
 2198SOL    HW118227   4.328   4.351   7.225 -1.5155 -1.3251 -2.0471
 2198SOL    HW218228   4.373   4.333   7.084  0.5988 -1.4903  1.6304
 2199SOL     OW18229   4.324   2.309   3.108  0.7718  0.6830  0.6517
 2199SOL    HW118230   4.398   2.261   3.146  0.4261  0.6606  1.2960
 2199SOL    HW218231   4.248   2.262   3.142 -0.4731  1.9524 -0.3841
 2200SOL     OW18232   4.576   3.807   5.197  0.1005  0.0650 -0.2091
 2200SOL    HW118233   4.583   3.744   5.126  2.5340  2.0029 -1.6814
 2200SOL    HW218234   4.506   3.765   5.247  1.0616 -1.0256  0.2163
 2201SOL     OW18235   2.948   0.975   3.518  0.4689  0.4644 -0.1257
 2201SOL    HW118236   3.034   0.961   3.476  0.4553  0.9313 -0.3183
 2201SOL    HW218237   2.976   0.956   3.607  0.0312 -3.4459 -0.8146
 2202SOL     OW18238   1.140   1.493  15.374  0.1776 -0.0402 -0.3778
 2202SOL    HW118239   1.182   1.579  15.372  0.6875 -0.2836 -0.1562
 2202SOL    HW218240   1.074   1.521  15.438 -0.1752 -2.7433  0.4657
 2203SOL     OW18241   4.619   3.762  15.811  0.2790 -0.3580 -0.3323
 2203SOL    HW118242   4.647   3.853  15.818 -2.6236  0.4015  1.3029
 2203SOL    HW218243   4.672   3.729  15.738  0.5003 -0.3209 -0.1882
 2204SOL     OW18244   2.397   3.023   8.750 -0.2690  0.4231  0.3429
 2204SOL    HW118245   2.315   2.978   8.770 -0.2513  0.0964 -0.3201
 2204SOL    HW218246   2.352   3.095   8.706 -0.5208 -1.0477 -1.8064
 2205SOL     OW18247   4.156   2.468   2.027 -0.3377  0.2246 -0.0647
 2205SOL    HW118248   4.067   2.434   2.023 -0.4163  0.5407 -0.9705
 2205SOL    HW218249   4.147   2.523   1.949  1.5875 -1.2584 -1.3305
 2206SOL     OW18250   2.201   4.191  16.855  0.4296 -0.1572  0.2553
 2206SOL    HW118251   2.262   4.178  16.783 -0.5975  0.8626 -0.7837
 2206SOL    HW218252   2.255   4.246  16.912 -1.7933  1.5053  0.7383
 2207SOL     OW18253   2.461   1.714   1.579  0.0407  0.3963  0.7102
 2207SOL    HW118254   2.523   1.673   1.639  0.9746  0.3571 -0.2824
 2207SOL    HW218255   2.524   1.758   1.521  0.3095 -2.9897 -1.5603
 2208SOL     OW18256   2.068   4.324  12.942  0.6758  0.0618 -0.4563
 2208SOL    HW118257   2.073   4.397  12.880  3.2445 -1.7168 -2.3610
 2208SOL    HW218258   2.012   4.268  12.888  0.6339 -1.3015  1.0017
 2209SOL     OW18259   0.025   2.323   1.985 -0.9512  0.0059  0.5076
 2209SOL    HW118260   4.723   2.402   1.955 -2.6994 -0.3890  2.1381
 2209SOL    HW218261   0.026   2.344   2.079 -3.1415 -1.4393  0.8490
 2210SOL     OW18262   4.685   3.984   4.504 -0.2290 -0.2653 -0.1456
 2210SOL    HW118263   0.016   3.947   4.552 -0.8694  1.4618  2.1639
 2210SOL    HW218264   4.657   4.052   4.565 -0.6771 -0.0901 -0.5479
 2211SOL     OW18265   0.744   3.499   1.820  0.0818 -0.3407  0.5146
 2211SOL    HW118266   0.698   3.537   1.745  1.0688 -2.6552 -1.2709
 2211SOL    HW218267   0.677   3.436   1.846  0.9175 -1.0825  0.8733
 2212SOL     OW18268   3.562   3.940   9.103 -0.1460 -0.6186 -0.1793
 2212SOL    HW118269   3.578   4.007   9.036  3.7415 -0.9509  0.3766
 2212SOL    HW218270   3.506   3.880   9.053 -0.5056  0.6913 -1.3462
 2213SOL     OW18271   4.646   4.229   7.830  0.5508 -0.5062  0.2627
 2213SOL    HW118272   4.586   4.304   7.828  0.0052 -1.0159 -4.1043
 2213SOL    HW218273   4.596   4.162   7.878 -2.1110  0.8584 -0.5952
 2214SOL     OW18274   4.087   2.509   7.523  0.4486 -0.0562 -0.3922
 2214SOL    HW118275   4.134   2.584   7.559 -1.4898  0.8720  0.2004
 2214SOL    HW218276   4.075   2.541   7.433  1.5920 -1.9509 -1.2213
 2215SOL     OW18277   1.997   0.820   4.371  0.1021 -0.0724  0.0444
 2215SOL    HW118278   2.035   0.744   4.326  0.5938  0.3604 -0.2687
 2215SOL    HW218279   2.033   0.886   4.311  0.1442 -0.1424 -0.0081
 2216SOL     OW18280   1.978   2.280   1.787 -0.3092  0.4440  0.0041
 2216SOL    HW118281   2.005   2.228   1.863  0.2426 -1.0516 -1.2153
 2216SOL    HW218282   1.953   2.202   1.737  1.2072  1.4380 -2.3102
 2217SOL     OW18283   4.359   0.743   7.029 -0.2488  0.3016  0.0095
 2217SOL    HW118284   4.372   0.832   7.063  3.1981 -0.1998 -0.0035
 2217SOL    HW218285   4.450   0.721   7.010  0.6370  1.8709  2.4382
 2218SOL     OW18286   4.430   2.125   1.286  0.6551  0.2202  0.0498
 2218SOL    HW118287   4.477   2.208   1.293  2.2764 -0.8749  2.2396
 2218SOL    HW218288   4.476   2.070   1.223  0.0849 -0.7310  0.4629
 2219SOL     OW18289   2.530   1.228  14.974 -0.2868  0.0114 -0.0625
 2219SOL    HW118290   2.535   1.265  14.885  1.6906  1.1407  0.5332
 2219SOL    HW218291   2.619   1.244  15.005 -0.0748  1.4333 -1.3959
 2220SOL     OW18292   4.265   1.986   3.373  0.3169  0.1197  0.1677
 2220SOL    HW118293   4.329   1.962   3.305  0.0429 -2.0788  0.6918
 2220SOL    HW218294   4.306   2.065   3.409  0.9363 -0.1932  0.1493
 2221SOL     OW18295   1.516   3.272   6.470  0.5111 -0.0890 -0.5385
 2221SOL    HW118296   1.527   3.208   6.400 -0.8542  0.5126 -1.3081
 2221SOL    HW218297   1.424   3.296   6.459 -0.0932 -2.0234  0.2112
 2222SOL     OW18298   4.440   3.198   8.425  0.1831 -0.8507  0.0980
 2222SOL    HW118299   4.375   3.235   8.364 -1.0858 -1.6591  0.9618
 2222SOL    HW218300   4.370   3.179   8.487  0.0008 -0.1756  0.1036
 2223SOL     OW18301   2.478   4.599   6.286  0.1217  0.3122  0.7202
 2223SOL    HW118302   2.489   4.639   6.200  0.4615  0.9939  1.0795
 2223SOL    HW218303   2.571   4.593   6.310  0.6550  0.9983 -1.1849
 2224SOL     OW18304   0.281   2.675  17.485 -0.2555  0.0288 -0.0201
 2224SOL    HW118305   0.330   2.727  17.548 -0.1659  0.1035 -0.1508
 2224SOL    HW218306   0.353   2.652  17.427  0.7538  1.8044  0.5473
 2225SOL     OW18307   0.074   4.379   0.582 -0.6578 -0.3004 -0.3843
 2225SOL    HW118308   4.743   4.383   0.641  0.2507  2.3138  0.5768
 2225SOL    HW218309   0.148   4.381   0.643  0.6192  0.3937 -1.9455
 2226SOL     OW18310   2.941   4.398   3.080  0.5201  0.0078  0.0897
 2226SOL    HW118311   2.973   4.353   3.157 -1.7671 -0.9860  0.4713
 2226SOL    HW218312   2.886   4.469   3.113  0.5929  0.1096 -0.0065
 2227SOL     OW18313   0.703   2.565   7.771  0.3194 -0.2328 -0.7177
 2227SOL    HW118314   0.668   2.652   7.794 -2.8101 -1.4797 -0.7513
 2227SOL    HW218315   0.771   2.585   7.707  1.4900 -0.6001  0.4018
 2228SOL     OW18316   2.815   2.460  10.821  0.2007 -0.0280  0.3052
 2228SOL    HW118317   2.905   2.480  10.848  0.2624  2.9189 -2.0265
 2228SOL    HW218318   2.766   2.449  10.902 -0.2573  2.9546  0.4280
 2229SOL     OW18319   4.438   1.147   1.113  0.2137 -0.0788 -0.1149
 2229SOL    HW118320   4.525   1.106   1.117  1.0105  1.8280  2.0364
 2229SOL    HW218321   4.388   1.072   1.146  1.4242 -1.1927 -0.7805
 2230SOL     OW18322   4.537   1.905   7.763  0.0941 -0.1709  0.1491
 2230SOL    HW118323   4.485   1.926   7.840 -1.3290 -0.2939 -0.7638
 2230SOL    HW218324   4.549   1.811   7.775 -0.3959 -0.6828 -3.2933
 2231SOL     OW18325   0.195   3.605  13.007 -0.1937  0.2708 -0.0683
 2231SOL    HW118326   0.222   3.558  12.928  1.6507 -1.4802  1.6203
 2231SOL    HW218327   0.200   3.698  12.984 -0.7884  0.4669  0.5879
 2232SOL     OW18328   2.764   0.053   6.514  0.1040  0.4863 -0.1324
 2232SOL    HW118329   2.681   0.057   6.466  0.1690 -1.1618 -0.4059
 2232SOL    HW218330   2.736   4.742   6.588  0.1701  1.3594  0.5310
 2233SOL     OW18331   0.964   4.489  14.609 -0.2924 -0.1971  0.2459
 2233SOL    HW118332   1.021   4.505  14.533 -0.8035  1.3845  0.1984
 2233SOL    HW218333   1.034   4.486  14.674  0.7316 -3.2138 -1.0181
 2234SOL     OW18334   1.397   1.741   7.831  0.1296 -0.0937 -0.0957
 2234SOL    HW118335   1.476   1.790   7.812  0.4005 -0.4613  0.0918
 2234SOL    HW218336   1.438   1.655   7.832 -0.1722 -0.2491 -1.0719
 2235SOL     OW18337   2.685   0.024   5.816 -0.5678  0.1765 -0.6096
 2235SOL    HW118338   2.650   0.090   5.757 -0.0270 -0.1225 -1.2685
 2235SOL    HW218339   2.660   4.686   5.772 -1.3453 -0.1704  0.4903
 2236SOL     OW18340   3.011   0.318   3.258  0.1138 -0.0316 -0.0767
 2236SOL    HW118341   2.928   0.366   3.258  1.2261  1.8882  1.3326
 2236SOL    HW218342   3.036   0.322   3.350  3.9734  0.4868 -1.1684
 2237SOL     OW18343   3.321   2.130   1.852  0.2352 -0.1734 -0.3352
 2237SOL    HW118344   3.382   2.091   1.790  1.4712  1.9119 -0.4447
 2237SOL    HW218345   3.346   2.085   1.932 -1.9675  2.9222  2.1081
 2238SOL     OW18346   0.171   3.810   5.444  0.8859 -0.0604 -0.3246
 2238SOL    HW118347   0.231   3.875   5.410  0.7821  0.2672  0.1150
 2238SOL    HW218348   0.089   3.842   5.407  0.8200  0.9209  0.6601
 2239SOL     OW18349   2.347   3.211   3.841 -1.0131  0.1791  0.3303
 2239SOL    HW118350   2.413   3.171   3.899 -0.3416 -0.7612 -1.0710
 2239SOL    HW218351   2.389   3.285   3.799 -1.5228 -0.2028 -0.8471
 2240SOL     OW18352   3.714   3.491   7.427  0.2586 -0.0468  0.4637
 2240SOL    HW118353   3.723   3.540   7.345 -0.8765 -0.0885  0.3160
 2240SOL    HW218354   3.665   3.556   7.478 -0.4899 -0.9578  0.9128
 2241SOL     OW18355   3.815   3.780  12.389  0.7867  0.1339 -0.0402
 2241SOL    HW118356   3.776   3.755  12.473  1.7481  0.5042  0.5126
 2241SOL    HW218357   3.760   3.845  12.346  1.6117 -0.3640 -1.8497
 2242SOL     OW18358   1.168   2.862  15.423 -0.1457 -0.2258  0.9308
 2242SOL    HW118359   1.116   2.924  15.372  1.4369  0.4705  0.1671
 2242SOL    HW218360   1.258   2.895  15.421 -0.5938  0.9406 -0.3050
 2243SOL     OW18361   0.938   4.006   5.362  0.3262 -0.0882 -0.1332
 2243SOL    HW118362   0.982   4.078   5.407  0.5191 -0.9402  1.0349
 2243SOL    HW218363   0.875   3.957   5.415 -0.1228  4.2074  3.3069
 2244SOL     OW18364   3.028   4.663   2.277  0.0126 -0.2250 -0.2635
 2244SOL    HW118365   3.002   0.009   2.297  0.4493 -0.5555  1.7301
 2244SOL    HW218366   3.051   4.663   2.184 -1.0470  2.0552 -0.5074
 2245SOL     OW18367   4.201   3.153   7.398  0.0547  0.1469 -0.2970
 2245SOL    HW118368   4.129   3.167   7.459  0.9532 -1.2330  1.0926
 2245SOL    HW218369   4.270   3.186   7.455  1.3396  2.1000 -2.9732
 2246SOL     OW18370   2.496   1.794   0.253  0.2751 -0.6349 -0.2575
 2246SOL    HW118371   2.453   1.759   0.331 -0.9537 -1.2445 -1.2009
 2246SOL    HW218372   2.474   1.886   0.272  0.5088 -0.7547  0.5931
 2247SOL     OW18373   0.519   3.431   4.319 -0.2113 -0.1070  0.7588
 2247SOL    HW118374   0.437   3.428   4.270  1.4473 -1.8867 -1.8562
 2247SOL    HW218375   0.518   3.526   4.333  3.1653 -0.0817  0.8300
 2248SOL     OW18376   2.034   2.132  16.061 -0.6872 -0.0397 -0.3340
 2248SOL    HW118377   2.084   2.193  16.007 -3.3926  2.1832 -0.3313
 2248SOL    HW218378   2.084   2.054  16.038 -0.1746 -0.1744  1.1984
 2249SOL     OW18379   0.106   0.195   1.597 -0.5984 -0.2350 -0.4679
 2249SOL    HW118380   0.123   0.243   1.516 -2.2955 -1.2582 -1.4264
 2249SOL    HW218381   0.108   0.102   1.574  1.1694 -0.0104 -1.2172
 2250SOL     OW18382   0.946   3.240   1.348  0.1447 -0.4223  0.0278
 2250SOL    HW118383   0.879   3.281   1.402  2.2159  1.9159  0.8211
 2250SOL    HW218384   0.903   3.156   1.332 -1.5179  1.0060 -2.8712
 2251SOL     OW18385   1.157   3.298  17.582  0.4816 -0.4657 -0.1293
 2251SOL    HW118386   1.089   3.344  17.533 -0.2211 -0.8757  0.4587
 2251SOL    HW218387   1.240   3.321  17.542  0.2686  0.4137 -0.0721
 2252SOL     OW18388   3.483   2.402   3.874 -0.3087 -0.2138 -0.4081
 2252SOL    HW118389   3.551   2.452   3.918 -0.2099  0.4172 -1.2793
 2252SOL    HW218390   3.515   2.409   3.784 -0.4658 -0.4795 -0.4857
 2253SOL     OW18391   4.340   0.374   9.802  0.2636 -0.3663 -0.4309
 2253SOL    HW118392   4.342   0.403   9.711  0.2536  1.4768  0.1580
 2253SOL    HW218393   4.408   0.306   9.797 -2.0599 -2.7162 -0.3024
 2254SOL     OW18394   1.594   4.039   3.088 -0.9277 -0.3654 -0.1193
 2254SOL    HW118395   1.520   4.098   3.104 -1.5952 -0.5364 -2.5862
 2254SOL    HW218396   1.654   4.069   3.157 -2.2668  1.3246  0.3179
 2255SOL     OW18397   2.043   4.646   2.952  0.1995 -0.4863  0.5706
 2255SOL    HW118398   2.043   4.705   3.028 -0.6305  1.0687 -0.6193
 2255SOL    HW218399   2.136   4.628   2.944  0.9407  3.3184  0.3647
 2256SOL     OW18400   2.647   0.726   0.752 -0.5614  0.0362 -0.2228
 2256SOL    HW118401   2.580   0.658   0.749 -0.3273 -0.1149 -2.1279
 2256SOL    HW218402   2.722   0.671   0.729 -0.1304  0.1636  0.9003
 2257SOL     OW18403   4.666   2.423  11.874  0.2704  0.2119 -0.9033
 2257SOL    HW118404   4.702   2.478  11.803 -0.6644  2.2993  0.2415
 2257SOL    HW218405   4.577   2.456  11.885  0.9323  1.1772  1.4113
 2258SOL     OW18406   2.307   2.103   3.743 -0.1045  0.0010  0.1352
 2258SOL    HW118407   2.214   2.123   3.741 -0.3139 -0.8606  1.1650
 2258SOL    HW218408   2.314   2.064   3.831  0.1896 -1.1452 -0.3968
 2259SOL     OW18409   3.837   1.139   2.769  0.0846 -0.2584 -0.0198
 2259SOL    HW118410   3.754   1.171   2.805 -0.8220 -1.0350 -1.4190
 2259SOL    HW218411   3.819   1.045   2.763  3.0919 -0.9544  1.7568
 2260SOL     OW18412   3.533   3.269   7.659 -0.4979 -0.2665 -0.0400
 2260SOL    HW118413   3.552   3.204   7.726 -0.4505  0.1463  0.3512
 2260SOL    HW218414   3.498   3.203   7.599  0.4358 -1.3168  0.5821
 2261SOL     OW18415   1.847   2.172   2.117  0.4345  0.1359  0.5369
 2261SOL    HW118416   1.769   2.117   2.112  0.1306  0.4992  1.1928
 2261SOL    HW218417   1.897   2.125   2.183  1.2865  0.1853 -0.0738
 2262SOL     OW18418   3.604   0.768  16.872  0.3858  0.4047 -0.2603
 2262SOL    HW118419   3.513   0.753  16.849  0.8805 -2.6818 -0.2745
 2262SOL    HW218420   3.596   0.756  16.967 -0.4330 -2.8441 -0.7576
 2263SOL     OW18421   4.418   4.291   7.468 -0.1038  0.3334  0.3305
 2263SOL    HW118422   4.342   4.348   7.462 -0.3121  0.1476  1.2157
 2263SOL    HW218423   4.452   4.286   7.557  0.7814  0.0542 -0.0207
 2264SOL     OW18424   2.455   1.462   1.448 -0.0949  0.2826 -0.5781
 2264SOL    HW118425   2.435   1.544   1.494  1.5434  0.0133  0.5646
 2264SOL    HW218426   2.547   1.451   1.470 -0.9255  0.5118  2.9149
 2265SOL     OW18427   0.614   3.327   5.565 -0.0266 -0.1634  0.4687
 2265SOL    HW118428   0.537   3.365   5.607 -1.2004 -1.4960 -0.5172
 2265SOL    HW218429   0.608   3.235   5.588 -0.2901  0.4724  2.9537
 2266SOL     OW18430   2.997   0.620   0.743  0.0410  0.4812  0.2610
 2266SOL    HW118431   3.013   0.619   0.837 -1.9235  1.2029  0.6129
 2266SOL    HW218432   3.053   0.550   0.710 -1.3311  0.1410 -1.3759
 2267SOL     OW18433   1.726   2.590   3.828 -0.2695 -0.5184 -0.2426
 2267SOL    HW118434   1.651   2.531   3.822 -0.2576 -0.5758  0.1781
 2267SOL    HW218435   1.701   2.638   3.749 -2.0899  0.4168  0.9149
 2268SOL     OW18436   2.523   1.751   2.511 -0.1841 -0.1479  0.2305
 2268SOL    HW118437   2.605   1.738   2.559  0.2609 -1.3490 -0.8515
 2268SOL    HW218438   2.555   1.781   2.426 -0.6599  0.9617  0.4421
 2269SOL     OW18439   0.697   0.932   4.387 -0.4219  0.0679  0.4108
 2269SOL    HW118440   0.791   0.921   4.369 -0.8277 -1.8175 -0.6446
 2269SOL    HW218441   0.666   0.938   4.296  1.5369  1.2381 -0.1681
 2270SOL     OW18442   3.217   4.413   8.096 -0.3413 -0.0931  0.3465
 2270SOL    HW118443   3.177   4.483   8.044 -2.2141 -0.7294  0.9378
 2270SOL    HW218444   3.231   4.449   8.183 -0.4972 -1.1742  0.8129
 2271SOL     OW18445   2.374   1.296   3.863 -0.1463  0.0602  0.4759
 2271SOL    HW118446   2.414   1.213   3.834 -0.9977 -0.9293  2.1495
 2271SOL    HW218447   2.306   1.305   3.797 -1.6054 -0.7215  1.8721
 2272SOL     OW18448   1.505   4.261  17.450  0.0824 -0.4506 -0.1002
 2272SOL    HW118449   1.581   4.290  17.399 -0.3510  0.1648 -0.3885
 2272SOL    HW218450   1.485   4.179  17.405  0.6431 -1.0237  0.6907
 2273SOL     OW18451   1.529   4.291  17.730  0.3076  0.3741 -0.4131
 2273SOL    HW118452   1.514   4.274  17.637  1.4374  0.3080 -0.5835
 2273SOL    HW218453   1.608   4.242  17.749 -1.0790 -1.7928 -0.2379
 2274SOL     OW18454   4.027   0.071  10.361 -0.1211 -0.1465  0.1125
 2274SOL    HW118455   3.995   0.132  10.427 -3.1367 -1.7300  0.1010
 2274SOL    HW218456   4.110   0.117  10.349 -0.7094  0.6471 -0.9485
 2275SOL     OW18457   3.187   1.665  17.143 -0.1189 -0.3050  0.3436
 2275SOL    HW118458   3.102   1.707  17.133 -0.4777 -0.6954  1.7517
 2275SOL    HW218459   3.251   1.735  17.127  0.5812 -1.0813 -0.2387
 2276SOL     OW18460   2.141   2.421   3.258 -0.1988  0.0322  0.3150
 2276SOL    HW118461   2.232   2.450   3.266  0.4245 -1.7606 -0.2377
 2276SOL    HW218462   2.123   2.444   3.166 -1.7582 -0.0397  0.5967
 2277SOL     OW18463   4.535   2.469   0.347 -0.2820  0.6158 -0.0228
 2277SOL    HW118464   4.603   2.452   0.282  0.2591  0.1490  0.6670
 2277SOL    HW218465   4.555   2.395   0.404 -1.7899  0.3028  0.0970
 2278SOL     OW18466   2.527   1.155   4.610  0.0614 -0.1025  0.1256
 2278SOL    HW118467   2.489   1.216   4.546  0.6420 -0.5779 -0.6730
 2278SOL    HW218468   2.441   1.137   4.648  0.4853 -0.4929  0.8821
 2279SOL     OW18469   3.566   3.560   7.914 -0.2763  0.2831 -0.2311
 2279SOL    HW118470   3.503   3.632   7.917 -0.8707 -0.2637  0.5084
 2279SOL    HW218471   3.592   3.562   7.822 -2.6474  1.2812 -0.8719
 2280SOL     OW18472   3.348   1.871  17.098 -0.0711  0.4664 -0.0279
 2280SOL    HW118473   3.331   1.957  17.059 -0.8084  0.2250 -0.2427
 2280SOL    HW218474   3.369   1.827  17.015 -3.0621 -1.5269  0.2821
 2281SOL     OW18475   4.368   2.121  15.858 -0.5291  0.9499  0.5773
 2281SOL    HW118476   4.278   2.148  15.837 -0.7632  1.8184  2.6576
 2281SOL    HW218477   4.400   2.112  15.769  0.2787 -2.7857  1.2531
 2282SOL     OW18478   4.398   1.933  10.752 -0.2062  0.2417 -0.4387
 2282SOL    HW118479   4.472   1.932  10.692  1.0081  0.3459  1.0498
 2282SOL    HW218480   4.371   1.841  10.745 -1.6218  0.6342 -0.2599
 2283SOL     OW18481   0.202   1.182  17.133  0.1561 -0.0659 -0.1791
 2283SOL    HW118482   0.257   1.241  17.184 -2.5307  3.2821 -1.1580
 2283SOL    HW218483   0.253   1.164  17.054  1.4590 -0.0913  0.6759
 2284SOL     OW18484   4.233   0.620   2.153  0.8307 -0.6369 -0.6568
 2284SOL    HW118485   4.139   0.605   2.145  1.0051 -1.7298 -0.7179
 2284SOL    HW218486   4.240   0.701   2.103  0.7313 -0.3960 -0.2824
 2285SOL     OW18487   3.126   0.226   9.007  0.6017 -0.0373 -0.1028
 2285SOL    HW118488   3.177   0.192   9.081 -0.5634  0.7814  1.0758
 2285SOL    HW218489   3.133   0.319   9.024  0.9170  0.2244 -1.7103
 2286SOL     OW18490   2.330   3.872   3.820  0.5887 -0.1616  0.0090
 2286SOL    HW118491   2.337   3.966   3.835 -2.3405 -0.1884  1.5655
 2286SOL    HW218492   2.337   3.849   3.912 -1.2082  0.0711  0.2057
 2287SOL     OW18493   3.643   4.439   9.386 -0.4906  0.1380 -0.1307
 2287SOL    HW118494   3.678   4.429   9.474 -0.8919 -0.4452 -0.0414
 2287SOL    HW218495   3.568   4.494   9.409  0.3430  0.3903  1.9387
 2288SOL     OW18496   0.970   3.984  12.550 -0.1023  0.4451 -0.0575
 2288SOL    HW118497   0.892   3.943  12.587 -0.7124  2.2541  0.6589
 2288SOL    HW218498   1.028   3.980  12.627  0.9978 -0.2488 -0.9244
 2289SOL     OW18499   2.708   1.877   1.531  0.5500 -0.3856  0.7822
 2289SOL    HW118500   2.728   1.879   1.625 -0.8065 -1.7615  1.1031
 2289SOL    HW218501   2.777   1.932   1.495 -0.1064 -0.0601  0.0394
 2290SOL     OW18502   1.068   2.581   7.124  0.1003  0.3461  0.3741
 2290SOL    HW118503   1.144   2.587   7.181 -0.0116 -2.5083  0.7982
 2290SOL    HW218504   0.998   2.569   7.188 -1.5979 -0.0233 -1.5274
 2291SOL     OW18505   2.718   0.800   3.925 -0.0891 -0.5879  0.1167
 2291SOL    HW118506   2.697   0.893   3.932 -0.3217 -0.7703  1.7276
 2291SOL    HW218507   2.747   0.790   4.015 -1.7163  0.1856  0.7073
 2292SOL     OW18508   1.662   1.994   1.564  0.1348 -0.4272  0.0329
 2292SOL    HW118509   1.641   1.951   1.481 -0.4343  0.1224 -0.1001
 2292SOL    HW218510   1.609   1.940   1.622 -1.4278  0.2253 -0.8068
 2293SOL     OW18511   2.931   4.199   2.396 -0.3730 -0.2596 -0.2511
 2293SOL    HW118512   2.957   4.188   2.488 -1.3978 -1.2235 -0.0873
 2293SOL    HW218513   2.956   4.111   2.369  0.7439 -0.2301  0.6667
 2294SOL     OW18514   0.374   1.582  16.097  0.0472 -0.3721  0.1763
 2294SOL    HW118515   0.292   1.533  16.105 -0.1084 -0.5149 -2.2389
 2294SOL    HW218516   0.366   1.624  16.011 -2.7341 -0.8127  0.2099
 2295SOL     OW18517   0.920   1.887   1.887  0.1367 -0.1585  0.2659
 2295SOL    HW118518   0.907   1.836   1.967  3.3264 -0.1645  0.7519
 2295SOL    HW218519   0.829   1.895   1.855 -0.1712  0.1156  1.2062
 2296SOL     OW18520   0.341   1.691   6.264 -0.8618 -0.8050 -0.1141
 2296SOL    HW118521   0.261   1.674   6.315 -0.5502 -2.3546 -0.1210
 2296SOL    HW218522   0.322   1.633   6.190 -1.2011 -0.6855 -0.1184
 2297SOL     OW18523   1.070   4.241   5.371 -0.4251 -0.0919 -0.0082
 2297SOL    HW118524   1.096   4.235   5.279  1.1037  2.9868  0.2224
 2297SOL    HW218525   0.979   4.271   5.366 -0.9717 -1.9570 -1.0694
 2298SOL     OW18526   1.807   2.764   4.911  0.1552 -0.1186 -0.5301
 2298SOL    HW118527   1.725   2.809   4.935  1.4829  0.5425  2.7769
 2298SOL    HW218528   1.867   2.809   4.970  0.8072  0.9596 -2.0136
 2299SOL     OW18529   0.403   2.368  11.525 -0.3169  0.2467 -0.2368
 2299SOL    HW118530   0.413   2.408  11.439  0.0096  0.6824 -0.0007
 2299SOL    HW218531   0.444   2.434  11.582  1.1608  0.5990 -1.7022
 2300SOL     OW18532   2.753   0.577   4.827  0.3888  0.6014 -0.0637
 2300SOL    HW118533   2.806   0.520   4.882  0.9698  0.6709 -0.5581
 2300SOL    HW218534   2.708   0.520   4.764  0.7265 -1.2732  1.4229
 2301SOL     OW18535   3.626   0.235   9.235  0.0029 -0.2683  0.5593
 2301SOL    HW118536   3.601   0.172   9.302 -1.4234 -0.5112 -0.1945
 2301SOL    HW218537   3.604   0.321   9.269  0.2109  0.3553 -0.8998
 2302SOL     OW18538   2.129   0.387   4.932 -0.1069 -0.0292 -0.4485
 2302SOL    HW118539   2.210   0.433   4.910 -0.2446  0.7956  0.7316
 2302SOL    HW218540   2.164   0.301   4.955  0.6312  0.7472  1.3454
 2303SOL     OW18541   0.781   2.448  14.823  0.2668  0.3010  0.0715
 2303SOL    HW118542   0.876   2.450  14.814  0.2884 -0.5674  0.1085
 2303SOL    HW218543   0.771   2.361  14.862  1.6440  1.0486  2.1392
 2304SOL     OW18544   3.806   2.448   7.585  0.0273 -0.1580  0.0274
 2304SOL    HW118545   3.791   2.359   7.552 -0.5436  0.1178 -0.4637
 2304SOL    HW218546   3.900   2.452   7.568  0.1624 -0.4524  0.6992
 2305SOL     OW18547   2.430   1.536  12.376 -0.5997 -0.6858 -0.2613
 2305SOL    HW118548   2.463   1.534  12.286 -0.0529 -1.6186 -0.0461
 2305SOL    HW218549   2.482   1.611  12.404  1.1303 -1.2980 -1.8517
 2306SOL     OW18550   3.089   3.432  12.476 -0.1472  0.0441  0.1035
 2306SOL    HW118551   3.157   3.452  12.412 -1.2155 -0.4625 -1.1879
 2306SOL    HW218552   3.127   3.362  12.529  1.9129  2.1755  1.4246
 2307SOL     OW18553   2.131   2.198   2.578 -0.2949  0.2407  0.1228
 2307SOL    HW118554   2.091   2.130   2.523  0.7215 -0.4345  0.2217
 2307SOL    HW218555   2.146   2.149   2.659  1.7681 -0.6131 -0.7916
 2308SOL     OW18556   2.681   2.158  10.898 -0.1973  0.1205  0.7772
 2308SOL    HW118557   2.634   2.076  10.884 -0.8169  0.8422 -1.4251
 2308SOL    HW218558   2.768   2.151  10.859 -0.9499 -0.0841 -0.8607
 2309SOL     OW18559   3.031   4.739   7.584 -0.5645  0.3715 -0.6106
 2309SOL    HW118560   3.045   0.089   7.568 -0.5225  0.4196 -0.2928
 2309SOL    HW218561   2.967   4.742   7.655  1.0076 -0.4031  0.8254
 2310SOL     OW18562   2.441   3.184   3.437  0.4209 -0.2924 -0.6914
 2310SOL    HW118563   2.496   3.137   3.499  0.1617  0.8644  0.4142
 2310SOL    HW218564   2.355   3.143   3.451  0.8513 -1.4336 -1.4219
 2311SOL     OW18565   3.616   1.118   4.947  0.4033 -0.3187  0.0167
 2311SOL    HW118566   3.579   1.206   4.940  0.2137 -0.1707  2.7987
 2311SOL    HW218567   3.610   1.082   4.859 -2.7790 -1.2913  0.6264
 2312SOL     OW18568   1.981   2.499  15.434  0.3223  0.5028  0.2437
 2312SOL    HW118569   1.977   2.552  15.513  2.3552 -2.6975  2.4750
 2312SOL    HW218570   1.988   2.571  15.371  0.5295 -0.0160 -0.3241
 2313SOL     OW18571   1.156   0.405   7.798 -0.0666  0.0951  0.6518
 2313SOL    HW118572   1.228   0.412   7.861  0.9484  3.3280 -0.8575
 2313SOL    HW218573   1.100   0.339   7.839 -1.7125 -0.0202 -1.7800
 2314SOL     OW18574   1.778   3.044   0.554  0.3661 -0.5741  0.1514
 2314SOL    HW118575   1.726   2.965   0.571  1.0872 -0.9289  0.7024
 2314SOL    HW218576   1.842   3.043   0.625  1.1797 -0.6602 -0.5864
 2315SOL     OW18577   3.559   3.926   8.173  1.1044 -0.1646 -0.2070
 2315SOL    HW118578   3.646   3.964   8.185  1.9620 -2.7101  1.5585
 2315SOL    HW218579   3.554   3.884   8.259  3.9300  1.0457  0.5681
 2316SOL     OW18580   1.812   0.106   8.901 -0.0568  0.1226  0.1464
 2316SOL    HW118581   1.770   0.086   8.985  1.1054  0.4566  0.8065
 2316SOL    HW218582   1.844   0.020   8.871  0.4501  0.3329  0.0806
 2317SOL     OW18583   4.141   0.051   4.636  0.2821 -0.0085  0.2348
 2317SOL    HW118584   4.095   0.098   4.706  1.5136  0.5724  0.6508
 2317SOL    HW218585   4.135   4.704   4.667  0.2481 -0.0703  0.0456
 2318SOL     OW18586   2.684   3.921   2.311  0.4403  0.6513  0.1427
 2318SOL    HW118587   2.633   3.903   2.390  3.6321  3.4932  2.8298
 2318SOL    HW218588   2.632   3.990   2.271  3.0663  0.8240 -2.8994
 2319SOL     OW18589   3.306   0.811  11.281  0.1454  0.4543 -0.1302
 2319SOL    HW118590   3.218   0.779  11.262  0.0359  0.5279  0.2461
 2319SOL    HW218591   3.293   0.892  11.233 -0.7620  0.6356  0.4197
 2320SOL     OW18592   2.996   3.011   7.260 -0.1672 -0.8481 -0.3401
 2320SOL    HW118593   2.975   3.012   7.167 -0.1166  0.0846 -0.3456
 2320SOL    HW218594   3.062   3.080   7.267  0.8430 -1.6992 -1.5960
 2321SOL     OW18595   2.353   1.958  11.898 -0.4273 -0.1281  0.4427
 2321SOL    HW118596   2.432   1.972  11.846 -3.0101  3.3417 -2.4972
 2321SOL    HW218597   2.325   1.880  11.849  0.3657 -0.3086  0.2752
 2322SOL     OW18598   1.310   3.271   2.594 -0.3584  0.1637 -0.1892
 2322SOL    HW118599   1.286   3.179   2.580 -1.9020  0.3941  0.9620
 2322SOL    HW218600   1.391   3.270   2.543 -0.6747  1.0491 -0.7167
 2323SOL     OW18601   3.960   3.246  11.307 -0.0094 -0.3055 -0.1607
 2323SOL    HW118602   4.018   3.314  11.341 -1.2950  0.5240  0.3506
 2323SOL    HW218603   4.020   3.193  11.254  1.1158  1.8583 -1.0757
 2324SOL     OW18604   1.245   0.118   5.622 -0.5674 -0.2102 -0.5057
 2324SOL    HW118605   1.192   0.185   5.580 -1.1450  0.9043  1.9937
 2324SOL    HW218606   1.294   0.083   5.548 -0.6414 -2.2057  0.3813
 2325SOL     OW18607   2.552   0.278   7.574 -0.2538  0.9987  1.2351
 2325SOL    HW118608   2.471   0.300   7.528  0.0846  0.4499  0.3686
 2325SOL    HW218609   2.613   0.280   7.499 -0.9096 -1.6645  0.6506
 2326SOL     OW18610   1.034   3.318   2.627  0.0007  0.0062  0.0717
 2326SOL    HW118611   1.042   3.242   2.686  0.9512  2.1104  2.6522
 2326SOL    HW218612   1.124   3.333   2.598 -0.3059  2.4183  0.3522
 2327SOL     OW18613   1.581   3.350   4.967 -0.3648  0.0265 -0.7791
 2327SOL    HW118614   1.605   3.258   4.958 -1.5308 -0.4671  1.0468
 2327SOL    HW218615   1.537   3.359   5.052  0.3356  0.5317 -0.4675
 2328SOL     OW18616   2.874   3.266   0.572 -0.2432 -0.0059 -0.2573
 2328SOL    HW118617   2.930   3.303   0.504  0.6754 -0.8149  0.0605
 2328SOL    HW218618   2.940   3.228   0.629 -1.0962  0.1097  0.8070
 2329SOL     OW18619   0.555   0.734   7.190 -0.7661  0.6354 -0.5962
 2329SOL    HW118620   0.602   0.735   7.274  1.3577  1.1300 -1.7923
 2329SOL    HW218621   0.526   0.824   7.182 -1.5360  0.4472  0.0414
 2330SOL     OW18622   3.116   3.439   7.516 -0.4192 -0.0592  0.2925
 2330SOL    HW118623   3.049   3.382   7.554 -0.4648 -0.4260 -0.3241
 2330SOL    HW218624   3.065   3.513   7.484  0.4481  1.6099  2.7825
 2331SOL     OW18625   1.120   4.223   7.026 -0.1608  0.4809 -0.0172
 2331SOL    HW118626   1.121   4.138   7.071  1.2974 -1.3507 -3.5436
 2331SOL    HW218627   1.029   4.252   7.037  0.1301  1.4684 -0.3149
 2332SOL     OW18628   2.263   3.983   9.546 -0.0274 -0.2842  0.2717
 2332SOL    HW118629   2.220   4.038   9.611  1.5445 -0.1012  1.1564
 2332SOL    HW218630   2.257   3.904   9.601  1.4319  1.1356  2.4450
 2333SOL     OW18631   2.505   3.281  15.340  0.0296  0.1757  0.6406
 2333SOL    HW118632   2.533   3.370  15.318 -3.3337  1.4568  1.6523
 2333SOL    HW218633   2.546   3.277  15.426  1.8674  0.0964 -0.2331
 2334SOL     OW18634   1.836   2.542  11.359 -0.1854 -0.1376 -0.2641
 2334SOL    HW118635   1.836   2.629  11.397  2.5129 -0.1850 -0.1672
 2334SOL    HW218636   1.892   2.496  11.421  0.5249  2.2840  0.8656
 2335SOL     OW18637   0.968   3.104   7.859 -0.0422  0.8582  0.9921
 2335SOL    HW118638   0.951   3.098   7.953 -3.1948  1.4271  0.4588
 2335SOL    HW218639   1.061   3.123   7.859  0.2890 -0.7400  0.8687
 2336SOL     OW18640   1.686   3.176   8.811  0.8561  1.0553  0.4213
 2336SOL    HW118641   1.681   3.272   8.816 -1.9584  0.9812 -0.8743
 2336SOL    HW218642   1.702   3.175   8.716  0.4562 -3.2460  0.4068
 2337SOL     OW18643   3.885   1.638  10.862 -0.2306  0.4878 -0.1368
 2337SOL    HW118644   3.883   1.566  10.799  1.9190 -0.9970  1.5191
 2337SOL    HW218645   3.974   1.621  10.892  0.2508  2.8628 -0.2308
 2338SOL     OW18646   2.714   0.110   9.972  0.2218 -0.1829 -0.2599
 2338SOL    HW118647   2.679   0.110   9.883 -0.5426  1.0510  0.0334
 2338SOL    HW218648   2.691   0.027  10.012  1.3954 -0.3701  0.0167
 2339SOL     OW18649   1.170   4.543   4.788 -0.2133 -0.2492 -0.0908
 2339SOL    HW118650   1.106   4.522   4.856 -0.4419 -0.9857 -0.5417
 2339SOL    HW218651   1.169   4.456   4.749  0.7524 -1.1795  1.9516
 2340SOL     OW18652   2.645   1.776   7.106 -0.1596 -0.5965  0.3500
 2340SOL    HW118653   2.607   1.845   7.159 -0.3573 -0.4623  0.0352
 2340SOL    HW218654   2.567   1.746   7.059  1.4885 -1.6437 -1.7388
 2341SOL     OW18655   2.817   0.611   3.603  0.3472  0.7115  0.3223
 2341SOL    HW118656   2.812   0.515   3.597 -1.0828  0.6452  2.3247
 2341SOL    HW218657   2.754   0.641   3.537  1.2344 -1.1916 -1.3721
 2342SOL     OW18658   3.218   1.242  17.174  0.9056  0.4774 -0.0397
 2342SOL    HW118659   3.311   1.220  17.182  0.6891 -0.1675  0.6867
 2342SOL    HW218660   3.219   1.332  17.206 -0.2592  0.5790 -0.2870
 2343SOL     OW18661   2.894   2.539  15.931  0.1066  0.7587  0.1570
 2343SOL    HW118662   2.989   2.527  15.932 -0.0509 -0.3973  2.8361
 2343SOL    HW218663   2.861   2.472  15.872  0.8979  0.3839  0.1397
 2344SOL     OW18664   1.877   1.583   6.238 -0.1295  0.3675  0.1889
 2344SOL    HW118665   1.948   1.536   6.282  0.9699  2.6837  0.9187
 2344SOL    HW218666   1.883   1.554   6.147  0.8639  1.7095 -0.1754
 2345SOL     OW18667   3.666   3.343   1.591  0.0838  0.4221  0.3752
 2345SOL    HW118668   3.728   3.410   1.622 -0.3043  0.3098  1.3920
 2345SOL    HW218669   3.613   3.394   1.529 -0.3035  0.3191  0.6175
 2346SOL     OW18670   3.320   2.795  10.826  0.3671 -0.0354  0.6097
 2346SOL    HW118671   3.309   2.832  10.914 -0.6377  0.5555  0.2321
 2346SOL    HW218672   3.366   2.860  10.774  1.0188 -0.9873  0.0132
 2347SOL     OW18673   3.188   0.899   7.690  0.1295 -0.2416  0.0668
 2347SOL    HW118674   3.233   0.904   7.605  1.5214 -1.7090  0.7172
 2347SOL    HW218675   3.192   0.991   7.713 -2.2939 -0.7811  2.6408
 2348SOL     OW18676   4.650   0.693  10.824 -0.2407 -0.4796  0.3668
 2348SOL    HW118677   4.626   0.651  10.906  0.1896 -0.1310  0.6706
 2348SOL    HW218678   0.000   0.675  10.825 -0.2095 -0.3207  0.3132
 2349SOL     OW18679   0.064   2.832   4.379 -0.2638  0.0584 -0.1100
 2349SOL    HW118680   0.149   2.875   4.368  0.8254 -2.0847 -0.0044
 2349SOL    HW218681   0.005   2.851   4.306  2.1674  1.4788 -1.7350
 2350SOL     OW18682   2.054   4.084   6.332  0.7526 -0.4082 -0.7104
 2350SOL    HW118683   2.014   4.019   6.389 -1.4510  1.5332 -0.0289
 2350SOL    HW218684   2.113   4.026   6.285 -1.0583 -2.6574 -0.2040
 2351SOL     OW18685   1.106   0.285   6.674 -0.3617 -0.4196  1.0841
 2351SOL    HW118686   1.170   0.225   6.634 -0.6222  0.5843 -0.8714
 2351SOL    HW218687   1.029   0.228   6.675 -1.8102  1.5212  1.0667
 2352SOL     OW18688   3.841   2.694   2.854  0.2508  1.0268  0.5984
 2352SOL    HW118689   3.783   2.665   2.784  0.8720 -0.8323  0.8470
 2352SOL    HW218690   3.919   2.724   2.807 -0.2839 -0.0890 -0.9955
 2353SOL     OW18691   1.374   1.792  14.949 -0.5851  0.2915  0.3893
 2353SOL    HW118692   1.360   1.850  14.874 -2.5073 -1.8013 -0.8496
 2353SOL    HW218693   1.468   1.808  14.959 -0.4242 -0.6300  0.3122
 2354SOL     OW18694   3.109   0.940   0.285 -0.9542  0.1017 -0.0598
 2354SOL    HW118695   3.019   0.954   0.256 -1.3733 -2.0550  0.2428
 2354SOL    HW218696   3.147   0.977   0.205  1.5808 -0.1417  1.0527
 2355SOL     OW18697   3.555   1.862   4.623  0.1639 -0.1626  0.1995
 2355SOL    HW118698   3.623   1.799   4.596  2.7169  2.2273  1.0393
 2355SOL    HW218699   3.476   1.807   4.619 -0.1560  0.1296  2.3520
 2356SOL     OW18700   0.381   1.519   8.567  0.4921 -0.1564  0.2361
 2356SOL    HW118701   0.452   1.508   8.630  1.3802  1.9710 -0.4319
 2356SOL    HW218702   0.325   1.582   8.612  0.1906 -0.9761  1.0246
 2357SOL     OW18703   1.262   1.166  17.392 -0.4609  0.1700  0.1266
 2357SOL    HW118704   1.187   1.216  17.425 -1.1607 -0.9356  0.2494
 2357SOL    HW218705   1.223   1.126  17.314 -2.3529  1.9963  0.1450
 2358SOL     OW18706   3.732   4.306   3.145 -0.3220  0.2464 -0.6264
 2358SOL    HW118707   3.789   4.382   3.159 -1.0574  1.0452 -1.9722
 2358SOL    HW218708   3.783   4.259   3.079 -0.2860  0.8412 -1.0216
 2359SOL     OW18709   3.702   4.633   8.241  0.0315  0.1437  0.6697
 2359SOL    HW118710   3.701   4.671   8.153  2.1792  1.8228  1.3567
 2359SOL    HW218711   3.701   4.541   8.215  1.1628  0.5473 -0.7893
 2360SOL     OW18712   2.810   0.349   6.921  0.2829  0.4967 -0.2310
 2360SOL    HW118713   2.835   0.290   6.993 -2.4826  0.2440  0.5434
 2360SOL    HW218714   2.844   0.431   6.957 -0.8302  1.0561 -0.4547
 2361SOL     OW18715   1.345   0.610   3.139  0.1360  0.2833  0.4475
 2361SOL    HW118716   1.404   0.575   3.072 -0.1558  1.1023 -0.2378
 2361SOL    HW218717   1.269   0.552   3.131 -0.7648  1.4232  0.6903
 2362SOL     OW18718   3.912   0.842   3.185  0.1010  0.3507 -0.2550
 2362SOL    HW118719   3.897   0.828   3.279 -0.1940 -0.7335 -0.4579
 2362SOL    HW218720   4.003   0.871   3.196  0.5448 -1.4319  0.7703
 2363SOL     OW18721   0.166   2.702   1.113  0.1676 -0.4776  0.0628
 2363SOL    HW118722   0.203   2.766   1.053 -1.1129  1.3834  1.2551
 2363SOL    HW218723   0.190   2.617   1.076 -0.0107  0.5803 -2.4599
 2364SOL     OW18724   3.819   2.150   9.683  0.5588 -0.3883 -0.3374
 2364SOL    HW118725   3.778   2.235   9.665  2.0592  0.4660  0.2617
 2364SOL    HW218726   3.912   2.174   9.679  1.3308 -3.0800  1.7963
 2365SOL     OW18727   1.184   1.124   7.782 -0.2218 -0.5048  0.0457
 2365SOL    HW118728   1.111   1.167   7.737 -0.4914 -1.6656 -0.6139
 2365SOL    HW218729   1.204   1.183   7.855  1.3497  0.5007 -1.1981
 2366SOL     OW18730   0.436   3.636   7.970  0.5657 -0.2114 -0.0515
 2366SOL    HW118731   0.427   3.587   7.888 -1.5383 -0.5449  0.3852
 2366SOL    HW218732   0.531   3.648   7.968  0.8775 -2.6795 -0.1128
 2367SOL     OW18733   3.576   1.279   6.523 -0.1410 -0.3594 -0.0845
 2367SOL    HW118734   3.597   1.344   6.590  0.0763 -1.1426  0.6101
 2367SOL    HW218735   3.514   1.321   6.464 -1.6761 -2.9975 -0.3553
 2368SOL     OW18736   0.775   4.480   7.677  0.5337 -0.2523  0.2507
 2368SOL    HW118737   0.715   4.547   7.643  1.2835  1.3848  2.1621
 2368SOL    HW218738   0.860   4.524   7.677  0.8883 -0.9197 -1.6576
 2369SOL     OW18739   0.245   0.495   8.167 -0.1893  0.3710 -0.0199
 2369SOL    HW118740   0.337   0.498   8.140  0.5204 -2.2009  2.1197
 2369SOL    HW218741   0.255   0.451   8.252  0.1883  0.3495 -0.0740
 2370SOL     OW18742   1.445   2.501   1.353 -0.1416 -0.1683  0.3064
 2370SOL    HW118743   1.486   2.489   1.267  1.2456  2.4953  0.6086
 2370SOL    HW218744   1.457   2.596   1.357  1.2919 -0.3456  0.4171
 2371SOL     OW18745   0.994   0.172  14.393 -0.0891  0.1599  0.0806
 2371SOL    HW118746   0.963   0.262  14.378 -1.6956 -0.2304  0.9646
 2371SOL    HW218747   0.909   0.132  14.414  1.0040 -0.7817  2.6896
 2372SOL     OW18748   1.336   0.032   5.928 -0.0356 -0.2863  0.8182
 2372SOL    HW118749   1.264   4.716   5.909  0.2417 -0.4202  0.1826
 2372SOL    HW218750   1.394   4.720   5.980  1.3981 -1.2067 -1.7496
 2373SOL     OW18751   1.425   4.486   4.450 -0.2793 -0.1921  0.4456
 2373SOL    HW118752   1.514   4.471   4.418 -0.7705  0.7915 -1.4071
 2373SOL    HW218753   1.377   4.412   4.411  4.9281 -3.9684  1.1441
 2374SOL     OW18754   1.640   3.767   2.602 -0.1261  0.2738 -0.1964
 2374SOL    HW118755   1.640   3.706   2.676 -1.7020 -0.1886 -0.5837
 2374SOL    HW218756   1.593   3.710   2.542 -1.7153  0.0934  1.2070
 2375SOL     OW18757   2.581   4.214   5.647 -1.0839 -0.3666 -0.0472
 2375SOL    HW118758   2.615   4.172   5.727  0.7701 -1.0033 -1.1733
 2375SOL    HW218759   2.662   4.232   5.599 -2.3748 -1.8885 -2.7750
 2376SOL     OW18760   0.260   0.533   5.974 -0.1564  0.2860 -0.2439
 2376SOL    HW118761   0.304   0.612   6.005 -0.9327  0.8028 -0.4528
 2376SOL    HW218762   0.334   0.500   5.923 -1.6827 -1.4996 -1.3315
 2377SOL     OW18763   2.636   1.951   7.601  0.2952 -0.7266  0.0088
 2377SOL    HW118764   2.719   1.926   7.562  0.5659  0.2085 -0.0257
 2377SOL    HW218765   2.654   1.924   7.691  2.1677 -0.6628 -0.3483
 2378SOL     OW18766   0.181   2.387   1.436 -0.0308 -0.0227  0.6494
 2378SOL    HW118767   0.199   2.297   1.462 -3.7728 -0.8671  0.3304
 2378SOL    HW218768   0.241   2.401   1.363  0.3593  0.5855  1.0847
 2379SOL     OW18769   1.438   3.159   3.563  0.0496 -0.0173  0.0517
 2379SOL    HW118770   1.526   3.157   3.602 -0.0373  2.0200  0.3255
 2379SOL    HW218771   1.400   3.191   3.645 -1.7090 -1.1929 -0.3056
 2380SOL     OW18772   3.689   0.666   6.172 -0.1560 -0.0986 -0.2230
 2380SOL    HW118773   3.744   0.667   6.250  1.0385 -0.6751 -1.0389
 2380SOL    HW218774   3.680   0.571   6.170  1.2931 -0.2447 -0.0481
 2381SOL     OW18775   3.451   3.812   6.719  0.2963 -0.1061  0.3119
 2381SOL    HW118776   3.529   3.830   6.771 -0.4190  0.7422  1.0831
 2381SOL    HW218777   3.454   3.718   6.702 -0.8872  0.1954 -1.5023
 2382SOL     OW18778   0.183   3.122   4.977  0.6762  0.1846 -0.5177
 2382SOL    HW118779   0.206   3.187   4.911  0.6154  1.9369  1.1839
 2382SOL    HW218780   0.145   3.061   4.913  0.6900 -1.2043  0.8061
 2383SOL     OW18781   0.470   3.337   0.297  0.0447 -0.5274  0.3992
 2383SOL    HW118782   0.500   3.263   0.243  2.0918  0.4733  0.1738
 2383SOL    HW218783   0.416   3.302   0.368  0.0722 -0.8081  0.2828
 2384SOL     OW18784   2.057   1.967   0.566 -0.4651 -0.0176  1.0109
 2384SOL    HW118785   1.983   2.021   0.539  0.0718 -1.7720 -3.8480
 2384SOL    HW218786   2.042   1.875   0.544 -1.9142  0.5338 -0.3085
 2385SOL     OW18787   0.582   1.190   6.278  0.1841  0.3785 -0.4837
 2385SOL    HW118788   0.592   1.229   6.364  2.2861  0.1207 -0.6011
 2385SOL    HW218789   0.522   1.117   6.294 -0.8009  1.2115 -0.4126
 2386SOL     OW18790   3.719   4.439   6.223  0.3529  0.3317  0.2221
 2386SOL    HW118791   3.673   4.503   6.170  0.3910 -1.3976 -1.9344
 2386SOL    HW218792   3.671   4.437   6.306  0.0068 -1.5966 -0.0176
 2387SOL     OW18793   2.999   2.270   8.049 -0.6467  0.2469 -0.1372
 2387SOL    HW118794   2.956   2.248   7.967  1.1259  1.0791 -1.2856
 2387SOL    HW218795   3.058   2.343   8.032  1.8809 -1.2756  2.0601
 2388SOL     OW18796   4.294   4.621   8.684 -0.2401  0.4442  0.2020
 2388SOL    HW118797   4.369   4.608   8.742 -0.9036  0.2023  1.0027
 2388SOL    HW218798   4.222   4.601   8.744  1.2577  0.7081  2.1031
 2389SOL     OW18799   4.489   2.247   2.240  0.5134 -0.7880 -0.4902
 2389SOL    HW118800   4.415   2.241   2.180  0.3051 -0.2028 -0.2888
 2389SOL    HW218801   4.522   2.157   2.234 -0.7270 -1.3010  0.5436
 2390SOL     OW18802   3.894   0.278   6.747 -0.1795  0.6445 -0.2135
 2390SOL    HW118803   3.972   0.260   6.800  0.2811  0.6535 -0.8808
 2390SOL    HW218804   3.848   0.348   6.793 -0.6021 -0.7053  1.4309
 2391SOL     OW18805   3.349   2.868  14.337  0.1064 -0.3835  0.2416
 2391SOL    HW118806   3.411   2.941  14.335  0.8737 -1.0445 -0.1552
 2391SOL    HW218807   3.393   2.806  14.279  0.7412  1.7257 -1.5522
 2392SOL     OW18808   4.596   1.160  15.652 -0.0896 -0.7294 -0.7686
 2392SOL    HW118809   4.649   1.238  15.643 -0.5318 -0.2023  1.1171
 2392SOL    HW218810   4.558   1.175  15.739  0.3815  0.0971 -0.7130
 2393SOL     OW18811   2.475   4.672   4.438 -0.2513 -0.6162 -0.4843
 2393SOL    HW118812   2.558   4.626   4.451 -0.9355 -2.0804 -1.2446
 2393SOL    HW218813   2.417   4.599   4.413  0.0327 -0.9454 -0.1740
 2394SOL     OW18814   2.445   0.165   9.197 -0.0724  0.7583 -0.0308
 2394SOL    HW118815   2.520   0.126   9.152 -0.4922  0.4373 -0.4596
 2394SOL    HW218816   2.458   0.147   9.290 -1.0168  2.5822  0.4434
 2395SOL     OW18817   1.447   2.419   1.634  0.1849  0.0365  0.0942
 2395SOL    HW118818   1.459   2.455   1.546 -0.2667  0.8837  0.3802
 2395SOL    HW218819   1.522   2.362   1.652 -1.5952 -2.2123  0.4034
 2396SOL     OW18820   0.626   1.549   4.076 -0.3597 -0.2230 -0.2992
 2396SOL    HW118821   0.658   1.638   4.091  0.8032 -0.3870 -1.8387
 2396SOL    HW218822   0.535   1.574   4.061 -1.6949 -4.3437  0.7194
 2397SOL     OW18823   3.673   1.272  12.196 -0.5693  0.1092 -0.1998
 2397SOL    HW118824   3.679   1.367  12.199  1.4699  0.0194 -1.3548
 2397SOL    HW218825   3.763   1.255  12.167 -0.3055 -2.1685  1.9046
 2398SOL     OW18826   1.419   2.245   1.895 -0.2510  0.8104  0.3726
 2398SOL    HW118827   1.457   2.310   1.954  2.2208  0.2256 -0.6054
 2398SOL    HW218828   1.349   2.213   1.952  0.7151 -0.7733  0.6555
 2399SOL     OW18829   1.031   2.289   6.570 -0.2548 -0.4034  0.0199
 2399SOL    HW118830   1.033   2.254   6.481 -1.2488 -1.7231  0.5191
 2399SOL    HW218831   1.015   2.380   6.548 -0.9566 -0.5153  0.0598
 2400SOL     OW18832   1.715   4.420  17.339  0.0586  0.0660  0.2142
 2400SOL    HW118833   1.788   4.444  17.396  0.9541 -1.8066 -0.1419
 2400SOL    HW218834   1.743   4.469  17.262  1.4780  3.3344  2.8281
 2401SOL     OW18835   4.344   3.309  16.407 -0.0303  0.2873  0.2446
 2401SOL    HW118836   4.359   3.306  16.313  0.1960 -0.9801  0.3126
 2401SOL    HW218837   4.250   3.298  16.417 -0.0227 -1.7370 -1.9183
 2402SOL     OW18838   3.499   0.534  17.740  0.5448  0.2681 -0.3383
 2402SOL    HW118839   3.505   0.440  17.756  0.7369  0.2490 -0.5201
 2402SOL    HW218840   3.406   0.556  17.731  0.0683 -1.2306  0.9329
 2403SOL     OW18841   4.384   1.267   1.955  0.2015 -0.1278  0.2915
 2403SOL    HW118842   4.372   1.349   1.907 -1.0802 -0.2707  0.3567
 2403SOL    HW218843   4.299   1.223   1.950 -0.5618  1.0833  2.4524
 2404SOL     OW18844   0.018   0.835   6.220  0.4895  0.5433  0.2949
 2404SOL    HW118845   0.083   0.770   6.245 -0.0370 -0.4841 -1.0040
 2404SOL    HW218846   4.710   0.788   6.154 -3.0814  1.4711  2.4466
 2405SOL     OW18847   2.403   1.732  11.750 -0.8177 -0.6577  0.1979
 2405SOL    HW118848   2.427   1.723  11.658 -0.0161  0.1903  0.3211
 2405SOL    HW218849   2.490   1.743  11.789 -0.3095 -0.0309 -1.1401
 2406SOL     OW18850   2.352   1.763  11.439 -0.1721  0.0404  0.0657
 2406SOL    HW118851   2.394   1.815  11.370 -0.5976  0.7686  0.3506
 2406SOL    HW218852   2.273   1.735  11.393 -0.1232  1.7721 -1.0762
 2407SOL     OW18853   4.275   3.982   4.845 -0.5602  0.0360  0.0690
 2407SOL    HW118854   4.198   3.961   4.792 -1.4131 -1.6454  1.9610
 2407SOL    HW218855   4.341   3.988   4.776 -0.3605  0.7169  0.3195
 2408SOL     OW18856   1.583   2.760   7.082  0.3984  0.2188  0.4421
 2408SOL    HW118857   1.510   2.713   7.123  0.9323 -2.4121 -1.6366
 2408SOL    HW218858   1.620   2.823   7.144 -2.6363  1.4030  1.0760
 2409SOL     OW18859   0.548   3.554   8.527 -0.0258 -0.3329  0.5883
 2409SOL    HW118860   0.574   3.619   8.461 -1.1842  2.4053  2.8325
 2409SOL    HW218861   0.557   3.607   8.606 -0.7475 -0.1113  0.5153
 2410SOL     OW18862   1.916   4.591  11.894  0.4486  0.4688  0.1129
 2410SOL    HW118863   1.859   4.656  11.854  0.1084 -0.7094 -1.3059
 2410SOL    HW218864   1.877   4.583  11.981 -0.6431  1.8504 -0.2559
 2411SOL     OW18865   2.942   2.161  14.151 -0.6507 -0.3980 -0.2523
 2411SOL    HW118866   2.952   2.084  14.095  1.0028 -1.0202  0.8723
 2411SOL    HW218867   3.025   2.208  14.143 -1.0872  0.3379 -0.4430
 2412SOL     OW18868   1.498   1.482  10.360 -0.3812 -0.2337  0.1866
 2412SOL    HW118869   1.482   1.440  10.276 -1.8502  0.9529 -0.1419
 2412SOL    HW218870   1.440   1.559  10.356  1.7944  1.4480  0.7297
 2413SOL     OW18871   3.006   2.990  14.437 -0.3413  0.3065 -0.3287
 2413SOL    HW118872   2.986   3.073  14.394 -0.2679  0.3968 -0.1900
 2413SOL    HW218873   3.016   3.008  14.531  0.1080  1.6841 -0.6461
 2414SOL     OW18874   1.804   0.647   0.065 -0.8627  0.2457 -0.1781
 2414SOL    HW118875   1.881   0.697   0.091 -1.1980  0.9782 -0.6095
 2414SOL    HW218876   1.817   0.646  17.741 -0.8680  2.0462 -0.1946
 2415SOL     OW18877   3.835   2.952   0.597  0.1172  0.2691 -0.3808
 2415SOL    HW118878   3.915   2.915   0.560  1.3260  0.0077  2.4594
 2415SOL    HW218879   3.794   2.987   0.518 -1.3732 -2.6651 -0.9113
 2416SOL     OW18880   0.739   2.724  11.599  0.4489 -0.2049 -0.2050
 2416SOL    HW118881   0.692   2.679  11.529  1.9008 -0.4904 -0.9895
 2416SOL    HW218882   0.752   2.656  11.666 -1.0977 -2.0550 -1.7905
 2417SOL     OW18883   1.616   4.531  12.446  0.0899 -0.1794 -0.3618
 2417SOL    HW118884   1.634   4.486  12.529  0.0180  1.1701  0.3790
 2417SOL    HW218885   1.586   4.615  12.479  4.2850  0.7893  1.0220
 2418SOL     OW18886   2.198   1.658   9.460  0.0997  0.1094  0.6268
 2418SOL    HW118887   2.174   1.577   9.417  2.4132  0.3121 -0.9897
 2418SOL    HW218888   2.148   1.651   9.542 -0.3919  2.5270  0.5442
 2419SOL     OW18889   4.728   0.717  10.500 -0.3243 -0.6438  0.3375
 2419SOL    HW118890   4.677   0.697  10.422  1.1423 -0.3931 -0.6930
 2419SOL    HW218891   0.028   0.635  10.522  0.2295 -0.5560 -0.4400
 2420SOL     OW18892   0.220   0.521  12.529  0.6239  0.3626  0.5484
 2420SOL    HW118893   0.304   0.536  12.485  0.9055 -0.9881  0.6087
 2420SOL    HW218894   0.212   0.599  12.583 -1.8454  0.6552 -0.2499
 2421SOL     OW18895   2.993   2.390   0.805 -0.6624 -0.3178 -0.1474
 2421SOL    HW118896   2.943   2.470   0.789 -1.4929 -0.4911  1.6402
 2421SOL    HW218897   2.924   2.329   0.778  0.3133 -1.0914 -0.8915
 2422SOL     OW18898   3.226   2.305   3.746  0.0321 -0.5554 -0.4922
 2422SOL    HW118899   3.319   2.282   3.745  0.1342 -0.1492  1.9207
 2422SOL    HW218900   3.220   2.372   3.814  0.4930  1.0871 -2.0597
 2423SOL     OW18901   1.658   4.658   7.613  0.0704 -0.3764 -0.2594
 2423SOL    HW118902   1.659   4.610   7.531 -1.3637  1.2951 -1.2578
 2423SOL    HW218903   1.748   4.637   7.637  0.2277  2.4354  1.6539
 2424SOL     OW18904   2.495   0.143   9.455  0.1806 -0.2047  0.2774
 2424SOL    HW118905   2.496   0.048   9.464 -0.2076 -0.2593 -0.3055
 2424SOL    HW218906   2.543   0.177   9.531  0.7038  3.4178 -1.6653
 2425SOL     OW18907   0.749   4.510  10.843  0.4641 -0.0146 -0.2082
 2425SOL    HW118908   0.763   4.500  10.937 -0.9830  0.2247  0.0405
 2425SOL    HW218909   0.834   4.489  10.804  0.8613 -2.6301  2.1219
 2426SOL     OW18910   1.477   2.221  16.211 -0.2007 -0.1830  0.3797
 2426SOL    HW118911   1.513   2.224  16.299  1.1204 -0.9069 -0.1406
 2426SOL    HW218912   1.466   2.316  16.199 -1.6797 -0.6017 -1.5558
 2427SOL     OW18913   1.869   3.252   7.630 -0.2442 -0.8072  0.4029
 2427SOL    HW118914   1.902   3.339   7.610 -0.5139 -0.7374  0.2653
 2427SOL    HW218915   1.895   3.204   7.551 -0.9651  0.8197 -0.8106
 2428SOL     OW18916   3.313   2.817  12.279  0.1220 -0.0337 -0.7107
 2428SOL    HW118917   3.360   2.885  12.230  1.5621  1.1857  2.4069
 2428SOL    HW218918   3.270   2.773  12.205  0.1946 -0.0940 -0.7176
 2429SOL     OW18919   1.991   1.195   3.476 -0.1382  0.1393  0.4763
 2429SOL    HW118920   2.060   1.232   3.530  2.1945  0.9934 -3.0797
 2429SOL    HW218921   1.910   1.227   3.515 -0.2720  0.4216 -0.0288
 2430SOL     OW18922   1.572   2.693   5.491 -0.2957 -0.0493 -0.2777
 2430SOL    HW118923   1.571   2.608   5.448 -1.5212 -0.0319 -0.2719
 2430SOL    HW218924   1.633   2.669   5.560 -2.1170 -1.9470  0.6472
 2431SOL     OW18925   1.204   1.318   8.025 -0.0642 -0.5121 -0.4241
 2431SOL    HW118926   1.219   1.272   8.108  2.2123  0.8968 -0.0514
 2431SOL    HW218927   1.108   1.322   8.029 -0.0303  1.6687 -1.6512
 2432SOL     OW18928   4.551   0.328  12.673  0.5808  0.6848 -0.4358
 2432SOL    HW118929   4.527   0.248  12.720  4.0075  0.9341  1.7318
 2432SOL    HW218930   4.475   0.338  12.616 -0.4005  1.6212  1.0484
 2433SOL     OW18931   4.072   3.417   2.674  0.4326  0.5737  0.1540
 2433SOL    HW118932   4.070   3.339   2.729 -0.3676 -0.0454 -0.7524
 2433SOL    HW218933   4.164   3.420   2.646  0.1900 -2.1962 -0.9193
 2434SOL     OW18934   1.663   3.103   3.681 -0.2162  0.4445 -0.3589
 2434SOL    HW118935   1.743   3.124   3.633  2.0040 -4.5234  1.0864
 2434SOL    HW218936   1.694   3.052   3.756  0.3982 -0.2953 -1.1197
 2435SOL     OW18937   0.632   3.835   3.596 -0.0889 -0.6436  0.0014
 2435SOL    HW118938   0.548   3.879   3.612  0.6542  0.3982  1.0381
 2435SOL    HW218939   0.608   3.767   3.533 -0.4030 -0.1565 -0.4053
 2436SOL     OW18940   0.562   1.311   4.466  0.3860  0.4917 -0.1434
 2436SOL    HW118941   0.630   1.248   4.486  0.8064  0.0662 -2.8273
 2436SOL    HW218942   0.611   1.392   4.478  2.3851 -0.4904 -1.6598
 2437SOL     OW18943   3.426   0.050   4.663  0.6115  0.1681 -0.1122
 2437SOL    HW118944   3.453   0.139   4.642  1.4069 -0.0297  0.0827
 2437SOL    HW218945   3.346   0.045   4.610  0.8055 -2.2986 -0.1798
 2438SOL     OW18946   1.982   4.152  13.624 -0.0896 -0.6671  0.4352
 2438SOL    HW118947   2.044   4.159  13.551  0.7101 -0.9135  1.0962
 2438SOL    HW218948   1.898   4.150  13.577 -0.1262 -2.4899  0.5789
 2439SOL     OW18949   3.772   3.623   3.729  0.8632  0.0903 -0.1380
 2439SOL    HW118950   3.838   3.653   3.667 -0.3935  1.8579 -0.5994
 2439SOL    HW218951   3.821   3.590   3.804  0.6240  0.6288  0.2446
 2440SOL     OW18952   3.217   0.959  17.483 -0.5122  0.1302  0.5057
 2440SOL    HW118953   3.302   0.916  17.491 -1.6689 -2.6403 -2.0175
 2440SOL    HW218954   3.160   0.889  17.515  0.1694 -1.4732 -1.8038
 2441SOL     OW18955   0.847   2.904  17.672  0.3181  0.1077 -0.1661
 2441SOL    HW118956   0.876   2.983  17.625 -1.0902  0.3237 -0.6621
 2441SOL    HW218957   0.926   2.883  17.721  0.0353 -0.6035 -0.0246
 2442SOL     OW18958   1.576   1.232   9.337 -0.3379 -0.1172  0.3156
 2442SOL    HW118959   1.615   1.229   9.250  0.1520  1.3353  0.4818
 2442SOL    HW218960   1.606   1.148   9.374 -0.2351  0.1490  0.8389
 2443SOL     OW18961   1.943   0.640   9.535 -0.2240 -0.2093  0.8349
 2443SOL    HW118962   1.886   0.590   9.593  0.6686  0.9275  2.7004
 2443SOL    HW218963   1.950   0.723   9.583 -1.0137  0.9168 -1.0181
 2444SOL     OW18964   2.812   2.230   1.138 -0.1404 -0.0240  0.0212
 2444SOL    HW118965   2.807   2.323   1.117  2.2767  0.4128  1.3314
 2444SOL    HW218966   2.727   2.209   1.101 -1.6537  2.0417  2.3291
 2445SOL     OW18967   0.975   4.524  12.081 -0.5614  0.6566 -0.3510
 2445SOL    HW118968   0.891   4.508  12.038 -1.3534 -3.0923  2.6236
 2445SOL    HW218969   1.021   4.452  12.037  0.7331  0.2555  1.6686
 2446SOL     OW18970   4.359   2.208  17.374 -0.3313  0.0899  0.3937
 2446SOL    HW118971   4.361   2.203  17.278  1.5127  0.6168  0.4038
 2446SOL    HW218972   4.381   2.302  17.377 -2.3007  0.5865 -0.5460
 2447SOL     OW18973   2.853   4.002   8.638 -0.0415  0.3032  0.3302
 2447SOL    HW118974   2.851   4.032   8.547  0.8889  1.5177  0.7087
 2447SOL    HW218975   2.842   3.907   8.639 -1.2279  0.4391  1.3046
 2448SOL     OW18976   1.997   1.082   8.922 -0.0596  0.3916 -0.3951
 2448SOL    HW118977   2.044   1.046   8.998 -0.0821  0.2788 -0.4344
 2448SOL    HW218978   1.959   1.002   8.886  0.7423  1.0485 -2.6377
 2449SOL     OW18979   3.936   4.578  14.842  0.2626  0.3177  0.2162
 2449SOL    HW118980   3.900   4.630  14.771  0.1800  2.7270  2.0411
 2449SOL    HW218981   3.926   4.640  14.914 -0.3059 -1.4777  1.6632
 2450SOL     OW18982   3.142   3.751   7.690 -0.1209 -0.6790 -0.8093
 2450SOL    HW118983   3.181   3.679   7.739 -2.1895 -0.3374  1.3258
 2450SOL    HW218984   3.186   3.736   7.605 -1.1394 -0.6850 -1.3323
 2451SOL     OW18985   2.250   1.610   5.959 -0.1280  0.6704 -0.4610
 2451SOL    HW118986   2.167   1.561   5.956 -0.3833  1.1385 -1.0541
 2451SOL    HW218987   2.284   1.591   5.872 -0.8492 -0.4440 -0.5011
 2452SOL     OW18988   0.687   1.899   6.716 -0.6043  0.1575 -0.5327
 2452SOL    HW118989   0.605   1.852   6.732 -0.0306 -0.2944  1.0872
 2452SOL    HW218990   0.728   1.873   6.798 -1.3314 -1.4644 -0.6693
 2453SOL     OW18991   1.016   2.643   2.357  0.4776 -0.1641  0.6197
 2453SOL    HW118992   0.959   2.711   2.393  1.2684 -0.3262  2.1737
 2453SOL    HW218993   0.960   2.569   2.336  1.0853 -1.0063  2.0325
 2454SOL     OW18994   0.913   2.951   4.985 -0.1369  0.1642 -0.0172
 2454SOL    HW118995   1.006   2.927   4.979 -0.0696  0.1924  0.9874
 2454SOL    HW218996   0.883   2.952   4.894  1.1840 -1.6050 -0.4577
 2455SOL     OW18997   4.031   2.568  11.036  0.0838  0.5783 -0.1579
 2455SOL    HW118998   4.075   2.509  10.975  0.7424  1.5125 -0.5900
 2455SOL    HW218999   4.077   2.543  11.116 -2.2108  1.2539  1.3644
 2456SOL     OW19000   0.419   2.470   8.818 -0.0192  0.5067 -0.3768
 2456SOL    HW119001   0.376   2.502   8.898  0.6247 -1.8092  0.9013
 2456SOL    HW219002   0.439   2.380   8.844 -1.6034  0.0679 -0.6319
 2457SOL     OW19003   4.253   0.683   4.460  0.2130  0.0004  0.2501
 2457SOL    HW119004   4.329   0.653   4.411  1.1647  3.1912 -0.1859
 2457SOL    HW219005   4.302   0.730   4.528  0.5398  0.6212 -0.4191
 2458SOL     OW19006   0.551   2.552   9.106  0.4078  0.2776  0.6334
 2458SOL    HW119007   0.619   2.485   9.110  0.9813  0.8539  0.3282
 2458SOL    HW219008   0.486   2.482   9.096 -1.6633  1.9701  2.3315
 2459SOL     OW19009   2.356   2.799   9.454  0.1539  0.2459  0.1466
 2459SOL    HW119010   2.451   2.806   9.448  0.0891  2.6473  1.6944
 2459SOL    HW219011   2.348   2.704   9.458  0.0527  0.2354 -0.3035
 2460SOL     OW19012   2.127   3.336   2.797  0.0027 -0.4761  0.2839
 2460SOL    HW119013   2.153   3.244   2.808 -1.5506 -0.8188  1.1862
 2460SOL    HW219014   2.105   3.336   2.704 -1.0881 -0.1164  0.5424
 2461SOL     OW19015   2.117   2.330   6.114 -0.0735 -0.1221 -0.5294
 2461SOL    HW119016   2.074   2.258   6.160 -1.7893  1.2902  0.0549
 2461SOL    HW219017   2.152   2.383   6.185 -0.8089  0.6227 -0.7208
 2462SOL     OW19018   1.439   4.399   5.196 -0.6263  1.1220 -0.2090
 2462SOL    HW119019   1.401   4.486   5.203 -0.1299  1.1285  2.4497
 2462SOL    HW219020   1.462   4.380   5.288  0.7912  0.1488 -0.7634
 2463SOL     OW19021   1.635   2.973   9.250 -0.4073 -0.9233  0.1063
 2463SOL    HW119022   1.678   2.896   9.212  0.9026 -0.8890  1.4960
 2463SOL    HW219023   1.650   2.964   9.344 -0.1712  0.6071  0.2163
 2464SOL     OW19024   3.423   4.160   4.527 -0.3796 -0.5578 -0.5258
 2464SOL    HW119025   3.383   4.228   4.582  1.0766 -0.7907  0.8396
 2464SOL    HW219026   3.500   4.143   4.581  0.2742 -1.3739 -1.7222
 2465SOL     OW19027   3.776   1.712   8.639  0.4363 -0.0096 -0.3950
 2465SOL    HW119028   3.774   1.666   8.723 -0.0427  0.1754 -0.3040
 2465SOL    HW219029   3.682   1.714   8.623  0.0505  0.1509  1.8575
 2466SOL     OW19030   2.939   3.822  12.671  0.4373  0.2067 -0.1062
 2466SOL    HW119031   2.884   3.828  12.749  0.5184 -0.5151  0.0153
 2466SOL    HW219032   3.028   3.845  12.697  0.9758 -2.9204  0.8221
 2467SOL     OW19033   0.787   2.802   7.018 -0.4186  0.0098  0.5095
 2467SOL    HW119034   0.806   2.739   6.949 -1.5997 -2.2455  2.2253
 2467SOL    HW219035   0.874   2.840   7.024 -0.1582 -0.5637  0.3874
 2468SOL     OW19036   3.202   4.223   6.583 -0.1014 -0.4836  0.0624
 2468SOL    HW119037   3.228   4.258   6.668  1.2010 -2.7189  0.6003
 2468SOL    HW219038   3.162   4.142   6.617  0.9681 -1.8291 -1.8610
 2469SOL     OW19039   0.341   0.244   8.421 -0.1891  0.4130 -0.0566
 2469SOL    HW119040   0.366   0.336   8.417  1.0110  0.2514  3.5553
 2469SOL    HW219041   0.405   0.200   8.365  0.5956  0.5281  0.7451
 2470SOL     OW19042   1.935   4.501   5.620 -0.0000  0.0883 -0.4760
 2470SOL    HW119043   1.908   4.426   5.673  2.8176 -1.7718 -1.6681
 2470SOL    HW219044   1.967   4.565   5.684 -1.4068  2.0569 -1.7551
 2471SOL     OW19045   1.068   2.196   4.506 -0.4157 -0.0110  0.1630
 2471SOL    HW119046   1.040   2.161   4.591  0.5126 -1.4335 -0.1044
 2471SOL    HW219047   1.047   2.289   4.509  1.7280  0.5723 -2.6976
 2472SOL     OW19048   1.739   3.822   9.146 -0.1998 -0.5821 -0.3111
 2472SOL    HW119049   1.809   3.842   9.208 -1.8115  1.2416  0.9041
 2472SOL    HW219050   1.720   3.729   9.160  0.8736 -0.8683 -0.8011
 2473SOL     OW19051   1.700   3.449   2.680 -0.4952 -0.4474  0.2737
 2473SOL    HW119052   1.700   3.507   2.756  1.8649 -1.3254  0.9421
 2473SOL    HW219053   1.681   3.364   2.721 -0.8579 -0.7720 -0.5687
 2474SOL     OW19054   2.899   3.033   2.417  0.3526  0.4882 -0.0316
 2474SOL    HW119055   2.816   3.034   2.369  0.4320  0.6850 -0.1655
 2474SOL    HW219056   2.914   3.127   2.431 -0.2500  0.4929  0.5676
 2475SOL     OW19057   2.590   2.089   4.110 -0.0034 -0.1304 -0.2051
 2475SOL    HW119058   2.600   2.085   4.205 -2.2292  0.9581  0.0951
 2475SOL    HW219059   2.545   2.174   4.107 -1.1773 -0.6608  2.2374
 2476SOL     OW19060   2.701   2.143   6.228  0.4776  0.3369 -0.2344
 2476SOL    HW119061   2.750   2.067   6.260  0.4685  0.8621  1.0111
 2476SOL    HW219062   2.779   2.191   6.201 -0.0584  0.3141 -1.8227
 2477SOL     OW19063   3.120   3.440   2.056 -0.0564  0.5194  0.1562
 2477SOL    HW119064   3.129   3.526   2.096  1.2348 -0.1055  1.2131
 2477SOL    HW219065   3.160   3.381   2.121 -0.9148  0.2751  0.4644
 2478SOL     OW19066   2.281   1.717   3.870  0.0743  0.0017 -0.7270
 2478SOL    HW119067   2.243   1.804   3.879  1.7196  0.6339  0.1592
 2478SOL    HW219068   2.320   1.735   3.785  0.7173  0.2088 -0.3927
 2479SOL     OW19069   3.047   1.074   6.653  0.1903 -0.0807 -0.1796
 2479SOL    HW119070   3.068   1.140   6.719  0.2940 -1.5945  1.3201
 2479SOL    HW219071   3.094   1.104   6.575  2.1473  0.0117  1.0410
 2480SOL     OW19072   4.184   2.123  14.886  0.2317  0.0649 -0.0296
 2480SOL    HW119073   4.247   2.078  14.941 -0.9718 -0.0527  1.2644
 2480SOL    HW219074   4.235   2.172  14.821 -1.7969  1.9688 -0.2144
 2481SOL     OW19075   3.921   0.020   3.811 -0.4286  0.5708  0.0276
 2481SOL    HW119076   3.885   0.107   3.831  0.3036  0.7037  0.7797
 2481SOL    HW219077   3.860   4.700   3.849 -0.9751  0.4078 -1.1226
 2482SOL     OW19078   2.543   2.173   5.470  0.2836 -0.2447  0.0283
 2482SOL    HW119079   2.604   2.162   5.543  2.3203  0.2064 -1.6023
 2482SOL    HW219080   2.569   2.257   5.433 -0.1077  1.0723  2.7413
 2483SOL     OW19081   2.727   4.417   7.045  0.4275  0.0578  0.4861
 2483SOL    HW119082   2.822   4.433   7.042  0.7000 -1.6976 -0.4328
 2483SOL    HW219083   2.722   4.326   7.074  1.1537 -0.3617 -0.6792
 2484SOL     OW19084   0.094   3.484   7.323  0.2413  0.1735  0.0245
 2484SOL    HW119085   0.040   3.486   7.244 -0.1355  1.2175  0.3080
 2484SOL    HW219086   0.149   3.562   7.308 -1.4912  1.0045 -1.9189
 2485SOL     OW19087   0.701   2.627   1.623  0.3736  0.3141  0.1729
 2485SOL    HW119088   0.662   2.540   1.625 -1.7116  1.2525  0.0890
 2485SOL    HW219089   0.639   2.671   1.564 -0.2491 -1.1459 -0.2493
 2486SOL     OW19090   0.827   4.021   4.187  0.6872  0.1215  0.2261
 2486SOL    HW119091   0.821   4.024   4.092 -1.2440  0.2283  0.3486
 2486SOL    HW219092   0.773   3.947   4.217  1.3568 -0.4453  0.0400
 2487SOL     OW19093   4.595   3.274   0.104 -0.3615 -0.5615  0.4541
 2487SOL    HW119094   4.648   3.254   0.181 -2.0635  0.2982  1.8675
 2487SOL    HW219095   4.668   3.285   0.042 -1.0228  1.6083  0.0696
 2488SOL     OW19096   3.601   2.380   2.199  0.7531 -0.1100  0.1654
 2488SOL    HW119097   3.645   2.403   2.117  2.5177  0.0346  1.1631
 2488SOL    HW219098   3.513   2.418   2.188  1.0849  0.3508 -0.9488
 2489SOL     OW19099   4.368   0.077   3.650 -0.0836  0.4616 -0.1138
 2489SOL    HW119100   4.349   4.728   3.634  1.2518 -0.1990  1.9919
 2489SOL    HW219101   4.309   0.087   3.725  0.5044  0.3478  0.3657
 2490SOL     OW19102   1.635   0.538   4.825 -0.0644  0.0856  0.1475
 2490SOL    HW119103   1.704   0.511   4.764 -0.1694 -1.8802  0.9183
 2490SOL    HW219104   1.651   0.633   4.824  2.6404 -0.3733 -1.6818
 2491SOL     OW19105   3.407   0.650   9.501 -0.6814  0.3426 -0.2413
 2491SOL    HW119106   3.418   0.733   9.455 -1.3070  1.1430  1.0349
 2491SOL    HW219107   3.341   0.609   9.445 -1.7024  1.8907 -0.1965
 2492SOL     OW19108   0.766   4.452   6.985 -0.2444  0.2790  0.1302
 2492SOL    HW119109   0.815   4.406   7.053  0.6041  0.3150 -0.4522
 2492SOL    HW219110   0.712   4.378   6.957 -0.3968 -0.8316  3.3343
 2493SOL     OW19111   0.826   1.604   7.126 -0.1936 -0.2892  0.2146
 2493SOL    HW119112   0.742   1.564   7.105 -1.4421  1.8206  1.1038
 2493SOL    HW219113   0.810   1.634   7.216 -2.1743  0.1985 -0.3158
 2494SOL     OW19114   1.834   0.436   5.181  0.4074 -0.2628  0.4913
 2494SOL    HW119115   1.808   0.489   5.257  1.9529  0.5267  0.4571
 2494SOL    HW219116   1.858   0.495   5.109 -0.8769 -0.0410  0.2273
 2495SOL     OW19117   0.699   1.140  16.953 -0.7381  0.0316  0.0004
 2495SOL    HW119118   0.711   1.232  16.930  3.0338 -0.3079  0.7214
 2495SOL    HW219119   0.749   1.126  17.033 -1.1916  0.5908  0.3856
 2496SOL     OW19120   1.404   0.408   5.635  0.1955 -0.1308 -0.2494
 2496SOL    HW119121   1.451   0.491   5.640 -0.5367  0.1828  1.7640
 2496SOL    HW219122   1.393   0.401   5.541  1.0863 -2.4372 -0.1826
 2497SOL     OW19123   0.463   3.878   0.362 -0.3802 -0.5317  0.1350
 2497SOL    HW119124   0.472   3.854   0.270 -1.2712  0.1658 -0.1309
 2497SOL    HW219125   0.554   3.901   0.383 -0.4828  1.0379 -1.0943
 2498SOL     OW19126   1.053   4.066   0.221 -0.4620  0.1002  0.9434
 2498SOL    HW119127   1.002   4.146   0.230  0.2085  0.6451 -0.0774
 2498SOL    HW219128   1.128   4.101   0.173 -1.6016 -0.1068 -0.9979
 2499SOL     OW19129   3.626   0.803   8.661  0.3513 -0.3452  0.1998
 2499SOL    HW119130   3.630   0.899   8.662  1.0830 -0.3812  0.3503
 2499SOL    HW219131   3.541   0.782   8.622  1.0697  0.2512 -1.6712
 2500SOL     OW19132   0.917   1.269   9.404 -0.1276 -0.4909  0.4532
 2500SOL    HW119133   0.869   1.194   9.370 -0.4619 -0.1394  0.1434
 2500SOL    HW219134   0.844   1.308   9.452 -0.6219 -1.8092  0.7512
 2501SOL     OW19135   2.595   1.505   5.326  0.1966  0.3617  0.2337
 2501SOL    HW119136   2.523   1.445   5.346 -1.3266  2.3878  0.8363
 2501SOL    HW219137   2.668   1.478   5.380 -0.4266  0.0067  0.8966
 2502SOL     OW19138   3.403   0.370  12.997  0.0510 -0.3651  0.1668
 2502SOL    HW119139   3.351   0.358  12.917 -2.7815 -0.1613  2.0044
 2502SOL    HW219140   3.332   0.347  13.057  0.6379  0.1361  1.0477
 2503SOL     OW19141   2.454   3.645   4.696 -0.3629 -0.3667 -0.2383
 2503SOL    HW119142   2.363   3.669   4.679  0.0153  0.6736 -0.7628
 2503SOL    HW219143   2.501   3.663   4.615 -1.5693  3.3407 -0.1192
 2504SOL     OW19144   3.103   1.961   9.908 -0.4153 -0.0034  0.0520
 2504SOL    HW119145   3.176   2.003   9.953 -1.4051 -0.0721  1.7144
 2504SOL    HW219146   3.119   1.867   9.915  1.1007  0.3748  1.6491
 2505SOL     OW19147   1.894   0.176   4.244  0.3346  0.3675 -0.3341
 2505SOL    HW119148   1.860   0.238   4.179 -1.1726 -0.9710 -0.8292
 2505SOL    HW219149   1.946   0.238   4.296 -0.5861  1.0137 -0.1757
 2506SOL     OW19150   2.815   1.235  10.575  0.5501 -0.2287 -0.1557
 2506SOL    HW119151   2.744   1.298  10.574 -0.1898 -1.0475  0.7202
 2506SOL    HW219152   2.893   1.289  10.586 -0.2377  0.7934  0.3139
 2507SOL     OW19153   0.620   3.039   0.790  0.2339  0.2659  0.0042
 2507SOL    HW119154   0.628   3.128   0.822 -0.6740  0.7861 -1.2030
 2507SOL    HW219155   0.695   3.010   0.842 -0.7075 -0.4892  0.9272
 2508SOL     OW19156   4.258   2.931   2.616  0.9999  0.3828  0.4725
 2508SOL    HW119157   4.238   2.894   2.702 -1.2309 -0.6913 -0.5139
 2508SOL    HW219158   4.183   2.991   2.613  0.7529  0.0130 -0.5750
 2509SOL     OW19159   3.517   2.592  14.912  0.2521 -0.4413 -0.2549
 2509SOL    HW119160   3.524   2.619  15.004 -1.8559 -0.7604 -0.0097
 2509SOL    HW219161   3.593   2.636  14.872  0.7839  0.7377  2.0159
 2510SOL     OW19162   0.094   4.692   7.946  0.1400 -0.9040 -0.1136
 2510SOL    HW119163   0.049   4.651   7.872 -1.0874 -0.0173  0.1522
 2510SOL    HW219164   0.045   4.658   8.020  2.0094 -4.2319 -0.4069
 2511SOL     OW19165   1.844   4.159   3.704  0.3943  0.3283  0.3867
 2511SOL    HW119166   1.773   4.096   3.715 -0.8274  1.7111  0.4497
 2511SOL    HW219167   1.843   4.174   3.610 -2.0640 -1.0544  0.2013
 2512SOL     OW19168   1.879   3.389   3.645 -0.0807  0.2455  0.0547
 2512SOL    HW119169   1.795   3.430   3.622  0.4307 -0.4091 -2.9371
 2512SOL    HW219170   1.859   3.297   3.632  0.6278  0.0732  0.2079
 2513SOL     OW19171   1.452   2.522  12.098  0.0855 -0.4597  0.0784
 2513SOL    HW119172   1.481   2.533  12.189  0.2592  1.5648 -0.2199
 2513SOL    HW219173   1.365   2.559  12.102  0.3243 -0.0756  1.8918
 2514SOL     OW19174   4.362   2.564   8.926 -0.4280 -0.0134  0.0822
 2514SOL    HW119175   4.444   2.518   8.945 -0.0035  0.6647 -0.1331
 2514SOL    HW219176   4.309   2.499   8.879  1.1457 -2.5619  1.8078
 2515SOL     OW19177   1.023   3.698   6.342 -0.2020 -0.1630  0.1243
 2515SOL    HW119178   0.928   3.714   6.337 -0.3117 -0.3265  1.7400
 2515SOL    HW219179   1.054   3.697   6.251 -2.3081  1.0976 -0.6003
 2516SOL     OW19180   4.706   2.207   7.240  0.4819 -0.0144  0.4035
 2516SOL    HW119181   4.646   2.148   7.286 -0.6618  0.5110 -0.3961
 2516SOL    HW219182   4.651   2.282   7.220  0.5047  0.0816  0.7081
 2517SOL     OW19183   2.665   1.336   7.960 -0.3364  0.3998 -0.2822
 2517SOL    HW119184   2.629   1.347   8.048  1.0201  0.8432  0.2248
 2517SOL    HW219185   2.758   1.356   7.975 -0.6929  1.1400  0.9689
 2518SOL     OW19186   3.588   0.458   6.490  0.1197 -0.2841 -0.4413
 2518SOL    HW119187   3.682   0.443   6.487  0.3357  0.6419  1.4136
 2518SOL    HW219188   3.567   0.535   6.543  0.6800 -1.0470  0.9130
 2519SOL     OW19189   3.835   1.132   5.104  0.3688  0.5178 -0.3255
 2519SOL    HW119190   3.812   1.158   5.193  1.8774 -2.4049  0.9163
 2519SOL    HW219191   3.758   1.136   5.047 -0.6975 -3.0364  0.8600
 2520SOL     OW19192   2.661   1.032   5.169  0.0628  0.1868  0.6550
 2520SOL    HW119193   2.623   0.971   5.232  1.0074 -0.4696  0.5985
 2520SOL    HW219194   2.696   0.979   5.097  1.6006  1.7656  0.2365
 2521SOL     OW19195   0.346   0.711   7.516 -0.0153  0.0075  0.6247
 2521SOL    HW119196   0.253   0.730   7.507 -0.2010 -0.9064  0.6080
 2521SOL    HW219197   0.388   0.793   7.543 -2.7127  0.4592  3.4318
 2522SOL     OW19198   1.235   2.477   4.512  0.3673 -0.2452  0.0458
 2522SOL    HW119199   1.281   2.482   4.429  1.7199 -1.8584  0.6929
 2522SOL    HW219200   1.302   2.473   4.581  1.3663 -1.5972 -0.9876
 2523SOL     OW19201   0.412   4.130   4.887  0.0116  1.0035  0.7563
 2523SOL    HW119202   0.425   4.182   4.807 -1.9612  0.2632 -0.0433
 2523SOL    HW219203   0.326   4.089   4.888  0.3165  0.3921  1.9483
 2524SOL     OW19204   0.272   4.278   2.911 -0.7528 -0.4826  0.2352
 2524SOL    HW119205   0.367   4.284   2.900 -0.7060  0.5600  1.1889
 2524SOL    HW219206   0.256   4.184   2.900 -0.5651 -0.6354  1.2520
 2525SOL     OW19207   3.362   2.707  14.600 -1.0071 -0.9941  0.3058
 2525SOL    HW119208   3.399   2.774  14.657  0.0932 -1.6256  0.3420
 2525SOL    HW219209   3.351   2.770  14.528  2.1179  0.9208  1.4757
 2526SOL     OW19210   0.840   3.960   6.446 -0.6726  0.3946 -0.3437
 2526SOL    HW119211   0.923   3.934   6.487  0.5292  3.6820 -0.6511
 2526SOL    HW219212   0.877   3.989   6.363 -1.4368  0.4170 -0.6713
 2527SOL     OW19213   3.288   1.076   4.812  0.1736 -0.2207  0.1761
 2527SOL    HW119214   3.254   1.015   4.747 -1.1149 -0.0530  0.6924
 2527SOL    HW219215   3.381   1.065   4.790 -0.2770 -0.3729 -1.6803
 2528SOL     OW19216   2.527   4.019   9.456 -0.2645 -0.1128  0.2561
 2528SOL    HW119217   2.436   3.997   9.479  0.1066 -0.4379  1.4084
 2528SOL    HW219218   2.527   4.091   9.519 -0.0550  0.5059 -0.4602
 2529SOL     OW19219   1.944   1.599   2.285 -0.2752 -0.5136  0.0037
 2529SOL    HW119220   1.966   1.506   2.279 -3.6838 -1.4087  1.8111
 2529SOL    HW219221   1.898   1.595   2.369  0.0126 -0.6136  0.1579
 2530SOL     OW19222   2.402   1.996  14.497 -0.2571 -0.3788  0.3751
 2530SOL    HW119223   2.386   1.905  14.522 -0.6649 -0.2196  0.6843
 2530SOL    HW219224   2.497   2.000  14.490 -0.4600  3.0828 -0.4714
 2531SOL     OW19225   1.242   4.284   3.654 -0.2454 -0.1595  0.0578
 2531SOL    HW119226   1.214   4.365   3.611  1.2710  0.8870  1.0394
 2531SOL    HW219227   1.175   4.223   3.623 -2.1078  1.7738  0.2907
 2532SOL     OW19228   0.992   3.437   7.970  0.0103 -0.0986 -0.6374
 2532SOL    HW119229   0.932   3.511   7.986  0.0591 -0.3972  0.8780
 2532SOL    HW219230   0.939   3.358   7.965 -0.5741  0.3531 -1.7188
 2533SOL     OW19231   2.220   2.854   8.265  0.4236 -0.4249 -0.2155
 2533SOL    HW119232   2.175   2.800   8.200  0.4750 -0.9990  0.2302
 2533SOL    HW219233   2.292   2.800   8.299 -0.3902 -1.5340 -0.2776
 2534SOL     OW19234   2.049   1.326   2.925  0.3269  0.1511 -0.0314
 2534SOL    HW119235   2.025   1.398   2.983 -2.1217  0.0570 -0.9338
 2534SOL    HW219236   1.969   1.277   2.906  0.8651 -1.5760  2.1351
 2535SOL     OW19237   3.101   4.534   7.864  0.0459  0.5852 -0.1617
 2535SOL    HW119238   3.007   4.554   7.864 -0.0695  0.1693 -3.8426
 2535SOL    HW219239   3.082   4.457   7.811  1.6186 -1.3168  2.0557
 2536SOL     OW19240   3.830   0.306  15.275 -0.0635  0.8607 -0.1241
 2536SOL    HW119241   3.836   0.211  15.263  2.9025  1.5581 -4.0012
 2536SOL    HW219242   3.766   0.340  15.213  0.7603  0.4785 -1.1912
 2537SOL     OW19243   0.548   2.817  16.146 -0.2157 -0.0165  0.1776
 2537SOL    HW119244   0.525   2.824  16.053  2.6367 -1.1575 -0.6135
 2537SOL    HW219245   0.563   2.908  16.171 -0.6934 -0.0817  0.7022
 2538SOL     OW19246   0.329   2.949   0.336 -0.0189  0.5916  0.4994
 2538SOL    HW119247   0.251   2.948   0.390 -0.5030 -0.4541 -0.2117
 2538SOL    HW219248   0.404   2.932   0.393  0.2697 -1.6028 -0.5157
 2539SOL     OW19249   3.261   0.357   9.695  0.3462  0.4417 -0.7665
 2539SOL    HW119250   3.245   0.376   9.603 -0.3351  0.7051 -0.5958
 2539SOL    HW219251   3.204   0.282   9.709  1.4252 -0.8863 -3.4305
 2540SOL     OW19252   0.086   0.646  15.350  0.3980  0.2554 -0.2573
 2540SOL    HW119253   0.063   0.555  15.331  1.3007  1.0616 -4.9999
 2540SOL    HW219254   0.172   0.655  15.309 -0.6081 -1.7969 -2.8178
 2541SOL     OW19255   4.304   1.343   8.167  0.2883 -0.3374  0.2320
 2541SOL    HW119256   4.221   1.386   8.189  0.6497 -0.1537  1.2163
 2541SOL    HW219257   4.277   1.259   8.204 -0.7299 -0.6359 -1.1620
 2542SOL     OW19258   0.515   2.820   6.803 -0.0407  0.5835  0.3156
 2542SOL    HW119259   0.447   2.774   6.851  0.5151  0.3590  0.8874
 2542SOL    HW219260   0.579   2.752   6.785 -2.3500 -1.5995  0.3987
 2543SOL     OW19261   1.103   0.161  17.336 -0.2474  0.2675 -1.1268
 2543SOL    HW119262   1.028   0.190  17.388  0.6634  1.9465 -0.7560
 2543SOL    HW219263   1.070   0.076  17.306 -1.5541  1.4807 -3.1097
 2544SOL     OW19264   4.642   3.592  10.993  0.1899 -0.1177  0.5201
 2544SOL    HW119265   4.655   3.627  11.081 -1.3231  0.0230  0.6938
 2544SOL    HW219266   4.649   3.497  11.005 -1.7725 -0.2240  0.8731
 2545SOL     OW19267   2.873   1.448  14.769  0.3263  0.1467  0.1523
 2545SOL    HW119268   2.875   1.473  14.862 -0.9335 -0.0715  0.2444
 2545SOL    HW219269   2.934   1.514  14.738 -0.3056  0.7099  0.1119
 2546SOL     OW19270   4.295   0.547   9.148 -0.1383 -0.1389  0.1926
 2546SOL    HW119271   4.250   0.595   9.217 -0.3016 -1.8100  1.2490
 2546SOL    HW219272   4.224   0.536   9.085 -1.7046  3.3579  1.3810
 2547SOL     OW19273   0.110   4.171  10.939 -0.0238 -0.3529 -0.2774
 2547SOL    HW119274   0.135   4.195  11.029  3.9769 -1.2296 -1.1812
 2547SOL    HW219275   0.170   4.097  10.929 -2.4264 -2.6108  2.1248
 2548SOL     OW19276   1.862   1.516   8.199 -0.3148  0.6626 -0.1666
 2548SOL    HW119277   1.846   1.599   8.155  0.5256  1.1347  0.3983
 2548SOL    HW219278   1.935   1.542   8.256  0.3805  3.0797 -2.1525
 2549SOL     OW19279   2.435   0.814   4.282  0.5111 -0.7116 -0.2514
 2549SOL    HW119280   2.394   0.864   4.211  2.3322  0.2599 -0.6170
 2549SOL    HW219281   2.363   0.762   4.317  1.5576  0.0123  2.9947
 2550SOL     OW19282   4.090   3.317  17.388  0.3499 -0.2980  0.0834
 2550SOL    HW119283   4.166   3.283  17.435  0.9307  0.5117 -0.2859
 2550SOL    HW219284   4.120   3.399  17.349  0.9584 -1.2465 -1.4107
 2551SOL     OW19285   0.976   0.557   3.294  0.2881  0.1772 -0.0751
 2551SOL    HW119286   1.030   0.577   3.218 -2.7804 -0.2788 -2.4071
 2551SOL    HW219287   1.036   0.508   3.350 -1.2682 -1.0249  0.5613
 2552SOL     OW19288   4.212   4.595  10.409  0.6811 -0.1577  0.3206
 2552SOL    HW119289   4.292   4.647  10.403  0.4126  0.3391  1.0814
 2552SOL    HW219290   4.151   4.661  10.378  1.8811  2.4018  3.3913
 2553SOL     OW19291   1.653   0.297   6.462 -0.0677 -0.0413 -0.4733
 2553SOL    HW119292   1.705   0.249   6.398 -1.9586 -1.2450 -1.1044
 2553SOL    HW219293   1.591   0.232   6.495  1.4573 -1.3823 -0.2881
 2554SOL     OW19294   2.407   1.072   0.063  0.2725 -0.0202  0.4379
 2554SOL    HW119295   2.427   0.979   0.067 -2.7030 -0.7253 -1.1330
 2554SOL    HW219296   2.478   1.113   0.014  0.9883  0.8041  2.1386
 2555SOL     OW19297   0.565   1.789   4.873  0.7797 -0.0439 -0.3127
 2555SOL    HW119298   0.591   1.770   4.783 -2.1056 -0.9583 -0.9389
 2555SOL    HW219299   0.603   1.876   4.886  0.5629  0.1483 -0.9560
 2556SOL     OW19300   0.401   2.941   5.021 -0.1231 -0.6021 -0.3765
 2556SOL    HW119301   0.344   3.018   5.023  0.2413 -0.3542  0.4804
 2556SOL    HW219302   0.338   2.875   5.049 -0.0493 -0.4295  0.1818
 2557SOL     OW19303   3.092   2.466  10.904  0.0028  0.4289  1.1072
 2557SOL    HW119304   3.094   2.373  10.883  0.0849  0.7332 -0.2149
 2557SOL    HW219305   3.165   2.472  10.967  0.5795  0.4952  0.4316
 2558SOL     OW19306   1.451   1.836   4.683 -0.6141  0.0627  0.0831
 2558SOL    HW119307   1.542   1.857   4.706 -0.0296 -0.6209 -1.6017
 2558SOL    HW219308   1.406   1.898   4.740  1.4542  0.8270  0.8736
 2559SOL     OW19309   3.968   4.351   8.060 -0.2642  0.2091  0.0949
 2559SOL    HW119310   3.896   4.381   8.116  0.3031  0.5239  0.6598
 2559SOL    HW219311   4.049   4.370   8.108  0.6957 -0.2173 -1.3615
 2560SOL     OW19312   1.319   3.084   6.723 -0.5109  0.0462 -0.0909
 2560SOL    HW119313   1.387   3.067   6.788 -0.8679 -0.4481  0.1490
 2560SOL    HW219314   1.270   3.149   6.773 -0.4018 -0.2276  0.3756
 2561SOL     OW19315   4.526   1.805  13.209  0.4157 -0.1528 -0.3074
 2561SOL    HW119316   4.590   1.876  13.207  1.2350 -0.9001 -0.2393
 2561SOL    HW219317   4.574   1.740  13.259  3.4477  1.4836 -1.1108
 2562SOL     OW19318   4.294   2.682   3.905  0.1452 -0.2114  0.1044
 2562SOL    HW119319   4.354   2.714   3.839  0.2698 -2.1315 -0.7118
 2562SOL    HW219320   4.301   2.752   3.971  0.0435  0.9198 -1.0924
 2563SOL     OW19321   3.471   3.854  11.847 -0.8979  0.1935  0.3366
 2563SOL    HW119322   3.473   3.848  11.943 -0.5205 -0.9355  0.2542
 2563SOL    HW219323   3.387   3.895  11.829 -0.0446  2.4560  1.4092
 2564SOL     OW19324   0.340   3.645  15.160  0.1454 -0.3050  0.4588
 2564SOL    HW119325   0.407   3.646  15.092 -0.8149 -0.8530 -0.5034
 2564SOL    HW219326   0.266   3.618  15.106  1.0959  0.2994 -1.1434
 2565SOL     OW19327   0.167   0.271   2.444  0.1809  0.3944  0.5043
 2565SOL    HW119328   0.215   0.239   2.367  0.8953  1.8003  0.3677
 2565SOL    HW219329   0.105   0.317   2.387  1.2363  2.3667  0.9826
 2566SOL     OW19330   3.976   3.178   8.089 -0.1047  0.2895 -0.3792
 2566SOL    HW119331   4.012   3.092   8.070  0.1487  0.3135  0.0024
 2566SOL    HW219332   3.970   3.224   8.005  0.2245  3.3458  1.2655
 2567SOL     OW19333   2.133   4.107   4.192  0.1558 -0.3190  0.2181
 2567SOL    HW119334   2.190   4.138   4.122  0.9443  0.5757  1.2501
 2567SOL    HW219335   2.103   4.027   4.149  0.6889  0.0515 -0.8307
 2568SOL     OW19336   1.982   0.826   6.856 -0.0037 -0.4765 -0.3768
 2568SOL    HW119337   1.977   0.914   6.818  1.4481 -0.1906  0.1096
 2568SOL    HW219338   2.066   0.795   6.824  0.2082 -0.7837  0.4889
 2569SOL     OW19339   2.935   4.222   6.768  0.0906  0.4390  0.2660
 2569SOL    HW119340   2.972   4.157   6.827 -0.9701  0.8793  1.4062
 2569SOL    HW219341   2.867   4.182   6.712  3.6471 -5.2061  0.0393
 2570SOL     OW19342   2.301   0.281   6.993  0.0469  0.0871  0.2891
 2570SOL    HW119343   2.371   0.342   6.968  1.1940 -1.0047  0.8477
 2570SOL    HW219344   2.271   0.253   6.906  0.0950 -0.7825  0.5500
 2571SOL     OW19345   4.426   1.121   2.192  0.0745 -0.2615  0.1275
 2571SOL    HW119346   4.352   1.164   2.233  0.1717 -1.3915  1.4728
 2571SOL    HW219347   4.421   1.162   2.105 -2.6378 -0.7408  0.0630
 2572SOL     OW19348   2.985   2.645  17.756 -0.3633 -0.2113 -0.3643
 2572SOL    HW119349   2.921   2.716  17.760 -2.4391 -1.8996 -2.9376
 2572SOL    HW219350   3.059   2.690   0.025  0.3108 -2.4352  0.8978
 2573SOL     OW19351   4.121   1.468   7.609  0.0509 -0.0324  0.0014
 2573SOL    HW119352   4.037   1.424   7.612  0.9277 -1.7437 -0.6703
 2573SOL    HW219353   4.181   1.410   7.561  1.6109  2.4044 -1.0043
 2574SOL     OW19354   4.689   0.366   2.261 -0.3686  0.0241  0.3009
 2574SOL    HW119355   4.660   0.282   2.226 -0.1919  0.8762 -1.9404
 2574SOL    HW219356   4.602   0.390   2.291 -0.0386  1.8753 -0.2111
 2575SOL     OW19357   2.832   2.496   5.432  0.0982 -0.1047 -0.4889
 2575SOL    HW119358   2.748   2.538   5.448 -1.0603 -1.8087 -2.0221
 2575SOL    HW219359   2.807   2.437   5.360  2.4029 -0.4050 -1.0572
 2576SOL     OW19360   0.527   4.601   7.060  0.0968 -0.0451  0.3512
 2576SOL    HW119361   0.523   4.552   6.977  1.3404 -0.6583  0.6421
 2576SOL    HW219362   0.618   4.579   7.083  0.2507 -1.6989 -1.8008
 2577SOL     OW19363   1.566   4.090   2.328 -0.3527  0.0725  0.0516
 2577SOL    HW119364   1.578   4.104   2.234 -0.6090 -1.7370 -0.2546
 2577SOL    HW219365   1.661   4.084   2.340 -0.4949 -1.2094  0.5231
 2578SOL     OW19366   0.149   4.586   5.533  0.5328 -0.1638  0.3579
 2578SOL    HW119367   0.096   4.662   5.557  0.8876  0.5582 -1.1081
 2578SOL    HW219368   0.125   4.575   5.441  0.3424 -4.1531  0.8994
 2579SOL     OW19369   2.242   0.947   4.514 -0.6258 -0.0999 -0.5197
 2579SOL    HW119370   2.191   0.954   4.595  1.2504  1.3882  0.5246
 2579SOL    HW219371   2.219   0.856   4.493 -0.3109 -0.1396 -0.6929
 2580SOL     OW19372   1.988   0.393  13.510  0.1048 -0.1829 -0.1362
 2580SOL    HW119373   1.908   0.394  13.458 -1.6589 -1.5635  2.5260
 2580SOL    HW219374   1.959   0.424  13.596 -0.6393  1.1098 -0.8605
 2581SOL     OW19375   0.243   0.880   4.704 -0.3895 -0.4130  0.0115
 2581SOL    HW119376   0.275   0.943   4.769  2.3316 -1.5035 -0.3039
 2581SOL    HW219377   0.203   0.936   4.637 -1.5702  0.5429  1.5053
 2582SOL     OW19378   2.616   4.237   6.410  0.1809  0.3917 -0.1842
 2582SOL    HW119379   2.632   4.324   6.375  0.5212  1.0013  1.4901
 2582SOL    HW219380   2.595   4.175   6.340  0.6160 -1.1857  1.0789
 2583SOL     OW19381   1.868   0.859   3.440 -0.3442  0.8852 -0.1718
 2583SOL    HW119382   1.876   0.921   3.368 -2.7901  0.6800 -0.6237
 2583SOL    HW219383   1.813   0.912   3.497 -1.1431 -0.0605 -0.0578
 2584SOL     OW19384   0.174   0.345   1.382  0.2676 -0.3515  0.5023
 2584SOL    HW119385   0.227   0.418   1.412  0.0029 -0.4703  1.2418
 2584SOL    HW219386   0.081   0.362   1.401  0.3985 -0.9377  1.6843
 2585SOL     OW19387   2.939   1.459   4.568  0.0364 -0.0533 -0.3261
 2585SOL    HW119388   2.914   1.368   4.552 -1.5661  0.1234  1.3199
 2585SOL    HW219389   2.991   1.434   4.644  1.8115 -1.2836 -1.9209
 2586SOL     OW19390   1.829   0.683  12.160  0.2754 -0.2379  0.1976
 2586SOL    HW119391   1.876   0.766  12.163  0.5888 -0.4385  0.7706
 2586SOL    HW219392   1.757   0.723  12.112 -1.4181 -3.9257 -0.3197
 2587SOL     OW19393   2.207   2.021   8.032 -0.0689  0.0379  0.0963
 2587SOL    HW119394   2.211   2.052   8.123 -0.7759  1.9336 -0.5112
 2587SOL    HW219395   2.190   1.927   8.038  0.1260  0.0071  0.1664
 2588SOL     OW19396   4.643   0.397   4.127  0.2421  0.1739  0.0010
 2588SOL    HW119397   4.686   0.478   4.099  0.4098  0.3225  0.6877
 2588SOL    HW219398   4.707   0.342   4.174  0.4315  0.5336  0.1602
 2589SOL     OW19399   1.799   1.617  16.961 -0.6256  0.2841  0.0949
 2589SOL    HW119400   1.740   1.667  17.017  0.1556 -1.4315  2.4556
 2589SOL    HW219401   1.870   1.596  17.022 -0.4748  0.1165 -0.1360
 2590SOL     OW19402   1.942   4.374  15.623 -0.1166 -0.4531  0.1691
 2590SOL    HW119403   1.873   4.435  15.649  0.2646 -0.5246  1.3673
 2590SOL    HW219404   2.007   4.441  15.601 -0.1821 -0.0870  1.0715
 2591SOL     OW19405   2.975   4.455   8.971 -0.3039  0.0707 -0.8915
 2591SOL    HW119406   3.040   4.385   8.959  0.7370  0.3719  3.0340
 2591SOL    HW219407   2.922   4.433   8.895  1.1096  0.0590 -1.8901
 2592SOL     OW19408   3.591   1.572   2.529  0.4353  0.4290 -0.0783
 2592SOL    HW119409   3.640   1.535   2.456 -0.5106 -1.6496  0.3259
 2592SOL    HW219410   3.641   1.651   2.550 -1.8946  1.8105  0.2747
 2593SOL     OW19411   4.172   2.008   9.850 -0.2892 -0.6387  0.6105
 2593SOL    HW119412   4.222   1.938   9.893 -0.4212 -1.6494 -0.8695
 2593SOL    HW219413   4.112   1.947   9.808 -1.8342  1.3980 -0.1339
 2594SOL     OW19414   0.450   0.681   3.034 -0.2377  0.7044 -0.3762
 2594SOL    HW119415   0.485   0.728   3.110  0.0163 -1.6674  0.9695
 2594SOL    HW219416   0.356   0.694   3.049 -0.6977 -3.1592  0.1244
 2595SOL     OW19417   3.939   2.105   5.617 -0.4627  0.0520  0.3100
 2595SOL    HW119418   3.969   2.172   5.678  0.2359 -2.0243  2.2287
 2595SOL    HW219419   3.869   2.145   5.565 -0.7712 -1.4034 -0.4062
 2596SOL     OW19420   4.545   1.696   6.060  0.2684  0.8083 -0.0667
 2596SOL    HW119421   4.566   1.767   6.121  1.5374  1.1293 -0.8835
 2596SOL    HW219422   4.503   1.746   5.989 -0.8872  0.7869  0.5917
 2597SOL     OW19423   4.728   2.980  12.329  0.6098  0.0416 -0.0632
 2597SOL    HW119424   0.013   2.897  12.367 -1.5311 -0.5247  0.3055
 2597SOL    HW219425   4.718   2.957  12.237 -0.0280 -2.5808  0.6643
 2598SOL     OW19426   0.708   3.806   1.641  0.2151 -0.2667 -0.0405
 2598SOL    HW119427   0.622   3.834   1.671  0.6841  1.1590 -0.0163
 2598SOL    HW219428   0.689   3.720   1.604 -0.1855 -0.6595  1.0640
 2599SOL     OW19429   4.380   0.453   9.520 -0.1458  0.3326 -0.0670
 2599SOL    HW119430   4.328   0.386   9.475  1.6442 -0.1563 -1.3950
 2599SOL    HW219431   4.463   0.408   9.530 -0.1845  0.8307  2.3165
 2600SOL     OW19432   2.659   0.798   8.667 -0.3983  0.5665 -0.3295
 2600SOL    HW119433   2.659   0.718   8.616 -3.6968 -0.3954  1.1905
 2600SOL    HW219434   2.605   0.770   8.741 -0.8374  0.3968 -0.7094
 2601SOL     OW19435   1.544   0.181   8.002 -0.2668  0.1834 -0.2892
 2601SOL    HW119436   1.613   0.184   8.069 -3.0096  2.1338  2.4584
 2601SOL    HW219437   1.545   0.092   7.969 -0.1893  1.1477 -2.8453
 2602SOL     OW19438   0.505   1.773  16.579 -0.3814 -0.0750  0.4239
 2602SOL    HW119439   0.518   1.767  16.485  1.3923  3.9287  0.4108
 2602SOL    HW219440   0.553   1.855  16.588  1.5318 -1.2208  0.4907
 2603SOL     OW19441   1.050   2.023   4.722 -0.0962 -0.3525 -0.1530
 2603SOL    HW119442   0.977   2.047   4.780  2.3079  2.0872  1.8210
 2603SOL    HW219443   1.115   2.017   4.791  0.2356 -1.2551 -0.5431
 2604SOL     OW19444   0.291   4.069   0.428 -0.1999 -0.0659 -0.2360
 2604SOL    HW119445   0.368   4.120   0.454  0.5631 -1.9508  1.1747
 2604SOL    HW219446   0.341   4.006   0.376 -0.9056  0.1603 -1.1922
 2605SOL     OW19447   2.319   4.244   4.388  0.3304 -0.1274 -0.2439
 2605SOL    HW119448   2.325   4.312   4.321 -0.1995 -0.0920 -0.2549
 2605SOL    HW219449   2.226   4.224   4.378  0.2274 -0.1692  0.8225
 2606SOL     OW19450   2.717   0.557   4.488 -0.5605  0.6865  0.1089
 2606SOL    HW119451   2.661   0.490   4.450 -0.6487  0.6903  0.2331
 2606SOL    HW219452   2.806   0.523   4.486 -0.0480  2.0887 -1.1784
 2607SOL     OW19453   1.902   1.026   3.820 -0.4474  0.1407 -0.6823
 2607SOL    HW119454   1.936   1.100   3.870  0.1040 -0.4907 -0.1263
 2607SOL    HW219455   1.850   1.078   3.759 -0.4725 -0.6237 -1.3215
 2608SOL     OW19456   2.062   0.468   8.794 -0.0893 -0.3686 -0.0358
 2608SOL    HW119457   2.134   0.524   8.822  1.8683 -1.3877 -3.0492
 2608SOL    HW219458   2.099   0.383   8.768  1.8306  0.3351  0.4071
 2609SOL     OW19459   0.625   4.650   4.030  0.1811 -0.2211 -0.3626
 2609SOL    HW119460   0.591   4.688   3.949 -2.3713 -2.7402 -0.4687
 2609SOL    HW219461   0.702   4.596   4.014 -0.6986 -2.0989  1.7097
 2610SOL     OW19462   4.475   3.844   6.067 -0.3315 -0.1755 -0.0491
 2610SOL    HW119463   4.411   3.872   6.002  0.1485 -3.1858 -1.8180
 2610SOL    HW219464   4.443   3.756   6.082 -1.0885  0.4487  1.9880
 2611SOL     OW19465   4.578   0.179  10.880 -0.0599 -0.3356 -0.1129
 2611SOL    HW119466   4.496   0.220  10.853 -0.1274 -0.9386 -0.7984
 2611SOL    HW219467   4.625   0.259  10.906 -1.2689  0.6429 -0.9277
 2612SOL     OW19468   3.468   1.283   3.813 -0.0400  0.2729 -0.0658
 2612SOL    HW119469   3.471   1.322   3.901  0.4139  0.9168 -0.3648
 2612SOL    HW219470   3.476   1.360   3.757  3.0109 -0.1110 -0.1326
 2613SOL     OW19471   3.761   1.300  13.939  0.8423  0.4052 -0.4146
 2613SOL    HW119472   3.774   1.275  13.848  1.3155 -0.6033 -0.0701
 2613SOL    HW219473   3.669   1.326  13.946 -0.0488 -2.7463 -0.3515
 2614SOL     OW19474   1.583   0.855   9.952 -0.3419 -0.1162  0.1380
 2614SOL    HW119475   1.528   0.812  10.018  0.3372 -1.1205  0.0456
 2614SOL    HW219476   1.525   0.918   9.909  0.2988 -1.7277 -3.0187
 2615SOL     OW19477   4.406   1.863   9.386  0.1171  0.2078 -0.1345
 2615SOL    HW119478   4.457   1.911   9.452  0.2557  0.1255 -0.1842
 2615SOL    HW219479   4.336   1.926   9.368  0.3660  0.8375  1.0578
 2616SOL     OW19480   2.489   3.184   4.091 -0.1197 -0.4343 -0.2756
 2616SOL    HW119481   2.486   3.130   4.171 -1.8284  0.3136  0.1727
 2616SOL    HW219482   2.583   3.195   4.078 -0.1275 -0.0557 -0.0164
 2617SOL     OW19483   1.461   3.115   7.669 -0.2353 -0.2880 -0.2756
 2617SOL    HW119484   1.459   3.169   7.590  0.0884 -1.3136 -0.9873
 2617SOL    HW219485   1.520   3.172   7.718  0.0151  0.0297 -0.9490
 2618SOL     OW19486   1.022   2.756  17.328 -0.1246  0.3223  0.1273
 2618SOL    HW119487   1.097   2.751  17.269  0.7886  0.3536  1.2873
 2618SOL    HW219488   0.968   2.810  17.270  0.7912  1.1129  0.0116
 2619SOL     OW19489   2.534   3.745   1.881 -0.0790 -0.2025  0.2923
 2619SOL    HW119490   2.478   3.823   1.888 -2.1076 -1.4355 -2.4005
 2619SOL    HW219491   2.601   3.782   1.938 -0.0017 -0.0484  0.1010
 2620SOL     OW19492   2.316   4.528  12.131 -0.3674  0.3164 -0.3100
 2620SOL    HW119493   2.252   4.500  12.196  2.1349 -1.6654  1.2897
 2620SOL    HW219494   2.401   4.503  12.167 -1.8105 -0.5622  2.4516
 2621SOL     OW19495   2.486   0.323  14.875  0.4013  0.0888 -0.1159
 2621SOL    HW119496   2.473   0.395  14.936 -1.7127  0.7010 -1.2632
 2621SOL    HW219497   2.563   0.280  14.912  1.6454  1.3256 -1.2607
 2622SOL     OW19498   2.241   2.293  14.102 -0.5581  0.2622  0.0186
 2622SOL    HW119499   2.334   2.300  14.081 -0.1649 -1.1450  1.2760
 2622SOL    HW219500   2.243   2.281  14.197  1.4283  0.4851 -0.0022
 2623SOL     OW19501   0.218   1.968   6.440 -0.1551  0.6998  0.0982
 2623SOL    HW119502   0.209   2.063   6.431 -0.0699  0.7803  0.8515
 2623SOL    HW219503   0.222   1.935   6.350  2.8772 -0.9199  0.8359
 2624SOL     OW19504   1.803   2.800   5.679 -0.2997 -0.3865  0.5201
 2624SOL    HW119505   1.830   2.832   5.593 -0.7270  1.1374  0.9342
 2624SOL    HW219506   1.883   2.755   5.706 -0.7777 -0.3408  2.0245
 2625SOL     OW19507   1.111   3.950  17.665  0.0785  0.0878 -0.0674
 2625SOL    HW119508   1.203   3.976  17.671  0.1743 -0.2555 -0.0285
 2625SOL    HW219509   1.114   3.867  17.713 -1.3092  0.3230  0.4398
 2626SOL     OW19510   3.483   1.938   7.156  0.8126  0.2108 -0.8800
 2626SOL    HW119511   3.563   1.934   7.104  0.0807  2.8629 -2.2167
 2626SOL    HW219512   3.510   1.982   7.237  0.1801 -0.8513 -0.0947
 2627SOL     OW19513   2.654   3.260  16.793 -0.3562 -0.1394 -1.0380
 2627SOL    HW119514   2.669   3.239  16.701  0.8383  0.8296 -1.0664
 2627SOL    HW219515   2.702   3.342  16.794 -0.5981  0.0070 -1.3134
 2628SOL     OW19516   4.294   0.127   5.832 -0.2815  0.1001  0.2458
 2628SOL    HW119517   4.287   0.151   5.925  1.4258  1.3217  0.0557
 2628SOL    HW219518   4.368   0.067   5.835  0.9001  1.4203 -2.7569
 2629SOL     OW19519   0.838   3.519   3.790 -0.6087  0.3367 -0.4962
 2629SOL    HW119520   0.859   3.502   3.882 -0.0830  0.5584 -0.5774
 2629SOL    HW219521   0.900   3.588   3.766 -0.2424  0.3963  0.5975
 2630SOL     OW19522   3.080   3.089   8.065 -0.1694 -0.4613 -0.0652
 2630SOL    HW119523   3.112   3.011   8.110  2.2032 -1.0925 -2.8457
 2630SOL    HW219524   3.084   3.068   7.972 -0.9962  2.6037 -0.7853
 2631SOL     OW19525   1.524   2.427   2.091 -0.6484 -0.1477  0.0635
 2631SOL    HW119526   1.510   2.516   2.123 -1.7839 -0.4450  0.4174
 2631SOL    HW219527   1.619   2.429   2.086 -0.5971  0.4440  1.2825
 2632SOL     OW19528   0.846   4.617  15.176  0.0154  0.1641  0.1939
 2632SOL    HW119529   0.886   4.629  15.262  0.8247 -1.9169  0.1048
 2632SOL    HW219530   0.829   4.705  15.143 -1.1205 -0.9165 -2.1146
 2633SOL     OW19531   2.006   0.875   9.686 -0.0990  0.0285  0.3761
 2633SOL    HW119532   2.101   0.873   9.674 -0.3174  2.4588 -1.7456
 2633SOL    HW219533   1.997   0.970   9.681 -0.7422  0.0722  2.4105
 2634SOL     OW19534   0.208   2.824   4.084 -0.1465  0.0743  0.0715
 2634SOL    HW119535   0.200   2.894   4.149  0.1783 -0.9036  1.1783
 2634SOL    HW219536   0.225   2.761   4.155 -1.6786 -0.9249 -0.4575
 2635SOL     OW19537   4.109   0.967   4.598 -0.1765 -0.9140 -0.2116
 2635SOL    HW119538   4.148   1.012   4.672 -1.8944  0.6574 -0.2608
 2635SOL    HW219539   4.124   1.025   4.523  0.0804  0.5638  0.9838
 2636SOL     OW19540   0.298   1.476   2.012 -1.0028 -0.3326  0.0172
 2636SOL    HW119541   0.296   1.426   2.094 -1.6750  1.4678  1.0876
 2636SOL    HW219542   0.302   1.399   1.955 -0.6526 -1.0578  1.0175
 2637SOL     OW19543   3.945   1.514   2.267 -0.4880 -0.1548 -0.2169
 2637SOL    HW119544   3.863   1.511   2.317 -0.6184 -1.7687 -0.5162
 2637SOL    HW219545   3.926   1.448   2.200  0.8927 -1.9610  1.1762
 2638SOL     OW19546   0.987   2.139   2.623  0.1993  0.5175 -0.1507
 2638SOL    HW119547   1.019   2.216   2.575 -0.9787  0.1608 -1.5023
 2638SOL    HW219548   0.912   2.114   2.569  1.6256 -3.0957 -0.4538
 2639SOL     OW19549   3.961   0.398   2.804  0.3523  0.4725 -0.2644
 2639SOL    HW119550   4.039   0.431   2.759  2.0063 -2.9792  0.1013
 2639SOL    HW219551   3.894   0.408   2.736  0.9466  2.2590 -0.5718
 2640SOL     OW19552   1.081   1.123   8.764  0.1293 -0.5576 -0.3607
 2640SOL    HW119553   1.174   1.103   8.774 -0.3329 -1.7278  1.6987
 2640SOL    HW219554   1.059   1.193   8.825  1.4746 -0.4524 -0.0036
 2641SOL     OW19555   3.045   0.412   8.164 -0.1466 -0.5038 -0.1075
 2641SOL    HW119556   3.082   0.335   8.122  0.0638 -0.8396  0.6828
 2641SOL    HW219557   3.127   0.446   8.201 -0.3473  0.7351 -0.8247
 2642SOL     OW19558   2.824   1.684  12.653 -0.4997  0.4784  0.6444
 2642SOL    HW119559   2.776   1.690  12.736 -0.1618 -0.5227  0.9168
 2642SOL    HW219560   2.864   1.769  12.640 -0.4904  0.3090 -0.4625
 2643SOL     OW19561   3.654   4.397   5.029  0.9900 -0.1497 -0.1256
 2643SOL    HW119562   3.638   4.418   4.937  2.1457 -0.5249 -0.4199
 2643SOL    HW219563   3.722   4.461   5.051 -1.8922  3.1592 -1.0199
 2644SOL     OW19564   3.648   0.768   0.000  0.2277 -0.5842  0.3312
 2644SOL    HW119565   3.668   0.765   0.094  1.5043  1.0413  0.1144
 2644SOL    HW219566   3.581   0.700  17.769  1.0358 -1.3450 -0.5144
 2645SOL     OW19567   2.336   1.134   6.846 -0.3267  0.6275  0.3504
 2645SOL    HW119568   2.324   1.181   6.928  1.4589 -1.1100  1.6291
 2645SOL    HW219569   2.322   1.199   6.777 -0.3109  0.6026  0.3237
 2646SOL     OW19570   1.451   3.996   4.325 -0.3441 -0.4354 -0.2327
 2646SOL    HW119571   1.446   3.984   4.230  1.7805  1.5467 -0.5830
 2646SOL    HW219572   1.538   3.962   4.345 -1.0514 -1.3037  1.4536
 2647SOL     OW19573   2.527   2.775   3.930 -0.0007  0.0070 -0.1456
 2647SOL    HW119574   2.607   2.800   3.884  0.1685  1.1812  0.8022
 2647SOL    HW219575   2.563   2.721   4.001 -0.4750 -0.8058 -0.5129
 2648SOL     OW19576   1.221   0.428  11.728  0.1340 -1.0435 -0.0737
 2648SOL    HW119577   1.155   0.392  11.788 -0.2644 -0.2430 -0.0326
 2648SOL    HW219578   1.258   0.349  11.689 -2.2980 -2.2252 -0.0318
 2649SOL     OW19579   2.318   0.468   6.736  0.3877 -0.0174  0.5270
 2649SOL    HW119580   2.333   0.493   6.645 -0.6497 -0.8752  0.1254
 2649SOL    HW219581   2.396   0.505   6.776  0.8313  0.5864 -0.9033
 2650SOL     OW19582   2.976   2.270   6.119 -0.9364  0.0970 -0.2063
 2650SOL    HW119583   3.021   2.235   6.196 -0.0374 -1.0571 -1.2601
 2650SOL    HW219584   3.031   2.349   6.117  1.0936 -1.3019  0.6277
 2651SOL     OW19585   4.107   4.274   6.378 -0.0312  0.0805  0.4109
 2651SOL    HW119586   4.048   4.308   6.310  0.7512  0.6905  0.0261
 2651SOL    HW219587   4.058   4.198   6.409 -1.6233  1.1901  0.5859
 2652SOL     OW19588   0.895   3.941   3.582 -0.1257 -1.0010 -0.3678
 2652SOL    HW119589   0.943   3.871   3.538  0.8178 -0.3624 -0.3394
 2652SOL    HW219590   0.806   3.910   3.601 -0.9834  0.2392 -2.3165
 2653SOL     OW19591   3.573   3.696   9.472  0.0992 -0.4037 -0.0382
 2653SOL    HW119592   3.569   3.742   9.556  2.1156  0.5066 -0.4450
 2653SOL    HW219593   3.622   3.769   9.434  1.2535  0.7925  3.7411
 2654SOL     OW19594   3.123   1.608   3.848  0.0721 -0.0276  0.5936
 2654SOL    HW119595   3.075   1.681   3.886  1.1381  1.0383 -0.0983
 2654SOL    HW219596   3.213   1.636   3.864 -0.6406  2.5809 -0.0375
 2655SOL     OW19597   3.799   3.924   4.992 -0.0561 -0.1392  0.4237
 2655SOL    HW119598   3.817   3.830   5.002 -0.7671 -0.1397  1.6481
 2655SOL    HW219599   3.836   3.914   4.904 -0.3843 -0.8192  0.3611
 2656SOL     OW19600   1.060   1.158  14.823 -0.5235  0.0614 -0.1691
 2656SOL    HW119601   1.075   1.150  14.918  0.1347 -1.0010 -0.3686
 2656SOL    HW219602   1.107   1.237  14.796 -2.4259  0.5888 -1.9008
 2657SOL     OW19603   3.523   1.681   6.816 -0.1138 -0.4419 -0.0746
 2657SOL    HW119604   3.439   1.652   6.850  0.3747 -0.6219  0.9773
 2657SOL    HW219605   3.564   1.723   6.891 -3.3688  0.6400  1.1105
 2658SOL     OW19606   0.543   2.215   8.827 -0.3711 -0.8610  0.2213
 2658SOL    HW119607   0.624   2.266   8.827 -0.2032 -1.1298 -2.2119
 2658SOL    HW219608   0.551   2.177   8.914 -0.5995  0.6592  0.9016
 2659SOL     OW19609   0.023   3.079   6.906  0.0612 -0.6576 -0.0494
 2659SOL    HW119610   0.102   3.091   6.959  1.8396  1.1822 -3.0845
 2659SOL    HW219611   4.732   3.168   6.907  1.0456 -0.2621 -0.4077
 2660SOL     OW19612   0.311   1.103   2.465 -0.3436  0.1132 -0.6099
 2660SOL    HW119613   0.282   1.094   2.375  1.0762 -0.4195 -0.9989
 2660SOL    HW219614   0.237   1.062   2.510  0.0325 -1.1494 -1.1414
 2661SOL     OW19615   4.641   2.272   1.364 -0.1173  0.4383  0.2824
 2661SOL    HW119616   4.625   2.245   1.455 -0.8771  0.6292  0.2074
 2661SOL    HW219617   4.730   2.306   1.368 -0.1050  0.3833  0.4800
 2662SOL     OW19618   0.729   4.485   4.648  0.0825  0.7299 -0.3250
 2662SOL    HW119619   0.792   4.417   4.674  0.0376  0.4873 -0.8542
 2662SOL    HW219620   0.764   4.554   4.704 -1.2599  1.6213 -0.5972
 2663SOL     OW19621   0.699   1.008   4.822  0.3106  0.7211  0.2293
 2663SOL    HW119622   0.718   0.966   4.906  1.5060  0.2385 -0.2961
 2663SOL    HW219623   0.610   1.039   4.842 -0.0914 -1.0072  1.1295
 2664SOL     OW19624   2.839   1.109   9.367 -0.0495 -0.1765 -0.1445
 2664SOL    HW119625   2.751   1.085   9.395 -0.4248 -1.3740 -2.3536
 2664SOL    HW219626   2.882   1.124   9.451 -1.5078 -1.0966  0.7794
 2665SOL     OW19627   4.654   0.161   3.334 -0.2232 -0.0218 -0.1360
 2665SOL    HW119628   4.601   0.194   3.407 -0.0689 -0.5155  0.1992
 2665SOL    HW219629   4.618   0.076   3.310 -1.3792  0.7115 -0.9798
 2666SOL     OW19630   1.564   1.896   2.763 -0.4799  0.1627  0.2516
 2666SOL    HW119631   1.648   1.909   2.718 -0.4189 -0.2769  0.2392
 2666SOL    HW219632   1.566   1.818   2.819  0.9163 -1.4191 -1.9777
 2667SOL     OW19633   1.716   0.026   3.905 -0.6455 -0.1353  0.1567
 2667SOL    HW119634   1.737   4.714   3.830 -1.7952 -1.2472  0.6722
 2667SOL    HW219635   1.632   0.062   3.875 -0.8375 -1.0862 -0.4331
 2668SOL     OW19636   3.103   0.213   7.097  0.0810 -0.2239 -0.1284
 2668SOL    HW119637   3.162   0.274   7.140  1.3487 -0.9344 -0.8409
 2668SOL    HW219638   3.132   0.221   7.006  0.9992 -0.1098  0.1734
 2669SOL     OW19639   0.532   0.467   1.662  0.6942 -0.5649  0.6383
 2669SOL    HW119640   0.439   0.451   1.644  1.2791 -2.4704 -0.6955
 2669SOL    HW219641   0.534   0.547   1.714 -0.2095 -0.8737  1.1534
 2670SOL     OW19642   2.299   1.854   8.812 -0.1953 -0.1260  0.9828
 2670SOL    HW119643   2.318   1.934   8.761 -1.5215 -0.5742 -0.2080
 2670SOL    HW219644   2.217   1.825   8.772 -0.7809 -1.0752  2.9076
 2671SOL     OW19645   3.351   0.576   7.948  0.0469 -0.6200  0.0949
 2671SOL    HW119646   3.340   0.590   7.854 -2.7398 -0.1441  0.5029
 2671SOL    HW219647   3.410   0.502   7.943 -0.1732 -0.6591 -1.8714
 2672SOL     OW19648   0.725   2.169   2.498  0.0749  0.4806  0.0181
 2672SOL    HW119649   0.668   2.093   2.503  0.3638  0.1165 -2.3134
 2672SOL    HW219650   0.689   2.194   2.413  0.0346  1.5080  0.3426
 2673SOL     OW19651   2.706   2.468  10.398  0.4478 -0.3462  0.1607
 2673SOL    HW119652   2.681   2.406  10.467 -0.5601  0.0612  0.1609
 2673SOL    HW219653   2.737   2.548  10.441 -2.4413  1.7174 -1.6345
 2674SOL     OW19654   3.491   2.003   2.616 -0.0439  0.1818  0.0173
 2674SOL    HW119655   3.570   1.986   2.565  0.1953 -1.2121  0.8529
 2674SOL    HW219656   3.448   2.081   2.581 -0.1468  0.9009  1.7612
 2675SOL     OW19657   1.347   2.564   5.065  0.5326  0.5197  0.2623
 2675SOL    HW119658   1.297   2.552   4.984  2.1464  1.4705 -0.8674
 2675SOL    HW219659   1.293   2.619   5.123  1.7796  2.4462 -0.3944
 2676SOL     OW19660   1.417   2.179   1.367  0.6937  0.1300 -0.5280
 2676SOL    HW119661   1.388   2.270   1.377 -1.0236 -0.8000  2.6901
 2676SOL    HW219662   1.352   2.132   1.417  0.4066  1.1309  0.0327
 2677SOL     OW19663   2.070   1.207   6.049  0.0496  0.0756  0.1938
 2677SOL    HW119664   2.044   1.290   6.008 -2.2588 -1.9906 -2.4721
 2677SOL    HW219665   2.162   1.202   6.023  0.5692  0.8228  1.8410
 2678SOL     OW19666   3.545   0.109  13.243 -0.1913  0.7093 -0.0547
 2678SOL    HW119667   3.628   0.122  13.288 -0.3413  0.2701  0.3398
 2678SOL    HW219668   3.518   0.201  13.248  2.8451  1.7055 -2.0619
 2679SOL     OW19669   0.467   0.434  10.127 -0.3307  0.4796  0.0702
 2679SOL    HW119670   0.559   0.446  10.148  0.3668 -0.1384 -2.6120
 2679SOL    HW219671   0.460   0.347  10.087 -1.0184 -1.0741  3.5987
 2680SOL     OW19672   1.972   2.520   6.700 -0.2385  0.2678 -0.0766
 2680SOL    HW119673   1.961   2.425   6.701  1.9295 -0.0179 -2.0925
 2680SOL    HW219674   1.895   2.550   6.652  0.3015  1.6815 -0.0741
 2681SOL     OW19675   1.987   2.184   9.516  0.6904 -0.2211 -0.3462
 2681SOL    HW119676   1.980   2.246   9.444 -2.3542 -1.7736 -1.3664
 2681SOL    HW219677   1.916   2.122   9.497  1.3564 -0.9100 -0.5990
 2682SOL     OW19678   1.350   0.424   4.228  0.5980 -0.2222  0.2248
 2682SOL    HW119679   1.395   0.478   4.162 -1.1495 -0.4344 -1.1320
 2682SOL    HW219680   1.347   0.497   4.289 -0.3305 -0.6201  0.6449
 2683SOL     OW19681   2.268   3.652   1.767  0.3931 -0.0469 -0.3109
 2683SOL    HW119682   2.249   3.644   1.860 -2.3657 -0.9058 -0.9387
 2683SOL    HW219683   2.361   3.673   1.771 -0.3794  3.0238  1.5235
 2684SOL     OW19684   4.691   1.075  17.064  0.0004  0.6750  0.0761
 2684SOL    HW119685   4.697   1.083  16.969 -1.8186  1.7601  0.0434
 2684SOL    HW219686   0.034   1.108  17.086  0.6870 -0.9678 -0.1799
 2685SOL     OW19687   2.666   1.017   4.379  0.0105 -0.2089  0.1217
 2685SOL    HW119688   2.598   1.054   4.435  0.9081  2.6399 -0.6867
 2685SOL    HW219689   2.621   0.945   4.334 -0.4761 -0.0042  0.2826
 2686SOL     OW19690   1.674   4.090  12.374 -0.0234  0.2067 -0.2561
 2686SOL    HW119691   1.651   4.167  12.322 -0.5429  1.2091  1.4668
 2686SOL    HW219692   1.709   4.036  12.302  0.6935  0.6376 -0.2335
 2687SOL     OW19693   1.600   3.305   6.992 -0.0437 -0.0873 -0.0726
 2687SOL    HW119694   1.604   3.326   6.899 -0.6577  2.0891  0.3800
 2687SOL    HW219695   1.535   3.373   7.009 -0.3017 -0.4133  0.2431
 2688SOL     OW19696   2.511   2.552   6.763 -0.0471 -0.0181 -0.5186
 2688SOL    HW119697   2.497   2.491   6.691  1.4883  0.5448 -1.2780
 2688SOL    HW219698   2.423   2.589   6.760 -1.0955 -2.6252 -1.8517
 2689SOL     OW19699   2.205   4.358   8.825  0.3438  0.0955  0.0991
 2689SOL    HW119700   2.185   4.279   8.874 -1.2700  0.7386  0.4951
 2689SOL    HW219701   2.263   4.408   8.882  0.3317 -0.6176  0.7268
 2690SOL     OW19702   4.709   4.022   2.846  0.5802  0.1361  0.9609
 2690SOL    HW119703   4.638   3.960   2.834  0.2584  0.7160 -0.0742
 2690SOL    HW219704   4.676   4.084   2.912 -0.1912  2.3821 -1.5389
 2691SOL     OW19705   2.684   4.013   8.898  0.4395 -0.3358  0.3546
 2691SOL    HW119706   2.612   3.969   8.943  0.9511 -1.0593  0.4756
 2691SOL    HW219707   2.728   3.937   8.860  1.0562  0.7379 -1.0682
 2692SOL     OW19708   0.550   2.007   9.257 -0.0887 -1.0635 -0.6780
 2692SOL    HW119709   0.455   2.004   9.248 -0.2732  0.3518  0.6283
 2692SOL    HW219710   0.559   2.090   9.305  2.8835 -0.6101 -2.0100
 2693SOL     OW19711   1.653   4.082   6.235 -0.1856 -0.2595  0.0306
 2693SOL    HW119712   1.626   4.099   6.326 -1.3161 -1.2147 -0.1221
 2693SOL    HW219713   1.720   4.150   6.227 -0.1521 -0.1141  1.4339
 2694SOL     OW19714   2.206   0.452   5.693  0.1425 -0.1020 -0.1937
 2694SOL    HW119715   2.182   0.446   5.785  1.2461 -0.4038  0.0802
 2694SOL    HW219716   2.270   0.383   5.676  0.7212  0.4574 -0.3388
 2695SOL     OW19717   2.290   4.491   5.449 -0.0166 -0.1224 -0.0570
 2695SOL    HW119718   2.342   4.410   5.447 -0.2397 -0.3003  1.2209
 2695SOL    HW219719   2.198   4.463   5.440 -0.3505  1.0157 -0.1375
 2696SOL     OW19720   0.550   3.241  15.340 -0.0022  0.0829 -0.5095
 2696SOL    HW119721   0.583   3.155  15.367  0.5003  0.1249 -0.9907
 2696SOL    HW219722   0.499   3.216  15.262  1.5092  0.7682 -1.7100
 2697SOL     OW19723   0.991   3.630  14.496 -0.2149 -0.0838 -0.6571
 2697SOL    HW119724   1.019   3.550  14.451 -0.1397 -1.9633  2.7885
 2697SOL    HW219725   0.926   3.649  14.428 -0.6665  0.3240 -0.1064
 2698SOL     OW19726   2.689   2.477  17.068  0.3601 -0.3635  0.4963
 2698SOL    HW119727   2.625   2.430  17.014 -0.3853 -0.1548  1.1944
 2698SOL    HW219728   2.629   2.535  17.115 -0.2213 -0.0957 -0.5702
 2699SOL     OW19729   1.351   0.637   2.753  0.1441 -0.0366  0.4558
 2699SOL    HW119730   1.314   0.560   2.796  0.8601 -0.4227  0.3893
 2699SOL    HW219731   1.324   0.711   2.808  0.0411  0.5440 -0.3884
 2700SOL     OW19732   1.059   2.186   1.170  0.7495 -0.0175  0.7649
 2700SOL    HW119733   1.051   2.113   1.232 -1.3925 -0.9904 -0.6379
 2700SOL    HW219734   1.077   2.250   1.239  3.2035  0.0953  0.0029
 2701SOL     OW19735   4.410   1.736   9.054 -0.0105  0.4172 -0.4914
 2701SOL    HW119736   4.369   1.675   9.116 -0.7388 -0.2566 -1.6420
 2701SOL    HW219737   4.493   1.748   9.100  1.3141 -1.4922 -2.4284
 2702SOL     OW19738   0.867   0.856   7.157  0.4471 -0.2749  0.5826
 2702SOL    HW119739   0.943   0.903   7.193  1.6005 -0.3167 -1.7880
 2702SOL    HW219740   0.864   0.910   7.078  0.5828  2.6313  2.5366
 2703SOL     OW19741   0.264   0.874   1.983  0.1916 -0.5542  0.2449
 2703SOL    HW119742   0.315   0.934   1.928 -0.4796 -0.5807 -0.4113
 2703SOL    HW219743   0.330   0.806   1.984  0.3146 -0.4359  0.2031
 2704SOL     OW19744   2.120   3.407  16.545  0.4232  0.0417 -1.1319
 2704SOL    HW119745   2.199   3.412  16.598 -0.4743 -1.1301  0.3175
 2704SOL    HW219746   2.064   3.474  16.583  0.2126  0.0337 -1.4245
 2705SOL     OW19747   0.205   1.323   8.607 -0.4951  0.3827 -0.7141
 2705SOL    HW119748   0.184   1.360   8.692 -1.8682  0.9193 -1.2755
 2705SOL    HW219749   0.274   1.386   8.586 -0.3086  1.0906  2.0840
 2706SOL     OW19750   2.386   2.550   4.558 -1.2549  0.0330 -0.0974
 2706SOL    HW119751   2.369   2.459   4.582 -0.0321 -0.2296 -0.1861
 2706SOL    HW219752   2.305   2.594   4.580 -1.0285 -0.1136  1.0405
 2707SOL     OW19753   0.945   2.572   1.934  0.2172 -0.1244 -0.1440
 2707SOL    HW119754   1.033   2.533   1.943  0.2480 -0.4101 -1.7150
 2707SOL    HW219755   0.962   2.592   1.842  1.9181  2.1066  0.6538
 2708SOL     OW19756   1.808   2.593   7.860 -0.1514 -0.2615  0.2332
 2708SOL    HW119757   1.818   2.538   7.782  0.5446  1.4077 -0.8568
 2708SOL    HW219758   1.728   2.563   7.903  0.0248  0.1514  0.8366
 2709SOL     OW19759   0.662   1.615  13.055  0.3024 -0.0468 -0.3499
 2709SOL    HW119760   0.687   1.522  13.054  0.9201  0.1143  0.0114
 2709SOL    HW219761   0.714   1.650  12.982 -1.1214  2.3891 -0.1826
 2710SOL     OW19762   2.031   1.729   7.796  0.2895 -0.7517  0.7091
 2710SOL    HW119763   2.028   1.644   7.840  0.4340 -1.7665 -1.2328
 2710SOL    HW219764   1.938   1.748   7.803  0.9266  2.8443 -0.7043
 2711SOL     OW19765   3.942   1.099   7.742  0.0452 -0.1062 -0.6120
 2711SOL    HW119766   3.864   1.139   7.779  0.8154  0.4638  0.3990
 2711SOL    HW219767   3.959   1.153   7.664  0.5775 -1.0159 -1.1254
 2712SOL     OW19768   1.170   1.207   9.446 -0.2029 -0.0844 -0.4936
 2712SOL    HW119769   1.219   1.196   9.364 -1.9052 -1.3017 -1.3563
 2712SOL    HW219770   1.080   1.219   9.416 -0.4728 -0.9755 -0.0584
 2713SOL     OW19771   1.017   1.578  10.242 -0.3863 -0.6598  0.2210
 2713SOL    HW119772   1.041   1.489  10.217  1.1472  0.4089 -2.1460
 2713SOL    HW219773   1.094   1.606  10.291  0.2035 -0.4145 -0.8365
 2714SOL     OW19774   3.140   0.141  10.538 -0.1234  0.0138  0.1936
 2714SOL    HW119775   3.088   0.100  10.468 -0.1178  0.1339  0.1189
 2714SOL    HW219776   3.082   0.216  10.547  0.8236  0.6914  0.5469
 2715SOL     OW19777   1.883   2.589   6.961  0.4650  0.2825 -0.4381
 2715SOL    HW119778   1.927   2.565   6.880  3.2785 -0.0474  1.1986
 2715SOL    HW219779   1.792   2.574   6.937  1.1200 -0.2295 -2.5837
 2716SOL     OW19780   3.291   3.577   5.896  0.2283 -0.1142 -0.1546
 2716SOL    HW119781   3.203   3.574   5.860  0.2008  3.2874 -0.3807
 2716SOL    HW219782   3.281   3.658   5.946  0.7287  0.5172 -1.0838
 2717SOL     OW19783   2.822   0.440  12.115 -0.1276 -0.3566  0.4101
 2717SOL    HW119784   2.768   0.385  12.171 -0.4946  2.2892  2.6803
 2717SOL    HW219785   2.787   0.410  12.031 -1.8233  2.2360  0.1843
 2718SOL     OW19786   0.060   2.148   8.562  0.2726  0.0830 -0.3325
 2718SOL    HW119787   0.092   2.202   8.489  2.4114 -1.0885 -0.2519
 2718SOL    HW219788   0.142   2.147   8.611 -0.0222  1.7112  0.2059
 2719SOL     OW19789   2.897   4.034   9.443  0.0987  0.3337  0.5979
 2719SOL    HW119790   2.981   4.049   9.399  0.9496  0.0526  2.1359
 2719SOL    HW219791   2.913   4.068   9.531  0.2596 -0.7636  0.9952
 2720SOL     OW19792   2.951   4.652   4.764  0.1476 -0.0036 -0.1991
 2720SOL    HW119793   2.869   4.609   4.789 -0.1415  0.1074 -0.9425
 2720SOL    HW219794   2.935   0.000   4.784 -1.5307 -1.0077  3.0047
 2721SOL     OW19795   0.950   3.043   2.698 -0.1725  0.4479 -0.1739
 2721SOL    HW119796   0.865   3.041   2.742 -0.4894  2.2524 -0.6811
 2721SOL    HW219797   1.010   3.028   2.770 -0.2213  1.4753  0.0913
 2722SOL     OW19798   3.492   4.477   7.989 -0.2588 -0.1558  0.1646
 2722SOL    HW119799   3.583   4.494   7.966 -1.1622  1.8464 -1.9876
 2722SOL    HW219800   3.472   4.384   7.979  1.0444 -0.4782  0.4993
 2723SOL     OW19801   1.161   0.806   2.334 -0.0828  0.1453  0.2871
 2723SOL    HW119802   1.229   0.830   2.397 -0.2809  3.9508 -0.9186
 2723SOL    HW219803   1.096   0.876   2.343 -2.0411 -1.8390  1.6598
 2724SOL     OW19804   0.103   3.426  17.453 -0.3239 -0.1476  0.6495
 2724SOL    HW119805   0.087   3.493  17.386 -0.4663 -3.7275 -2.9150
 2724SOL    HW219806   0.057   3.350  17.417  0.2978 -0.8644  1.3899
 2725SOL     OW19807   1.385   4.086   5.407 -0.1122 -0.0147 -0.1967
 2725SOL    HW119808   1.342   4.028   5.470 -2.5538 -0.1247 -1.9830
 2725SOL    HW219809   1.337   4.168   5.411  0.0862  0.0776  0.3466
 2726SOL     OW19810   1.129   1.324   8.942 -0.1408  0.0489  0.2522
 2726SOL    HW119811   1.222   1.319   8.965 -0.0427  0.1794 -0.1169
 2726SOL    HW219812   1.085   1.352   9.022  1.1427  2.3395  0.1512
 2727SOL     OW19813   2.551   4.093   8.334 -0.0468 -0.0476  0.4143
 2727SOL    HW119814   2.504   4.081   8.417 -0.7085 -0.0238  0.0414
 2727SOL    HW219815   2.635   4.053   8.357 -0.3084 -0.6804  0.2600
 2728SOL     OW19816   4.356   2.874   5.228  0.5168 -0.2081  0.1426
 2728SOL    HW119817   4.337   2.792   5.273  0.0945 -0.1517  0.0630
 2728SOL    HW219818   4.385   2.931   5.299 -0.4072 -0.6256  0.8475
 2729SOL     OW19819   0.523   0.133   6.684  0.1081 -0.2411 -0.2038
 2729SOL    HW119820   0.560   0.049   6.657 -1.7746 -0.6321 -1.5544
 2729SOL    HW219821   0.433   0.111   6.708 -0.4406  0.4303 -1.6793
 2730SOL     OW19822   4.741   0.171   8.570  0.2875 -0.3752  0.0645
 2730SOL    HW119823   0.083   0.177   8.612  1.8715 -1.4671 -2.9984
 2730SOL    HW219824   4.717   0.254   8.530  2.3494  1.3679  2.4286
 2731SOL     OW19825   0.403   1.964   3.247  0.4166 -0.2638  0.5670
 2731SOL    HW119826   0.445   2.005   3.323  2.9155 -1.6815 -0.0465
 2731SOL    HW219827   0.469   1.980   3.179 -0.7126  0.1094 -0.4389
 2732SOL     OW19828   2.574   4.256   9.058 -0.0591 -0.4922  0.5543
 2732SOL    HW119829   2.576   4.162   9.075  1.3427 -0.2156  1.9722
 2732SOL    HW219830   2.625   4.266   8.978  0.3330 -0.1881  0.8390
 2733SOL     OW19831   1.694   0.565   6.450 -0.1375 -0.4802  0.5909
 2733SOL    HW119832   1.760   0.537   6.385  0.7401 -2.3500  2.2781
 2733SOL    HW219833   1.656   0.478   6.461 -0.7590 -0.2606  0.1692
 2734SOL     OW19834   1.534   1.990   9.510  0.2409  0.1835 -0.1593
 2734SOL    HW119835   1.531   2.084   9.491  1.8459  0.2337 -0.1329
 2734SOL    HW219836   1.507   1.949   9.428 -0.5639 -0.6603  0.5293
 2735SOL     OW19837   2.480   3.988   9.069 -0.4124 -0.7426  0.6378
 2735SOL    HW119838   2.413   4.037   9.022  0.6847 -1.2818 -1.4911
 2735SOL    HW219839   2.429   3.928   9.124  0.5991 -1.2826  0.9996
 2736SOL     OW19840   3.946   1.471   5.459 -0.1659 -0.1841  0.9011
 2736SOL    HW119841   3.876   1.420   5.499 -0.2002  0.2388  1.3813
 2736SOL    HW219842   3.897   1.514   5.388 -3.5481  1.3904  4.1728
 2737SOL     OW19843   0.984   2.858   7.388  0.0724 -0.0837  0.1707
 2737SOL    HW119844   1.001   2.926   7.454  0.2748 -0.7394  0.7983
 2737SOL    HW219845   0.906   2.886   7.341  0.0163 -1.4524 -0.5514
 2738SOL     OW19846   3.826   4.589  12.684  0.1736  0.2124  0.6988
 2738SOL    HW119847   3.860   4.661  12.631 -0.1612 -0.5555 -0.5512
 2738SOL    HW219848   3.874   4.515  12.649  1.2716  1.3950 -0.3011
 2739SOL     OW19849   4.601   3.314   6.906  0.0108 -0.2478  0.1878
 2739SOL    HW119850   4.590   3.320   6.811 -0.6613  0.3619  0.3071
 2739SOL    HW219851   4.625   3.404   6.926 -1.6343  0.3104 -0.3739
 2740SOL     OW19852   2.329   4.557   7.799 -0.0134 -0.3608  0.7913
 2740SOL    HW119853   2.292   4.596   7.879  0.5939 -1.4012  1.5698
 2740SOL    HW219854   2.359   4.634   7.751 -2.0543 -1.5037 -2.3117
 2741SOL     OW19855   1.319   4.284   1.737  0.6931  0.2110  0.0363
 2741SOL    HW119856   1.305   4.196   1.772 -0.1077 -0.4946 -2.0373
 2741SOL    HW219857   1.350   4.331   1.815  2.3246  0.6516 -0.8609
 2742SOL     OW19858   2.234   2.886   5.900 -0.1424  0.5078 -0.4869
 2742SOL    HW119859   2.261   2.799   5.873 -0.5713  0.2814 -0.1851
 2742SOL    HW219860   2.144   2.870   5.929  0.3061 -0.8243  0.1827
 2743SOL     OW19861   2.249   0.008   9.665 -0.6621  0.0406  0.1517
 2743SOL    HW119862   2.176   4.716   9.715 -0.3222  1.1974  1.4734
 2743SOL    HW219863   2.245   4.689   9.593  0.9395  0.8495 -0.6610
 2744SOL     OW19864   0.833   4.491   3.978 -0.1304 -0.2846  0.0487
 2744SOL    HW119865   0.885   4.475   3.899  0.3993  0.1192  0.3127
 2744SOL    HW219866   0.885   4.450   4.047  2.7941  1.8313 -0.8942
 2745SOL     OW19867   0.900   1.119  13.009  0.4963 -0.1717  0.6064
 2745SOL    HW119868   0.855   1.045  13.049  0.2964 -0.3371  0.0657
 2745SOL    HW219869   0.979   1.125  13.063  0.7085 -0.8518  0.3693
 2746SOL     OW19870   3.893   4.371   2.508 -0.4612 -0.5956  0.6141
 2746SOL    HW119871   3.937   4.413   2.435 -0.0601  1.2465  1.9180
 2746SOL    HW219872   3.836   4.442   2.535 -1.9814 -0.9068 -1.7884
 2747SOL     OW19873   4.114   2.529   3.790  0.6450  0.4499  0.2194
 2747SOL    HW119874   4.061   2.603   3.761  0.2629  0.7692  1.7315
 2747SOL    HW219875   4.196   2.574   3.813  0.2420  1.5243 -0.4543
 2748SOL     OW19876   3.437   2.592  16.872 -0.1567  0.0339 -1.1685
 2748SOL    HW119877   3.472   2.508  16.842 -0.6785  0.5379 -3.2245
 2748SOL    HW219878   3.510   2.652  16.861 -0.4376  0.3431 -1.3594
 2749SOL     OW19879   2.680   2.825   9.034  0.5053  0.2823 -0.1649
 2749SOL    HW119880   2.744   2.762   9.067 -0.7584 -1.0261 -0.1769
 2749SOL    HW219881   2.677   2.892   9.102  1.1410  0.7409 -0.5883
 2750SOL     OW19882   3.430   3.043   6.222 -0.1168 -0.1675 -0.5109
 2750SOL    HW119883   3.335   3.040   6.218 -0.0492 -1.6829 -1.0646
 2750SOL    HW219884   3.451   2.960   6.265  0.2240 -0.2865 -0.8984
 2751SOL     OW19885   3.912   1.335  11.505 -0.1505  0.1083 -0.1253
 2751SOL    HW119886   3.875   1.257  11.544 -0.2378 -1.1694 -2.7242
 2751SOL    HW219887   3.998   1.300  11.480 -0.8082 -0.5583 -1.4712
 2752SOL     OW19888   2.767   3.442   7.787  0.3650 -0.0653 -0.2100
 2752SOL    HW119889   2.819   3.398   7.721  0.9685  2.5391 -1.4845
 2752SOL    HW219890   2.831   3.479   7.848  2.0229  0.6843 -2.3974
 2753SOL     OW19891   3.186   0.778  11.546 -0.4018  0.0608 -0.0610
 2753SOL    HW119892   3.241   0.843  11.590 -1.6027  0.5663  0.7030
 2753SOL    HW219893   3.239   0.732  11.481  1.1176  0.1031  1.1604
 2754SOL     OW19894   4.143   3.197   6.447  0.4916 -0.0431 -0.0640
 2754SOL    HW119895   4.167   3.285   6.474  0.2964  0.3395 -1.1656
 2754SOL    HW219896   4.060   3.214   6.403  0.4957  1.0607  0.3647
 2755SOL     OW19897   0.764   4.246  17.765  0.4600 -0.3818  0.2735
 2755SOL    HW119898   0.788   4.210  17.680  0.1749 -0.7778  0.3577
 2755SOL    HW219899   0.849   4.281   0.020  1.1249 -2.3734  0.7616
 2756SOL     OW19900   3.716   2.382   3.675  0.2072 -0.4039 -0.1848
 2756SOL    HW119901   3.716   2.289   3.697 -2.4336 -0.9766 -2.5183
 2756SOL    HW219902   3.735   2.369   3.582  1.6195  0.9018 -0.0742
 2757SOL     OW19903   3.551   1.152   7.537  0.1734  0.1806  0.3466
 2757SOL    HW119904   3.467   1.180   7.574 -0.9301 -0.6544 -1.5082
 2757SOL    HW219905   3.606   1.230   7.543 -1.0704  1.0632  0.5044
 2758SOL     OW19906   0.632   2.539  10.516 -0.1169 -0.4891  0.6272
 2758SOL    HW119907   0.581   2.586  10.582 -2.3257  0.9916 -2.1301
 2758SOL    HW219908   0.721   2.567  10.537 -0.2520 -2.0488  3.2143
 2759SOL     OW19909   4.699   3.814  17.372 -0.3803 -0.2068 -0.4094
 2759SOL    HW119910   0.012   3.753  17.326 -0.1338  0.3798 -0.8821
 2759SOL    HW219911   4.742   3.823  17.457  1.7504  1.7054 -1.6846
 2760SOL     OW19912   2.939   3.297   6.107  0.4319  0.3529  0.3556
 2760SOL    HW119913   2.854   3.342   6.101 -0.5540 -1.6496 -0.9463
 2760SOL    HW219914   2.948   3.259   6.020 -2.8809 -1.5093  0.7997
 2761SOL     OW19915   2.429   0.551   6.495 -0.2360 -0.1232 -0.0773
 2761SOL    HW119916   2.505   0.497   6.513 -0.4788 -0.4003  0.1287
 2761SOL    HW219917   2.452   0.629   6.546 -1.1940  1.4782 -2.0838
 2762SOL     OW19918   3.986   3.826   2.590 -0.3863  0.2725 -0.5179
 2762SOL    HW119919   3.912   3.863   2.637  1.8185  1.3831  2.0828
 2762SOL    HW219920   3.961   3.735   2.601  2.1159 -0.3736 -0.1736
 2763SOL     OW19921   0.586   1.887   3.708  0.4419 -0.0551 -0.3215
 2763SOL    HW119922   0.535   1.806   3.708 -0.3481  0.4371 -2.4063
 2763SOL    HW219923   0.671   1.864   3.671 -0.9067 -2.3635 -2.0204
 2764SOL     OW19924   0.067   3.254  16.151  0.2680  0.5526  0.3519
 2764SOL    HW119925   0.004   3.181  16.152 -0.8679  1.5333  0.7883
 2764SOL    HW219926   0.137   3.215  16.202 -0.2331  0.1247  0.7132
 2765SOL     OW19927   4.339   1.833   6.314 -0.4661  0.0747  0.2637
 2765SOL    HW119928   4.289   1.778   6.374  0.4493 -2.2718 -1.1039
 2765SOL    HW219929   4.270   1.876   6.263 -0.4338  0.7625  0.8042
 2766SOL     OW19930   1.699   3.445   7.263 -0.2324  0.7594 -0.0957
 2766SOL    HW119931   1.652   3.488   7.192  0.1098  0.3452 -0.5747
 2766SOL    HW219932   1.772   3.402   7.217 -1.2210  0.0482 -0.9978
 2767SOL     OW19933   2.322   2.734   9.071  0.5235 -0.6139 -0.1395
 2767SOL    HW119934   2.305   2.660   9.129 -0.7389 -0.8023 -0.7663
 2767SOL    HW219935   2.418   2.730   9.069  0.5197 -1.3239  1.3909
 2768SOL     OW19936   2.084   0.337   5.909  0.5490 -0.4861  0.0610
 2768SOL    HW119937   1.998   0.375   5.893  1.3390  1.0791 -0.5031
 2768SOL    HW219938   2.089   0.285   5.829  1.5054 -0.2408 -0.0359
 2769SOL     OW19939   4.559   2.447  12.763 -0.0905 -0.1349 -0.7218
 2769SOL    HW119940   4.584   2.356  12.750  1.2472  0.5923 -3.1437
 2769SOL    HW219941   4.612   2.480  12.835 -2.0178 -0.6641  0.9604
 2770SOL     OW19942   0.093   2.843   7.269  0.2383  0.2204  0.2628
 2770SOL    HW119943   0.035   2.883   7.333  1.9550  0.3017  1.7555
 2770SOL    HW219944   0.043   2.820   7.190  0.2107  2.0229 -0.2248
 2771SOL     OW19945   1.459   3.395   3.724  0.1258  0.1741 -0.1733
 2771SOL    HW119946   1.509   3.420   3.646 -1.1840 -0.4327 -1.2132
 2771SOL    HW219947   1.479   3.473   3.776 -2.0508  0.2546  0.5476
 2772SOL     OW19948   2.575   0.794   9.726 -0.5084 -0.3585  0.6992
 2772SOL    HW119949   2.619   0.744   9.795  1.9785  0.7145 -0.1202
 2772SOL    HW219950   2.519   0.850   9.780  0.0082  0.8289  0.0101
 2773SOL     OW19951   2.743   0.148  16.819 -0.4373 -0.2569  0.5882
 2773SOL    HW119952   2.734   0.107  16.906  1.5922 -0.8956  0.5121
 2773SOL    HW219953   2.812   0.085  16.796  0.4243  1.2460 -0.9443
 2774SOL     OW19954   2.846   1.201   6.005  0.3926 -0.0031 -0.1160
 2774SOL    HW119955   2.891   1.219   5.922 -0.1117  1.4873 -0.0717
 2774SOL    HW219956   2.824   1.113   5.975  0.6197  0.0296 -0.3847
 2775SOL     OW19957   2.179   0.946  15.973 -0.5994  0.2152  0.2885
 2775SOL    HW119958   2.246   0.952  16.042  0.7967  2.8302 -1.3235
 2775SOL    HW219959   2.101   0.968  16.024 -0.2330 -1.9661  1.8124
 2776SOL     OW19960   0.601   0.676   2.514  0.5623 -0.2675 -0.5105
 2776SOL    HW119961   0.514   0.638   2.508  1.1665 -1.3874 -2.0466
 2776SOL    HW219962   0.622   0.665   2.607  1.0815  1.3289 -0.4402
 2777SOL     OW19963   3.331   0.495   9.914 -0.3915  0.0688  0.0029
 2777SOL    HW119964   3.361   0.573   9.866  1.8006 -2.3462 -2.5060
 2777SOL    HW219965   3.270   0.456   9.852 -0.2414 -1.2175  0.6614
 2778SOL     OW19966   2.376   4.436   5.154 -0.1625  0.1705 -0.3654
 2778SOL    HW119967   2.467   4.457   5.174  0.0436  0.8830 -2.0113
 2778SOL    HW219968   2.322   4.478   5.221 -1.0640 -1.6068  0.0262
 2779SOL     OW19969   0.991   0.662  10.619  0.1490  0.2725 -0.0449
 2779SOL    HW119970   0.970   0.754  10.638  1.1475  0.3420  0.7400
 2779SOL    HW219971   0.957   0.633  10.703  0.0153 -0.0604 -0.2157
 2780SOL     OW19972   1.208   1.816   1.271  0.3819 -0.1615  0.2990
 2780SOL    HW119973   1.150   1.859   1.334  1.3387 -0.2744  1.2614
 2780SOL    HW219974   1.151   1.751   1.230  1.9927 -1.5856  0.3094
 2781SOL     OW19975   4.346   4.677   6.630  0.2622 -0.3014 -0.0489
 2781SOL    HW119976   4.291   4.720   6.564  1.6619 -0.8582 -1.5950
 2781SOL    HW219977   4.283   4.674   6.702  0.3681  2.7491  0.1377
 2782SOL     OW19978   3.214   4.721   3.318  0.1256 -0.0060  0.4512
 2782SOL    HW119979   3.195   0.023   3.236 -0.2477  0.3614  0.7459
 2782SOL    HW219980   3.268   0.037   3.369 -0.3578  0.5516  0.3093
 2783SOL     OW19981   2.082   0.487   8.492  0.2282  0.4871  0.6416
 2783SOL    HW119982   2.095   0.462   8.400 -1.3383  0.2512  0.4895
 2783SOL    HW219983   2.085   0.403   8.538  4.0126  1.2482  1.7876
 2784SOL     OW19984   2.301   0.535   6.263  0.0457 -0.2425  0.6397
 2784SOL    HW119985   2.355   0.476   6.210  1.6465  0.5164  1.4467
 2784SOL    HW219986   2.351   0.535   6.344  0.0938  1.0147  0.6011
 2785SOL     OW19987   0.326   2.437   5.519 -0.0523 -0.4648 -0.7877
 2785SOL    HW119988   0.270   2.477   5.586 -1.4560 -2.5029 -0.7678
 2785SOL    HW219989   0.288   2.497   5.454 -0.8405 -1.0728 -0.8777
 2786SOL     OW19990   0.383   4.604   8.170  0.0688  0.0066 -0.0822
 2786SOL    HW119991   0.318   4.546   8.208  1.1656  0.5666  2.6575
 2786SOL    HW219992   0.454   4.587   8.232 -1.0039  0.0324  1.1429
 2787SOL     OW19993   0.263   1.207   7.806  0.1009 -0.5699 -0.3917
 2787SOL    HW119994   0.236   1.229   7.895 -0.1818  0.2651 -0.6888
 2787SOL    HW219995   0.244   1.286   7.757  0.5064  1.8246  3.3349
 2788SOL     OW19996   3.525   3.238   2.028 -0.5580  0.3579 -0.1215
 2788SOL    HW119997   3.513   3.163   2.086  1.7415  0.8011  0.9446
 2788SOL    HW219998   3.598   3.289   2.064 -0.0561 -1.5931  1.6417
 2789SOL     OW19999   4.275   0.202   6.094  0.7701  0.3473 -0.2726
 2789SOL    HW120000   4.236   0.198   6.181  0.7372 -0.9159 -0.3455
 2789SOL    HW220001   4.358   0.158   6.115 -0.0492  0.6780  3.6327
 2790SOL     OW20002   4.673   2.011   4.878  0.6567  0.3786  0.2849
 2790SOL    HW120003   4.653   2.079   4.814 -0.4315  0.6848  0.9688
 2790SOL    HW220004   4.651   1.932   4.828  2.2393 -0.5483  1.0464
 2791SOL     OW20005   1.216   2.857  13.864 -0.4736  0.0167 -0.0638
 2791SOL    HW120006   1.141   2.801  13.844 -0.8031  0.3254  0.2950
 2791SOL    HW220007   1.277   2.798  13.908 -1.2515 -0.0514  0.9174
 2792SOL     OW20008   1.944   3.526   1.773  0.5033  0.0906 -0.0159
 2792SOL    HW120009   1.979   3.438   1.756 -1.7791 -0.8828  0.3018
 2792SOL    HW220010   1.861   3.509   1.818 -0.1426 -0.7654 -1.5211
 2793SOL     OW20011   0.998   2.645   5.455  0.0027 -0.2405 -0.1678
 2793SOL    HW120012   0.907   2.617   5.461 -0.4190  1.1422  0.0924
 2793SOL    HW220013   0.997   2.729   5.502 -2.9610 -0.0359 -0.5728
 2794SOL     OW20014   0.397   3.222   2.268 -0.1732 -0.0958 -0.0392
 2794SOL    HW120015   0.312   3.177   2.274 -1.0006  1.4128 -0.3234
 2794SOL    HW220016   0.384   3.295   2.208 -1.5808 -0.3592 -0.0639
 2795SOL     OW20017   3.995   3.269  14.464  0.4457  0.3056 -0.0744
 2795SOL    HW120018   4.088   3.284  14.447  0.7063  0.0440  1.1325
 2795SOL    HW220019   3.985   3.178  14.433  0.5323 -0.0623  0.9864
 2796SOL     OW20020   1.053   3.883   4.306 -0.0591 -0.9709  0.3462
 2796SOL    HW120021   0.958   3.892   4.304 -0.0617 -1.3836 -1.7433
 2796SOL    HW220022   1.064   3.811   4.245  0.4363 -1.0828  0.5670
 2797SOL     OW20023   0.246   4.689   2.410 -0.7119  0.1940 -0.2437
 2797SOL    HW120024   0.277   4.690   2.319  0.6931  0.6152  0.2559
 2797SOL    HW220025   0.255   4.595   2.428  0.7360  0.6876  1.5568
 2798SOL     OW20026   3.602   1.965  12.040  0.0204  0.1826  0.1076
 2798SOL    HW120027   3.694   1.981  12.018  0.7519  0.1226  3.1218
 2798SOL    HW220028   3.555   1.972  11.956  1.3140 -1.1741 -0.7186
 2799SOL     OW20029   0.456   3.499  14.878 -0.0638 -0.3770  0.0967
 2799SOL    HW120030   0.464   3.450  14.960 -0.0173 -3.2360 -1.6264
 2799SOL    HW220031   0.466   3.439  14.804  2.9141  0.5634 -0.2284
 2800SOL     OW20032   3.402   3.259  16.182 -0.3305 -0.0264  0.5159
 2800SOL    HW120033   3.481   3.252  16.129 -0.9618  0.8297 -0.5320
 2800SOL    HW220034   3.428   3.331  16.239 -2.9550 -0.0736  1.7621
 2801SOL     OW20035   1.485   3.668   1.828 -1.2366  0.3823  0.3700
 2801SOL    HW120036   1.477   3.695   1.919  0.5735  0.5141  0.4985
 2801SOL    HW220037   1.412   3.607   1.821  1.3369 -2.9628  2.8249
 2802SOL     OW20038   0.755   1.797  12.630  0.4175 -0.4659 -0.3734
 2802SOL    HW120039   0.797   1.726  12.680  0.1690 -0.1119  0.3301
 2802SOL    HW220040   0.810   1.786  12.552 -0.9951 -3.2415 -0.9989
 2803SOL     OW20041   2.222   2.541   8.156 -0.3040  0.5877  0.7839
 2803SOL    HW120042   2.249   2.529   8.065 -2.2292  1.1074  0.1481
 2803SOL    HW220043   2.128   2.532   8.142 -0.0698  0.9236 -0.9581
 2804SOL     OW20044   1.853   0.274   9.553 -0.6020  0.0026 -0.6906
 2804SOL    HW120045   1.856   0.359   9.598 -1.4700 -0.3015 -0.0559
 2804SOL    HW220046   1.923   0.295   9.492 -0.4394  0.7030 -0.2669
 2805SOL     OW20047   1.435   0.436  13.711 -0.4949  0.2427 -0.5540
 2805SOL    HW120048   1.349   0.477  13.717 -0.2743  0.4982  0.8677
 2805SOL    HW220049   1.485   0.497  13.766  2.4746 -0.3215 -2.6128
 2806SOL     OW20050   0.986   2.676  17.582 -0.5804  0.2134  0.0333
 2806SOL    HW120051   0.891   2.686  17.577 -0.5877 -0.0561 -0.3421
 2806SOL    HW220052   1.003   2.690  17.489  1.4310 -1.6400  0.1091
 2807SOL     OW20053   0.578   4.727  17.396  0.2874 -0.2084 -0.0614
 2807SOL    HW120054   0.658   4.717  17.345 -0.8666  1.2826 -2.1828
 2807SOL    HW220055   0.578   4.636  17.427  0.4554 -0.5581 -1.0896
 2808SOL     OW20056   0.152   0.898  10.632 -0.0831  0.2685  0.4317
 2808SOL    HW120057   0.083   0.858  10.578 -0.5170 -0.0028  1.1919
 2808SOL    HW220058   0.171   0.830  10.696  0.2327 -1.3854 -1.3934
 2809SOL     OW20059   1.934   4.151   2.573  0.6152  0.7910  0.4792
 2809SOL    HW120060   1.938   4.081   2.509 -0.8975  0.5379  0.6764
 2809SOL    HW220061   1.903   4.098   2.646  2.1804 -2.3569 -1.1528
 2810SOL     OW20062   4.206   0.440  13.875  0.5910 -0.6393  0.6923
 2810SOL    HW120063   4.216   0.446  13.780  0.9376  0.2864  0.7865
 2810SOL    HW220064   4.189   0.346  13.886 -0.2128 -0.5543  0.1679
 2811SOL     OW20065   1.618   2.810   0.351 -0.4323  0.1116 -0.4507
 2811SOL    HW120066   1.650   2.810   0.441  1.0740 -0.0602 -0.9804
 2811SOL    HW220067   1.523   2.824   0.355 -0.4386 -0.4961  1.3602
 2812SOL     OW20068   0.099   1.920   6.180 -0.0913 -0.2981 -0.7486
 2812SOL    HW120069   0.026   1.983   6.186  0.1546 -0.1006  0.2318
 2812SOL    HW220070   0.061   1.833   6.190  0.1841 -0.3802 -0.4081
 2813SOL     OW20071   1.094   4.592   8.012 -0.1393 -0.1305 -0.5577
 2813SOL    HW120072   1.145   4.643   7.950 -0.6488 -0.7592 -1.4926
 2813SOL    HW220073   1.119   4.637   8.093  3.3087 -2.1296 -0.5235
 2814SOL     OW20074   1.575   2.511   5.801  0.0719  0.1305 -0.1484
 2814SOL    HW120075   1.547   2.587   5.851 -0.5600 -0.3600  0.2571
 2814SOL    HW220076   1.657   2.529   5.755 -1.5498  2.0545 -2.3009
 2815SOL     OW20077   0.512   0.215   2.887  0.6483  0.0241  1.0995
 2815SOL    HW120078   0.441   0.229   2.949 -0.5616  2.2326 -0.7725
 2815SOL    HW220079   0.553   0.298   2.911  0.9699 -0.1509  1.1602
 2816SOL     OW20080   1.376   1.246   1.000  0.7056 -0.1824  0.1032
 2816SOL    HW120081   1.406   1.334   1.024 -1.0339  0.8567 -1.5529
 2816SOL    HW220082   1.464   1.209   1.003  0.9419  0.3373 -0.2649
 2817SOL     OW20083   3.999   2.307  16.918  0.9530 -0.1116 -0.2952
 2817SOL    HW120084   4.035   2.290  17.005 -1.0883 -0.2075  0.5439
 2817SOL    HW220085   4.028   2.228  16.872 -1.6425 -1.7489  0.8520
 2818SOL     OW20086   3.643   0.782   2.250  0.0947  0.6779 -0.5158
 2818SOL    HW120087   3.611   0.699   2.214 -2.7914  1.4915  0.1420
 2818SOL    HW220088   3.619   0.770   2.342 -0.1294 -0.9179 -0.7810
 2819SOL     OW20089   4.622   1.947   5.728 -0.2248  0.5329 -0.1938
 2819SOL    HW120090   4.608   1.890   5.803  1.1331  0.5691  0.0941
 2819SOL    HW220091   4.683   2.014   5.759  1.6747 -2.1676  1.9057
 2820SOL     OW20092   1.241   0.755  15.428  0.1010 -0.4223  0.2722
 2820SOL    HW120093   1.183   0.811  15.480 -0.5105  0.4028 -1.3162
 2820SOL    HW220094   1.320   0.807  15.416  0.2308 -0.4940  0.8288
 2821SOL     OW20095   3.890   4.180   9.321  0.3219 -0.2610 -0.7469
 2821SOL    HW120096   3.967   4.228   9.352  0.0795 -0.3002 -0.0920
 2821SOL    HW220097   3.840   4.238   9.264 -0.5953 -0.4746 -0.1612
 2822SOL     OW20098   2.018   0.165  14.842 -0.5288 -0.0628  0.4831
 2822SOL    HW120099   2.108   0.172  14.810 -1.3086  0.1242 -1.7214
 2822SOL    HW220100   1.989   0.256  14.840  1.6013  0.5815 -3.1030
 2823SOL     OW20101   4.090   2.992   9.944  0.0189 -0.2714 -0.2300
 2823SOL    HW120102   4.082   3.080   9.908  0.5679  0.4276  1.3283
 2823SOL    HW220103   4.135   3.011  10.027  0.1061 -1.4767  0.0000
 2824SOL     OW20104   1.102   3.953   5.154  0.1392 -1.0848 -0.1382
 2824SOL    HW120105   1.038   3.998   5.209 -0.1301 -2.5013  0.7028
 2824SOL    HW220106   1.118   3.876   5.209  2.3917 -0.6098 -0.1257
 2825SOL     OW20107   3.327   1.434   6.964  0.2676 -0.2144 -0.2126
 2825SOL    HW120108   3.248   1.476   6.930  1.1112  0.2440 -1.6246
 2825SOL    HW220109   3.373   1.506   7.008 -3.9423  2.4269 -0.0668
 2826SOL     OW20110   0.952   1.238   4.445  0.1069  0.3001  0.0317
 2826SOL    HW120111   0.878   1.199   4.491  1.7026 -0.8261  1.6272
 2826SOL    HW220112   1.011   1.163   4.438 -0.1428  0.1837 -0.8402
 2827SOL     OW20113   3.031   3.550   5.819  0.1132  0.8827  0.5768
 2827SOL    HW120114   3.004   3.462   5.792  0.8507  0.2865  1.7607
 2827SOL    HW220115   3.011   3.600   5.740 -0.6376 -1.0165 -0.4429
 2828SOL     OW20116   2.373   1.235   0.291  0.1928  0.0024  0.3086
 2828SOL    HW120117   2.436   1.307   0.296  0.9606 -0.4462 -2.7401
 2828SOL    HW220118   2.392   1.188   0.210 -1.9490  3.0696 -1.9997
 2829SOL     OW20119   0.748   1.511   9.140 -0.0043  0.1748 -0.7065
 2829SOL    HW120120   0.789   1.454   9.074  1.5663 -0.3423  0.7286
 2829SOL    HW220121   0.683   1.547   9.079 -1.2914  0.1489  0.6562
 2830SOL     OW20122   3.355   3.518   6.875  0.0199 -0.4295  0.3530
 2830SOL    HW120123   3.371   3.592   6.934  2.2379 -2.4921  2.3279
 2830SOL    HW220124   3.383   3.445   6.929  2.4973  1.1345  1.1849
 2831SOL     OW20125   2.181   3.743   9.665  0.1755 -0.3057 -0.7434
 2831SOL    HW120126   2.177   3.665   9.611  1.1477 -0.7093 -0.2368
 2831SOL    HW220127   2.091   3.765   9.690  1.4883  2.6041  1.3880
 2832SOL     OW20128   0.301   4.159   6.622 -0.4653  0.0093 -0.2090
 2832SOL    HW120129   0.258   4.104   6.557 -1.2927 -0.7610  0.9912
 2832SOL    HW220130   0.366   4.197   6.564 -0.2520 -0.8428 -0.5166
 2833SOL     OW20131   2.551   0.170   7.156 -0.8016 -0.5069  0.8867
 2833SOL    HW120132   2.520   0.195   7.069  2.2856  0.6653  0.1052
 2833SOL    HW220133   2.557   0.074   7.152 -1.9925 -0.5665  0.6959
 2834SOL     OW20134   4.659   0.539   4.694 -0.2139  0.2218  0.3901
 2834SOL    HW120135   4.564   0.546   4.709 -0.6200 -1.2266 -1.5108
 2834SOL    HW220136   4.685   0.454   4.731  0.7955  0.3399 -0.0630
 2835SOL     OW20137   1.425   4.566   7.170 -0.0486 -0.0541 -0.3643
 2835SOL    HW120138   1.382   4.652   7.168 -2.0527 -1.0231  1.0255
 2835SOL    HW220139   1.430   4.546   7.077  0.6201 -0.8092 -0.1575
 2836SOL     OW20140   2.113   4.237  12.519 -0.3239  0.2633  0.3866
 2836SOL    HW120141   2.198   4.221  12.559 -0.7105  1.1566  1.5579
 2836SOL    HW220142   2.092   4.146  12.500  0.0294  0.3177 -0.2625
 2837SOL     OW20143   4.683   3.690   2.146 -0.0537  0.0467  0.1162
 2837SOL    HW120144   4.605   3.684   2.090 -0.6762  0.3578  0.9474
 2837SOL    HW220145   4.723   3.776   2.132  1.3834 -0.8266 -1.0999
 2838SOL     OW20146   3.451   4.702  11.271  0.1795 -0.0289  0.9158
 2838SOL    HW120147   3.414   4.623  11.311  0.2064  0.4686  1.9110
 2838SOL    HW220148   3.433   4.676  11.180  1.5345  0.0373  0.6339
 2839SOL     OW20149   0.644   4.198   5.710 -0.7158 -0.0922 -0.1823
 2839SOL    HW120150   0.673   4.194   5.619 -0.7978  1.4952 -0.2849
 2839SOL    HW220151   0.576   4.131   5.710 -1.4898  0.7112 -1.3406
 2840SOL     OW20152   1.699   3.790   3.850  0.4244  0.3209 -0.5783
 2840SOL    HW120153   1.765   3.721   3.852 -0.8638 -0.9122 -0.2197
 2840SOL    HW220154   1.703   3.830   3.937  0.8583 -1.8861  0.4286
 2841SOL     OW20155   1.859   4.466   9.196 -0.5204 -0.1916  0.5529
 2841SOL    HW120156   1.950   4.487   9.172 -0.0889 -0.9433  1.5673
 2841SOL    HW220157   1.828   4.415   9.121  0.8587 -0.3179  0.0551
 2842SOL     OW20158   1.634   1.856   4.190 -0.3180  0.6464  0.8235
 2842SOL    HW120159   1.669   1.828   4.274 -0.3291  1.5238  1.1193
 2842SOL    HW220160   1.554   1.909   4.200 -0.9056 -0.1334  0.2160
 2843SOL     OW20161   0.429   2.524   9.367 -0.5917  0.3733  0.2711
 2843SOL    HW120162   0.348   2.480   9.395  0.8315 -1.8404  0.8988
 2843SOL    HW220163   0.397   2.614   9.357 -0.0555  0.5173 -0.1157
 2844SOL     OW20164   4.544   0.876  10.641 -0.0830 -0.2040  0.5489
 2844SOL    HW120165   4.581   0.815  10.705  1.7176  0.8082  0.4648
 2844SOL    HW220166   4.580   0.835  10.563 -0.3722 -1.6818  1.1802
 2845SOL     OW20167   1.859   2.295  11.248  0.3422  0.3330 -0.0504
 2845SOL    HW120168   1.856   2.379  11.292 -1.8438  0.5437 -0.6190
 2845SOL    HW220169   1.950   2.275  11.272 -0.5507 -1.2792  1.9921
 2846SOL     OW20170   2.814   1.023   2.836 -0.4198  0.6045 -0.0355
 2846SOL    HW120171   2.890   1.051   2.785  0.1715 -4.6587 -2.0883
 2846SOL    HW220172   2.842   0.937   2.869  1.3852  0.9737 -0.5819
 2847SOL     OW20173   0.692   1.366   7.375 -0.5048 -0.2015 -0.0888
 2847SOL    HW120174   0.765   1.402   7.324 -1.8913  0.4230 -1.6375
 2847SOL    HW220175   0.704   1.272   7.363  0.0679 -0.2639  1.0461
 2848SOL     OW20176   4.301   0.550   5.288 -0.3586  0.4062 -0.1464
 2848SOL    HW120177   4.397   0.547   5.289 -0.3219  1.4594  0.0213
 2848SOL    HW220178   4.273   0.594   5.368 -1.5782  0.0147 -0.3644
 2849SOL     OW20179   2.006   2.062  15.779 -0.1535 -0.5557  0.0480
 2849SOL    HW120180   2.099   2.083  15.769 -0.1562  0.2474  1.7328
 2849SOL    HW220181   2.003   2.005  15.855  0.8648 -2.3897 -1.2774
 2850SOL     OW20182   4.512   2.318   8.958  0.1028  0.6855  0.3618
 2850SOL    HW120183   4.485   2.228   8.941 -1.6177  1.2677 -0.0401
 2850SOL    HW220184   4.525   2.348   8.868  1.4133  1.3095  0.7650
 2851SOL     OW20185   4.479   0.068  12.278  0.7431  0.0037  0.1258
 2851SOL    HW120186   4.536   0.037  12.208 -0.3810 -0.8406 -0.4140
 2851SOL    HW220187   4.509   0.159  12.277 -1.1976  0.6568 -1.4490
 2852SOL     OW20188   3.916   2.257   4.903  0.1037 -0.0671  0.6839
 2852SOL    HW120189   3.950   2.345   4.889 -3.5455  0.9642 -1.6117
 2852SOL    HW220190   3.966   2.206   4.838 -1.4388  0.6887 -1.0861
 2853SOL     OW20191   1.236   2.388  15.117  0.3368 -0.1540  0.4775
 2853SOL    HW120192   1.328   2.383  15.142  0.2830 -2.2430  0.2410
 2853SOL    HW220193   1.224   2.482  15.129 -2.1411 -0.2678 -0.9914
 2854SOL     OW20194   0.173   0.488   8.808  0.4437  0.4199  0.2423
 2854SOL    HW120195   0.263   0.501   8.839  1.9107 -3.8204 -2.1516
 2854SOL    HW220196   0.185   0.535   8.726 -0.6017  1.3617  0.6283
 2855SOL     OW20197   2.316   4.647   2.934 -0.3312  0.4559 -0.0090
 2855SOL    HW120198   2.354   4.565   2.966  0.8399  1.2957  0.7642
 2855SOL    HW220199   2.331   4.705   3.009 -1.2030  0.1309  0.4221
 2856SOL     OW20200   0.046   3.336  11.577  0.5887 -0.5010  0.2857
 2856SOL    HW120201   0.006   3.399  11.637  0.7558 -2.0267  2.0034
 2856SOL    HW220202   0.113   3.303  11.637  0.7902 -0.2419  0.2060
 2857SOL     OW20203   3.387   0.622   3.853  1.1858  0.4617 -0.1405
 2857SOL    HW120204   3.345   0.576   3.925 -1.4765 -0.6309 -2.3913
 2857SOL    HW220205   3.477   0.637   3.882 -0.2177  1.8910  3.4839
 2858SOL     OW20206   2.608   3.897   2.837  0.1330  0.3394 -0.0253
 2858SOL    HW120207   2.670   3.866   2.903 -0.7322 -0.6629  0.3164
 2858SOL    HW220208   2.570   3.817   2.801  0.3052 -0.8750  2.5204
 2859SOL     OW20209   0.380   1.020   8.778  0.3349  0.1918 -0.1230
 2859SOL    HW120210   0.292   1.039   8.746  0.4680 -1.4629 -1.4580
 2859SOL    HW220211   0.370   1.033   8.872 -0.8303 -1.2333 -0.0369
 2860SOL     OW20212   1.595   2.338   8.489 -0.3834 -0.0628 -0.4566
 2860SOL    HW120213   1.550   2.256   8.468  1.3138 -1.1106 -0.0187
 2860SOL    HW220214   1.534   2.411   8.487 -0.4471 -0.0961  0.2980
 2861SOL     OW20215   0.103   3.783   4.064 -0.2581  0.2122  0.8894
 2861SOL    HW120216   0.029   3.729   4.037  1.6499 -1.2170 -1.4925
 2861SOL    HW220217   0.063   3.868   4.079  0.1535  0.3439  1.2250
 2862SOL     OW20218   0.502   0.291   5.156 -0.1485 -0.0790 -0.3741
 2862SOL    HW120219   0.590   0.264   5.181 -0.3966  0.3263  0.9358
 2862SOL    HW220220   0.510   0.315   5.063 -1.7356 -2.7440 -1.1973
 2863SOL     OW20221   1.242   3.052  11.747 -0.2537 -0.2583  0.3334
 2863SOL    HW120222   1.318   3.103  11.717  1.6074 -1.8690  2.4042
 2863SOL    HW220223   1.188   3.042  11.668  1.5776 -0.3657 -0.9195
 2864SOL     OW20224   1.643   1.510   1.939 -0.1071  0.0977 -0.0194
 2864SOL    HW120225   1.662   1.437   1.881 -0.0194 -0.5004  0.7581
 2864SOL    HW220226   1.711   1.575   1.921 -0.0332  0.2576  0.8322
 2865SOL     OW20227   3.342   4.231   8.800 -0.5376  0.1088 -0.3121
 2865SOL    HW120228   3.336   4.295   8.729  0.4112 -1.7781 -2.0772
 2865SOL    HW220229   3.262   4.178   8.791  0.6509 -2.4416  4.0072
 2866SOL     OW20230   3.206   0.743   9.110  0.4379 -0.2391 -0.0016
 2866SOL    HW120231   3.263   0.815   9.082 -0.8241  1.0185  0.6331
 2866SOL    HW220232   3.127   0.796   9.121 -0.2338 -0.8290 -2.0446
 2867SOL     OW20233   4.086   4.589  12.475  0.3656  0.2947 -0.4277
 2867SOL    HW120234   4.107   4.610  12.384 -1.7269  1.1269 -0.7118
 2867SOL    HW220235   4.083   4.678  12.509 -0.4265  0.3103 -0.5369
 2868SOL     OW20236   2.395   0.384   4.141 -0.4336  0.5880  0.1969
 2868SOL    HW120237   2.436   0.298   4.143  1.6209  1.5278 -1.9337
 2868SOL    HW220238   2.462   0.445   4.170  0.3143 -1.5034  2.8180
 2869SOL     OW20239   4.322   2.895   0.361 -0.2238 -0.3422 -0.1988
 2869SOL    HW120240   4.363   2.927   0.280  0.4310 -1.0909 -0.1548
 2869SOL    HW220241   4.366   2.943   0.431 -1.1433  0.8619 -0.4252
 2870SOL     OW20242   0.200   4.313  15.623  0.2711 -0.0389 -0.0024
 2870SOL    HW120243   0.215   4.407  15.615 -1.6708  0.2430 -0.2982
 2870SOL    HW220244   0.163   4.298  15.536  1.5341  0.1982 -0.5840
 2871SOL     OW20245   3.260   0.623   2.062  0.3677 -0.2877 -0.0446
 2871SOL    HW120246   3.188   0.679   2.090  1.2855  1.2091 -0.7338
 2871SOL    HW220247   3.220   0.539   2.038 -1.5457  0.9363 -1.2096
 2872SOL     OW20248   3.612   0.557   5.221 -0.2364 -0.1534 -0.7710
 2872SOL    HW120249   3.571   0.590   5.141  0.2397 -1.1494 -1.4387
 2872SOL    HW220250   3.656   0.633   5.258  1.8099 -1.7381  0.0242
 2873SOL     OW20251   3.358   2.623   5.569 -0.4040 -0.8945 -0.2076
 2873SOL    HW120252   3.344   2.715   5.548 -0.6675 -0.8137  0.3214
 2873SOL    HW220253   3.405   2.598   5.489 -0.3232 -3.4197  0.6191
 2874SOL     OW20254   3.108   1.294   4.766  0.2182 -0.0196  0.7431
 2874SOL    HW120255   3.053   1.271   4.841 -1.7760  1.9772 -0.1029
 2874SOL    HW220256   3.158   1.213   4.753  0.2162  0.2413 -0.9288
 2875SOL     OW20257   0.731   3.079   1.041 -0.0532  0.1972  0.2616
 2875SOL    HW120258   0.676   3.149   1.076  1.6291  1.2818  0.7108
 2875SOL    HW220259   0.696   3.004   1.089  0.1685  0.6241  1.0982
 2876SOL     OW20260   2.978   4.184   1.427 -0.2454  0.0227  0.1323
 2876SOL    HW120261   3.070   4.160   1.423 -0.3469 -0.4994  0.9000
 2876SOL    HW220262   2.934   4.110   1.470  1.4882 -1.7052 -1.0942
 2877SOL     OW20263   3.193   1.307   5.420  0.1944 -0.0293 -0.2630
 2877SOL    HW120264   3.174   1.265   5.336 -0.9906 -1.0814  0.5249
 2877SOL    HW220265   3.135   1.253   5.473  0.8834 -1.1867 -0.6833
 2878SOL     OW20266   1.056   2.799  15.675  0.1466 -0.0457 -0.0841
 2878SOL    HW120267   1.099   2.815  15.591  0.0834  0.8539  0.0584
 2878SOL    HW220268   1.126   2.753  15.721  1.0203 -1.9074 -3.2834
 2879SOL     OW20269   1.610   2.173   3.717 -0.8337  0.2738 -0.0329
 2879SOL    HW120270   1.633   2.080   3.723  0.9842  0.6651 -0.7418
 2879SOL    HW220271   1.522   2.165   3.679 -1.0970 -2.4255  1.1197
 2880SOL     OW20272   0.115   4.719   8.933  0.1230  0.1288 -0.3205
 2880SOL    HW120273   0.128   0.063   8.898  0.7077  0.2020  0.0834
 2880SOL    HW220274   0.020   4.712   8.947  0.3994  1.3480  2.0784
 2881SOL     OW20275   1.039   0.131   5.152  0.2917  0.2882  0.0183
 2881SOL    HW120276   1.124   0.110   5.114 -0.9871 -0.8649 -2.2298
 2881SOL    HW220277   0.995   0.175   5.079 -0.6733 -1.7748 -0.6345
 2882SOL     OW20278   3.321   0.992   8.750 -0.6177 -0.3321 -0.2075
 2882SOL    HW120279   3.350   0.914   8.703  2.2190 -0.2900  1.4962
 2882SOL    HW220280   3.344   0.971   8.840  0.7779 -0.8649 -0.6819
 2883SOL     OW20281   3.383   1.702   3.872 -0.1148  0.1828 -0.5168
 2883SOL    HW120282   3.454   1.680   3.813 -0.1388 -0.4319 -0.3140
 2883SOL    HW220283   3.435   1.722   3.950 -0.5243  0.9409 -0.4349
 2884SOL     OW20284   2.708   3.271  16.520  0.0689  0.1221 -0.3055
 2884SOL    HW120285   2.764   3.346  16.500  1.6588 -1.1185 -0.5360
 2884SOL    HW220286   2.627   3.307  16.484 -1.5791 -2.5055  0.7662
 2885SOL     OW20287   2.757   2.671   9.568 -0.2547  0.0151 -0.4575
 2885SOL    HW120288   2.713   2.740   9.619 -1.1499  0.2377 -1.5205
 2885SOL    HW220289   2.805   2.725   9.505  0.3896 -1.9172 -1.6276
 2886SOL     OW20290   3.460   3.119   7.454 -0.2892 -0.4453 -0.1663
 2886SOL    HW120291   3.452   3.038   7.403  1.5683 -0.4080 -0.4967
 2886SOL    HW220292   3.369   3.142   7.472 -0.0924 -0.6528  1.0798
 2887SOL     OW20293   3.954   3.008   3.261  0.3379  0.4424 -0.1669
 2887SOL    HW120294   3.965   2.985   3.169 -1.2298  0.5454 -0.3750
 2887SOL    HW220295   3.939   2.920   3.296 -2.6554  1.4797  1.1641
 2888SOL     OW20296   2.504   4.707   6.024 -0.2537 -0.0393 -0.6539
 2888SOL    HW120297   2.589   4.724   5.982  0.3258  0.2134  0.6090
 2888SOL    HW220298   2.434   0.001   5.971 -0.4420  0.5309  0.0117
 2889SOL     OW20299   3.378   2.825   4.307 -0.3616 -0.1714 -0.2800
 2889SOL    HW120300   3.433   2.855   4.379  0.3709  0.5677 -1.1511
 2889SOL    HW220301   3.303   2.884   4.313  0.2105  0.5467 -0.2308
 2890SOL     OW20302   1.027   0.927   3.549 -0.2032 -0.4401  0.5655
 2890SOL    HW120303   0.990   0.925   3.637 -1.4086 -0.7872  0.0434
 2890SOL    HW220304   1.031   1.022   3.543 -0.0484 -0.4063  1.1443
 2891SOL     OW20305   1.385   3.417  17.442 -0.2734 -0.0182 -0.1251
 2891SOL    HW120306   1.438   3.484  17.485  0.5648  0.0372 -1.2596
 2891SOL    HW220307   1.385   3.451  17.353  0.9467  1.7092  0.5361
 2892SOL     OW20308   4.720   1.102   5.492 -0.2054  0.7335 -0.1560
 2892SOL    HW120309   0.016   1.018   5.516  2.0403  1.5867 -0.9422
 2892SOL    HW220310   4.657   1.121   5.561 -1.4528  1.3994 -1.4818
 2893SOL     OW20311   2.003   2.120  14.562  0.0019  0.4065 -0.3063
 2893SOL    HW120312   1.951   2.154  14.489  0.2092  0.0633 -0.6149
 2893SOL    HW220313   1.955   2.037  14.571  0.0578  0.3076 -0.8961
 2894SOL     OW20314   0.595   2.871   1.235  0.0967 -1.2048 -0.0328
 2894SOL    HW120315   0.654   2.796   1.242  0.5143 -0.9126 -0.4485
 2894SOL    HW220316   0.575   2.845   1.145  0.8296 -2.1247  0.0727
 2895SOL     OW20317   3.249   0.188   2.425  0.1918  0.4026 -0.2859
 2895SOL    HW120318   3.161   0.221   2.405 -0.3801 -0.5955  0.5806
 2895SOL    HW220319   3.280   0.237   2.501  0.0037 -0.9087  0.6389
 2896SOL     OW20320   4.423   4.598   5.111  0.0378  0.0895  0.0581
 2896SOL    HW120321   4.381   4.636   5.033  0.7766  1.1014  0.1537
 2896SOL    HW220322   4.367   4.524   5.133 -0.2763 -0.4000 -2.3808
 2897SOL     OW20323   0.245   0.025   3.223 -0.1023 -0.6661  0.0232
 2897SOL    HW120324   0.250   0.019   3.127 -0.0770 -1.2493  0.0633
 2897SOL    HW220325   0.327   4.730   3.253 -0.3530 -2.2561 -1.3604
 2898SOL     OW20326   1.588   4.586   2.252 -0.1520  0.6759  0.7447
 2898SOL    HW120327   1.498   4.559   2.235 -0.9216  4.0398 -0.5080
 2898SOL    HW220328   1.573   4.621   2.340  0.8050  0.4082  1.0132
 2899SOL     OW20329   2.449   2.077   7.922  0.0059  0.3803  0.2213
 2899SOL    HW120330   2.363   2.051   7.954  0.9266 -1.7936  0.9132
 2899SOL    HW220331   2.507   2.020   7.973  0.1357 -0.9109 -1.3907
 2900SOL     OW20332   2.361   1.268   9.149  0.0950  0.2220 -0.1055
 2900SOL    HW120333   2.339   1.258   9.056 -2.1272  0.1976  0.4126
 2900SOL    HW220334   2.421   1.342   9.144  0.8380 -0.3629  0.2490
 2901SOL     OW20335   2.480   0.382   2.134  0.8350 -0.1369  0.5535
 2901SOL    HW120336   2.387   0.383   2.157  0.6904  0.0617 -0.0225
 2901SOL    HW220337   2.518   0.462   2.169  1.5592  0.2190 -1.0357
 2902SOL     OW20338   1.874   4.714   5.007 -0.3406 -0.6712 -0.5844
 2902SOL    HW120339   1.849   0.057   5.040  2.3567 -0.2000  0.2126
 2902SOL    HW220340   1.816   4.653   5.052 -0.9332 -2.5258 -3.8469
 2903SOL     OW20341   0.183   4.719   8.400  0.0564 -0.4533 -0.7935
 2903SOL    HW120342   0.189   4.682   8.488 -1.4739  1.8061  0.2761
 2903SOL    HW220343   0.221   0.063   8.406  1.0960 -1.0887  1.5387
 2904SOL     OW20344   0.813   1.684   7.376  0.9803  0.0659  0.2060
 2904SOL    HW120345   0.869   1.644   7.443  1.8255  1.6118  0.4016
 2904SOL    HW220346   0.857   1.766   7.355 -3.3347  2.2295 -0.3135
 2905SOL     OW20347   2.940   1.781   7.324  0.2988 -0.2145  0.2289
 2905SOL    HW120348   2.997   1.809   7.253  0.1019  0.3324  0.2860
 2905SOL    HW220349   2.875   1.721   7.286 -0.6381  0.9552 -0.0011
 2906SOL     OW20350   1.231   0.013   7.858 -0.0176 -0.2681  0.3278
 2906SOL    HW120351   1.215   0.040   7.767  1.9230  1.3119  0.4582
 2906SOL    HW220352   1.326   0.009   7.851 -0.1831  0.6843 -2.3266
 2907SOL     OW20353   1.094   0.118   7.053 -0.1470 -0.1984  0.4415
 2907SOL    HW120354   1.057   0.052   6.995 -1.3245  0.1917  0.7344
 2907SOL    HW220355   1.014   0.146   7.099 -0.1614 -1.5495  1.2010
 2908SOL     OW20356   2.886   0.928   6.230  0.1106 -0.2198  0.2638
 2908SOL    HW120357   2.790   0.925   6.224  0.0732  0.7990  0.2605
 2908SOL    HW220358   2.888   0.936   6.325  4.2812  0.9597  0.0684
 2909SOL     OW20359   0.353   2.671   7.586 -0.1434 -0.3511  0.4657
 2909SOL    HW120360   0.292   2.630   7.525 -1.1196 -0.0776  1.2509
 2909SOL    HW220361   0.437   2.640   7.554  0.6618  1.0265  1.2764
 2910SOL     OW20362   3.672   4.581  14.055  0.3634  0.2181 -0.0601
 2910SOL    HW120363   3.727   4.659  14.060  1.6403 -0.5430 -1.9667
 2910SOL    HW220364   3.659   4.576  13.960  0.4411  0.0675 -0.0629
 2911SOL     OW20365   4.344   1.976   7.963 -0.0403 -0.3035  0.0054
 2911SOL    HW120366   4.359   1.929   8.045 -1.2674 -2.3238 -0.9318
 2911SOL    HW220367   4.258   1.938   7.941 -0.4027  0.9488 -0.7476
 2912SOL     OW20368   2.947   3.233   6.844  0.3035  0.5322  0.0030
 2912SOL    HW120369   2.880   3.216   6.778  0.7537 -1.7263  0.1348
 2912SOL    HW220370   2.983   3.319   6.820 -0.6604  1.0701  0.5044
 2913SOL     OW20371   1.144   0.463   9.985 -0.1027 -0.3835  0.0933
 2913SOL    HW120372   1.100   0.421  10.059 -1.2551 -1.1242 -1.0044
 2913SOL    HW220373   1.144   0.553  10.019  2.8798 -0.0676 -0.7983
 2914SOL     OW20374   2.871   0.462   5.866 -0.1882 -0.3594  0.2778
 2914SOL    HW120375   2.897   0.430   5.952  0.1686 -1.8189 -0.3676
 2914SOL    HW220376   2.810   0.391   5.846  3.3668 -3.6587  1.3409
 2915SOL     OW20377   4.256   2.096   8.728  0.3318 -0.3012  0.1194
 2915SOL    HW120378   4.234   2.073   8.638  0.1101  1.2367 -0.2096
 2915SOL    HW220379   4.307   2.023   8.763  0.1046  0.2576  1.6239
 2916SOL     OW20380   3.057   2.157   3.356 -0.2962  0.2222 -0.2327
 2916SOL    HW120381   3.088   2.178   3.444  1.9163 -1.1719 -0.6847
 2916SOL    HW220382   3.023   2.068   3.362 -0.3369  0.2799  0.3766
 2917SOL     OW20383   3.839   2.996   4.294  0.5172  0.0688 -0.6171
 2917SOL    HW120384   3.762   3.005   4.237  0.0166  1.6932  0.3329
 2917SOL    HW220385   3.842   2.900   4.298 -1.3154  0.0528  0.5338
 2918SOL     OW20386   0.523   2.701   2.175 -0.4931 -0.2293  0.4852
 2918SOL    HW120387   0.450   2.763   2.173  1.3123  1.9669  2.2730
 2918SOL    HW220388   0.479   2.626   2.215  0.1992 -0.7423  0.2750
 2919SOL     OW20389   1.797   0.181   6.189  0.2998 -0.1848  0.4966
 2919SOL    HW120390   1.872   0.131   6.220  1.1146 -0.8605 -2.5290
 2919SOL    HW220391   1.769   0.120   6.121 -0.7319 -0.4243  1.1286
 2920SOL     OW20392   0.419   0.948  11.902  0.1061 -0.1061 -0.8618
 2920SOL    HW120393   0.418   1.017  11.836  1.5139  2.1066  1.4512
 2920SOL    HW220394   0.326   0.945  11.926  0.0409  1.0730 -0.9885
 2921SOL     OW20395   4.535   0.023   8.432 -0.4095  0.0748 -0.0486
 2921SOL    HW120396   4.562   4.676   8.444 -1.6454 -0.3347 -0.3328
 2921SOL    HW220397   4.616   0.065   8.461  0.4919 -0.9965 -1.0176
 2922SOL     OW20398   2.364   1.678   8.998  0.0327 -0.7369  0.0346
 2922SOL    HW120399   2.311   1.693   9.076  0.6370 -1.4399  0.5752
 2922SOL    HW220400   2.322   1.736   8.935 -1.0854 -1.1619  0.3862
 2923SOL     OW20401   1.263   1.213   7.324 -0.2394 -0.1294  0.3943
 2923SOL    HW120402   1.293   1.228   7.414 -0.8252  2.0509  0.2353
 2923SOL    HW220403   1.191   1.277   7.320  0.7796  1.0306  0.6214
 2924SOL     OW20404   0.033   2.775   7.017  0.1685 -0.6526 -0.1553
 2924SOL    HW120405   4.707   2.835   6.993  0.4423 -0.6319 -0.9242
 2924SOL    HW220406   0.058   2.746   6.929 -0.2758  0.8478 -0.7689
 2925SOL     OW20407   4.449   2.945   2.349  0.2017  0.0283  0.1615
 2925SOL    HW120408   4.491   2.859   2.351  3.8082  1.8079  3.4936
 2925SOL    HW220409   4.438   2.948   2.444  0.4936 -0.9130  0.2201
 2926SOL     OW20410   4.213   0.788   3.811 -0.0072  0.2878 -0.0807
 2926SOL    HW120411   4.262   0.833   3.881 -3.0890  2.0532  0.9205
 2926SOL    HW220412   4.221   0.851   3.739  2.3727 -0.4740 -0.5079
 2927SOL     OW20413   0.431   2.688   0.656  0.3390  0.5243 -0.1917
 2927SOL    HW120414   0.384   2.635   0.591  1.5492  0.4396 -0.9991
 2927SOL    HW220415   0.506   2.635   0.680 -0.4368 -0.5559 -0.1467
 2928SOL     OW20416   1.923   1.776  15.227 -0.2900  0.6195  0.0218
 2928SOL    HW120417   1.974   1.717  15.282  0.6409  2.8874  1.5908
 2928SOL    HW220418   1.897   1.706  15.167  0.5016 -0.5500  1.0318
 2929SOL     OW20419   4.617   1.756   5.297 -0.5727 -0.1101 -0.3418
 2929SOL    HW120420   4.679   1.784   5.364 -1.9533  0.1044  0.8719
 2929SOL    HW220421   4.682   1.726   5.234  1.6985  1.9071  1.0428
 2930SOL     OW20422   0.066   0.173   4.225  0.1514  0.6006  0.4689
 2930SOL    HW120423   0.110   0.155   4.142  1.5679  1.7723  0.9615
 2930SOL    HW220424   0.072   0.093   4.277  0.1264 -0.4941 -1.2187
 2931SOL     OW20425   4.697   3.985  17.667  0.3197  0.1648 -0.0767
 2931SOL    HW120426   4.694   4.048  17.595  0.2380  2.3335  1.8181
 2931SOL    HW220427   0.048   3.976  17.678  0.1695  1.1995  2.0770
 2932SOL     OW20428   0.326   4.378  17.579  0.5411 -0.1826  0.1380
 2932SOL    HW120429   0.277   4.436  17.638  0.6995  2.6894 -2.5701
 2932SOL    HW220430   0.255   4.331  17.534  0.6342 -0.2366  0.0475
 2933SOL     OW20431   1.464   2.656  12.543 -0.3934 -0.1430  0.1377
 2933SOL    HW120432   1.534   2.685  12.602 -0.0798 -0.7994  0.0888
 2933SOL    HW220433   1.381   2.678  12.586 -0.3151  3.4335 -1.5478
 2934SOL     OW20434   3.375   2.620   7.710  0.2180 -0.0365  0.0591
 2934SOL    HW120435   3.461   2.578   7.712 -0.0223 -0.5103  0.4273
 2934SOL    HW220436   3.363   2.634   7.804 -1.3848 -1.8689  0.1065
 2935SOL     OW20437   3.913   0.722   2.214 -0.5004 -0.5114  0.1749
 2935SOL    HW120438   3.970   0.764   2.279  0.1781 -1.2189  0.0279
 2935SOL    HW220439   3.837   0.757   2.261 -0.8943  1.0870 -1.6771
 2936SOL     OW20440   0.552   4.259   2.894 -0.1681  0.0307  0.0772
 2936SOL    HW120441   0.598   4.312   2.960  0.4910  1.5158 -1.5641
 2936SOL    HW220442   0.579   4.307   2.815 -1.0225  1.5841  0.7250
 2937SOL     OW20443   4.175   2.465   4.315 -0.1079 -0.4935 -0.0877
 2937SOL    HW120444   4.183   2.378   4.274 -0.4573 -1.1134  1.1546
 2937SOL    HW220445   4.153   2.512   4.235  1.4160 -0.4063 -0.4487
 2938SOL     OW20446   3.089   0.211   5.726  0.2276 -0.6668 -0.5692
 2938SOL    HW120447   3.026   0.155   5.771  0.7038  0.2168  1.1952
 2938SOL    HW220448   3.163   0.186   5.781 -2.2416 -2.1998  2.0098
 2939SOL     OW20449   3.581   1.878  13.350  0.5635  0.3752  0.0524
 2939SOL    HW120450   3.515   1.812  13.327 -0.3601  1.7340 -1.1975
 2939SOL    HW220451   3.551   1.958  13.306 -0.2224 -0.1365 -0.3507
 2940SOL     OW20452   0.751   0.862   6.571 -0.3084 -0.0993 -0.0232
 2940SOL    HW120453   0.716   0.872   6.483 -0.3198 -1.8726 -0.2353
 2940SOL    HW220454   0.844   0.876   6.554 -0.9979  1.7144 -2.3026
 2941SOL     OW20455   4.471   4.332   8.931 -0.5505  0.6467  0.1238
 2941SOL    HW120456   4.469   4.237   8.916  2.7039  0.4938  0.5531
 2941SOL    HW220457   4.420   4.340   9.012 -1.4461  2.5980 -0.6306
 2942SOL     OW20458   0.543   4.331   8.811  0.7881 -0.2679  0.0333
 2942SOL    HW120459   0.455   4.341   8.776  0.9330  2.0121  0.3056
 2942SOL    HW220460   0.582   4.285   8.737  1.8876  1.0368 -0.2127
 2943SOL     OW20461   0.535   2.672   4.887  0.4393  0.1428 -0.9815
 2943SOL    HW120462   0.448   2.710   4.897  0.0037 -0.9064 -0.7261
 2943SOL    HW220463   0.589   2.736   4.934  1.4428  1.1238 -3.5148
 2944SOL     OW20464   3.975   3.155   7.247  0.0255  0.2665  0.1736
 2944SOL    HW120465   3.909   3.188   7.308 -0.1812 -0.4748  0.3458
 2944SOL    HW220466   4.055   3.138   7.298  0.2336 -0.1770 -0.3081
 2945SOL     OW20467   3.642   2.105   2.172  0.1352  0.5201 -0.0031
 2945SOL    HW120468   3.637   2.192   2.213 -1.5802  0.8983 -1.0299
 2945SOL    HW220469   3.703   2.054   2.226  0.8647  2.1113  0.6920
 2946SOL     OW20470   0.999   2.490   8.473 -0.1022 -0.3399 -0.6656
 2946SOL    HW120471   0.904   2.490   8.468 -0.1402 -0.1149  0.0783
 2946SOL    HW220472   1.006   2.479   8.378 -0.0309  0.2876 -0.7370
 2947SOL     OW20473   4.678   2.348  17.428  0.0841  0.8613 -0.2382
 2947SOL    HW120474   4.585   2.372  17.426  0.3011  1.6343 -1.0501
 2947SOL    HW220475   4.718   2.434  17.442  0.3790  0.6102  0.4719
 2948SOL     OW20476   4.089   4.430   2.225  0.4193  0.0281  0.5597
 2948SOL    HW120477   4.147   4.490   2.272 -1.3974  2.1695  0.0455
 2948SOL    HW220478   4.121   4.447   2.137  1.5048  0.6131  1.0655
 2949SOL     OW20479   1.734   0.336   2.131  0.5691 -0.1429  0.5811
 2949SOL    HW120480   1.806   0.367   2.186 -0.0824 -0.7601  1.7927
 2949SOL    HW220481   1.771   0.286   2.058 -1.3020  0.9115 -1.0855
 2950SOL     OW20482   3.915   2.681   4.593 -0.1522  0.4964 -0.2759
 2950SOL    HW120483   3.982   2.744   4.620 -0.2049 -0.2313  1.5386
 2950SOL    HW220484   3.902   2.714   4.504 -0.0109  1.0589 -0.0854
 2951SOL     OW20485   0.879   2.105  14.642 -0.3096  0.3184 -0.6999
 2951SOL    HW120486   0.925   2.082  14.561  1.8601  0.2509  0.5662
 2951SOL    HW220487   0.807   2.154  14.602 -0.4716  0.6673  0.0209
 2952SOL     OW20488   0.889   0.896  11.663 -0.2153  0.0971 -0.2512
 2952SOL    HW120489   0.906   0.894  11.758  2.0852  1.6635 -0.6277
 2952SOL    HW220490   0.816   0.957  11.669 -0.2747 -0.0956  1.1966
 2953SOL     OW20491   0.621   3.988  11.791  0.3746  0.5667  0.1175
 2953SOL    HW120492   0.620   4.083  11.799  1.4541  0.5974 -0.1964
 2953SOL    HW220493   0.707   3.979  11.751  0.4230  2.8160 -0.2817
 2954SOL     OW20494   3.531   0.018  16.802 -0.1110  0.3416 -0.0035
 2954SOL    HW120495   3.527   0.099  16.752 -0.3385  0.8927  0.9138
 2954SOL    HW220496   3.446   0.020  16.847 -0.9276  1.2220 -1.5853
 2955SOL     OW20497   0.543   2.424  10.267 -0.1417  0.5439 -0.2404
 2955SOL    HW120498   0.502   2.506  10.240 -2.3674  0.5839  3.3053
 2955SOL    HW220499   0.557   2.450  10.358 -1.4034 -1.2679  0.4705
 2956SOL     OW20500   2.415   3.792   9.834  0.0940 -0.5117 -0.7825
 2956SOL    HW120501   2.333   3.750   9.809  0.4451 -1.0671 -1.0193
 2956SOL    HW220502   2.474   3.740   9.779  1.0225  0.3255 -0.5772
 2957SOL     OW20503   2.550   4.510   3.132 -0.0685  0.4395  0.4195
 2957SOL    HW120504   2.540   4.600   3.100  1.0222  0.5702  0.4357
 2957SOL    HW220505   2.635   4.508   3.176  1.2294  0.0346 -2.0875
 2958SOL     OW20506   3.918   3.370  15.677 -0.3539  0.0921 -0.3376
 2958SOL    HW120507   4.011   3.395  15.676 -0.1910 -0.2871  3.1424
 2958SOL    HW220508   3.879   3.437  15.621  1.0960  1.0287 -0.2537
 2959SOL     OW20509   3.695   1.175   7.847 -0.3054  0.0573  0.3665
 2959SOL    HW120510   3.672   1.140   7.933  1.2843 -0.2664  0.6507
 2959SOL    HW220511   3.650   1.258   7.835  1.7925  0.9735 -1.2030
 2960SOL     OW20512   0.493   2.974  11.776 -0.9238 -0.1695 -0.1394
 2960SOL    HW120513   0.437   3.005  11.847  0.5184 -0.0949  0.9659
 2960SOL    HW220514   0.513   2.885  11.804 -0.4813  0.6735  2.2604
 2961SOL     OW20515   0.762   0.629   4.239 -0.3067  0.6250 -0.4471
 2961SOL    HW120516   0.857   0.622   4.248 -0.4610 -0.5295  0.2596
 2961SOL    HW220517   0.726   0.617   4.327 -0.6852  0.1357 -0.6629
 2962SOL     OW20518   2.588   0.143   4.088  0.4788 -0.1173  0.1242
 2962SOL    HW120519   2.663   0.170   4.034  1.2306 -3.9903 -0.7603
 2962SOL    HW220520   2.530   0.100   4.026  1.1464 -1.0881  0.1738
 2963SOL     OW20521   2.557   2.893   6.405 -0.4193 -0.1960  0.1865
 2963SOL    HW120522   2.478   2.918   6.357 -0.1338  0.3934  0.0201
 2963SOL    HW220523   2.551   2.956   6.477  1.0912  1.3611 -1.0523
 2964SOL     OW20524   0.564   4.647   8.851  0.0989 -0.1676 -0.2768
 2964SOL    HW120525   0.553   4.554   8.873  0.3871 -0.1740 -0.1677
 2964SOL    HW220526   0.658   4.656   8.864  0.1157  0.7485 -0.9845
 2965SOL     OW20527   1.950   3.607  16.626 -0.1096 -0.2377 -0.3519
 2965SOL    HW120528   1.887   3.587  16.695 -0.8814  2.3883 -0.2754
 2965SOL    HW220529   1.916   3.693  16.600  0.1301 -0.1526 -0.3821
 2966SOL     OW20530   0.393   3.132  10.705  0.2761  0.2643 -0.3937
 2966SOL    HW120531   0.470   3.147  10.650 -1.5950  0.9146 -2.8523
 2966SOL    HW220532   0.331   3.188  10.659 -1.4201 -0.4551  0.9994
 2967SOL     OW20533   4.680   1.771   3.402 -0.4701  0.1841  0.3008
 2967SOL    HW120534   0.029   1.791   3.393 -0.8862  1.0388 -2.0990
 2967SOL    HW220535   4.638   1.835   3.345 -0.5774  1.1037  1.4235
 2968SOL     OW20536   0.391   4.106   5.608  0.0446 -0.3132 -0.6568
 2968SOL    HW120537   0.418   4.104   5.516  1.5939 -0.9797 -0.1781
 2968SOL    HW220538   0.307   4.151   5.596 -0.9811 -2.2307 -0.6688
 2969SOL     OW20539   0.568   2.165  10.326 -0.2261 -0.2857  0.4690
 2969SOL    HW120540   0.557   2.259  10.311  2.3506 -0.1467 -0.5122
 2969SOL    HW220541   0.548   2.159  10.419  2.9969  0.8943  1.2608
 2970SOL     OW20542   0.721   4.482  12.291 -0.2261  0.4714  0.4705
 2970SOL    HW120543   0.685   4.394  12.300 -1.8038  1.1919  1.3193
 2970SOL    HW220544   0.678   4.503  12.208  0.7708  0.5844 -0.0163
 2971SOL     OW20545   0.085   0.592   7.966  0.5853  0.5247  0.2721
 2971SOL    HW120546   0.142   0.557   7.898  0.6200  2.2556 -0.5931
 2971SOL    HW220547   0.133   0.561   8.042 -0.6835 -2.7745 -0.2528
 2972SOL     OW20548   0.899   2.704   6.697 -0.1310  0.1029  0.5875
 2972SOL    HW120549   0.972   2.727   6.754  0.2458  0.3257  0.0189
 2972SOL    HW220550   0.853   2.643   6.754 -1.0219 -0.3192 -0.5852
 2973SOL     OW20551   3.547   1.224   9.344 -0.1565 -0.0056 -0.2517
 2973SOL    HW120552   3.504   1.252   9.425  1.0974 -0.3123  0.5330
 2973SOL    HW220553   3.501   1.285   9.286 -2.1607 -0.7498  0.5506
 2974SOL     OW20554   4.414   1.798   8.551  0.4498  0.5137  0.2231
 2974SOL    HW120555   4.451   1.796   8.639  0.3817  0.0004  0.2433
 2974SOL    HW220556   4.488   1.759   8.506  0.5429  1.6990 -0.6465
 2975SOL     OW20557   0.025   3.190   8.859 -0.0451 -0.0105 -0.1307
 2975SOL    HW120558   0.116   3.211   8.880  1.2166 -1.6969 -3.9506
 2975SOL    HW220559   4.741   3.266   8.808 -1.2865 -0.7652 -0.5794
 2976SOL     OW20560   3.042   2.046   9.622 -0.2520 -0.0085 -0.0969
 2976SOL    HW120561   3.096   2.026   9.698  1.1289  3.6351 -0.0897
 2976SOL    HW220562   2.972   1.982   9.631 -0.5780  0.3038 -0.4043
 2977SOL     OW20563   2.698   0.773   1.531 -0.5225 -0.4073 -0.7467
 2977SOL    HW120564   2.785   0.799   1.500 -0.7645  1.8433  0.4228
 2977SOL    HW220565   2.661   0.855   1.564 -0.7773 -1.5549  1.8360
 2978SOL     OW20566   1.235   0.758   3.446  0.1632 -0.1688 -0.2875
 2978SOL    HW120567   1.239   0.672   3.488  2.4431 -0.8031 -1.7943
 2978SOL    HW220568   1.172   0.808   3.498  0.3393  0.2419 -0.4737
 2979SOL     OW20569   2.034   3.542   4.915  0.3558 -0.4706  0.0755
 2979SOL    HW120570   1.996   3.573   4.832  0.9701 -0.9081 -0.3651
 2979SOL    HW220571   2.030   3.613   4.979  0.9419  0.9096 -1.4115
 2980SOL     OW20572   2.061   4.388   2.337 -0.2433  0.2041  0.3276
 2980SOL    HW120573   2.029   4.310   2.382  1.7663  1.2823  3.6401
 2980SOL    HW220574   1.981   4.440   2.329 -1.0225 -0.7887  1.7390
 2981SOL     OW20575   0.960   0.654   7.347 -0.1659 -0.1195  0.1905
 2981SOL    HW120576   0.942   0.647   7.253 -1.7067 -1.5470  0.5718
 2981SOL    HW220577   0.976   0.747   7.360 -2.9818 -0.0904  3.5421
 2982SOL     OW20578   4.077   3.249  16.482 -0.0746  0.4405  0.0364
 2982SOL    HW120579   4.076   3.162  16.522 -2.4788  1.0599  1.3415
 2982SOL    HW220580   3.982   3.260  16.489  0.1183  1.9452  0.2967
 2983SOL     OW20581   1.229   4.528   5.860  0.4520 -0.0517 -0.5055
 2983SOL    HW120582   1.187   4.534   5.774 -0.6820 -0.7527  0.0004
 2983SOL    HW220583   1.146   4.504   5.900 -0.3826  1.6318 -1.2137
 2984SOL     OW20584   2.516   4.105   0.709 -0.7777 -0.8412  0.1500
 2984SOL    HW120585   2.564   4.022   0.703  1.5062  0.5139 -0.3999
 2984SOL    HW220586   2.447   4.091   0.644 -1.4432 -1.6409  1.0316
 2985SOL     OW20587   2.342   2.007   6.797  0.5209  0.6958  0.5220
 2985SOL    HW120588   2.248   2.004   6.812  0.4763 -0.1866  0.0631
 2985SOL    HW220589   2.368   1.990   6.888  2.7663  1.2576 -0.0155
 2986SOL     OW20590   0.993   0.893   3.026  0.0618  0.0106  0.3807
 2986SOL    HW120591   0.999   0.859   3.115 -2.8454  1.1347  1.0057
 2986SOL    HW220592   0.901   0.917   3.017 -0.1657 -1.1569 -0.4070
 2987SOL     OW20593   4.677   2.346   0.895  0.0334 -0.4695  0.0766
 2987SOL    HW120594   4.727   2.428   0.890 -0.5086 -0.1306  0.1574
 2987SOL    HW220595   4.728   2.294   0.956  0.3015 -0.7040 -0.3508
 2988SOL     OW20596   1.844   3.399   4.508 -0.3882  0.2991 -0.0047
 2988SOL    HW120597   1.779   3.332   4.528 -0.4470  0.7278  1.2016
 2988SOL    HW220598   1.788   3.466   4.468  1.1453  1.2492 -0.5620
 2989SOL     OW20599   1.938   2.617   1.982  0.2518 -0.1540  0.1312
 2989SOL    HW120600   1.852   2.585   1.959  0.3538 -0.9348  0.8237
 2989SOL    HW220601   1.982   2.533   1.998  0.0466 -0.6847 -2.1816
 2990SOL     OW20602   1.768   3.186   4.278 -0.6208  0.6810 -0.4363
 2990SOL    HW120603   1.768   3.254   4.345 -0.8607 -0.3560  0.6257
 2990SOL    HW220604   1.797   3.109   4.327  0.9237  0.8654 -1.0666
 2991SOL     OW20605   4.602   0.101   3.936  0.4226  0.1828  0.2483
 2991SOL    HW120606   4.522   0.148   3.961 -0.2188 -0.2740 -0.9747
 2991SOL    HW220607   4.673   0.140   3.989  2.0949 -1.3307 -0.8880
 2992SOL     OW20608   2.162   4.343   2.017 -0.2605  0.2535  0.5144
 2992SOL    HW120609   2.079   4.308   2.050 -0.5134  2.4070  2.1721
 2992SOL    HW220610   2.224   4.275   2.040  1.4662  1.6657  0.0570
 2993SOL     OW20611   3.292   0.438   6.624  0.3141  0.2863 -0.6666
 2993SOL    HW120612   3.235   0.472   6.555  0.5125  2.6022  0.3297
 2993SOL    HW220613   3.360   0.505   6.626  0.4809  0.1039 -0.1305
 2994SOL     OW20614   2.680   1.319   9.899  0.2028 -0.1367  0.1075
 2994SOL    HW120615   2.718   1.386   9.842 -0.3226 -0.0658 -0.1640
 2994SOL    HW220616   2.686   1.246   9.837  0.6236  0.0557 -0.0774
 2995SOL     OW20617   0.896   2.865   5.603  0.3880 -0.1128  0.5392
 2995SOL    HW120618   0.824   2.806   5.581 -1.1469  1.8654  0.2223
 2995SOL    HW220619   0.934   2.820   5.678 -1.3787 -0.9589  0.9325
 2996SOL     OW20620   1.646   1.255   1.809  0.1769 -0.0839 -0.2185
 2996SOL    HW120621   1.689   1.284   1.729  1.2791 -0.2943  0.2970
 2996SOL    HW220622   1.564   1.229   1.766  0.5130  0.0247 -0.9176
 2997SOL     OW20623   0.678   2.812   7.576 -0.1196  0.0790  0.7368
 2997SOL    HW120624   0.586   2.826   7.550  0.6247  1.0114 -1.4204
 2997SOL    HW220625   0.692   2.895   7.622  2.1080 -0.5456  1.1440
 2998SOL     OW20626   0.149   2.052   8.918  0.7173  0.7409  0.0552
 2998SOL    HW120627   0.141   2.098   9.001  0.2098 -0.4272  0.6531
 2998SOL    HW220628   0.166   2.118   8.851  1.0195  1.9470  1.3143
 2999SOL     OW20629   0.470   1.753   5.543 -0.5084  0.1444 -0.1755
 2999SOL    HW120630   0.467   1.704   5.461 -1.0665  0.9988 -0.6696
 2999SOL    HW220631   0.530   1.704   5.599 -0.4257 -0.0292 -0.4186
 3000SOL     OW20632   2.071   2.076   6.206 -0.8285  0.1209 -0.0123
 3000SOL    HW120633   2.040   2.036   6.125  1.6071  1.5347 -1.6264
 3000SOL    HW220634   2.049   2.006   6.268  0.3022 -0.6586 -0.4885
 3001SOL     OW20635   2.842   0.746   4.173 -0.4086  0.2980 -0.6770
 3001SOL    HW120636   2.882   0.668   4.212 -1.1842 -1.1646 -2.8087
 3001SOL    HW220637   2.914   0.807   4.178 -0.3969  0.4592 -2.7605
 3002SOL     OW20638   1.735   3.076  13.408 -0.1064  0.5294 -0.1571
 3002SOL    HW120639   1.738   3.043  13.318  1.4799  0.3767 -0.0614
 3002SOL    HW220640   1.705   3.166  13.400 -1.4460  0.1555  0.7113
 3003SOL     OW20641   0.280   4.260   7.924  0.0381 -0.0833  0.4520
 3003SOL    HW120642   0.337   4.336   7.914 -2.2673  1.5284 -0.5561
 3003SOL    HW220643   0.215   4.295   7.985 -0.7759 -2.4229  0.9574
 3004SOL     OW20644   1.312   1.438   7.099  0.1433 -0.0641  0.1283
 3004SOL    HW120645   1.235   1.402   7.054 -0.1144  0.9294 -0.2337
 3004SOL    HW220646   1.269   1.466   7.179  1.7469  0.7343  0.7170
 3005SOL     OW20647   2.926   3.655  12.454 -0.5038 -0.8487 -0.2653
 3005SOL    HW120648   2.995   3.590  12.463  0.0882 -0.0328  1.0829
 3005SOL    HW220649   2.913   3.679  12.545  1.1137 -1.4823  0.1417
 3006SOL     OW20650   1.454   3.697   6.363  0.1434 -0.0554 -0.3209
 3006SOL    HW120651   1.455   3.740   6.277 -1.0026 -1.9722 -1.2848
 3006SOL    HW220652   1.537   3.651   6.369 -0.0888 -0.6852 -1.9474
 3007SOL     OW20653   3.811   3.965   8.256 -0.0874 -0.2430 -0.3224
 3007SOL    HW120654   3.816   4.048   8.304  0.8126  0.1254 -1.0552
 3007SOL    HW220655   3.874   3.926   8.315 -0.1355  0.7823  0.4093
 3008SOL     OW20656   0.762   4.383   1.968 -0.2237  0.4935  0.5037
 3008SOL    HW120657   0.786   4.474   1.987  0.5050 -0.2305  3.1181
 3008SOL    HW220658   0.690   4.382   1.905 -1.0458  0.9024  1.4304
 3009SOL     OW20659   2.003   3.838  13.784 -0.9083  0.7652  0.5181
 3009SOL    HW120660   1.987   3.896  13.710  0.7202  0.2141 -0.2818
 3009SOL    HW220661   2.022   3.898  13.856 -0.4238 -0.0472  1.0686
 3010SOL     OW20662   1.719   2.168   6.216 -0.6567  0.2129  0.3943
 3010SOL    HW120663   1.641   2.115   6.204  1.1300 -2.3070 -0.1710
 3010SOL    HW220664   1.783   2.116   6.167 -2.5618 -2.6620  0.9514
 3011SOL     OW20665   3.930   2.802   2.509  0.1150 -0.0887 -0.1149
 3011SOL    HW120666   3.931   2.868   2.439 -1.3198 -1.0337 -1.0196
 3011SOL    HW220667   3.836   2.784   2.507 -0.2216  1.5610  0.8997
 3012SOL     OW20668   4.660   2.430   6.790  0.0224 -1.2020 -0.1708
 3012SOL    HW120669   4.658   2.367   6.718 -0.1736 -0.9539 -0.3866
 3012SOL    HW220670   4.609   2.503   6.753 -0.1003 -0.8828  0.6252
 3013SOL     OW20671   3.521   3.236   9.373 -0.2930  0.0902 -0.4051
 3013SOL    HW120672   3.486   3.310   9.323 -1.3900 -0.2189 -0.0966
 3013SOL    HW220673   3.503   3.163   9.314 -2.3885 -1.6756  2.3770
 3014SOL     OW20674   2.644   1.424   4.459  0.2864  0.1196 -0.4139
 3014SOL    HW120675   2.717   1.471   4.499  0.2967  0.3201 -0.6610
 3014SOL    HW220676   2.593   1.427   4.539 -1.1084 -3.2429 -1.2001
 3015SOL     OW20677   0.310   0.918   6.937  0.1020 -0.2879  0.0115
 3015SOL    HW120678   0.253   0.928   7.014  2.4807 -1.0231  1.8711
 3015SOL    HW220679   0.334   1.008   6.916 -0.5345 -0.3063 -0.7926
 3016SOL     OW20680   1.135   3.887  13.131  0.3522  0.9792 -0.3153
 3016SOL    HW120681   1.109   3.885  13.223 -0.9012 -1.8366 -0.7451
 3016SOL    HW220682   1.207   3.825  13.139 -0.0140  0.5535 -0.3457
 3017SOL     OW20683   4.457   1.282   5.384  0.0984  0.1564 -0.3993
 3017SOL    HW120684   4.487   1.367   5.417  0.4649  0.2738 -1.0252
 3017SOL    HW220685   4.444   1.247   5.471 -2.3515 -0.5886 -1.0604
 3018SOL     OW20686   4.339   0.646   4.127  0.4713  0.1392 -0.2716
 3018SOL    HW120687   4.363   0.709   4.195 -1.4650  0.8058 -0.2304
 3018SOL    HW220688   4.421   0.648   4.076  0.4301  1.3266 -0.2812
 3019SOL     OW20689   1.210   3.791   3.978 -0.1276 -0.0442 -0.3681
 3019SOL    HW120690   1.284   3.753   3.931 -1.1084 -0.4091 -1.6190
 3019SOL    HW220691   1.238   3.876   4.014 -1.7878  0.1373  0.4873
 3020SOL     OW20692   3.838   1.902   0.047  0.0838 -0.0812 -0.4543
 3020SOL    HW120693   3.847   1.929   0.139  0.2672  0.4131 -0.6182
 3020SOL    HW220694   3.910   1.838   0.043  0.9181  0.8605 -0.5362
 3021SOL     OW20695   1.564   2.281   5.202  0.5208 -0.2323 -0.3762
 3021SOL    HW120696   1.583   2.247   5.289 -1.4137 -1.7935 -0.5695
 3021SOL    HW220697   1.596   2.371   5.210 -3.0861  1.0011  0.2045
 3022SOL     OW20698   1.175   1.051   5.791 -0.2828 -0.6932  0.4838
 3022SOL    HW120699   1.235   0.984   5.759  0.3376 -0.3872  1.0149
 3022SOL    HW220700   1.116   0.990   5.836 -3.2082  1.6154 -0.1918
 3023SOL     OW20701   1.988   3.687   0.235 -0.0062 -0.3427 -0.1594
 3023SOL    HW120702   2.013   3.712   0.146  0.7598 -1.0355 -0.1325
 3023SOL    HW220703   1.893   3.689   0.224  0.0281  0.4949 -0.3492
 3024SOL     OW20704   0.389   2.366   1.242  0.4206 -0.5994  0.4711
 3024SOL    HW120705   0.414   2.283   1.201 -0.5360 -0.1831 -0.9731
 3024SOL    HW220706   0.461   2.419   1.207  0.9819 -1.0276  0.9695
 3025SOL     OW20707   0.176   0.635   8.533  0.0794 -0.1162  0.6186
 3025SOL    HW120708   0.128   0.718   8.526 -0.6601 -0.7605 -1.8764
 3025SOL    HW220709   0.259   0.678   8.510  1.9174 -2.9727  1.9258
 3026SOL     OW20710   3.595   1.248   2.102  0.1689  0.1402  0.1672
 3026SOL    HW120711   3.641   1.241   2.019 -0.3381  0.7888 -0.1676
 3026SOL    HW220712   3.643   1.182   2.151 -2.3993 -1.0352  1.0858
 3027SOL     OW20713   2.495   2.707   8.685  0.1387 -0.5432 -0.5346
 3027SOL    HW120714   2.430   2.773   8.710  1.1187  0.4732 -0.6330
 3027SOL    HW220715   2.455   2.629   8.723 -0.4404 -0.0706 -0.1727
 3028SOL     OW20716   2.535   3.914  13.001 -0.2487  0.4687  0.1259
 3028SOL    HW120717   2.567   4.004  12.995 -0.2983  0.4311 -0.7519
 3028SOL    HW220718   2.613   3.867  13.030  0.1572  0.4338 -0.9910
 3029SOL     OW20719   1.331   1.794   7.189 -0.1755  0.2485 -0.5306
 3029SOL    HW120720   1.240   1.765   7.181 -0.5713  0.9174  1.7161
 3029SOL    HW220721   1.370   1.793   7.101  0.5280  2.3991 -0.2385
 3030SOL     OW20722   3.452   0.430  10.593  0.6038  0.1445 -0.2210
 3030SOL    HW120723   3.407   0.371  10.653 -0.0712  1.1117  0.2148
 3030SOL    HW220724   3.543   0.412  10.619 -0.6956 -0.2418  4.0572
 3031SOL     OW20725   0.477   0.544   5.297  0.2832 -0.4076 -0.0675
 3031SOL    HW120726   0.392   0.557   5.339  1.0571  3.2597  0.3580
 3031SOL    HW220727   0.483   0.449   5.290  1.0443 -0.3076 -0.7570
 3032SOL     OW20728   2.134   2.664   3.410 -0.9559 -0.3168  0.3286
 3032SOL    HW120729   2.102   2.586   3.365 -0.2440 -1.0034  1.0247
 3032SOL    HW220730   2.060   2.725   3.421 -1.4684 -0.8036 -0.3693
 3033SOL     OW20731   1.302   4.599   2.252  0.1634 -0.5980  0.5977
 3033SOL    HW120732   1.220   4.611   2.203  1.6152 -0.2485 -1.7506
 3033SOL    HW220733   1.298   4.677   2.308 -0.7771 -1.1364  1.2786
 3034SOL     OW20734   4.374   4.215   2.941  0.1780 -0.5036  0.1173
 3034SOL    HW120735   4.384   4.285   2.877  1.6158 -0.0263  0.8625
 3034SOL    HW220736   4.279   4.225   2.944  0.1342 -1.5232  2.3241
 3035SOL     OW20737   0.047   3.591   4.311 -0.1101  0.1923  0.2565
 3035SOL    HW120738   0.116   3.609   4.375 -0.6660 -0.2251  0.9734
 3035SOL    HW220739   4.733   3.665   4.325 -2.4325 -1.3454 -1.2853
 3036SOL     OW20740   0.905   0.440   4.670 -0.1650  0.2176  0.0920
 3036SOL    HW120741   0.832   0.471   4.617 -0.6650  0.8986  1.1773
 3036SOL    HW220742   0.980   0.479   4.625 -0.3613  1.9840  1.2876
 3037SOL     OW20743   0.182   0.266   4.985  0.4148 -0.0037  0.1618
 3037SOL    HW120744   0.208   0.320   4.911  2.0845  0.8667  1.3922
 3037SOL    HW220745   0.231   0.298   5.060 -1.0710  0.3745  0.9679
 3038SOL     OW20746   0.727   3.950   1.207 -0.0460  0.1430  0.3052
 3038SOL    HW120747   0.804   3.894   1.203 -0.1622 -0.0715  1.0174
 3038SOL    HW220748   0.745   3.989   1.293 -3.7442  0.1617  1.0784
 3039SOL     OW20749   1.495   1.803   5.105  0.4852 -0.6210 -0.3249
 3039SOL    HW120750   1.581   1.842   5.090  0.6568 -1.2755 -0.9960
 3039SOL    HW220751   1.433   1.875   5.116  0.3827 -0.9314  1.1989
 3040SOL     OW20752   2.489   3.589   8.212 -0.0442 -0.0049 -0.5590
 3040SOL    HW120753   2.525   3.558   8.129  1.3852 -1.2799  0.5566
 3040SOL    HW220754   2.490   3.684   8.199 -0.7619 -0.0529 -1.0363
 3041SOL     OW20755   1.751   0.388   6.704  0.0592 -0.2806  0.0404
 3041SOL    HW120756   1.720   0.352   6.621  0.5202  0.5565 -0.5009
 3041SOL    HW220757   1.810   0.456   6.672 -0.0734 -0.1780  0.0096
 3042SOL     OW20758   1.998   0.168  13.364 -0.3691  0.0716 -0.0141
 3042SOL    HW120759   2.029   0.086  13.404  1.9056  1.3533  0.8287
 3042SOL    HW220760   2.010   0.233  13.433 -3.1362  2.2707 -1.6154
 3043SOL     OW20761   2.705   0.433  15.258 -1.0217  0.1807 -0.0909
 3043SOL    HW120762   2.729   0.518  15.296  0.7366 -0.8504  1.1147
 3043SOL    HW220763   2.671   0.467  15.176 -3.0306 -0.2263  0.5814
 3044SOL     OW20764   4.111   0.870  12.895 -0.1055 -0.3704 -0.3367
 3044SOL    HW120765   4.038   0.812  12.873 -0.7640  0.9235 -1.5218
 3044SOL    HW220766   4.185   0.809  12.897  0.3470  0.2163  0.7141
 3045SOL     OW20767   2.335   0.250   5.572  0.1122 -0.6360 -0.7198
 3045SOL    HW120768   2.345   0.309   5.497 -2.1662  0.2777 -0.2988
 3045SOL    HW220769   2.292   0.175   5.530 -2.1808 -1.1474  2.5397
 3046SOL     OW20770   0.616   0.186   7.401  0.3495  0.5330  0.3174
 3046SOL    HW120771   0.615   0.166   7.307  0.4205 -3.5674  1.2201
 3046SOL    HW220772   0.522   0.205   7.402 -0.0869 -1.7414  0.9170
 3047SOL     OW20773   2.258   1.301   9.583 -0.2218  0.6620 -0.4595
 3047SOL    HW120774   2.259   1.263   9.495 -1.1374  1.2663 -0.7377
 3047SOL    HW220775   2.244   1.221   9.634 -2.2643  0.0341 -1.9794
 3048SOL     OW20776   4.644   2.090   5.398 -0.2037 -0.6423  0.5738
 3048SOL    HW120777   4.660   1.997   5.411  0.6187 -0.6953 -0.8248
 3048SOL    HW220778   4.582   2.108   5.469  0.2438 -1.1885  1.1068
 3049SOL     OW20779   3.539   4.089  13.462 -1.3167  0.8464 -0.0706
 3049SOL    HW120780   3.515   4.173  13.500  1.5339  1.2473  0.8621
 3049SOL    HW220781   3.486   4.033  13.518 -0.1315  0.2317  0.4242
 3050SOL     OW20782   2.821   0.508   9.488 -0.0089  0.4601  0.2649
 3050SOL    HW120783   2.737   0.554   9.487 -0.2562  0.0358  1.4223
 3050SOL    HW220784   2.888   0.576   9.498 -0.6019  0.4444  4.2040
 3051SOL     OW20785   3.326   2.500   8.632  0.2223  0.0857  0.1217
 3051SOL    HW120786   3.232   2.513   8.645  0.9827  5.2588  0.4791
 3051SOL    HW220787   3.328   2.556   8.554 -0.0571  0.4731  0.3905
 3052SOL     OW20788   2.123   3.595  14.756  0.1705  0.0773 -0.6127
 3052SOL    HW120789   2.092   3.668  14.702 -0.7034  1.0247  1.1753
 3052SOL    HW220790   2.214   3.614  14.731  0.2077  0.4038 -0.2409
 3053SOL     OW20791   1.002   2.428   8.204  0.1501 -0.1158  0.4967
 3053SOL    HW120792   0.919   2.423   8.157  0.9088 -1.1297 -0.7180
 3053SOL    HW220793   1.030   2.338   8.216  1.2253  0.1852  0.2351
 3054SOL     OW20794   1.345   1.653  12.180  0.4512 -0.0717 -0.4495
 3054SOL    HW120795   1.424   1.625  12.226 -0.8154 -2.0787  0.4916
 3054SOL    HW220796   1.391   1.727  12.139 -0.4414  1.2275  0.8867
 3055SOL     OW20797   4.108   3.594   8.565  0.5382 -0.3813  0.2368
 3055SOL    HW120798   4.145   3.590   8.653  1.8568  1.0477 -0.2556
 3055SOL    HW220799   4.049   3.518   8.569 -0.3609  0.3900  1.7091
 3056SOL     OW20800   1.738   2.216  15.966  0.7546  0.0063 -0.0890
 3056SOL    HW120801   1.808   2.186  16.024 -1.8012  1.1519  3.5349
 3056SOL    HW220802   1.784   2.227  15.883 -1.8496 -0.7142 -1.6319
 3057SOL     OW20803   1.041   2.192   3.229 -0.3824  0.3435  0.2997
 3057SOL    HW120804   1.066   2.225   3.142 -1.3388 -0.9247 -0.4513
 3057SOL    HW220805   1.073   2.269   3.277  2.1036 -1.2188  1.1447
 3058SOL     OW20806   4.672   2.601   2.032  0.4259 -0.4140  0.0759
 3058SOL    HW120807   4.734   2.634   2.097 -1.0236  2.0189  0.2068
 3058SOL    HW220808   4.595   2.591   2.088 -1.1271  1.5322 -1.7201
 3059SOL     OW20809   3.269   0.803  14.045  0.1159  0.5029 -0.0456
 3059SOL    HW120810   3.252   0.870  14.111 -0.8074  1.2654 -1.0372
 3059SOL    HW220811   3.325   0.857  13.989 -3.1957  1.8731 -2.0926
 3060SOL     OW20812   2.523   1.618  13.720  0.6281  0.6308 -0.4070
 3060SOL    HW120813   2.490   1.539  13.676  1.5632 -0.5162  0.9629
 3060SOL    HW220814   2.440   1.658  13.742  0.2462  0.2109 -1.0897
 3061SOL     OW20815   4.587   2.720   3.373  0.6987  0.6259 -0.0222
 3061SOL    HW120816   4.651   2.755   3.310  0.0406  0.3148 -0.8680
 3061SOL    HW220817   4.530   2.672   3.313 -0.4476  0.9512  0.8263
 3062SOL     OW20818   2.446   2.100   9.093  0.1982  0.0001  0.1497
 3062SOL    HW120819   2.449   2.092   8.998  1.1337 -2.4582  0.3887
 3062SOL    HW220820   2.482   2.187   9.108  1.6392 -0.2736 -1.8022
 3063SOL     OW20821   1.908   3.769   6.548  0.1635  0.9060  0.3254
 3063SOL    HW120822   1.838   3.806   6.602  0.8138 -0.3301  2.0440
 3063SOL    HW220823   1.871   3.783   6.461 -0.8446 -0.7228  0.4903
 3064SOL     OW20824   0.037   3.600   9.179  0.2875  0.1240 -0.1519
 3064SOL    HW120825   0.053   3.671   9.116 -0.3550 -0.1133 -0.5908
 3064SOL    HW220826   4.728   3.547   9.120 -1.9853  0.2382  1.7942
 3065SOL     OW20827   4.681   1.210   6.465 -0.3166  0.0247  0.5140
 3065SOL    HW120828   4.686   1.281   6.401  2.6558  1.2038  2.0526
 3065SOL    HW220829   4.598   1.163   6.457  0.7585 -1.5178 -1.6755
 3066SOL     OW20830   4.170   3.463   8.817 -0.3414  0.1169  0.0836
 3066SOL    HW120831   4.173   3.475   8.912 -2.1571  0.5134  0.0944
 3066SOL    HW220832   4.169   3.367   8.812 -2.8813  0.2022 -1.0679
 3067SOL     OW20833   1.213   2.092   5.365  0.7344 -0.2541 -0.2610
 3067SOL    HW120834   1.236   2.182   5.385 -3.6861  1.5560 -3.5984
 3067SOL    HW220835   1.138   2.084   5.424  0.4143  0.2056 -0.6108
 3068SOL     OW20836   1.063   0.555   6.571 -0.1571 -0.2245  0.8590
 3068SOL    HW120837   1.055   0.464   6.600  0.1627 -1.0297 -1.5946
 3068SOL    HW220838   1.112   0.601   6.639  1.2838  0.5861 -0.7249
 3069SOL     OW20839   1.417   3.563   1.067 -0.1312  0.5642  0.5331
 3069SOL    HW120840   1.413   3.578   0.972  0.1245  1.7140  0.6953
 3069SOL    HW220841   1.446   3.472   1.061  0.0370  0.5782  1.1043
 3070SOL     OW20842   1.264   2.391   9.396  0.1263 -0.7996  0.0443
 3070SOL    HW120843   1.170   2.399   9.409  0.0352 -3.5929  1.1761
 3070SOL    HW220844   1.272   2.400   9.301 -0.8385 -0.9415 -0.0454
 3071SOL     OW20845   1.729   0.237   8.211  0.2429 -1.0582  0.8609
 3071SOL    HW120846   1.799   0.191   8.257  1.5224 -2.5522 -2.5611
 3071SOL    HW220847   1.667   0.249   8.284  0.5514 -2.5970  1.3745
 3072SOL     OW20848   0.287   0.218   2.183 -0.1328  0.5012 -0.3019
 3072SOL    HW120849   0.321   0.154   2.120 -1.3573 -1.1091  0.6910
 3072SOL    HW220850   0.352   0.286   2.164  1.1824 -0.8773 -0.6793
 3073SOL     OW20851   3.118   3.029  16.054  1.0642  0.0103  0.5125
 3073SOL    HW120852   3.050   3.063  16.112 -0.7649 -1.1977 -0.8980
 3073SOL    HW220853   3.065   3.009  15.977 -0.0956 -1.3064  1.6589
 3074SOL     OW20854   3.633   2.822  13.624  0.1709 -0.1167  0.4566
 3074SOL    HW120855   3.618   2.823  13.719 -2.5821  2.7301 -0.0140
 3074SOL    HW220856   3.726   2.843  13.635 -0.0147  1.5074 -1.1094
 3075SOL     OW20857   0.761   1.459   3.076  0.2168 -0.0624  0.4178
 3075SOL    HW120858   0.732   1.477   2.987 -1.3840  2.4450  1.4418
 3075SOL    HW220859   0.854   1.437   3.069  0.9600  2.1224  3.3982
 3076SOL     OW20860   1.600   3.641   4.587  0.0669  0.4979 -0.0443
 3076SOL    HW120861   1.508   3.613   4.594  0.5836 -0.5899  2.5654
 3076SOL    HW220862   1.634   3.617   4.673 -4.7042  0.0344  1.7221
 3077SOL     OW20863   3.945   3.324   6.297  0.8781 -0.0949  0.0333
 3077SOL    HW120864   3.919   3.367   6.378 -0.0767  1.4835 -1.1160
 3077SOL    HW220865   3.880   3.337   6.227  0.6420 -2.4255 -0.1831
 3078SOL     OW20866   2.013   1.320  12.221 -0.3926  0.2754  0.0337
 3078SOL    HW120867   2.072   1.364  12.282 -0.1223 -0.9270  0.6310
 3078SOL    HW220868   1.941   1.383  12.212 -1.1849 -0.3757  1.9012
 3079SOL     OW20869   0.187   1.931   1.174 -0.2996 -0.0395 -0.3382
 3079SOL    HW120870   0.102   1.942   1.217  1.4508  1.1156  2.8085
 3079SOL    HW220871   0.196   1.835   1.177 -0.6150 -0.0375  0.6616
 3080SOL     OW20872   3.482   4.204   3.914 -0.7826  0.0937 -0.8424
 3080SOL    HW120873   3.394   4.171   3.934 -0.8901 -0.0740 -1.5978
 3080SOL    HW220874   3.539   4.128   3.924  0.2298  0.9373 -0.1874
 3081SOL     OW20875   4.604   0.673   1.423 -0.1721  0.8260 -0.0178
 3081SOL    HW120876   4.528   0.621   1.396  2.3796 -2.6690 -0.3966
 3081SOL    HW220877   4.578   0.760   1.391  1.7159  1.1037 -0.7862
 3082SOL     OW20878   4.639   4.055   2.533  0.0114  0.0148  0.2829
 3082SOL    HW120879   4.637   3.987   2.600 -0.1336  1.1552  1.4378
 3082SOL    HW220880   4.631   3.994   2.459 -1.5921 -1.5468  1.7399
 3083SOL     OW20881   2.681   3.323   9.135 -0.2660  0.2669 -0.3670
 3083SOL    HW120882   2.705   3.408   9.098 -0.8461 -0.4217 -2.3271
 3083SOL    HW220883   2.648   3.287   9.052 -1.5513 -1.0832  0.7405
 3084SOL     OW20884   4.171   1.548  10.895 -0.0858 -0.3013  0.2198
 3084SOL    HW120885   4.214   1.531  10.978 -2.0169 -1.7317  0.9375
 3084SOL    HW220886   4.228   1.609  10.848  1.2602 -2.0599 -0.4608
 3085SOL     OW20887   3.660   2.703   7.566 -0.3179 -0.6282 -0.7772
 3085SOL    HW120888   3.705   2.619   7.574 -0.3455 -0.4937  0.8234
 3085SOL    HW220889   3.654   2.708   7.471  1.2840  3.4002 -0.6568
 3086SOL     OW20890   2.446   3.073   5.914  0.2094 -0.4760 -0.1196
 3086SOL    HW120891   2.367   3.038   5.872 -0.2514 -0.9659  1.1699
 3086SOL    HW220892   2.508   3.001   5.901 -1.0172 -1.4332 -0.6448
 3087SOL     OW20893   4.468   0.546  10.659 -0.1147  0.4056 -0.3312
 3087SOL    HW120894   4.449   0.604  10.585 -1.1057 -0.3931 -0.7010
 3087SOL    HW220895   4.531   0.590  10.716  0.3962 -1.9283  0.9091
 3088SOL     OW20896   0.399   4.553   4.391 -0.0589  0.5718 -0.4293
 3088SOL    HW120897   0.360   4.588   4.311 -1.5545  1.8946  0.8838
 3088SOL    HW220898   0.492   4.545   4.370  0.4500 -0.7402  2.2011
 3089SOL     OW20899   4.078   3.459   4.344  0.8198  0.2284 -0.1531
 3089SOL    HW120900   4.082   3.369   4.311 -0.2797  1.4732 -3.7061
 3089SOL    HW220901   4.147   3.458   4.410  0.5558  2.0050  0.1494
 3090SOL     OW20902   0.565   3.431  13.150  0.8120  0.0290  0.1077
 3090SOL    HW120903   0.562   3.516  13.107 -0.2549  0.6079  1.3147
 3090SOL    HW220904   0.620   3.447  13.226  0.6466  0.7649  0.0653
 3091SOL     OW20905   3.953   3.480   9.247  0.1756 -0.7706 -0.1833
 3091SOL    HW120906   3.969   3.429   9.327  0.9327  1.5419  1.1306
 3091SOL    HW220907   3.906   3.414   9.196  1.3534 -2.4553  0.9002
 3092SOL     OW20908   1.672   3.834   9.836  0.1745  0.0522 -0.1016
 3092SOL    HW120909   1.635   3.872   9.756  1.1749 -2.1180 -1.5926
 3092SOL    HW220910   1.767   3.842   9.829  0.2333  1.8900  2.8114
 3093SOL     OW20911   3.283   2.911  11.986 -0.1959  0.3973  0.3604
 3093SOL    HW120912   3.282   2.970  11.910 -1.3306  0.6593  0.5718
 3093SOL    HW220913   3.370   2.911  12.025  0.9148  1.3648 -2.1553
 3094SOL     OW20914   2.185   2.598   6.302  0.1651  0.1177  0.2048
 3094SOL    HW120915   2.265   2.637   6.266 -0.0300  2.2092  2.0403
 3094SOL    HW220916   2.124   2.671   6.292 -0.5746 -0.7702 -1.7002
 3095SOL     OW20917   4.285   2.097   3.860  0.4064  0.2098  0.9071
 3095SOL    HW120918   4.296   2.023   3.800  1.6107  0.8235  0.3587
 3095SOL    HW220919   4.202   2.073   3.900 -0.1520  0.7126  0.0365
 3096SOL     OW20920   1.562   2.561   3.421 -0.0092 -0.3850  0.6210
 3096SOL    HW120921   1.476   2.587   3.452 -0.7900 -2.6707  0.4048
 3096SOL    HW220922   1.610   2.628   3.470  3.5142 -0.8547 -2.1576
 3097SOL     OW20923   3.981   3.977   5.180 -0.4699  0.3325 -0.0182
 3097SOL    HW120924   3.969   4.071   5.188  1.9870  0.8312 -2.2811
 3097SOL    HW220925   3.902   3.958   5.130  0.7447 -0.1258 -1.7665
 3098SOL     OW20926   1.132   2.352   0.009 -0.2571 -0.1170  0.4692
 3098SOL    HW120927   1.217   2.328  17.743 -0.2696 -1.4950  1.3019
 3098SOL    HW220928   1.073   2.352  17.705 -0.8973  2.5730  0.9885
 3099SOL     OW20929   1.674   2.225   6.665  0.0231 -0.2506 -0.5317
 3099SOL    HW120930   1.603   2.166   6.640 -0.6952  0.8653 -1.1111
 3099SOL    HW220931   1.739   2.207   6.597  0.5343 -1.4210  0.2860
 3100SOL     OW20932   0.325   4.423   2.387  0.1475 -0.2068  0.1373
 3100SOL    HW120933   0.409   4.382   2.408 -0.1771 -0.6913  0.4865
 3100SOL    HW220934   0.312   4.404   2.295 -0.4445  0.8960 -0.0006
 3101SOL     OW20935   1.078   0.702   5.592 -0.4824 -0.4659  0.7108
 3101SOL    HW120936   1.168   0.699   5.558 -0.2203 -0.2805  1.3998
 3101SOL    HW220937   1.040   0.749   5.518  0.5439  3.0146  2.4239
 3102SOL     OW20938   0.372   4.053   3.224 -0.1959 -0.9509  0.3458
 3102SOL    HW120939   0.421   3.972   3.211  0.3826 -0.5372 -0.0479
 3102SOL    HW220940   0.371   4.089   3.136 -2.5094 -0.0830  0.7331
 3103SOL     OW20941   2.357   4.324   3.072  0.2578 -0.4096 -0.0592
 3103SOL    HW120942   2.391   4.238   3.047  1.5033  0.5582 -1.7096
 3103SOL    HW220943   2.439   4.374   3.080 -0.9720  1.6413 -0.3114
 3104SOL     OW20944   2.018   3.359  12.026  0.2209  0.1383 -0.2193
 3104SOL    HW120945   1.991   3.281  12.074  0.5405 -0.3567 -0.8470
 3104SOL    HW220946   1.937   3.393  11.988  0.9522 -0.1396 -2.0184
 3105SOL     OW20947   2.184   1.861   9.221  0.1346  0.1568  0.0633
 3105SOL    HW120948   2.098   1.870   9.180  0.4576  2.7968 -0.0197
 3105SOL    HW220949   2.165   1.799   9.292  1.7287  1.2862  1.4919
 3106SOL     OW20950   4.372   2.096  15.434  0.2572  0.3609 -0.0614
 3106SOL    HW120951   4.405   2.118  15.521 -0.2827 -0.6913  0.4140
 3106SOL    HW220952   4.460   2.081  15.399  0.4946 -2.1410  1.5813
 3107SOL     OW20953   2.001   4.615  12.507 -0.1477 -0.2871 -0.4384
 3107SOL    HW120954   1.920   4.638  12.554 -0.3280 -1.6201 -0.1031
 3107SOL    HW220955   2.042   4.699  12.488 -2.3003  0.2117 -2.8854
 3108SOL     OW20956   3.713   2.227   5.509  0.0672 -0.1913  0.3110
 3108SOL    HW120957   3.652   2.176   5.456  0.0839  0.0287  0.0844
 3108SOL    HW220958   3.726   2.312   5.468  0.3948 -0.1277  0.5370
 3109SOL     OW20959   4.101   1.260  15.602 -0.2316  0.3861 -0.5053
 3109SOL    HW120960   4.134   1.183  15.648 -2.0015  0.6013  1.1308
 3109SOL    HW220961   4.063   1.316  15.670 -0.1626  0.7084 -0.7330
 3110SOL     OW20962   4.091   4.535   4.677  0.4332 -0.5143 -0.3943
 3110SOL    HW120963   4.085   4.443   4.702 -2.7410  0.0448  0.9120
 3110SOL    HW220964   4.130   4.528   4.590  2.0253  0.2447  0.2588
 3111SOL     OW20965   1.855   3.873   5.908  0.7172 -0.0545 -0.2797
 3111SOL    HW120966   1.895   3.958   5.927  0.0260 -0.2639  2.1420
 3111SOL    HW220967   1.926   3.810   5.894  0.4188  0.0981 -2.4444
 3112SOL     OW20968   1.781   4.663   2.900  0.2166  0.1092  0.3610
 3112SOL    HW120969   1.744   4.664   2.988 -0.6598  1.5042 -0.0248
 3112SOL    HW220970   1.859   4.611   2.916 -0.6887 -1.2693  0.3799
 3113SOL     OW20971   1.776   0.106  17.309  0.0576  0.2698  0.0066
 3113SOL    HW120972   1.723   0.185  17.317  1.0650  0.7965  1.3283
 3113SOL    HW220973   1.862   0.146  17.299 -0.3728  0.9060 -1.2089
 3114SOL     OW20974   2.942   0.810   7.592 -0.3095  0.3259 -0.2196
 3114SOL    HW120975   2.965   0.843   7.505 -1.4573  1.3549 -0.1304
 3114SOL    HW220976   3.024   0.824   7.639  0.3196 -0.2533 -1.1401
 3115SOL     OW20977   4.460   0.912  10.261 -0.0244  0.4224 -0.5084
 3115SOL    HW120978   4.509   0.991  10.238  0.5121 -0.2780 -1.8031
 3115SOL    HW220979   4.459   0.865  10.177  1.4639  1.3116 -1.0207
 3116SOL     OW20980   1.882   2.917   7.968  0.0389 -0.2419 -0.5177
 3116SOL    HW120981   1.913   3.006   7.949  1.1941 -0.5901 -0.2761
 3116SOL    HW220982   1.832   2.902   7.888  1.4919  1.9569 -1.8392
 3117SOL     OW20983   2.418   0.305   4.670 -0.1494 -0.0593 -0.5148
 3117SOL    HW120984   2.362   0.247   4.722 -0.5111  1.3983  0.7136
 3117SOL    HW220985   2.380   0.302   4.583  2.0265  0.1018 -1.4655
 3118SOL     OW20986   0.626   0.071   7.819  0.3495 -0.1752 -0.4917
 3118SOL    HW120987   0.681   0.063   7.897  0.9021  0.8690 -0.7711
 3118SOL    HW220988   0.539   0.075   7.858 -0.5733 -2.4464 -2.3299
 3119SOL     OW20989   3.740   4.471   9.623 -0.4183 -0.1503 -0.3003
 3119SOL    HW120990   3.715   4.551   9.669  2.3275  0.9074 -0.6265
 3119SOL    HW220991   3.835   4.478   9.623 -0.4039 -0.3101 -0.5912
 3120SOL     OW20992   3.923   1.679   4.220  0.1572 -0.7922  0.1506
 3120SOL    HW120993   3.952   1.746   4.282 -1.9714  1.6860 -1.5521
 3120SOL    HW220994   3.893   1.609   4.278 -1.3322 -0.6872 -0.5205
 3121SOL     OW20995   2.262   2.625   7.389  1.1243  0.4921 -0.6950
 3121SOL    HW120996   2.279   2.700   7.445 -0.3037 -0.1676  0.6064
 3121SOL    HW220997   2.254   2.671   7.305  1.2702  0.4189 -0.7495
 3122SOL     OW20998   3.363   1.122  14.003 -0.0767  0.2597 -0.2424
 3122SOL    HW120999   3.295   1.175  14.045  1.0498  1.3662  0.1910
 3122SOL    HW221000   3.407   1.080  14.077  0.0231  1.4628  0.3826
 3123SOL     OW21001   1.722   0.926   4.514 -0.3830 -0.4362 -0.0267
 3123SOL    HW121002   1.799   0.895   4.466 -0.2415  1.5714 -1.0979
 3123SOL    HW221003   1.649   0.903   4.455 -2.5698 -0.0820  2.5538
 3124SOL     OW21004   2.525   4.217   9.626  0.2983  0.3234 -0.3225
 3124SOL    HW121005   2.467   4.294   9.629 -0.7863 -0.4709 -1.1058
 3124SOL    HW221006   2.602   4.273   9.617  1.0654 -0.5275  1.0736
 3125SOL     OW21007   2.870   1.790   6.941 -0.7724  0.1266 -0.0248
 3125SOL    HW121008   2.894   1.875   6.903 -1.6653  1.3785  2.2145
 3125SOL    HW221009   2.803   1.810   7.007 -0.1705  2.9934 -0.2734
 3126SOL     OW21010   2.731   3.824   6.116  0.0194  0.2815  0.3398
 3126SOL    HW121011   2.768   3.795   6.199  0.0225 -1.0377 -0.1317
 3126SOL    HW221012   2.724   3.737   6.077  1.0582 -0.3901  1.6757
 3127SOL     OW21013   2.474   1.527   4.654 -0.1812  0.4290  0.1574
 3127SOL    HW121014   2.387   1.513   4.617 -0.0479  1.0385 -0.3785
 3127SOL    HW221015   2.463   1.480   4.737  1.7858  0.0222  0.1915
 3128SOL     OW21016   2.610   1.745  12.476 -0.1532  0.3668  0.2735
 3128SOL    HW121017   2.673   1.710  12.540 -1.8694 -0.9848  1.1963
 3128SOL    HW221018   2.666   1.761  12.400  0.3465  0.3603  0.6370
 3129SOL     OW21019   4.404   3.234   7.564  0.7758 -0.1974  0.0167
 3129SOL    HW121020   4.419   3.241   7.658 -1.5060  1.3776  0.2746
 3129SOL    HW221021   4.466   3.298   7.528  1.1920 -0.5834  0.0485
 3130SOL     OW21022   3.002   0.303  10.978  0.7540 -0.4754 -0.1833
 3130SOL    HW121023   2.937   0.234  10.977 -0.8013  0.9776  0.9957
 3130SOL    HW221024   2.976   0.354  10.901 -1.3827 -1.2381  0.0422
 3131SOL     OW21025   3.848   2.657  16.328 -0.1668 -0.1559 -0.6170
 3131SOL    HW121026   3.791   2.581  16.313  0.3058 -1.3344  3.5420
 3131SOL    HW221027   3.892   2.664  16.243 -0.7523  1.9279 -0.7465
 3132SOL     OW21028   2.903   0.352   6.110 -0.1663 -0.1879 -0.5015
 3132SOL    HW121029   2.947   0.269   6.125 -0.4658  0.2481  2.8128
 3132SOL    HW221030   2.945   0.411   6.172  1.2041 -0.2408 -1.3758
 3133SOL     OW21031   1.396   4.227   4.982  0.0450 -0.5622 -0.2138
 3133SOL    HW121032   1.422   4.295   5.044 -0.3257 -0.5669 -0.0509
 3133SOL    HW221033   1.449   4.160   5.026  2.3561  1.3207 -0.1136
 3134SOL     OW21034   0.615   3.061   3.502 -0.4955 -0.1627  0.0552
 3134SOL    HW121035   0.557   3.007   3.556  2.0428 -3.8471 -0.9170
 3134SOL    HW221036   0.610   3.023   3.414 -2.2018 -2.8394  1.2921
 3135SOL     OW21037   1.398   0.503   2.511 -0.3669 -0.4632 -0.1634
 3135SOL    HW121038   1.371   0.544   2.593  2.1165 -1.1300  0.9727
 3135SOL    HW221039   1.491   0.524   2.514 -0.6175  0.5761  0.1143
 3136SOL     OW21040   4.645   4.527   5.242  0.2026 -0.5979 -0.3652
 3136SOL    HW121041   4.594   4.447   5.231  1.2533 -1.1712 -0.9934
 3136SOL    HW221042   4.579   4.589   5.211 -0.0114  0.5348  2.3333
 3137SOL     OW21043   4.095   1.603   8.009 -0.1263  0.4087 -0.4698
 3137SOL    HW121044   4.128   1.557   7.933  1.3652 -1.8105  1.5341
 3137SOL    HW221045   4.002   1.581   8.009 -0.1814  0.6724 -1.5049
 3138SOL     OW21046   4.044   2.908   8.051 -0.3800 -0.5259  0.5594
 3138SOL    HW121047   4.110   2.839   8.056  1.8477  1.5299 -0.2458
 3138SOL    HW221048   4.005   2.889   7.966 -0.7785  1.2991  0.3273
 3139SOL     OW21049   0.852   2.044  15.258  0.5159  0.4244 -0.6666
 3139SOL    HW121050   0.936   2.079  15.229 -0.0410  0.6270 -2.0502
 3139SOL    HW221051   0.875   2.040  15.350  0.6671 -2.9148 -0.8538
 3140SOL     OW21052   4.105   4.656   6.749 -0.0349  0.6539  0.4367
 3140SOL    HW121053   4.078   4.566   6.764 -0.3737  0.4685 -1.2335
 3140SOL    HW221054   4.079   4.699   6.830 -0.0175  0.5269  0.5094
 3141SOL     OW21055   1.607   3.074   5.117  0.6046  0.4087  0.2675
 3141SOL    HW121056   1.547   3.142   5.148 -0.0120 -0.0560  0.0966
 3141SOL    HW221057   1.627   3.022   5.194 -0.8497 -2.2545 -1.1588
 3142SOL     OW21058   1.926   2.115   7.266 -0.2247 -0.2384  0.8547
 3142SOL    HW121059   1.992   2.050   7.290 -0.9658 -1.1317  0.4560
 3142SOL    HW221060   1.933   2.104   7.171  0.1286  1.7511  0.6370
 3143SOL     OW21061   3.406   4.105   3.461  0.0049 -0.1159  0.0179
 3143SOL    HW121062   3.341   4.115   3.392  1.9846  0.6192 -1.7381
 3143SOL    HW221063   3.365   4.165   3.523 -0.7185 -2.7130  2.0832
 3144SOL     OW21064   4.372   3.398   1.486  0.5901 -0.0326 -0.1791
 3144SOL    HW121065   4.340   3.486   1.504 -1.4794 -0.8327  0.0567
 3144SOL    HW221066   4.371   3.367   1.577  0.3045  0.8816  0.1295
 3145SOL     OW21067   0.092   2.631   3.825  0.0837  0.4557 -0.1176
 3145SOL    HW121068   0.170   2.579   3.844 -0.7162 -0.4577  0.6626
 3145SOL    HW221069   0.098   2.671   3.738 -0.9786 -1.1539 -0.9166
 3146SOL     OW21070   2.514   2.568   1.863 -0.3620  0.3248 -0.7571
 3146SOL    HW121071   2.572   2.644   1.859 -1.4679  1.1762 -0.6003
 3146SOL    HW221072   2.430   2.611   1.846 -1.3456 -1.3514 -0.1489
 3147SOL     OW21073   4.058   3.564   7.965 -0.2055  0.5511 -0.1778
 3147SOL    HW121074   3.977   3.599   8.004 -0.6033  1.3069 -1.7015
 3147SOL    HW221075   4.068   3.622   7.889  0.2813 -2.1127 -2.1389
 3148SOL     OW21076   3.735   3.270  12.641 -0.5180  0.1448 -0.2272
 3148SOL    HW121077   3.730   3.255  12.735  2.4991 -0.0990 -0.1085
 3148SOL    HW221078   3.828   3.255  12.622  0.0334  2.2885  0.7425
 3149SOL     OW21079   1.673   1.303   9.727 -0.0526  0.4098  0.2284
 3149SOL    HW121080   1.702   1.334   9.813 -0.0828 -2.3597  1.2412
 3149SOL    HW221081   1.648   1.386   9.686 -4.0305 -1.2471 -0.6933
 3150SOL     OW21082   2.836   2.655  13.049 -0.0336 -0.1158 -0.1560
 3150SOL    HW121083   2.912   2.623  13.000 -1.7028 -1.5861 -1.7778
 3150SOL    HW221084   2.776   2.656  12.975  2.5002  0.3685 -2.2155
 3151SOL     OW21085   1.166   2.949  12.006  0.0553  0.5119  0.6976
 3151SOL    HW121086   1.168   3.028  12.061 -0.1076  1.6773 -0.9671
 3151SOL    HW221087   1.165   2.984  11.917 -0.6455 -1.4276 -0.0431
 3152SOL     OW21088   2.737   3.299   9.403  0.2486  1.1814  0.2688
 3152SOL    HW121089   2.714   3.321   9.313 -1.5422 -0.9375  0.2056
 3152SOL    HW221090   2.825   3.337   9.404  0.5976  0.3239  1.7961
 3153SOL     OW21091   4.161   1.364  12.688  0.2324 -0.0848 -0.2531
 3153SOL    HW121092   4.103   1.359  12.611 -0.9125 -1.0354  0.6706
 3153SOL    HW221093   4.160   1.274  12.721  0.2305  0.4356  1.1299
 3154SOL     OW21094   4.012   3.307  12.663 -0.1721 -0.0500  0.1963
 3154SOL    HW121095   4.049   3.364  12.730 -4.0620  2.1001  0.5469
 3154SOL    HW221096   4.086   3.248  12.652  0.0313  0.1767  0.3607
 3155SOL     OW21097   1.624   0.146   3.478 -0.1341 -0.3296  0.2621
 3155SOL    HW121098   1.535   0.135   3.511 -0.3718  2.2817  0.5357
 3155SOL    HW221099   1.642   0.053   3.465  1.5764  0.2562 -1.5124
 3156SOL     OW21100   3.793   1.580   7.680 -0.4551 -0.6906 -0.0712
 3156SOL    HW121101   3.841   1.544   7.754 -1.4309 -2.1824 -0.1708
 3156SOL    HW221102   3.706   1.576   7.718 -1.7906  2.2933 -2.7812
 3157SOL     OW21103   4.374   4.400   7.800 -0.1193 -0.3780  0.6914
 3157SOL    HW121104   4.303   4.337   7.789  0.4398 -0.6863 -1.1003
 3157SOL    HW221105   4.363   4.445   7.884  0.4645 -1.5533  1.3992
 3158SOL     OW21106   1.287   2.089   7.935 -0.0283 -0.2616  0.1774
 3158SOL    HW121107   1.333   2.038   8.002  0.7222 -0.4997 -0.5218
 3158SOL    HW221108   1.358   2.140   7.897  0.8174 -1.4535  0.1657
 3159SOL     OW21109   2.352   3.569  11.311 -0.4323  0.2500 -0.2184
 3159SOL    HW121110   2.353   3.478  11.281 -1.6020  0.0748  0.2714
 3159SOL    HW221111   2.296   3.561  11.388  1.0546 -1.7250  0.6447
 3160SOL     OW21112   2.493   2.979   7.633 -0.3574 -0.2499 -0.2368
 3160SOL    HW121113   2.553   2.914   7.671  0.6796  1.0688  0.3528
 3160SOL    HW221114   2.419   2.932   7.593  0.7758 -1.0597 -1.3600
 3161SOL     OW21115   1.736   0.871   5.965 -0.7993 -0.4975  0.1067
 3161SOL    HW121116   1.818   0.904   6.003 -0.2717  0.2861 -1.7101
 3161SOL    HW221117   1.672   0.930   6.006 -0.8922  1.2759 -2.5593
 3162SOL     OW21118   2.634   2.970  13.842  0.3732 -0.5629  0.4568
 3162SOL    HW121119   2.711   2.914  13.846  0.4316 -0.4409  1.0914
 3162SOL    HW221120   2.595   2.926  13.767 -1.0134 -0.6966  1.2594
 3163SOL     OW21121   2.256   1.509   6.965 -0.4840 -0.2723  0.3260
 3163SOL    HW121122   2.239   1.541   7.053 -1.2307 -1.6939  0.6994
 3163SOL    HW221123   2.241   1.416   6.980 -1.4739 -0.1075  0.3078
 3164SOL     OW21124   3.505   2.863   4.563  0.2544  0.1714  0.4213
 3164SOL    HW121125   3.597   2.867   4.590 -0.1980  0.9998  1.8668
 3164SOL    HW221126   3.469   2.812   4.636  1.2837 -1.1710 -0.0085
 3165SOL     OW21127   0.855   3.724   5.818  0.0437 -0.3113  0.4982
 3165SOL    HW121128   0.762   3.701   5.822  0.7231 -3.1245  0.0199
 3165SOL    HW221129   0.883   3.683   5.900  0.0068  3.3486  2.3465
 3166SOL     OW21130   4.409   2.937   6.119  0.2831  0.2223 -0.3930
 3166SOL    HW121131   4.435   2.936   6.211 -1.6628  0.7941  0.1505
 3166SOL    HW221132   4.333   2.995   6.119 -0.7880 -1.1760 -0.0856
 3167SOL     OW21133   4.167   4.584   2.667  0.1956  0.8552 -0.0628
 3167SOL    HW121134   4.236   4.650   2.660  0.5846  0.4182 -0.3895
 3167SOL    HW221135   4.179   4.566   2.760  0.2552 -2.5204 -0.7274
 3168SOL     OW21136   4.020   2.662   7.266 -0.1924  0.0889 -0.2685
 3168SOL    HW121137   3.946   2.628   7.216  0.1005 -0.8258 -0.0944
 3168SOL    HW221138   4.019   2.755   7.244  1.4103 -0.0473 -0.9855
 3169SOL     OW21139   4.167   1.260   5.966  0.0357 -0.2195  0.3728
 3169SOL    HW121140   4.170   1.347   5.928 -0.5366 -0.3033  0.1240
 3169SOL    HW221141   4.236   1.217   5.915  1.3097  2.1481  0.1283
 3170SOL     OW21142   0.512   0.258   6.311 -0.1979  0.0553 -0.1344
 3170SOL    HW121143   0.456   0.276   6.236 -1.7470 -4.6593 -0.1008
 3170SOL    HW221144   0.600   0.275   6.276 -0.4850  0.4009 -0.6901
 3171SOL     OW21145   1.018   2.702   7.913 -0.4594  0.0084 -0.3579
 3171SOL    HW121146   0.979   2.699   7.825 -1.1451 -1.4108 -0.0205
 3171SOL    HW221147   0.946   2.726   7.970 -1.5811  0.6918 -2.0567
 3172SOL     OW21148   3.798   4.559   2.093  0.4172  0.4062  0.1577
 3172SOL    HW121149   3.838   4.536   2.010 -4.0119  0.7845 -2.1019
 3172SOL    HW221150   3.773   4.470   2.120 -0.8126  0.2761 -1.4154
 3173SOL     OW21151   4.603   4.148   1.355  0.1387  0.7970 -0.3592
 3173SOL    HW121152   4.645   4.230   1.328  0.4658  0.5620 -0.5710
 3173SOL    HW221153   4.546   4.182   1.424 -0.6774 -0.0007 -0.6348
 3174SOL     OW21154   3.416   2.096   9.662  0.2600  0.2350 -0.6477
 3174SOL    HW121155   3.400   2.180   9.618 -0.1681  0.0895 -0.7632
 3174SOL    HW221156   3.466   2.131   9.736  2.2153 -1.2436 -1.2618
 3175SOL     OW21157   4.640   1.934   7.439  0.3101  0.4077  0.2769
 3175SOL    HW121158   4.580   1.996   7.479  0.8548  1.4015 -0.4406
 3175SOL    HW221159   4.614   1.849   7.473  0.3002  0.4863  0.4667
 3176SOL     OW21160   1.653   2.173   9.785  0.2556 -0.5599  0.3350
 3176SOL    HW121161   1.666   2.258   9.743  1.1448 -0.1582  1.4402
 3176SOL    HW221162   1.688   2.189   9.872  2.2292  2.1988 -0.9834
 3177SOL     OW21163   1.884   0.643   8.103 -0.8469 -0.2595  0.3012
 3177SOL    HW121164   1.861   0.728   8.067  1.2750  0.2953  0.2614
 3177SOL    HW221165   1.977   0.665   8.107 -0.7028 -0.8858  0.3339
 3178SOL     OW21166   0.397   3.954   8.690  0.2809 -0.2709 -0.2379
 3178SOL    HW121167   0.332   3.998   8.636  0.4542  1.4085  0.9076
 3178SOL    HW221168   0.467   4.019   8.682  0.7932 -1.0940 -2.4109
 3179SOL     OW21169   2.112   4.398   3.727  0.2325  0.5396 -0.4127
 3179SOL    HW121170   2.135   4.392   3.820 -0.0506 -1.0845 -0.4475
 3179SOL    HW221171   2.093   4.492   3.719 -0.7182  0.4752  0.9101
 3180SOL     OW21172   4.236   1.111   6.450 -0.0469 -0.0467 -0.7871
 3180SOL    HW121173   4.207   1.022   6.470 -1.9375  0.1565 -2.6334
 3180SOL    HW221174   4.236   1.119   6.355 -1.8160  0.3147 -0.7547
 3181SOL     OW21175   3.162   2.370  12.522  0.7373 -0.4036  0.1279
 3181SOL    HW121176   3.207   2.450  12.495  0.9408  0.3151  2.6082
 3181SOL    HW221177   3.236   2.315  12.546  0.6194 -2.0590 -3.1766
 3182SOL     OW21178   3.196   1.281  14.124  0.6585 -0.3324 -0.3599
 3182SOL    HW121179   3.177   1.372  14.101  3.2190  0.3365  0.2817
 3182SOL    HW221180   3.138   1.265  14.199  3.7018 -0.9681  1.8556
 3183SOL     OW21181   2.834   0.274   4.345 -0.5617  0.3315 -0.2323
 3183SOL    HW121182   2.751   0.232   4.365  0.4602  0.1321  3.6912
 3183SOL    HW221183   2.882   0.198   4.310  2.4600  1.7837  0.7153
 3184SOL     OW21184   1.092   0.913   7.351 -0.6582  0.4680  0.0774
 3184SOL    HW121185   1.168   0.918   7.292 -1.0831  2.2583 -0.3180
 3184SOL    HW221186   1.139   0.914   7.434 -1.3140  1.3928  0.4422
 3185SOL     OW21187   2.663   0.119  13.046  0.2368 -0.2598  0.2860
 3185SOL    HW121188   2.732   0.054  13.033  0.7340  0.1830  0.6875
 3185SOL    HW221189   2.705   0.205  13.061 -0.5407  0.1469  0.1198
 3186SOL     OW21190   2.584   3.397   5.314  0.3352 -0.5957 -0.5815
 3186SOL    HW121191   2.538   3.416   5.396 -0.6751 -1.8425 -0.8526
 3186SOL    HW221192   2.506   3.395   5.258 -1.2252  1.1479  1.5258
 3187SOL     OW21193   4.641   3.771   5.500  0.1250  0.1688  0.2928
 3187SOL    HW121194   4.558   3.724   5.502  1.0531 -1.4264  1.5565
 3187SOL    HW221195   4.616   3.838   5.436  2.9563 -0.6210 -1.6304
 3188SOL     OW21196   2.750   2.438   8.781  0.3296 -0.7395 -0.0732
 3188SOL    HW121197   2.802   2.404   8.853 -0.2242 -3.0756 -0.7805
 3188SOL    HW221198   2.739   2.528   8.813 -1.7767 -0.7565 -0.7141
 3189SOL     OW21199   2.585   3.621   6.690  0.7410 -0.1993 -0.1698
 3189SOL    HW121200   2.675   3.614   6.722  0.6756 -1.9110 -0.3721
 3189SOL    HW221201   2.588   3.708   6.650 -0.1413 -0.1160 -0.0570
 3190SOL     OW21202   1.117   4.061   6.590 -0.1543 -0.2172  0.2916
 3190SOL    HW121203   1.152   3.972   6.592  0.8256  0.1291 -1.1748
 3190SOL    HW221204   1.196   4.108   6.561  0.8392 -1.6467  0.6557
 3191SOL     OW21205   4.690   0.387   1.207 -0.3025  0.1368 -0.0877
 3191SOL    HW121206   4.684   0.300   1.244  1.7270  0.0672  0.0622
 3191SOL    HW221207   0.007   0.365   1.136  2.0494 -1.0535  2.3206
 3192SOL     OW21208   2.447   0.433  13.420 -0.1270  0.0926  0.2669
 3192SOL    HW121209   2.406   0.439  13.506 -0.4613 -1.5887  0.2226
 3192SOL    HW221210   2.379   0.389  13.368  1.6348 -0.8841 -1.2266
 3193SOL     OW21211   3.731   0.671   3.577  0.1048  0.2712 -0.1182
 3193SOL    HW121212   3.703   0.678   3.668 -0.9522 -1.6443 -0.3168
 3193SOL    HW221213   3.664   0.614   3.541  0.4895  0.6214 -1.4028
 3194SOL     OW21214   4.024   0.434   7.340  0.7364  0.2528 -0.4872
 3194SOL    HW121215   4.026   0.527   7.316 -0.7822  0.9563  2.1235
 3194SOL    HW221216   3.952   0.425   7.403 -0.3611  1.8569 -1.5177
 3195SOL     OW21217   3.521   0.402   5.589  0.8489 -0.1379  0.1873
 3195SOL    HW121218   3.599   0.353   5.564  0.5124 -0.6262  0.0880
 3195SOL    HW221219   3.477   0.338   5.646  0.7525  0.1174  0.4004
 3196SOL     OW21220   4.653   1.165   2.330  0.1343 -0.2831  0.7144
 3196SOL    HW121221   4.574   1.151   2.278  0.5249 -0.8714  0.2770
 3196SOL    HW221222   4.665   1.074   2.359  1.3113 -0.6973 -1.0732
 3197SOL     OW21223   0.921   1.456  11.968 -0.1209  0.5587 -0.3292
 3197SOL    HW121224   0.926   1.521  11.898 -3.2569  1.7349  0.5520
 3197SOL    HW221225   1.006   1.412  11.979  0.8108  1.6863 -3.0635
 3198SOL     OW21226   2.575   0.008   7.971  0.4902  0.1843 -0.1277
 3198SOL    HW121227   2.562   0.004   8.065  2.8651 -3.1330  0.0442
 3198SOL    HW221228   2.550   4.664   7.944  1.9189 -0.1612 -0.3422
 3199SOL     OW21229   2.894   1.932   2.279  0.2930 -0.0705 -0.0151
 3199SOL    HW121230   2.913   2.010   2.331 -1.2029 -0.7719  1.5893
 3199SOL    HW221231   2.964   1.878   2.316  0.3235  0.2248  0.3623
 3200SOL     OW21232   0.957   2.054   3.680 -0.0861 -0.4518  0.3478
 3200SOL    HW121233   1.049   2.030   3.691 -0.3507 -1.4127  0.4859
 3200SOL    HW221234   0.916   2.008   3.753 -2.7840  0.1901 -0.7576
 3201SOL     OW21235   3.166   3.067   4.364 -0.1371 -0.5323 -0.1800
 3201SOL    HW121236   3.107   3.141   4.349 -0.9169 -2.0211 -4.4421
 3201SOL    HW221237   3.176   3.043   4.272 -0.0311 -0.7059 -0.1230
 3202SOL     OW21238   2.696   1.623  11.278 -0.3304 -0.0040 -0.2707
 3202SOL    HW121239   2.688   1.687  11.349  0.6060 -0.0870 -0.0852
 3202SOL    HW221240   2.742   1.550  11.320  0.1097 -0.1315 -0.9701
 3203SOL     OW21241   0.197   2.592   6.016  0.0255  0.2145 -0.2919
 3203SOL    HW121242   0.182   2.671   5.964  1.8646  0.4240 -0.4854
 3203SOL    HW221243   0.261   2.622   6.080  1.0103 -1.2847 -0.5766
 3204SOL     OW21244   3.542   1.749   8.919  0.4427 -0.1448  0.4901
 3204SOL    HW121245   3.517   1.681   8.856 -2.5024  3.3188 -2.1165
 3204SOL    HW221246   3.463   1.802   8.919  0.6988  0.2375 -0.3855
 3205SOL     OW21247   3.735   2.178   6.917  0.4509 -0.1312 -0.0206
 3205SOL    HW121248   3.698   2.257   6.957  1.5358  0.2434  0.2351
 3205SOL    HW221249   3.826   2.197   6.941  0.8500 -2.2045  0.1225
 3206SOL     OW21250   2.878   0.325   3.628  0.1289  0.1467 -0.2636
 3206SOL    HW121251   2.825   0.252   3.595 -3.0365  2.4113 -0.1559
 3206SOL    HW221252   2.958   0.313   3.577 -0.8139 -0.4158 -1.6407
 3207SOL     OW21253   2.903   1.154  17.062 -0.1678 -0.4779 -0.1065
 3207SOL    HW121254   2.958   1.139  16.984 -0.7230 -0.2187 -0.5500
 3207SOL    HW221255   2.916   1.249  17.061 -4.0591  0.0383 -1.2085
 3208SOL     OW21256   0.382   0.338   3.524 -0.3636 -0.5737 -0.0345
 3208SOL    HW121257   0.305   0.330   3.468  0.9983  0.8364 -2.0739
 3208SOL    HW221258   0.417   0.249   3.514 -0.6440 -0.5317 -1.4159
 3209SOL     OW21259   3.405   2.765   6.037 -0.4645 -0.0819 -0.1372
 3209SOL    HW121260   3.417   2.707   6.113  2.6687  0.2987 -0.3327
 3209SOL    HW221261   3.433   2.713   5.963  0.0623  1.4937 -1.0497
 3210SOL     OW21262   3.929   0.527   9.649 -0.0745 -0.5576  0.2632
 3210SOL    HW121263   3.947   0.620   9.662  0.9229 -0.4214 -2.0300
 3210SOL    HW221264   3.941   0.515   9.555  0.9390 -0.8662  0.4301
 3211SOL     OW21265   1.302   3.894  10.295  0.2012 -0.1251 -0.2657
 3211SOL    HW121266   1.253   3.961  10.343 -0.6413 -1.6714  1.0033
 3211SOL    HW221267   1.336   3.952  10.226  1.9846  0.3768  1.0364
 3212SOL     OW21268   4.654   3.273   4.067  0.4091 -0.1014  0.4955
 3212SOL    HW121269   4.659   3.249   3.974 -3.5696 -1.7232  0.6909
 3212SOL    HW221270   4.582   3.219   4.100 -0.8986  0.1107 -1.9306
 3213SOL     OW21271   1.008   0.051   1.902 -0.2487 -0.2438 -0.2859
 3213SOL    HW121272   0.951   0.118   1.940 -0.2779  0.4441 -1.5551
 3213SOL    HW221273   1.089   0.101   1.891 -1.1018  1.1546 -0.2211
 3214SOL     OW21274   4.474   1.393  11.655  0.0238  0.0968 -0.6384
 3214SOL    HW121275   4.449   1.346  11.735  1.2644  2.3785  1.0612
 3214SOL    HW221276   4.392   1.433  11.625  0.5414  0.0260 -2.1259
 3215SOL     OW21277   2.033   1.051   0.694  0.6288  0.0504  0.7265
 3215SOL    HW121278   2.105   1.051   0.757  1.2041  1.6488  0.0758
 3215SOL    HW221279   2.079   1.055   0.609  0.0241  3.2287  0.5414
 3216SOL     OW21280   0.022   4.177   6.565  0.2059  0.3237 -0.3361
 3216SOL    HW121281   0.063   4.099   6.528  1.5951  0.7557  0.2954
 3216SOL    HW221282   0.095   4.238   6.562 -0.3451  1.0084  0.1933
 3217SOL     OW21283   1.551   2.248   0.968 -0.0601 -0.4545 -0.8625
 3217SOL    HW121284   1.540   2.263   1.062 -1.1540  0.7737 -1.1966
 3217SOL    HW221285   1.642   2.276   0.963  0.8880 -2.8599  2.3621
 3218SOL     OW21286   1.942   2.643   3.126  0.0864 -0.3787  0.7783
 3218SOL    HW121287   1.981   2.567   3.082 -0.8345 -0.3788 -0.0206
 3218SOL    HW221288   1.864   2.604   3.165 -0.4278  1.1772  1.2719
 3219SOL     OW21289   3.424   2.780  16.252  0.3052 -0.5485  0.0225
 3219SOL    HW121290   3.384   2.852  16.301  0.3244 -2.0570  2.2867
 3219SOL    HW221291   3.483   2.742  16.318 -0.0816  0.1557  0.7849
 3220SOL     OW21292   4.431   0.420   6.765 -0.5710 -0.4374 -0.6456
 3220SOL    HW121293   4.437   0.400   6.859  4.8189  0.6817 -0.7200
 3220SOL    HW221294   4.517   0.459   6.750 -1.6490  1.2838 -2.3375
 3221SOL     OW21295   1.688   4.251   9.998  0.3183  0.3918 -0.2099
 3221SOL    HW121296   1.605   4.298  10.001 -0.1126 -0.4447  0.6864
 3221SOL    HW221297   1.745   4.327   9.982 -0.7702  1.3560  0.4217
 3222SOL     OW21298   1.456   2.513   4.727 -0.0345  0.0469 -0.7678
 3222SOL    HW121299   1.421   2.602   4.731  0.1738  0.1583 -1.4751
 3222SOL    HW221300   1.551   2.527   4.726  0.0186 -0.3851 -3.2914
 3223SOL     OW21301   2.124   3.976  12.812  0.1093  0.0340 -0.6049
 3223SOL    HW121302   2.049   4.035  12.798  0.4338 -0.1355 -3.0245
 3223SOL    HW221303   2.198   4.036  12.822  0.5446 -0.1916 -2.6489
 3224SOL     OW21304   3.446   1.791  13.735 -1.1090 -0.0737 -0.3759
 3224SOL    HW121305   3.363   1.838  13.725 -2.3161 -2.0729  0.2987
 3224SOL    HW221306   3.474   1.849  13.806 -0.7546 -0.5648 -0.1164
 3225SOL     OW21307   2.798   2.421   5.710  0.4589  0.6180 -0.5475
 3225SOL    HW121308   2.756   2.340   5.682  0.4538 -0.4256  2.4754
 3225SOL    HW221309   2.833   2.447   5.624 -1.5125 -1.7501 -2.0527
 3226SOL     OW21310   1.965   1.797   4.617  0.3207  0.1970 -0.2545
 3226SOL    HW121311   2.053   1.762   4.631  0.7651  0.9311 -1.2042
 3226SOL    HW221312   1.981   1.890   4.634  1.1860  0.1616 -0.8397
 3227SOL     OW21313   1.994   1.270   0.849 -0.0965  0.0402 -0.3085
 3227SOL    HW121314   2.045   1.262   0.930  1.0313 -2.1363 -1.2065
 3227SOL    HW221315   2.003   1.183   0.809 -1.4981 -0.3204  0.1664
 3228SOL     OW21316   1.085   4.178   7.329 -0.2381 -0.2074  0.1718
 3228SOL    HW121317   1.121   4.266   7.343  2.9567 -1.7370  1.6253
 3228SOL    HW221318   1.164   4.125   7.327  0.4875  0.8165  1.3621
 3229SOL     OW21319   1.359   0.207  17.322 -0.3024  0.3318  0.1394
 3229SOL    HW121320   1.264   0.201  17.326 -0.1942 -1.7955 -0.2769
 3229SOL    HW221321   1.372   0.268  17.395 -1.5301 -0.0360  0.6673
 3230SOL     OW21322   0.250   1.582   2.697 -0.2412 -0.0261  0.0115
 3230SOL    HW121323   0.168   1.534   2.713  0.3789 -0.8211  0.8402
 3230SOL    HW221324   0.246   1.653   2.761  0.8503 -0.7383  0.8720
 3231SOL     OW21325   2.906   0.251   2.673  0.3568  0.1204  0.1204
 3231SOL    HW121326   2.847   0.322   2.650  0.3146 -0.0835 -0.3978
 3231SOL    HW221327   2.870   0.184   2.614  0.6873 -0.8822  1.0487
 3232SOL     OW21328   4.672   4.341   7.218  0.6986  0.5120  0.2798
 3232SOL    HW121329   4.579   4.348   7.195  1.1029  2.9555 -0.7122
 3232SOL    HW221330   4.693   4.251   7.193 -2.7199 -0.3335  0.3715
 3233SOL     OW21331   4.684   4.643   1.144 -0.0925  0.3041  0.3968
 3233SOL    HW121332   4.681   4.620   1.051  1.7867  3.1836 -0.3774
 3233SOL    HW221333   0.021   4.611   1.185  0.1482  0.8122  0.3208
 3234SOL     OW21334   3.703   2.907   4.053  0.4795 -0.0127  0.2783
 3234SOL    HW121335   3.607   2.908   4.049  0.5654 -0.7783 -2.2911
 3234SOL    HW221336   3.719   2.868   3.967  3.1094 -0.7485  1.0999
 3235SOL     OW21337   1.675   1.501   5.315  0.2038 -0.2303 -0.0131
 3235SOL    HW121338   1.709   1.413   5.295  1.0376  0.5575 -2.0623
 3235SOL    HW221339   1.731   1.552   5.256 -0.2951  0.7572  0.3755
 3236SOL     OW21340   0.512   3.110   0.165  0.4398  0.1939 -0.2527
 3236SOL    HW121341   0.454   3.044   0.202 -0.0394  1.0143  0.4423
 3236SOL    HW221342   0.587   3.058   0.135 -0.1562  0.1091 -1.5838
 3237SOL     OW21343   1.858   0.581   3.525  0.0665 -0.1152  0.0112
 3237SOL    HW121344   1.831   0.546   3.441 -0.1791  0.5324 -0.1800
 3237SOL    HW221345   1.897   0.660   3.488 -1.2136 -0.5815 -2.3245
 3238SOL     OW21346   0.362   3.722  17.624 -0.4604  0.7008  0.7762
 3238SOL    HW121347   0.370   3.707  17.530 -1.2677 -0.2287  0.8515
 3238SOL    HW221348   0.286   3.664  17.628  0.1440 -0.0588  1.1138
 3239SOL     OW21349   1.243   0.930   3.902 -0.3275  0.0302 -0.2771
 3239SOL    HW121350   1.182   0.856   3.895  0.8908 -0.9282 -0.6506
 3239SOL    HW221351   1.291   0.926   3.820 -2.0802 -0.9646 -1.2647
 3240SOL     OW21352   1.221   3.875   4.507  0.6375  0.0550  0.1425
 3240SOL    HW121353   1.285   3.933   4.466  0.5714 -1.7051 -2.4095
 3240SOL    HW221354   1.144   3.886   4.453  1.1709 -0.1222 -0.6526
 3241SOL     OW21355   3.393   3.850  11.515  0.2046  0.1305 -0.3810
 3241SOL    HW121356   3.328   3.915  11.491  0.3591  0.7278  0.8109
 3241SOL    HW221357   3.352   3.820  11.596 -0.2616 -3.0777 -1.7986
 3242SOL     OW21358   0.027   3.175   0.304 -0.6697  0.0132  0.0938
 3242SOL    HW121359   0.060   3.230   0.375 -2.1566  1.5488 -0.3940
 3242SOL    HW221360   0.045   3.085   0.331 -2.0722  0.1849  1.5905
 3243SOL     OW21361   2.627   1.710   4.825 -0.5559 -0.1362 -0.7898
 3243SOL    HW121362   2.596   1.633   4.778  0.2406 -0.5807 -0.5934
 3243SOL    HW221363   2.722   1.704   4.817 -0.6465 -4.0938  0.7526
 3244SOL     OW21364   3.552   1.341  15.493  0.4327 -0.6240 -0.0811
 3244SOL    HW121365   3.596   1.355  15.409  1.6244 -0.5348  0.5622
 3244SOL    HW221366   3.515   1.256  15.467  0.6465 -0.5752 -0.5483
 3245SOL     OW21367   2.382   1.777  16.032 -0.3904  0.3568  0.0858
 3245SOL    HW121368   2.403   1.689  16.064 -1.3688 -0.8000 -2.4743
 3245SOL    HW221369   2.313   1.747  15.973  1.6086 -0.1945 -1.9628
 3246SOL     OW21370   0.258   2.998   4.280  0.3585 -0.1196  0.3558
 3246SOL    HW121371   0.330   3.028   4.336  0.3105 -0.9091  0.8355
 3246SOL    HW221372   0.225   3.079   4.241  1.1434 -0.5520 -1.2146
 3247SOL     OW21373   0.682   2.960   6.169  0.0833 -0.1449  0.2026
 3247SOL    HW121374   0.681   2.925   6.258 -2.7966 -1.4095 -0.3327
 3247SOL    HW221375   0.739   2.895   6.127  3.0874  2.3949  0.3850
 3248SOL     OW21376   1.209   2.473   7.564 -0.2829  0.1923  0.3338
 3248SOL    HW121377   1.213   2.568   7.573 -0.8848  0.3745 -1.2560
 3248SOL    HW221378   1.303   2.457   7.556  0.5192  3.4571  3.6015
 3249SOL     OW21379   3.584   3.606   1.897  0.2933  0.1365  0.4207
 3249SOL    HW121380   3.569   3.700   1.907 -0.5503 -0.1867  2.1353
 3249SOL    HW221381   3.501   3.563   1.920  0.1756  1.6619  2.7754
 3250SOL     OW21382   2.034   3.215  17.081 -0.0195  0.3372 -0.2149
 3250SOL    HW121383   2.032   3.230  17.175  0.8488  0.1558 -0.1658
 3250SOL    HW221384   2.008   3.123  17.073  0.3178  0.2501 -0.3063
 3251SOL     OW21385   0.951   3.519  16.010  0.4114 -0.7264  0.3538
 3251SOL    HW121386   0.856   3.524  16.005  0.3496 -0.8180  1.5010
 3251SOL    HW221387   0.963   3.578  16.084 -2.3139  1.3070 -0.8291
 3252SOL     OW21388   0.993   2.600   6.475  0.1467 -0.7892  0.0852
 3252SOL    HW121389   0.938   2.655   6.532 -1.0848 -3.3344  1.3621
 3252SOL    HW221390   1.070   2.580   6.528 -0.8741 -0.7120  1.6172
 3253SOL     OW21391   0.423   3.979   3.657  0.2024  0.2640  0.3832
 3253SOL    HW121392   0.408   4.059   3.606  2.3107  0.4224  0.0094
 3253SOL    HW221393   0.334   3.943   3.656  0.3350 -0.0808  0.8965
 3254SOL     OW21394   4.493   0.315   8.900 -0.2026 -0.0044  0.3270
 3254SOL    HW121395   4.398   0.304   8.903 -0.5410  2.2705 -1.5528
 3254SOL    HW221396   4.489   0.406   8.930  1.3008  0.0198  0.4157
 3255SOL     OW21397   1.517   2.826   7.430  0.1411 -0.7527 -0.0435
 3255SOL    HW121398   1.427   2.802   7.406  0.3540 -2.7138  1.1204
 3255SOL    HW221399   1.520   2.796   7.521  0.3314  2.2875  0.9513
 3256SOL     OW21400   4.666   2.606   4.706  0.3479  0.5293  0.6181
 3256SOL    HW121401   4.623   2.591   4.790 -1.2714  2.0812  0.0734
 3256SOL    HW221402   4.743   2.659   4.726 -0.2540  1.3541  0.7278
 3257SOL     OW21403   0.338   0.099  12.247  0.2913  0.1677 -0.1465
 3257SOL    HW121404   0.261   0.045  12.230 -1.5676  2.1932  1.8225
 3257SOL    HW221405   0.305   0.188  12.233  0.1903  0.4308  1.7931
 3258SOL     OW21406   3.593   3.125   1.762  0.2443 -0.8149  0.7860
 3258SOL    HW121407   3.506   3.145   1.797  0.6815  2.1757  0.1539
 3258SOL    HW221408   3.622   3.209   1.727 -0.5562  0.1844  2.5869
 3259SOL     OW21409   2.290   1.179   8.896 -0.6724  0.3142  0.3203
 3259SOL    HW121410   2.304   1.092   8.859 -2.5366  0.6402 -1.1649
 3259SOL    HW221411   2.194   1.178   8.888 -0.4661 -1.2101 -1.9178
 3260SOL     OW21412   3.709   1.869   2.485 -0.3691 -0.0881  0.3194
 3260SOL    HW121413   3.682   1.807   2.417 -2.3550  1.2309 -0.0822
 3260SOL    HW221414   3.773   1.815   2.532 -1.0415 -2.2074 -1.2151
 3261SOL     OW21415   4.572   0.846   5.758 -0.1079 -0.2913  0.7861
 3261SOL    HW121416   4.653   0.833   5.709 -0.7521  1.2941 -0.6485
 3261SOL    HW221417   4.566   0.941   5.757 -0.1643 -0.3072 -0.2684
 3262SOL     OW21418   1.542   2.189   3.995 -0.3983 -0.7678 -0.4076
 3262SOL    HW121419   1.554   2.167   3.902  0.5741 -0.3998 -0.3743
 3262SOL    HW221420   1.504   2.277   3.998  1.4213  0.0215 -0.2924
 3263SOL     OW21421   1.838   2.702   9.174 -0.5628  0.1519 -0.2887
 3263SOL    HW121422   1.902   2.765   9.207 -0.6625  0.5878 -0.9413
 3263SOL    HW221423   1.892   2.634   9.134  1.5813  1.1605  0.8851
 3264SOL     OW21424   2.301   3.816  14.711  0.3677 -0.0853  0.2927
 3264SOL    HW121425   2.253   3.881  14.763 -1.4637 -0.7058 -0.6150
 3264SOL    HW221426   2.392   3.827  14.739  0.7295 -0.6869 -0.6665
 3265SOL     OW21427   3.337   3.905   6.490  0.9538 -0.3823  0.3821
 3265SOL    HW121428   3.274   3.833   6.489 -1.3885  1.6769 -2.8265
 3265SOL    HW221429   3.384   3.882   6.570  3.0655 -2.2204 -1.3728
 3266SOL     OW21430   3.659   0.757   9.187 -0.1126  0.4001 -0.0052
 3266SOL    HW121431   3.624   0.754   9.098 -1.4601 -1.1857  0.5923
 3266SOL    HW221432   3.680   0.850   9.194  0.1438  0.1964  1.9204
 3267SOL     OW21433   3.143   1.682   5.890  0.5108 -0.1991 -0.5558
 3267SOL    HW121434   3.063   1.640   5.922  1.1040  0.5008  1.8486
 3267SOL    HW221435   3.207   1.632   5.940 -0.6708 -0.9824  0.1762
 3268SOL     OW21436   1.086   4.094  11.064 -0.2186  0.1627  0.1702
 3268SOL    HW121437   1.028   4.128  11.132  0.4430  1.1445  0.2288
 3268SOL    HW221438   1.163   4.127  11.110  0.1815 -0.7200  0.1381
 3269SOL     OW21439   1.238   3.709  17.218  0.2715 -0.0530  0.4910
 3269SOL    HW121440   1.184   3.668  17.285 -1.0004  2.8265  1.2203
 3269SOL    HW221441   1.321   3.727  17.263  1.7145 -0.1959 -2.1276
 3270SOL     OW21442   2.051   2.921   3.778 -0.3321  0.5522 -0.0761
 3270SOL    HW121443   2.123   2.963   3.731  0.3172  2.4387  2.5772
 3270SOL    HW221444   2.097   2.863   3.838 -0.7740 -1.5942 -1.8236
 3271SOL     OW21445   2.159   2.119   9.720 -0.2945 -0.5403  0.0844
 3271SOL    HW121446   2.191   2.199   9.762  0.3319  0.3457 -2.0736
 3271SOL    HW221447   2.091   2.149   9.659 -0.3384 -0.3027  0.2493
 3272SOL     OW21448   0.198   1.336   4.839 -0.3310 -0.4461 -0.5817
 3272SOL    HW121449   0.248   1.411   4.873 -1.0946 -0.4875  0.6122
 3272SOL    HW221450   0.238   1.336   4.752  0.3706 -0.8587 -0.2601
 3273SOL     OW21451   3.222   3.235   2.751 -0.4928  0.5723  0.3934
 3273SOL    HW121452   3.220   3.222   2.656 -1.5903 -0.4137  0.5527
 3273SOL    HW221453   3.142   3.183   2.767 -1.1900  1.4812 -0.1306
 3274SOL     OW21454   4.549   2.241   6.969 -0.1575 -0.2333  0.2324
 3274SOL    HW121455   4.600   2.307   6.921 -1.9649  2.0115  1.4086
 3274SOL    HW221456   4.515   2.303   7.034  0.2017  2.3478 -2.0074
 3275SOL     OW21457   0.089   1.952   4.127 -0.5027 -0.3327 -0.2427
 3275SOL    HW121458   0.084   2.041   4.094 -0.3068 -0.6034 -1.0079
 3275SOL    HW221459   0.150   1.913   4.064  0.4826 -2.3969  1.9631
 3276SOL     OW21460   3.275   2.985  16.330 -0.2429 -1.3457  0.2230
 3276SOL    HW121461   3.306   3.073  16.313 -1.0602 -0.6617  2.2134
 3276SOL    HW221462   3.225   2.972  16.249 -1.9817  0.1212  1.0513
 3277SOL     OW21463   0.743   3.282   2.930  0.3329  0.2333 -0.4013
 3277SOL    HW121464   0.725   3.256   3.020 -0.4669  1.1577 -0.2941
 3277SOL    HW221465   0.711   3.371   2.936  0.8279  0.3066  1.1291
 3278SOL     OW21466   3.635   4.324   7.495 -0.5036  0.0614 -0.1971
 3278SOL    HW121467   3.714   4.311   7.548 -1.2544 -0.4789  0.7937
 3278SOL    HW221468   3.560   4.320   7.554 -1.3712 -2.3607 -1.4550
 3279SOL     OW21469   3.422   1.618  15.488 -0.6385  0.3427  0.0778
 3279SOL    HW121470   3.370   1.538  15.477  0.7691 -0.6400  0.5096
 3279SOL    HW221471   3.508   1.578  15.501 -1.5089 -1.5317  0.0681
 3280SOL     OW21472   0.475   2.800   5.917 -0.4767 -0.3968  0.2601
 3280SOL    HW121473   0.386   2.814   5.883  0.1786  1.1082 -0.8024
 3280SOL    HW221474   0.521   2.882   5.897 -1.7905  0.6232  1.4586
 3281SOL     OW21475   3.607   4.668   6.674 -0.4680  0.4595  0.6504
 3281SOL    HW121476   3.660   4.702   6.602 -1.7568 -1.1273 -1.0222
 3281SOL    HW221477   3.600   0.001   6.732 -0.8034  0.4645  0.6007
 3282SOL     OW21478   1.613   4.130   5.945 -0.0395  0.5180  0.1607
 3282SOL    HW121479   1.638   4.113   6.036 -2.4533 -0.6934  0.5997
 3282SOL    HW221480   1.538   4.189   5.952 -0.2426  0.3408 -0.5214
 3283SOL     OW21481   1.222   3.374   5.279 -0.5217 -0.0123 -0.0362
 3283SOL    HW121482   1.127   3.366   5.268 -0.6416 -0.1153  1.0449
 3283SOL    HW221483   1.225   3.383   5.374  0.0342 -0.8027  0.0213
 3284SOL     OW21484   2.404   0.582   8.162  0.1787  0.3561 -0.5437
 3284SOL    HW121485   2.339   0.647   8.135  0.3039 -0.0170 -1.7489
 3284SOL    HW221486   2.471   0.618   8.103  0.8991  2.1546  1.3620
 3285SOL     OW21487   1.542   4.041   4.587  0.0386  0.3887 -0.1607
 3285SOL    HW121488   1.488   4.114   4.615  1.4775  1.4638 -0.1845
 3285SOL    HW221489   1.499   4.017   4.505 -1.6310  0.8968  0.5647
 3286SOL     OW21490   2.096   1.635   9.714  0.2707 -0.8103  0.0889
 3286SOL    HW121491   2.009   1.674   9.703 -0.2165 -1.2152  2.4145
 3286SOL    HW221492   2.129   1.709   9.764 -0.6816  0.9920 -1.9379
 3287SOL     OW21493   0.116   1.096   8.758 -0.1682 -0.2448  0.1263
 3287SOL    HW121494   0.075   1.100   8.844  1.1930  1.5579  0.6892
 3287SOL    HW221495   0.087   1.175   8.711 -0.5108  1.0642  2.5289
 3288SOL     OW21496   0.254   1.266   8.334  0.4030  0.1019 -0.2888
 3288SOL    HW121497   0.262   1.256   8.429 -0.1627 -1.1565 -0.3793
 3288SOL    HW221498   0.338   1.309   8.316  1.8570 -2.6878 -0.2142
 3289SOL     OW21499   3.927   1.258   7.519 -0.3067 -0.4260 -0.1689
 3289SOL    HW121500   3.936   1.177   7.468  3.3774  1.0288 -1.7637
 3289SOL    HW221501   3.877   1.312   7.458 -0.9783 -2.1251 -1.1457
 3290SOL     OW21502   2.351   3.760   5.333  0.1467  0.4374 -0.9072
 3290SOL    HW121503   2.257   3.746   5.337  0.4104 -1.6111 -1.8199
 3290SOL    HW221504   2.373   3.751   5.240  1.4460 -0.8127 -0.4886
 3291SOL     OW21505   3.771   0.455   8.752  0.1083  0.1409 -0.4324
 3291SOL    HW121506   3.777   0.384   8.689  0.0532 -1.2742  1.1464
 3291SOL    HW221507   3.805   0.533   8.707 -0.1166 -0.6806 -2.0069
 3292SOL     OW21508   2.384   2.244   3.116 -0.8171  0.1187 -0.5709
 3292SOL    HW121509   2.303   2.226   3.069 -1.2008 -0.6231  0.3579
 3292SOL    HW221510   2.353   2.299   3.187  1.6189 -0.1076  0.6799
 3293SOL     OW21511   0.317   0.733   3.544 -0.1110 -0.4132 -0.5774
 3293SOL    HW121512   0.226   0.736   3.513 -0.3724 -2.1442 -0.0008
 3293SOL    HW221513   0.336   0.639   3.543 -0.2644 -0.4721  1.1284
 3294SOL     OW21514   3.726   1.508  14.362  0.2138  0.4119 -0.1155
 3294SOL    HW121515   3.736   1.551  14.446 -0.2246 -0.9575  0.6358
 3294SOL    HW221516   3.772   1.424  14.368  1.9445  1.4522  0.9907
 3295SOL     OW21517   4.207   0.938  14.365 -0.0480  0.6018  0.5296
 3295SOL    HW121518   4.128   0.888  14.386 -1.6873  3.0063  0.0920
 3295SOL    HW221519   4.179   1.010  14.309 -0.6892  0.0600  0.1457
 3296SOL     OW21520   0.384   1.965  10.342 -0.2902  0.1722 -0.5096
 3296SOL    HW121521   0.339   2.047  10.323 -1.6399 -0.3495  0.4008
 3296SOL    HW221522   0.464   1.988  10.295  0.1353 -0.1637  0.0397
 3297SOL     OW21523   0.475   3.392   4.740  0.3845 -0.3222 -0.5794
 3297SOL    HW121524   0.383   3.384   4.715 -0.1769 -0.1883  1.4965
 3297SOL    HW221525   0.470   3.382   4.835 -1.2849 -2.0711 -0.8486
 3298SOL     OW21526   2.359   4.176   3.621  0.5025 -0.1602  0.2712
 3298SOL    HW121527   2.275   4.207   3.586  0.8637 -0.6241 -1.0420
 3298SOL    HW221528   2.400   4.157   3.536 -0.0523 -0.9176  0.1705
 3299SOL     OW21529   3.150   3.987   1.746 -0.2566 -0.1268  0.0710
 3299SOL    HW121530   3.134   3.893   1.755 -2.5907  0.1695 -0.8420
 3299SOL    HW221531   3.058   4.010   1.759 -0.2388 -0.5345  0.9642
 3300SOL     OW21532   0.856   0.271   3.107  0.0785  0.3509 -0.3513
 3300SOL    HW121533   0.877   0.208   3.039  3.8548  0.9403  0.2958
 3300SOL    HW221534   0.926   0.252   3.169 -2.4175 -2.3192  1.5867
 3301SOL     OW21535   1.172   2.629   2.628  0.4905 -0.2258 -0.2606
 3301SOL    HW121536   1.097   2.673   2.667 -0.2662 -1.4641 -0.3349
 3301SOL    HW221537   1.139   2.622   2.538 -0.6373  3.9823 -0.1524
 3302SOL     OW21538   2.343   4.475   8.313  0.4252  0.0625 -0.3940
 3302SOL    HW121539   2.257   4.445   8.282 -0.8109  1.6580  1.4969
 3302SOL    HW221540   2.317   4.481   8.405  1.2414 -0.5681 -0.1253
 3303SOL     OW21541   3.108   0.300   3.521  0.5445  0.9426 -0.5946
 3303SOL    HW121542   3.160   0.369   3.561  0.8567  0.2887  0.1160
 3303SOL    HW221543   3.179   0.250   3.481 -1.4823 -1.0430 -1.7282
 3304SOL     OW21544   1.544   1.837   9.260  0.1627  0.4553  0.8058
 3304SOL    HW121545   1.574   1.762   9.311  0.9463 -0.5423 -1.1246
 3304SOL    HW221546   1.519   1.792   9.179  1.0649 -0.9238  1.2985
 3305SOL     OW21547   1.762   4.055   2.101 -0.2265 -0.3651  0.1650
 3305SOL    HW121548   1.761   3.959   2.102 -2.6040 -0.3721 -3.2599
 3305SOL    HW221549   1.825   4.061   2.029 -1.4550 -0.2467 -0.9084
 3306SOL     OW21550   4.653   1.807  11.820 -0.7768 -0.0835  0.2820
 3306SOL    HW121551   4.681   1.721  11.789  0.4650  0.4117  0.0083
 3306SOL    HW221552   4.640   1.787  11.912  4.4533  1.2233  1.2874
 3307SOL     OW21553   1.778   1.938   5.585  0.1203 -0.0373  0.4618
 3307SOL    HW121554   1.873   1.938   5.570 -0.1436 -1.7712 -1.3036
 3307SOL    HW221555   1.776   1.992   5.664  0.7055  1.1238 -0.3137
 3308SOL     OW21556   2.894   4.506   2.478 -0.0589  0.2806  0.0064
 3308SOL    HW121557   2.874   4.431   2.423  2.6002 -0.2196 -0.2827
 3308SOL    HW221558   2.949   4.555   2.416 -1.3381  2.5468  0.6616
 3309SOL     OW21559   0.114   1.665   4.771  0.2760 -0.2537  0.7546
 3309SOL    HW121560   0.166   1.744   4.784  0.7471 -0.4227 -0.0957
 3309SOL    HW221561   0.171   1.606   4.820 -0.0268 -0.3453  0.9986
 3310SOL     OW21562   1.364   4.645  16.267 -0.0030  0.0117 -0.2097
 3310SOL    HW121563   1.355   4.682  16.179 -0.7663  0.0950 -0.0982
 3310SOL    HW221564   1.297   4.700  16.309  0.4297  0.2316  0.1904
 3311SOL     OW21565   1.410   1.586   2.028 -0.1074 -0.0360 -0.6577
 3311SOL    HW121566   1.421   1.597   2.123 -1.0094  0.4208 -0.6067
 3311SOL    HW221567   1.497   1.574   1.992  1.6292  0.2852  3.4204
 3312SOL     OW21568   2.738   4.261   8.821 -0.1204 -0.0536 -0.1867
 3312SOL    HW121569   2.731   4.165   8.825 -0.9534  0.0092 -0.1785
 3312SOL    HW221570   2.658   4.274   8.770  0.7228  0.1597 -1.4709
 3313SOL     OW21571   3.984   4.040   6.491 -0.2654  0.3073  0.4388
 3313SOL    HW121572   3.899   4.008   6.462  0.8314 -0.8018 -1.5565
 3313SOL    HW221573   3.988   4.052   6.586  1.5588 -1.4666  0.5788
 3314SOL     OW21574   1.841   0.395   4.089  0.1567 -0.1048  0.0909
 3314SOL    HW121575   1.779   0.431   4.026 -0.4134 -0.3277  0.5182
 3314SOL    HW221576   1.923   0.437   4.063 -0.2056 -0.3534 -1.4495
 3315SOL     OW21577   3.364   3.500   4.578 -0.3087  0.7207 -0.7043
 3315SOL    HW121578   3.399   3.472   4.663 -0.7909  0.1208 -0.6998
 3315SOL    HW221579   3.394   3.433   4.517  2.6106 -1.1931  2.8759
 3316SOL     OW21580   3.902   2.943   8.307  0.2754  0.3863  0.1191
 3316SOL    HW121581   3.924   2.882   8.377  0.5010  0.2662 -0.0544
 3316SOL    HW221582   3.937   2.900   8.229  0.6811  1.0678 -0.0802
 3317SOL     OW21583   4.292   3.304  10.387 -0.8125 -0.0912  0.0062
 3317SOL    HW121584   4.226   3.366  10.418 -0.3536  0.0970  0.5996
 3317SOL    HW221585   4.350   3.286  10.461  0.0269  0.8285 -0.4410
 3318SOL     OW21586   2.442   3.381   0.749 -0.2000  0.3154 -0.2585
 3318SOL    HW121587   2.366   3.350   0.699 -0.1368  0.9630 -0.7502
 3318SOL    HW221588   2.513   3.341   0.700 -0.1121 -0.0122  0.1420
 3319SOL     OW21589   3.125   0.666   7.104  0.6753  0.0324 -0.1735
 3319SOL    HW121590   3.176   0.594   7.140 -0.3445 -0.8694 -0.5340
 3319SOL    HW221591   3.108   0.623   7.020  1.2122  1.2427 -0.9052
 3320SOL     OW21592   3.377   3.118   5.709 -0.0753  0.1599  0.4345
 3320SOL    HW121593   3.284   3.098   5.703 -0.3080  0.5589  2.7867
 3320SOL    HW221594   3.383   3.212   5.726 -0.1331  0.2182  0.1344
 3321SOL     OW21595   3.817   3.453   5.624  0.0390  0.0741  0.2147
 3321SOL    HW121596   3.764   3.434   5.547 -0.0229  0.2633  0.2104
 3321SOL    HW221597   3.752   3.485   5.687  0.1113 -1.5237  1.1032
 3322SOL     OW21598   0.708   1.049   7.383 -0.1750  0.0484  0.3481
 3322SOL    HW121599   0.783   1.042   7.442 -1.0673 -0.8315  1.3856
 3322SOL    HW221600   0.733   0.973   7.331 -0.8540 -1.1933  1.8092
 3323SOL     OW21601   4.733   0.481  16.636 -0.0973 -0.2833 -0.0531
 3323SOL    HW121602   4.651   0.510  16.677  0.2940  0.3791  0.2633
 3323SOL    HW221603   0.053   0.553  16.638  0.9761 -1.1348 -3.7914
 3324SOL     OW21604   2.620   2.707   5.405 -0.0634  0.1461 -0.0028
 3324SOL    HW121605   2.599   2.798   5.384 -2.2908 -0.4572 -0.3642
 3324SOL    HW221606   2.550   2.666   5.354  1.3954  2.7286 -4.0737
 3325SOL     OW21607   4.679   0.570   5.057 -0.2658 -0.9493  0.1117
 3325SOL    HW121608   4.681   0.531   4.969 -0.3626 -0.4338 -0.1184
 3325SOL    HW221609   4.629   0.651   5.049 -1.0551 -1.3375  1.1156
 3326SOL     OW21610   4.424   1.778   2.614  0.6107 -0.2083 -0.2713
 3326SOL    HW121611   4.401   1.737   2.531  0.9181 -0.3163 -0.3026
 3326SOL    HW221612   4.343   1.782   2.665 -1.5188 -0.9360 -3.6428
 3327SOL     OW21613   1.778   1.839   8.894 -0.3562  0.3421 -0.0150
 3327SOL    HW121614   1.742   1.925   8.870  3.2718  2.1900  1.0637
 3327SOL    HW221615   1.696   1.799   8.920  1.7295 -2.9636  1.4063
 3328SOL     OW21616   0.174   0.525  15.992  0.0445 -0.6060  0.3034
 3328SOL    HW121617   0.164   0.482  16.076  0.2004  0.9167  1.1015
 3328SOL    HW221618   0.226   0.604  16.008  0.1764 -0.7942  0.7935
 3329SOL     OW21619   2.153   0.720   9.061 -0.0091 -0.4490  0.6133
 3329SOL    HW121620   2.126   0.807   9.091 -0.5058 -0.7044  0.9087
 3329SOL    HW221621   2.085   0.668   9.103 -1.5045  1.5688  0.7109
 3330SOL     OW21622   1.731   3.082   5.493  0.1612  0.5948 -0.5105
 3330SOL    HW121623   1.696   3.015   5.435  0.1611  0.2413 -0.1024
 3330SOL    HW221624   1.826   3.086   5.478  0.2656 -0.5370 -0.1953
 3331SOL     OW21625   1.437   1.460   3.714 -0.3304  0.4821 -0.2194
 3331SOL    HW121626   1.375   1.394   3.683  0.1036  0.1888 -0.4615
 3331SOL    HW221627   1.414   1.481   3.804 -0.0262 -0.3954  0.0528
 3332SOL     OW21628   4.593   0.323   7.986  0.0726  0.4777  0.1682
 3332SOL    HW121629   4.646   0.390   7.942  0.6127  1.8430  2.9150
 3332SOL    HW221630   4.549   0.380   8.048 -1.7535  1.6600 -2.2163
 3333SOL     OW21631   4.338   3.217  17.484  0.2787 -0.5006  0.5740
 3333SOL    HW121632   4.358   3.239  17.575 -1.1947  1.9656  0.3172
 3333SOL    HW221633   4.398   3.276  17.439 -0.6658  1.4912  1.9194
 3334SOL     OW21634   2.181   1.715   8.055 -0.7360  0.1974 -0.0448
 3334SOL    HW121635   2.216   1.712   8.144 -0.2319  1.3398 -0.2141
 3334SOL    HW221636   2.175   1.624   8.025 -2.8147  0.8318 -1.5911
 3335SOL     OW21637   3.616   3.029   5.806  0.0226  0.0334 -0.4593
 3335SOL    HW121638   3.529   3.047   5.770  0.4284  0.7524 -1.0792
 3335SOL    HW221639   3.614   3.093   5.878 -1.3201  0.7076 -1.1033
 3336SOL     OW21640   3.895   4.024   8.874  0.3343 -0.2895 -0.1772
 3336SOL    HW121641   3.928   4.001   8.961  2.7335  1.9727 -0.4843
 3336SOL    HW221642   3.816   3.970   8.870 -0.4798  0.9520 -0.9530
 3337SOL     OW21643   1.745   0.326  17.035  0.1457  0.2317 -0.4129
 3337SOL    HW121644   1.696   0.293  17.111  0.9468 -1.3716 -0.6046
 3337SOL    HW221645   1.801   0.393  17.073  1.5118 -0.8639 -0.4875
 3338SOL     OW21646   0.414   3.654   9.919 -0.1035 -0.3048 -0.2256
 3338SOL    HW121647   0.331   3.690   9.888 -2.3626 -2.4438  3.4069
 3338SOL    HW221648   0.473   3.713   9.872 -1.9534 -0.0684 -2.2521
 3339SOL     OW21649   3.867   1.443   7.940 -0.2301  0.3610 -0.0685
 3339SOL    HW121650   3.794   1.480   7.990 -0.6845 -1.9497  0.9849
 3339SOL    HW221651   3.856   1.349   7.956 -0.5010  0.1068 -1.7919
 3340SOL     OW21652   3.044   1.168   2.095 -0.4676 -0.3234 -0.3417
 3340SOL    HW121653   3.137   1.185   2.082 -0.4181 -0.3548 -0.0309
 3340SOL    HW221654   3.020   1.236   2.159  1.5728 -0.5579  0.6624
 3341SOL     OW21655   1.985   2.345   1.501  0.1921  0.3163 -0.2437
 3341SOL    HW121656   2.057   2.368   1.443 -1.1253  2.0448 -1.1917
 3341SOL    HW221657   2.032   2.312   1.578 -1.0248 -0.7218  0.0654
 3342SOL     OW21658   2.032   2.535   7.651  0.2663  0.0562  0.4179
 3342SOL    HW121659   2.095   2.583   7.704 -0.0548 -0.1533  0.9900
 3342SOL    HW221660   2.090   2.478   7.601 -1.0441  0.0473 -1.0794
 3343SOL     OW21661   0.618   3.033   5.833 -0.0971 -0.4923 -0.2101
 3343SOL    HW121662   0.579   3.005   5.750  0.9357 -0.8721 -0.5694
 3343SOL    HW221663   0.705   3.059   5.803  0.1581  2.7830  3.3357
 3344SOL     OW21664   2.061   0.478   7.459  0.3316 -0.2776  0.2298
 3344SOL    HW121665   1.999   0.446   7.524 -0.7096  0.2749 -0.4815
 3344SOL    HW221666   1.998   0.515   7.397  1.4425 -1.2921 -1.5168
 3345SOL     OW21667   2.266   1.623  10.429 -0.2839  0.1945  0.0458
 3345SOL    HW121668   2.324   1.558  10.390  0.4072  0.6105  0.3692
 3345SOL    HW221669   2.303   1.702  10.390 -0.3706  0.1885 -0.0480
 3346SOL     OW21670   3.555   2.040   8.582  0.3163 -0.1149 -0.2419
 3346SOL    HW121671   3.649   2.051   8.591  0.4209 -1.8828  0.8573
 3346SOL    HW221672   3.530   2.128   8.611  0.0097 -0.3873  0.3195
 3347SOL     OW21673   3.218   2.521   3.142  0.1851 -0.8122  0.2844
 3347SOL    HW121674   3.138   2.540   3.191  0.2826  1.9100 -0.6177
 3347SOL    HW221675   3.276   2.596   3.158 -1.4457  0.3293  0.7883
 3348SOL     OW21676   0.810   2.581   7.385  0.1277 -0.6238  0.8464
 3348SOL    HW121677   0.799   2.672   7.355 -1.3704 -1.6245 -1.6309
 3348SOL    HW221678   0.723   2.567   7.421 -1.1202  3.0431 -0.6473
 3349SOL     OW21679   2.730   0.802  13.414 -0.1306 -0.5013 -0.2370
 3349SOL    HW121680   2.682   0.866  13.467 -0.1929  0.5902 -1.6214
 3349SOL    HW221681   2.823   0.820  13.430 -0.7016  2.0452  0.2433
 3350SOL     OW21682   2.461   1.231  16.121  1.1911  0.4951 -0.3532
 3350SOL    HW121683   2.553   1.255  16.134  1.2140  1.9532 -3.3575
 3350SOL    HW221684   2.465   1.135  16.117  2.5059  0.5164  0.3676
 3351SOL     OW21685   0.016   0.649   1.777 -0.0441 -0.2807  0.5484
 3351SOL    HW121686   0.041   0.691   1.859  0.3781 -1.0170  0.7978
 3351SOL    HW221687   4.683   0.599   1.805 -1.4052  1.5774  0.1136
 3352SOL     OW21688   0.789   0.525  10.203 -0.1317 -0.0013 -0.1220
 3352SOL    HW121689   0.878   0.550  10.229  0.3691  0.3045 -2.1562
 3352SOL    HW221690   0.781   0.449  10.261  0.0063  1.6080  2.0403
 3353SOL     OW21691   3.893   1.780   6.877  0.3768 -0.3861  0.7493
 3353SOL    HW121692   3.888   1.695   6.832  0.6662  0.0045 -0.0253
 3353SOL    HW221693   3.955   1.758   6.946  1.7934  2.0035  0.2158
 3354SOL     OW21694   1.226   0.359   0.341  0.4986  0.2150 -0.0164
 3354SOL    HW121695   1.301   0.341   0.397  0.2944  0.9614  0.4952
 3354SOL    HW221696   1.256   0.444   0.307  0.3072 -0.1765 -1.1685
 3355SOL     OW21697   1.376   2.790   3.845 -0.6299 -0.8419  0.1265
 3355SOL    HW121698   1.289   2.749   3.846 -0.4209 -1.2702  1.5309
 3355SOL    HW221699   1.377   2.858   3.913  0.6005  0.6530 -1.3915
 3356SOL     OW21700   3.866   3.868  16.059 -0.2981 -0.7177  0.0194
 3356SOL    HW121701   3.894   3.784  16.096 -0.6728 -0.5267  0.7426
 3356SOL    HW221702   3.890   3.935  16.123  1.0951  0.6383 -1.9005
 3357SOL     OW21703   2.143   2.965   3.169 -0.3543  0.8059 -0.1776
 3357SOL    HW121704   2.171   2.899   3.105  0.5476  0.5817  0.4490
 3357SOL    HW221705   2.205   3.031   3.139  3.5178 -2.4275  0.7878
 3358SOL     OW21706   1.527   2.771   1.669  0.2006  0.1987  0.0613
 3358SOL    HW121707   1.547   2.865   1.667 -0.1609  0.2474 -1.0916
 3358SOL    HW221708   1.607   2.732   1.635  1.5684  2.4294  0.6772
 3359SOL     OW21709   3.592   3.743  11.411  0.4402 -0.6459  0.0961
 3359SOL    HW121710   3.506   3.782  11.422 -0.2215 -1.3293 -2.6670
 3359SOL    HW221711   3.640   3.757  11.493 -0.9777  0.1331  0.7873
 3360SOL     OW21712   3.213   1.891   2.998 -0.5052  0.2432 -0.2037
 3360SOL    HW121713   3.215   1.915   2.905 -1.1605 -2.2483 -0.8893
 3360SOL    HW221714   3.123   1.859   3.007 -0.6748  0.3042 -1.6063
 3361SOL     OW21715   2.223   2.818   8.793  0.2973  0.4625  0.1298
 3361SOL    HW121716   2.205   2.823   8.887  0.8483 -0.6105  0.3001
 3361SOL    HW221717   2.149   2.775   8.749 -0.2059  2.0237 -0.5296
 3362SOL     OW21718   2.136   1.660   7.451 -0.7012  0.0379  0.1824
 3362SOL    HW121719   2.095   1.584   7.493  0.6180 -0.8731 -0.1730
 3362SOL    HW221720   2.062   1.718   7.437  1.1507  1.8580 -2.0173
 3363SOL     OW21721   3.778   3.857   3.068  0.5422 -0.7865 -0.5049
 3363SOL    HW121722   3.800   3.859   2.975  1.6845  0.1630 -0.2075
 3363SOL    HW221723   3.683   3.855   3.080  0.3562 -2.4473 -2.4559
 3364SOL     OW21724   4.045   4.437   9.329  1.2480 -0.1407 -0.1874
 3364SOL    HW121725   3.989   4.475   9.262  2.1875  1.7322  0.0915
 3364SOL    HW221726   4.060   4.512   9.387 -3.3107  0.9614 -0.4729
 3365SOL     OW21727   4.349   3.055   3.320 -0.0299 -0.2041 -0.0790
 3365SOL    HW121728   4.405   3.017   3.253 -1.5269  1.0735 -2.0337
 3365SOL    HW221729   4.314   2.977   3.364  0.9590 -0.4574  0.2677
 3366SOL     OW21730   0.478   3.803   5.016 -0.0191 -0.0288  0.3169
 3366SOL    HW121731   0.557   3.840   4.977  0.9185 -0.5847  1.6765
 3366SOL    HW221732   0.507   3.761   5.097  2.8885  2.4034  0.5374
 3367SOL     OW21733   3.364   4.375   8.518 -0.4122 -0.0782  0.0219
 3367SOL    HW121734   3.454   4.408   8.510  0.5298 -1.9543  2.7722
 3367SOL    HW221735   3.314   4.431   8.459  0.1555 -0.1777 -0.5636
 3368SOL     OW21736   3.235   2.868   8.163  0.6705 -0.1924  0.6378
 3368SOL    HW121737   3.165   2.808   8.134 -1.7556  3.9759 -2.0881
 3368SOL    HW221738   3.310   2.822   8.125  1.3217  1.9870 -0.6823
 3369SOL     OW21739   3.222   2.171   4.503  0.6094  0.1673  0.7507
 3369SOL    HW121740   3.286   2.235   4.533  2.1199 -1.5816  1.2607
 3369SOL    HW221741   3.209   2.200   4.413 -0.4121 -2.0099  0.1883
 3370SOL     OW21742   3.334   2.497   2.172 -0.1857 -0.3230 -0.3663
 3370SOL    HW121743   3.314   2.497   2.079 -4.1011 -2.0866  0.4529
 3370SOL    HW221744   3.282   2.423   2.203  1.2626 -1.1544  0.0993
 3371SOL     OW21745   4.407   4.368   8.406 -0.1364  0.1018  0.1949
 3371SOL    HW121746   4.461   4.351   8.484 -1.6283 -3.0601  0.5244
 3371SOL    HW221747   4.363   4.452   8.421 -0.0481  0.3656 -1.0127
 3372SOL     OW21748   4.292   0.137   8.419  0.3917 -0.0107 -0.2227
 3372SOL    HW121749   4.289   0.186   8.501  4.7848  0.0385 -0.1146
 3372SOL    HW221750   4.379   0.098   8.423  0.5690  0.3830 -0.2587
 3373SOL     OW21751   1.001   3.440   7.215 -0.1285  0.4920  0.1488
 3373SOL    HW121752   0.983   3.373   7.281  0.3729  0.6463  0.4460
 3373SOL    HW221753   0.997   3.384   7.138 -1.3111  0.7278  0.0480
 3374SOL     OW21754   0.916   0.271  17.492  0.1335  0.4300  0.4528
 3374SOL    HW121755   0.834   0.293  17.447 -0.3792 -0.6318  0.8865
 3374SOL    HW221756   0.894   0.297  17.582  0.3904  0.8883  0.3831
 3375SOL     OW21757   3.260   0.478  10.183 -0.4804 -0.3309  0.1040
 3375SOL    HW121758   3.197   0.538  10.224 -0.2041  0.4912 -0.6813
 3375SOL    HW221759   3.272   0.500  10.091  1.3359 -2.4645 -0.1505
 3376SOL     OW21760   1.926   2.801   9.570 -0.4109 -0.5810  0.0340
 3376SOL    HW121761   1.889   2.827   9.654 -0.1556  0.7772 -0.2796
 3376SOL    HW221762   2.019   2.805   9.592 -0.7262 -0.3646  1.3192
 3377SOL     OW21763   0.276   3.802   1.005  0.5250 -0.5319  0.3030
 3377SOL    HW121764   0.197   3.811   0.951  0.2422 -0.0068  0.8041
 3377SOL    HW221765   0.344   3.853   0.961  1.2827 -1.3502  0.5349
 3378SOL     OW21766   3.238   3.343  16.447  0.2865  0.5675  0.5819
 3378SOL    HW121767   3.216   3.426  16.406 -1.2106 -0.6662 -1.1078
 3378SOL    HW221768   3.333   3.336  16.438  0.1522  1.7615 -1.7720
 3379SOL     OW21769   1.807   1.025   9.948 -0.0801  1.1121  1.0079
 3379SOL    HW121770   1.785   1.096  10.009 -1.3840  1.1140  0.5296
 3379SOL    HW221771   1.730   0.972   9.966 -0.1981  1.3047  1.0715
 3380SOL     OW21772   2.671   2.019   4.588 -0.3208  0.3520  0.3919
 3380SOL    HW121773   2.705   2.071   4.515  0.0488 -1.5641 -0.7817
 3380SOL    HW221774   2.576   2.025   4.578 -0.2998  1.9729  1.0930
 3381SOL     OW21775   0.165   1.371  14.301 -0.1210  0.2109 -0.4340
 3381SOL    HW121776   0.180   1.283  14.266 -1.2279 -0.1867  0.0834
 3381SOL    HW221777   0.123   1.420  14.231  0.8113  0.1436 -1.0478
 3382SOL     OW21778   2.820   0.690   9.011 -0.2922 -0.1753  0.0891
 3382SOL    HW121779   2.772   0.664   9.090  1.4349 -2.5456  0.3355
 3382SOL    HW221780   2.899   0.636   9.018  0.6056  1.1610  0.3546
 3383SOL     OW21781   4.442   0.995  12.253 -0.0819 -0.3351  0.0019
 3383SOL    HW121782   4.451   0.972  12.161 -0.6011 -3.2119  0.6834
 3383SOL    HW221783   4.390   0.925  12.293 -1.6289 -0.2416 -1.8950
 3384SOL     OW21784   0.442   2.766   0.139  0.1695  0.2678 -0.2502
 3384SOL    HW121785   0.397   2.815   0.208  1.1540  0.8365 -0.0226
 3384SOL    HW221786   0.529   2.760   0.178  0.7877 -1.0260 -1.8311
 3385SOL     OW21787   1.253   0.120  14.410  0.1071  0.1503  0.2556
 3385SOL    HW121788   1.163   0.128  14.377 -0.5359  3.6413  2.8363
 3385SOL    HW221789   1.239   0.088  14.500 -0.5628 -1.1691 -0.3091
 3386SOL     OW21790   1.575   0.766   9.288  0.1462 -0.3626  0.0997
 3386SOL    HW121791   1.670   0.755   9.283  0.3250  0.2825  2.0776
 3386SOL    HW221792   1.569   0.809   9.374  0.7731  0.4514 -0.2627
 3387SOL     OW21793   0.453   0.042   4.526 -0.5843  0.5178 -0.5195
 3387SOL    HW121794   0.434   0.025   4.619  0.2817  2.6310  0.0247
 3387SOL    HW221795   0.418   4.705   4.487  0.9275 -0.0843 -0.6110
 3388SOL     OW21796   4.431   0.802   2.324 -0.0450 -0.7818  0.9542
 3388SOL    HW121797   4.459   0.743   2.393  1.0027  0.6081  1.7177
 3388SOL    HW221798   4.518   0.826   2.292 -0.0093 -2.9327 -0.6022
 3389SOL     OW21799   4.101   2.164   4.712 -0.2267 -0.1440 -0.2444
 3389SOL    HW121800   4.151   2.137   4.635 -1.0325 -0.5061 -0.6358
 3389SOL    HW221801   4.159   2.123   4.777 -0.4178 -2.1642 -1.3860
 3390SOL     OW21802   3.177   3.934   2.839  0.4179 -0.2105 -0.6529
 3390SOL    HW121803   3.097   3.968   2.799  0.4807  0.1653 -0.4675
 3390SOL    HW221804   3.246   3.939   2.773 -1.3360  2.1284 -2.3093
 3391SOL     OW21805   1.639   3.293   6.721 -0.3478 -0.4321  0.0981
 3391SOL    HW121806   1.589   3.277   6.641  0.0847  2.8914 -0.8439
 3391SOL    HW221807   1.716   3.334   6.681 -0.7372 -0.9367 -1.1551
 3392SOL     OW21808   4.186   2.485  13.901 -0.2867 -0.3994  0.4955
 3392SOL    HW121809   4.177   2.391  13.884 -1.0662 -0.2577  0.1167
 3392SOL    HW221810   4.096   2.514  13.916 -0.5757  0.9370 -3.9673
 3393SOL     OW21811   3.095   4.465   3.442 -0.1339  0.3290  0.5421
 3393SOL    HW121812   3.139   4.430   3.365  1.4468 -0.2683  1.7032
 3393SOL    HW221813   3.125   4.555   3.426 -1.1770  0.3856 -1.0768
 3394SOL     OW21814   3.791   3.204   8.304  0.0862 -0.1585 -0.4111
 3394SOL    HW121815   3.829   3.217   8.217 -2.7073  2.6008 -1.2241
 3394SOL    HW221816   3.831   3.121   8.329 -3.1348 -1.4624  0.5173
 3395SOL     OW21817   2.058   3.410  15.949 -0.7645  0.3845 -0.0623
 3395SOL    HW121818   2.128   3.360  15.992 -0.7281  0.3489 -0.1633
 3395SOL    HW221819   2.003   3.414  16.027 -1.4834 -1.0667 -0.4855
 3396SOL     OW21820   2.843   3.866   2.970 -0.7442  0.3717 -0.1353
 3396SOL    HW121821   2.855   3.955   3.002 -1.2676  0.4818 -0.2494
 3396SOL    HW221822   2.875   3.811   3.042 -1.2233 -0.6028 -0.6676
 3397SOL     OW21823   2.057   1.838   4.076 -0.4963 -0.1904  0.0597
 3397SOL    HW121824   2.080   1.808   4.164 -0.7668 -1.9618 -0.4813
 3397SOL    HW221825   2.136   1.878   4.041 -0.6258  1.4046  1.5897
 3398SOL     OW21826   1.589   4.252   8.246 -0.5940  0.1107  0.3358
 3398SOL    HW121827   1.570   4.305   8.324  1.2732  1.1851  0.0800
 3398SOL    HW221828   1.649   4.188   8.285 -0.6965 -0.6333 -0.7371
 3399SOL     OW21829   1.956   2.878   4.635 -0.1034  0.4639  0.2930
 3399SOL    HW121830   2.029   2.902   4.691  0.7187  0.6325 -0.8421
 3399SOL    HW221831   1.980   2.787   4.618 -1.0225  0.1874  0.4992
 3400SOL     OW21832   4.741   4.180   8.450 -0.0785 -0.2853  0.4248
 3400SOL    HW121833   4.675   4.203   8.516 -1.9671  1.0672 -1.9601
 3400SOL    HW221834   0.005   4.264   8.405 -1.2616 -0.6158 -0.3686
 3401SOL     OW21835   0.987   4.641  17.047 -0.0479  0.6328  0.5552
 3401SOL    HW121836   1.035   4.613  17.125 -0.8361  0.0258  0.8242
 3401SOL    HW221837   0.996   4.559  16.999  0.2055  3.0444 -3.5463
 3402SOL     OW21838   4.348   3.699   4.943  0.4693 -0.1310  0.4093
 3402SOL    HW121839   4.432   3.662   4.968  0.9516 -0.7030 -2.1302
 3402SOL    HW221840   4.363   3.788   4.910  0.4197  0.0198  0.7921
 3403SOL     OW21841   0.342   4.078   7.048 -0.9895 -0.0981 -0.8091
 3403SOL    HW121842   0.362   4.010   6.983  0.9339  0.9373 -1.3061
 3403SOL    HW221843   0.276   4.128   6.999 -0.3629 -0.4675 -2.0484
 3404SOL     OW21844   4.392   2.527   5.811 -0.0862  0.0602  0.1499
 3404SOL    HW121845   4.441   2.600   5.849  0.3517 -0.0678 -0.1731
 3404SOL    HW221846   4.462   2.480   5.767 -1.2652  0.3752 -2.0563
 3405SOL     OW21847   2.008   1.225   6.712  0.1924 -0.1158 -0.0512
 3405SOL    HW121848   2.096   1.258   6.692  0.0867 -0.4228 -1.0238
 3405SOL    HW221849   2.004   1.147   6.656 -1.7768 -0.5114  0.6597
 3406SOL     OW21850   3.483   4.534   7.338  0.2027 -0.3777 -0.0171
 3406SOL    HW121851   3.561   4.587   7.319 -1.0721  1.3764 -0.4337
 3406SOL    HW221852   3.510   4.474   7.408 -2.9501 -0.5532  1.0555
 3407SOL     OW21853   0.299   1.006   6.149 -0.1519  0.0014  0.8152
 3407SOL    HW121854   0.281   0.913   6.160  0.9107 -0.3767 -0.5267
 3407SOL    HW221855   0.310   1.035   6.240 -0.2464  1.7723  0.2550
 3408SOL     OW21856   2.694   3.270   8.014  0.5822  0.3134 -0.1622
 3408SOL    HW121857   2.740   3.341   8.058 -0.1551  0.4724  0.3525
 3408SOL    HW221858   2.667   3.323   7.939 -1.5135  1.9580  1.7433
 3409SOL     OW21859   0.705   0.484   6.789  0.4904 -0.4560  0.1822
 3409SOL    HW121860   0.687   0.430   6.712  2.0995 -1.0158  0.1925
 3409SOL    HW221861   0.690   0.416   6.855  0.3121  1.1538  1.7836
 3410SOL     OW21862   2.575   0.564   4.211  0.4985  0.1309  0.6549
 3410SOL    HW121863   2.659   0.605   4.228  1.0548 -0.0357 -1.6837
 3410SOL    HW221864   2.514   0.638   4.216 -1.5352 -1.4402 -0.6273
 3411SOL     OW21865   1.011   1.418   9.191  0.5957  0.1559  0.7974
 3411SOL    HW121866   0.977   1.497   9.234  0.2201 -0.1457  1.0606
 3411SOL    HW221867   0.993   1.365   9.269  0.1244 -0.0855  0.5279
 3412SOL     OW21868   3.793   1.538  14.848 -0.1046  0.5838  0.2616
 3412SOL    HW121869   3.799   1.608  14.913  2.0228  0.1858  0.4888
 3412SOL    HW221870   3.856   1.576  14.787  0.2025 -0.2794  0.0553
 3413SOL     OW21871   3.316   1.090  10.624 -0.0183 -0.7298 -0.0109
 3413SOL    HW121872   3.393   1.143  10.644 -2.3569  1.5836  2.7085
 3413SOL    HW221873   3.352   1.021  10.568 -0.6665  0.5063 -1.9244
 3414SOL     OW21874   4.364   4.724  12.747 -0.2798  0.1227 -0.2319
 3414SOL    HW121875   4.435   4.719  12.683 -0.8359 -1.7411 -0.7025
 3414SOL    HW221876   4.380   0.040  12.820 -2.0390  1.0862 -0.6097
 3415SOL     OW21877   2.697   4.341   8.276 -0.2628 -0.5592  0.3546
 3415SOL    HW121878   2.657   4.260   8.305  3.1828 -2.0866  0.8776
 3415SOL    HW221879   2.621   4.396   8.258 -0.1656 -0.1756  1.1352
 3416SOL     OW21880   0.251   2.349   7.231 -0.2901 -0.1552  0.2261
 3416SOL    HW121881   0.176   2.338   7.172  1.5669 -0.1846 -2.1455
 3416SOL    HW221882   0.320   2.313   7.176 -0.7660  0.0521 -0.5064
 3417SOL     OW21883   3.497   3.344   9.615  0.1324  0.1934 -0.2334
 3417SOL    HW121884   3.573   3.396   9.591 -1.0919  2.4777  0.8206
 3417SOL    HW221885   3.473   3.304   9.531 -0.5748  0.5774 -0.2196
 3418SOL     OW21886   3.917   2.807   1.731  0.3831  0.3632  0.1116
 3418SOL    HW121887   3.835   2.853   1.748 -0.2549 -0.9740  0.6648
 3418SOL    HW221888   3.884   2.730   1.685  1.0888  0.1024  0.0472
 3419SOL     OW21889   4.214   4.372   8.206  0.6148  0.0160 -0.1680
 3419SOL    HW121890   4.222   4.467   8.203  0.0060  0.0369 -1.0673
 3419SOL    HW221891   4.291   4.362   8.262  0.5574 -0.7373 -0.2184
 3420SOL     OW21892   3.133   3.719   9.404  0.1946  0.1619 -0.4593
 3420SOL    HW121893   3.149   3.695   9.495 -0.7534 -1.1413 -0.6272
 3420SOL    HW221894   3.103   3.809   9.406 -1.8733 -0.5678  0.9034
 3421SOL     OW21895   3.881   0.993   8.699  0.0856 -0.9736  0.1853
 3421SOL    HW121896   3.794   1.034   8.705  0.9386  1.0907 -1.7878
 3421SOL    HW221897   3.943   1.066   8.697 -1.5756  0.3300 -3.3680
 3422SOL     OW21898   4.495   2.695  11.790 -0.2730 -0.1663  0.1575
 3422SOL    HW121899   4.584   2.729  11.781  0.3141 -2.0301 -1.0567
 3422SOL    HW221900   4.485   2.651  11.705 -0.6255  0.0192  0.1044
 3423SOL     OW21901   0.706   2.201   3.344  0.4395 -0.1650  0.4850
 3423SOL    HW121902   0.778   2.137   3.349  2.0430  1.6984  1.0752
 3423SOL    HW221903   0.634   2.154   3.387  0.0944 -1.4492 -1.4903
 3424SOL     OW21904   1.137   0.064   1.273 -0.2052 -0.4085  0.0930
 3424SOL    HW121905   1.088   4.726   1.260 -2.5244  1.1608 -1.1264
 3424SOL    HW221906   1.221   0.052   1.228 -0.2489 -0.8823  0.1423
 3425SOL     OW21907   1.587   4.644   3.659  0.0731  0.2938 -0.0447
 3425SOL    HW121908   1.670   4.601   3.637 -0.4170  0.4939 -2.2623
 3425SOL    HW221909   1.529   4.569   3.672 -1.9991  2.1461  1.2819
 3426SOL     OW21910   0.638   2.600   2.496 -0.6463 -0.3908 -0.3043
 3426SOL    HW121911   0.555   2.637   2.466 -0.5290 -0.0418 -0.1996
 3426SOL    HW221912   0.661   2.671   2.557  1.6462  0.7810 -2.5295
 3427SOL     OW21913   0.395   1.013   9.317 -0.0228  0.0381  0.4757
 3427SOL    HW121914   0.458   0.962   9.369 -1.2845  0.9970  2.9387
 3427SOL    HW221915   0.432   1.029   9.231  1.7212 -0.6383  1.0807
 3428SOL     OW21916   1.154   3.258   4.429 -0.6784  0.4506  0.3007
 3428SOL    HW121917   1.074   3.303   4.404 -0.8809 -0.1368 -0.1123
 3428SOL    HW221918   1.124   3.167   4.438  2.7331 -0.9961 -2.7935
 3429SOL     OW21919   0.038   0.165  16.569  0.4535 -0.6456  0.6303
 3429SOL    HW121920   0.003   0.163  16.479  1.5374 -0.4955  0.2036
 3429SOL    HW221921   0.133   0.168  16.559  0.5264 -1.3430  1.1231
 3430SOL     OW21922   0.580   1.520   9.994 -0.5303  0.3737 -0.6859
 3430SOL    HW121923   0.549   1.444  10.043  0.4436  1.2042  1.2482
 3430SOL    HW221924   0.676   1.513   9.992 -0.4566  2.0045 -2.4558
 3431SOL     OW21925   2.179   4.099   4.812  0.2944  0.1320 -0.1737
 3431SOL    HW121926   2.103   4.153   4.832  0.6070 -0.4245  2.4616
 3431SOL    HW221927   2.171   4.059   4.725  0.0245 -0.2591  0.0312
 3432SOL     OW21928   0.354   1.637   4.603 -0.3063  0.1383  0.4201
 3432SOL    HW121929   0.273   1.687   4.615  0.2170  1.4027 -1.2889
 3432SOL    HW221930   0.377   1.659   4.513 -0.0660  0.7098  0.6158
 3433SOL     OW21931   2.183   0.824   5.879  0.2331 -0.1440  0.6720
 3433SOL    HW121932   2.238   0.756   5.919  1.6393 -0.0120 -1.0494
 3433SOL    HW221933   2.243   0.886   5.838 -0.7104  1.0943  1.1917
 3434SOL     OW21934   4.483   0.674  11.536 -0.2808  0.2022  0.0242
 3434SOL    HW121935   4.434   0.727  11.474 -2.1363 -0.1317  1.2063
 3434SOL    HW221936   4.471   0.583  11.508 -2.0133  0.4699 -0.0737
 3435SOL     OW21937   4.370   4.213   3.784 -0.4534  0.0209  0.2277
 3435SOL    HW121938   4.465   4.227   3.777 -0.3636  0.2404  1.8078
 3435SOL    HW221939   4.350   4.166   3.703  2.1280 -1.0547  0.1862
 3436SOL     OW21940   3.569   4.136   6.749 -0.5114  0.4399  0.0017
 3436SOL    HW121941   3.474   4.137   6.765 -0.6488  2.3259 -1.0555
 3436SOL    HW221942   3.597   4.162   6.837  0.4176 -2.0765  0.4734
 3437SOL     OW21943   4.388   0.026   9.455 -0.9566 -0.0835  0.0942
 3437SOL    HW121944   4.300   0.054   9.431  0.7102  1.4718 -4.0659
 3437SOL    HW221945   4.392   4.689   9.404  3.8965  0.8029 -0.9142
 3438SOL     OW21946   3.423   3.476   6.197 -0.6226  0.4915 -0.8876
 3438SOL    HW121947   3.340   3.469   6.245 -1.6319  0.4544 -2.6266
 3438SOL    HW221948   3.397   3.427   6.118 -0.2672 -2.3995  0.8064
 3439SOL     OW21949   3.400   2.197  12.572  0.1228  0.3107 -0.1293
 3439SOL    HW121950   3.403   2.113  12.617 -2.0590 -0.4099 -1.3282
 3439SOL    HW221951   3.471   2.239  12.620  0.6398  1.5107 -1.9133
 3440SOL     OW21952   2.621   3.351   1.529  0.5870  0.1306  0.3448
 3440SOL    HW121953   2.579   3.271   1.562  1.3310  0.2032  1.4734
 3440SOL    HW221954   2.624   3.411   1.603 -1.4635 -1.7551  1.9662
 3441SOL     OW21955   1.881   3.662  13.964  1.1285  0.0087 -0.0858
 3441SOL    HW121956   1.861   3.584  13.913 -0.8544 -0.8063  1.9372
 3441SOL    HW221957   1.906   3.710  13.885  0.5465 -0.4352 -0.5297
 3442SOL     OW21958   0.504   0.450   5.896  0.1695 -0.3778  0.0625
 3442SOL    HW121959   0.561   0.527   5.893  0.5997 -0.7742 -1.9947
 3442SOL    HW221960   0.559   0.383   5.936 -1.0988 -1.9797 -0.8947
 3443SOL     OW21961   3.906   4.542   2.856 -0.5134  0.6686 -0.4807
 3443SOL    HW121962   3.943   4.629   2.850  1.5064 -0.2411 -1.1139
 3443SOL    HW221963   3.965   4.498   2.794 -0.1090 -1.6628  1.5697
 3444SOL     OW21964   4.698   3.233  17.312 -0.6735 -0.3375  0.1847
 3444SOL    HW121965   4.690   3.170  17.384 -0.6145 -0.7267 -0.1483
 3444SOL    HW221966   4.608   3.238  17.282 -0.0333  0.4151 -1.6030
 3445SOL     OW21967   0.348   0.599   2.572  0.0204 -0.6007  0.3032
 3445SOL    HW121968   0.305   0.513   2.574  0.0003 -0.6555 -2.3379
 3445SOL    HW221969   0.285   0.659   2.611  0.6856  1.4327 -1.7212
 3446SOL     OW21970   3.424   3.556   6.597  0.2567  0.1948 -0.0561
 3446SOL    HW121971   3.483   3.501   6.545  1.4896 -0.3407  1.9202
 3446SOL    HW221972   3.415   3.512   6.681 -1.7860  0.5088 -0.1127
 3447SOL     OW21973   4.281   1.266   7.489 -0.1430  0.1844  0.4416
 3447SOL    HW121974   4.301   1.283   7.397  1.3398 -0.0564  0.7185
 3447SOL    HW221975   4.216   1.197   7.479 -1.2706  1.5309 -1.3484
 3448SOL     OW21976   4.056   0.718   7.202  0.5263 -0.4295 -0.0582
 3448SOL    HW121977   4.104   0.731   7.121 -0.3910  1.1701 -0.3366
 3448SOL    HW221978   4.124   0.752   7.260 -1.5059  1.5713  1.1357
 3449SOL     OW21979   0.738   0.446  12.593 -0.4840  0.1832 -0.8869
 3449SOL    HW121980   0.716   0.409  12.507  1.5162 -0.8025 -0.9581
 3449SOL    HW221981   0.793   0.517  12.561  0.5876 -0.6106 -0.7781
 3450SOL     OW21982   0.189   3.620   2.217 -0.4677  0.2996  0.6485
 3450SOL    HW121983   0.100   3.634   2.182 -0.4650 -0.5623  0.2948
 3450SOL    HW221984   0.215   3.706   2.249 -3.1646  0.5448  2.2217
 3451SOL     OW21985   0.661   1.911   1.832  0.5074 -0.4618 -1.2237
 3451SOL    HW121986   0.607   1.990   1.836 -0.5150 -1.0032 -4.3993
 3451SOL    HW221987   0.657   1.897   1.926 -0.7572  1.5635 -0.9669
 3452SOL     OW21988   3.727   4.707  11.217  0.0292  0.0289 -0.0019
 3452SOL    HW121989   3.755   4.620  11.245  0.7730  0.0507 -0.6680
 3452SOL    HW221990   3.641   4.704  11.258  0.4573  2.1016  1.0591
 3453SOL     OW21991   1.918   2.605   7.228  0.1504  0.2393  0.2177
 3453SOL    HW121992   1.874   2.527   7.263  1.9246 -1.5036 -1.4299
 3453SOL    HW221993   1.918   2.574   7.138 -1.1258  1.0792 -0.0823
 3454SOL     OW21994   4.624   2.153   5.112 -0.2291 -0.3146  0.0057
 3454SOL    HW121995   4.628   2.094   5.187  0.7947  2.1282  1.8547
 3454SOL    HW221996   4.675   2.104   5.047 -0.5990  0.9905 -1.2647
 3455SOL     OW21997   1.842   3.875   7.863  0.0789  0.2037  0.0295
 3455SOL    HW121998   1.816   3.967   7.863  0.4892  0.3234  1.7351
 3455SOL    HW221999   1.855   3.862   7.957 -2.1426  0.2425  0.3319
 3456SOL     OW22000   2.904   4.037   3.555  0.1364  0.2334  0.2525
 3456SOL    HW122001   2.944   3.958   3.590  2.4313  2.0271  1.6912
 3456SOL    HW222002   2.943   4.045   3.468 -0.9976 -1.6082 -0.4226
 3457SOL     OW22003   0.901   4.262   0.305  0.3172 -0.3230 -0.0404
 3457SOL    HW122004   0.811   4.243   0.332  0.1234 -1.6202 -1.5743
 3457SOL    HW222005   0.931   4.312   0.381  1.8909  0.4615 -1.1921
 3458SOL     OW22006   1.135   3.636   4.611 -0.7581 -0.4633 -0.0719
 3458SOL    HW122007   1.214   3.594   4.644 -1.5432 -0.3401  1.9656
 3458SOL    HW222008   1.174   3.716   4.576 -1.8281 -0.2122 -0.6845
 3459SOL     OW22009   4.197   2.763  13.828  0.4047  0.0802 -0.2977
 3459SOL    HW122010   4.105   2.759  13.802  0.6609 -1.4450 -0.9873
 3459SOL    HW222011   4.221   2.671  13.837  2.9061  0.8987  1.4746
 3460SOL     OW22012   3.496   0.967   0.312 -0.1300 -0.3572  0.9618
 3460SOL    HW122013   3.443   0.999   0.384 -0.9398  0.1993  0.1111
 3460SOL    HW222014   3.435   0.994   0.244  1.1682  2.2031  0.7896
 3461SOL     OW22015   1.247   0.306   5.863 -0.0455 -1.0387  0.7884
 3461SOL    HW122016   1.247   0.215   5.835 -0.0155 -1.0003  0.6672
 3461SOL    HW222017   1.287   0.352   5.789 -1.4113 -0.2637  0.5290
 3462SOL     OW22018   3.466   1.042   1.862 -0.3390  0.7249 -0.3250
 3462SOL    HW122019   3.443   0.955   1.896  0.4505  1.1605  1.3053
 3462SOL    HW222020   3.561   1.049   1.868 -0.3831 -0.7962  2.0321
 3463SOL     OW22021   3.898   1.038  15.340 -0.2696  0.0246  0.1877
 3463SOL    HW122022   3.914   0.944  15.338 -1.0167 -0.0989  0.2405
 3463SOL    HW222023   3.842   1.051  15.263  0.9094  0.7276 -0.5612
 3464SOL     OW22024   4.742   0.902   6.742  0.0626  0.4295 -0.3761
 3464SOL    HW122025   0.011   0.997   6.746  1.0347  0.1610  2.6716
 3464SOL    HW222026   0.084   0.865   6.722  0.6117 -0.9994  4.5156
 3465SOL     OW22027   4.544   3.968   4.045  0.4014 -0.3385 -0.0738
 3465SOL    HW122028   4.449   3.960   4.046  0.3325 -0.0258 -3.0345
 3465SOL    HW222029   4.563   3.892   3.989  0.7171 -0.1449 -0.2283
 3466SOL     OW22030   1.265   4.304  16.511 -0.1132 -0.9856 -0.2135
 3466SOL    HW122031   1.307   4.218  16.513  0.9351 -0.5553 -2.8419
 3466SOL    HW222032   1.344   4.356  16.494  0.4835 -1.2562  1.7759
 3467SOL     OW22033   2.879   2.437   8.273  0.2479  0.0561  0.1788
 3467SOL    HW122034   2.784   2.433   8.266  0.1605 -1.8261  2.3100
 3467SOL    HW222035   2.916   2.390   8.198 -1.2357 -0.9953  0.1198
 3468SOL     OW22036   3.342   2.717   5.147  0.0458  0.4786  0.1073
 3468SOL    HW122037   3.431   2.734   5.116  0.1151  1.3966  0.7943
 3468SOL    HW222038   3.341   2.625   5.120  0.3759  0.2784  0.7679
 3469SOL     OW22039   0.981   1.799   4.565 -0.5007  0.2842 -0.4148
 3469SOL    HW122040   1.031   1.873   4.600 -0.9016  0.0028  0.7627
 3469SOL    HW222041   1.049   1.758   4.512  0.0288 -0.5368  0.9034
 3470SOL     OW22042   0.501   0.749   8.946 -0.2254 -0.0358  0.2789
 3470SOL    HW122043   0.523   0.755   9.038 -2.0992 -0.0128  0.7270
 3470SOL    HW222044   0.439   0.822   8.944  1.4801  1.3757 -0.6438
 3471SOL     OW22045   2.272   3.087   7.239  0.2372 -0.1335  0.2430
 3471SOL    HW122046   2.365   3.102   7.259  0.2146 -1.0788  1.0491
 3471SOL    HW222047   2.244   3.178   7.235  1.2513  0.2541  1.7833
 3472SOL     OW22048   2.934   0.499   4.240 -0.2308 -0.0857 -0.2327
 3472SOL    HW122049   3.011   0.468   4.287 -0.8908 -0.5590  0.5449
 3472SOL    HW222050   2.887   0.418   4.260 -0.0474 -0.5472 -1.6547
 3473SOL     OW22051   3.956   4.079  17.616  0.1517 -0.2357  0.0104
 3473SOL    HW122052   3.862   4.088  17.632  0.2782 -0.8500  1.1164
 3473SOL    HW222053   3.985   4.121  17.697 -0.3285 -0.9456  0.5513
 3474SOL     OW22054   0.729   3.370   4.162 -0.2286 -0.3157  0.3166
 3474SOL    HW122055   0.688   3.442   4.208  0.3609 -0.0879  0.4854
 3474SOL    HW222056   0.653   3.313   4.153 -0.5607 -0.3203  3.3371
 3475SOL     OW22057   2.377   1.486  16.020 -0.1054  0.2161 -0.4140
 3475SOL    HW122058   2.324   1.440  15.955 -0.4532 -0.2346  0.1870
 3475SOL    HW222059   2.464   1.470  15.983  1.0025  0.2894  2.1128
 3476SOL     OW22060   4.170   4.141   7.418  0.1257  0.3309 -1.1966
 3476SOL    HW122061   4.149   4.157   7.326  0.1648 -2.5794 -1.7005
 3476SOL    HW222062   4.266   4.145   7.423  0.2499 -1.7289 -2.0766
 3477SOL     OW22063   2.974   0.735   9.555  0.1633  0.2047 -0.4241
 3477SOL    HW122064   3.038   0.761   9.489 -1.3086  0.1963 -1.8886
 3477SOL    HW222065   3.026   0.768   9.628  2.0035  2.0122 -2.5446
 3478SOL     OW22066   4.513   2.691   2.412 -0.4991 -0.2424 -0.5450
 3478SOL    HW122067   4.479   2.659   2.329  1.7899 -0.8703 -1.2381
 3478SOL    HW222068   4.454   2.633   2.459 -0.2259  1.0862  1.4422
 3479SOL     OW22069   1.624   3.826   8.315  0.1046  0.1203  0.8766
 3479SOL    HW122070   1.545   3.879   8.316  0.2911  0.4612 -1.5303
 3479SOL    HW222071   1.682   3.897   8.344  0.2958  0.3709 -0.1014
 3480SOL     OW22072   2.322   1.586  11.030  0.8660  0.0942  0.1513
 3480SOL    HW122073   2.335   1.589  10.935  1.4771 -1.8088  0.1836
 3480SOL    HW222074   2.387   1.649  11.059  0.4563  1.5875 -2.1538
 3481SOL     OW22075   2.522   4.518  11.629 -0.2174  0.1715 -0.5428
 3481SOL    HW122076   2.535   4.492  11.538 -0.1493  0.2391 -0.5528
 3481SOL    HW222077   2.471   4.442  11.658 -3.7981  1.8095 -2.5965
 3482SOL     OW22078   2.452   0.609   7.766  0.3953 -0.1366 -0.2752
 3482SOL    HW122079   2.466   0.521   7.732 -1.0677 -0.5438  0.1613
 3482SOL    HW222080   2.500   0.611   7.849  2.1670  1.2049 -1.3324
 3483SOL     OW22081   0.930   0.461   1.019 -0.0571  0.0359 -0.4867
 3483SOL    HW122082   0.905   0.500   1.103 -1.2119  1.6375 -1.5591
 3483SOL    HW222083   0.855   0.401   1.015 -0.6964  0.8213 -0.3130
 3484SOL     OW22084   2.049   3.314   3.392  0.4732 -0.4387  0.1390
 3484SOL    HW122085   2.027   3.363   3.471  2.0717 -1.1673  1.0399
 3484SOL    HW222086   2.102   3.373   3.338 -0.5784 -0.8474 -1.3516
 3485SOL     OW22087   3.137   0.026  14.448  0.5550 -0.0754  0.4306
 3485SOL    HW122088   3.163   4.678  14.443 -1.6957 -0.7094  0.2772
 3485SOL    HW222089   3.045   0.020  14.422  1.1665  1.9325 -2.0664
 3486SOL     OW22090   4.289   1.658   9.814 -0.3044  0.1889  0.0290
 3486SOL    HW122091   4.228   1.698   9.752  0.0232  0.3166 -0.2113
 3486SOL    HW222092   4.299   1.723   9.883 -1.6112  0.2790  0.1280
 3487SOL     OW22093   1.698   3.604  17.178  0.0545  0.1990 -0.8115
 3487SOL    HW122094   1.778   3.556  17.157  0.9731  1.9982 -1.3518
 3487SOL    HW222095   1.722   3.660  17.252  1.3407 -0.3838 -0.7775
 3488SOL     OW22096   4.281   2.905   7.694  0.4352 -0.1886 -0.3979
 3488SOL    HW122097   4.355   2.945   7.739  0.8018 -0.7142 -0.5294
 3488SOL    HW222098   4.229   2.979   7.663  0.0127  0.2172  1.3006
 3489SOL     OW22099   2.311   0.207  15.944  0.2732  0.2198 -0.6213
 3489SOL    HW122100   2.359   0.277  15.900  0.2813  2.4770  3.0116
 3489SOL    HW222101   2.357   0.190  16.027  1.0096 -0.7925 -1.2406
 3490SOL     OW22102   3.804   3.276   0.374  0.1987 -0.0425  0.2182
 3490SOL    HW122103   3.738   3.331   0.333 -1.9374 -2.8572 -0.1361
 3490SOL    HW222104   3.753   3.195   0.368 -1.2889  0.8718  0.3821
 3491SOL     OW22105   1.052   1.742  10.972 -0.0877  0.1286  0.8066
 3491SOL    HW122106   1.006   1.823  10.951  0.3932  0.0753 -0.4711
 3491SOL    HW222107   1.133   1.756  10.923 -0.5979  1.0278  0.2178
 3492SOL     OW22108   3.685   4.735   4.079  0.3604 -0.1844 -0.1049
 3492SOL    HW122109   3.751   4.667   4.094  1.2220  0.8340  0.7629
 3492SOL    HW222110   3.645   4.686   4.007  0.5483  1.5639 -1.4219
 3493SOL     OW22111   0.883   1.593  17.151  0.3647 -0.4301  0.1030
 3493SOL    HW122112   0.819   1.545  17.099 -0.0970  0.2717  0.0322
 3493SOL    HW222113   0.827   1.649  17.204  0.9318 -0.1914  0.4519
 3494SOL     OW22114   3.704   2.864   7.088  0.5171  0.3551  0.2933
 3494SOL    HW122115   3.798   2.851   7.100  0.6036 -0.5725 -1.4519
 3494SOL    HW222116   3.696   2.833   6.998  0.4396  3.1676 -0.6707
 3495SOL     OW22117   3.717   3.370   5.353 -0.0961 -0.2282  0.0492
 3495SOL    HW122118   3.707   3.464   5.360  1.5500 -0.1112  0.7326
 3495SOL    HW222119   3.639   3.358   5.298 -0.5081  0.4221  0.4923
 3496SOL     OW22120   0.428   2.918  16.898  0.4234  0.1733  0.0656
 3496SOL    HW122121   0.482   2.985  16.856  0.1721  0.3059 -0.0454
 3496SOL    HW222122   0.371   2.891  16.826  1.5536 -0.0101 -0.7535
 3497SOL     OW22123   4.608   4.031  10.308  0.3168 -0.4196 -0.3089
 3497SOL    HW122124   4.666   4.035  10.384  0.8967  2.0744 -0.8726
 3497SOL    HW222125   4.537   4.090  10.334 -0.2112 -1.4002  0.4729
 3498SOL     OW22126   2.047   1.710   2.834  0.0869 -0.3966 -0.4667
 3498SOL    HW122127   2.096   1.681   2.911 -0.9262  1.0347  0.7382
 3498SOL    HW222128   2.054   1.630   2.783  0.2531 -1.0709  0.6162
 3499SOL     OW22129   4.230   4.314   9.479  0.3187 -0.0328 -0.1650
 3499SOL    HW122130   4.215   4.222   9.503 -1.4701  0.2953 -0.0128
 3499SOL    HW222131   4.149   4.330   9.429  1.3457  2.0860 -1.1485
 3500SOL     OW22132   4.297   4.419   9.128  0.1831  0.0320 -0.3759
 3500SOL    HW122133   4.240   4.342   9.120 -1.4353  1.2416 -0.6567
 3500SOL    HW222134   4.234   4.483   9.094  1.0709  1.0578 -0.0684
 3501SOL     OW22135   4.311   2.874   4.145  0.0450 -0.0322 -0.0811
 3501SOL    HW122136   4.309   2.828   4.229  0.7543  0.0857 -0.0056
 3501SOL    HW222137   4.220   2.860   4.119 -0.3178  1.7660  0.1879
 3502SOL     OW22138   0.758   2.718   8.303 -0.1414  0.0840  0.8586
 3502SOL    HW122139   0.830   2.740   8.363  1.7647 -0.9369 -1.0233
 3502SOL    HW222140   0.727   2.638   8.345  1.1830 -1.5937 -1.3542
 3503SOL     OW22141   2.253   0.003   0.261  0.4427  0.0876  0.0132
 3503SOL    HW122142   2.238   4.653   0.274  0.5247  0.3704  2.1463
 3503SOL    HW222143   2.235   0.040   0.348 -0.1119  0.4922 -0.2768
 3504SOL     OW22144   2.859   2.257   5.254  0.6158 -0.4954  0.0388
 3504SOL    HW122145   2.908   2.179   5.228  0.5189  0.5498 -3.2999
 3504SOL    HW222146   2.771   2.248   5.218  0.5329  0.8334 -0.0685
 3505SOL     OW22147   2.551   3.227   8.889  0.1017 -0.5063  0.7393
 3505SOL    HW122148   2.521   3.165   8.822 -0.0363  0.6770 -0.2782
 3505SOL    HW222149   2.485   3.295   8.896 -1.8571 -2.2843 -0.5687
 3506SOL     OW22150   4.173   3.533  17.263 -0.2622 -0.0943 -0.0575
 3506SOL    HW122151   4.198   3.609  17.315 -0.1286  0.4167 -0.8533
 3506SOL    HW222152   4.155   3.567  17.175 -1.4293  2.6790  1.2871
 3507SOL     OW22153   3.387   0.837   4.385 -0.3495 -0.0533 -0.1919
 3507SOL    HW122154   3.474   0.848   4.424  0.1652 -0.5183 -1.2130
 3507SOL    HW222155   3.347   0.767   4.436  0.7758 -1.9815 -1.9852
 3508SOL     OW22156   1.657   1.347   8.040 -0.4569  0.2708  0.1388
 3508SOL    HW122157   1.683   1.270   7.989 -1.3037  2.2120 -3.2191
 3508SOL    HW222158   1.746   1.363   8.071 -0.4558  1.6766 -0.6226
 3509SOL     OW22159   2.752   1.111   9.703  0.1588  0.0545  0.1326
 3509SOL    HW122160   2.833   1.073   9.735 -0.2399 -1.5891 -0.8125
 3509SOL    HW222161   2.709   1.029   9.679  0.9097 -0.6314  1.1315
 3510SOL     OW22162   1.011   4.526   1.192 -0.7128  0.2994  0.1204
 3510SOL    HW122163   1.075   4.490   1.253  1.4478  1.9197 -1.1881
 3510SOL    HW222164   0.962   4.449   1.163  0.5685 -0.7263  0.7578
 3511SOL     OW22165   3.751   2.304  14.832  0.5261  0.2961  0.4197
 3511SOL    HW122166   3.677   2.280  14.775  1.6229 -3.0127  0.3958
 3511SOL    HW222167   3.708   2.313  14.917 -1.0693 -0.0718 -0.3459
 3512SOL     OW22168   1.740   1.208   5.222 -0.1927 -0.6469 -0.0469
 3512SOL    HW122169   1.832   1.181   5.227 -0.1704 -0.2152  2.2752
 3512SOL    HW222170   1.722   1.239   5.134  1.3952  0.3453 -0.0225
 3513SOL     OW22171   0.295   3.040   7.589  0.2836  0.0719 -0.0389
 3513SOL    HW122172   0.269   3.118   7.540 -0.5824  0.2977  0.7669
 3513SOL    HW222173   0.354   3.085   7.649  0.3104  0.3827 -0.3014
 3514SOL     OW22174   0.936   2.672   4.228 -0.0545 -0.2601 -0.1114
 3514SOL    HW122175   0.980   2.587   4.224  0.7156  0.1181  0.3527
 3514SOL    HW222176   0.937   2.699   4.136 -0.6371  2.8363  0.7835
 3515SOL     OW22177   0.815   0.021   0.369  0.1593  0.1244 -0.3856
 3515SOL    HW122178   0.885   0.081   0.344 -0.5948  0.6935 -1.1279
 3515SOL    HW222179   0.735   0.066   0.340  1.6334  1.8844 -1.6810
 3516SOL     OW22180   0.522   3.672   4.537  0.0217 -0.1341  0.3767
 3516SOL    HW122181   0.548   3.744   4.595 -0.8816  0.0961  0.4952
 3516SOL    HW222182   0.573   3.606   4.584 -1.6181 -2.5355 -1.2093
 3517SOL     OW22183   2.390   3.111   2.205 -1.0292  0.5524 -0.5108
 3517SOL    HW122184   2.409   3.195   2.164  1.5823  0.3517  0.2862
 3517SOL    HW222185   2.306   3.100   2.161 -1.4868 -0.7488  0.6922
 3518SOL     OW22186   3.847   4.239   5.841  0.2817 -0.1537  0.4927
 3518SOL    HW122187   3.775   4.301   5.851 -1.1941 -1.8675  0.5785
 3518SOL    HW222188   3.897   4.283   5.773 -1.9816 -0.0602 -1.1319
 3519SOL     OW22189   3.200   2.135   8.469  0.4734 -0.3369 -0.0746
 3519SOL    HW122190   3.110   2.143   8.436  0.9523  1.1372 -1.0228
 3519SOL    HW222191   3.221   2.046   8.443 -0.6476  0.9004 -5.1056
 3520SOL     OW22192   3.158   2.858   9.022  0.4208 -0.2249  0.1552
 3520SOL    HW122193   3.206   2.937   8.997  3.7805 -2.0038  0.9987
 3520SOL    HW222194   3.111   2.844   8.940  2.9793 -0.3736 -1.3045
 3521SOL     OW22195   3.754   3.972   5.877 -0.0889  0.0458  0.3971
 3521SOL    HW122196   3.785   4.054   5.838 -1.1446 -1.1421 -2.8827
 3521SOL    HW222197   3.703   3.941   5.803 -0.5748 -0.2269  0.8427
 3522SOL     OW22198   4.267   3.572  15.773 -0.6344 -0.4459 -0.1088
 3522SOL    HW122199   4.256   3.481  15.745 -0.1912 -0.6170  0.2775
 3522SOL    HW222200   4.360   3.589  15.789 -0.7805  0.6997 -0.4747
 3523SOL     OW22201   2.565   1.108  13.735 -0.0133  0.5159 -0.8144
 3523SOL    HW122202   2.645   1.069  13.701 -0.1138 -0.8645  0.5523
 3523SOL    HW222203   2.530   1.132  13.649 -1.9718 -1.8175 -0.6422
 3524SOL     OW22204   0.904   2.110   7.936 -0.2939  0.8060 -0.2920
 3524SOL    HW122205   0.876   2.091   8.026  0.8375 -0.3022 -0.1666
 3524SOL    HW222206   0.986   2.154   7.957 -0.0964  0.1032  0.4240
 3525SOL     OW22207   0.350   3.393   5.657  0.3151  0.0904 -0.3356
 3525SOL    HW122208   0.302   3.360   5.581 -0.1690  0.8769 -0.3725
 3525SOL    HW222209   0.345   3.486   5.637  1.1546  0.2891  0.3835
 3526SOL     OW22210   3.950   2.450   8.732  0.0022 -0.2964  0.2462
 3526SOL    HW122211   3.857   2.469   8.741 -0.4821 -2.5707 -0.0596
 3526SOL    HW222212   3.976   2.520   8.792  0.2117 -0.2649  0.1197
 3527SOL     OW22213   1.423   4.438   3.769  0.0176 -0.1306 -0.6138
 3527SOL    HW122214   1.391   4.451   3.859 -0.9572  0.8692 -1.1148
 3527SOL    HW222215   1.360   4.379   3.728 -1.5085  0.9427  0.2082
 3528SOL     OW22216   1.040   4.586   9.979 -0.3915 -0.2613 -0.1222
 3528SOL    HW122217   1.089   4.665   9.952 -2.7530  0.5412 -2.0659
 3528SOL    HW222218   1.023   4.603  10.071  0.8872 -0.9182  0.2361
 3529SOL     OW22219   2.609   2.983   4.861  0.2681  0.1128  0.4590
 3529SOL    HW122220   2.544   3.053   4.857  0.8022  0.6080  0.3593
 3529SOL    HW222221   2.569   2.941   4.785 -0.5837 -1.5753  1.8501
 3530SOL     OW22222   2.985   3.799   5.355 -0.6388  0.1377  0.3283
 3530SOL    HW122223   2.912   3.770   5.301 -0.0767  1.3946 -1.0992
 3530SOL    HW222224   3.047   3.840   5.294 -0.9329 -1.3562 -0.9792
 3531SOL     OW22225   3.324   3.120   8.251  0.5158 -0.6309 -0.4193
 3531SOL    HW122226   3.245   3.160   8.286  1.2801  0.4014  0.1274
 3531SOL    HW222227   3.291   3.040   8.209 -2.2772  0.2066  0.2284
 3532SOL     OW22228   0.255   3.652   4.503 -0.0242 -0.0672  0.5219
 3532SOL    HW122229   0.260   3.674   4.596  0.2014 -1.0362  0.7285
 3532SOL    HW222230   0.349   3.642   4.489 -0.2303 -1.1021 -0.0964
 3533SOL     OW22231   4.646   3.128   9.379  0.2914  0.6808  0.2854
 3533SOL    HW122232   4.604   3.104   9.462  0.2215  0.9365  0.3243
 3533SOL    HW222233   4.719   3.067   9.370 -0.7771 -0.5366 -0.1412
 3534SOL     OW22234   4.142   4.528   1.961 -0.3999 -0.2062 -0.0440
 3534SOL    HW122235   4.156   4.620   1.983  1.4940 -0.3103 -0.8306
 3534SOL    HW222236   4.223   4.503   1.915  0.1022  1.5269 -0.0848
 3535SOL     OW22237   4.456   1.953  13.472  0.7192  0.3475 -0.0425
 3535SOL    HW122238   4.361   1.941  13.464  0.5176  0.6120  2.0892
 3535SOL    HW222239   4.477   1.945  13.379 -1.2773  1.3638 -0.5803
 3536SOL     OW22240   0.313   0.204   5.310 -0.7021  0.6029 -0.3160
 3536SOL    HW122241   0.373   0.252   5.253  0.2045  2.2978  2.0742
 3536SOL    HW222242   0.292   0.134   5.249  1.6839 -1.4969  1.2799
 3537SOL     OW22243   0.794   1.970   4.367  0.2704 -0.0895 -0.7228
 3537SOL    HW122244   0.862   1.957   4.433  0.5358  0.8091 -0.8157
 3537SOL    HW222245   0.744   2.042   4.406  0.9554 -0.5120  0.9341
 3538SOL     OW22246   2.859   0.795  14.812 -0.7227 -0.1722 -0.3247
 3538SOL    HW122247   2.879   0.887  14.795 -1.8134  0.2490  0.6823
 3538SOL    HW222248   2.889   0.781  14.902 -2.3361 -0.8888  0.0966
 3539SOL     OW22249   0.536   0.123   5.470 -0.2870 -0.2575 -0.0503
 3539SOL    HW122250   0.593   0.081   5.406 -2.0492  1.1357 -2.5145
 3539SOL    HW222251   0.454   0.115   5.421 -0.7741  0.4724  0.6526
 3540SOL     OW22252   3.081   0.882   8.164  0.7924 -0.0713 -0.0380
 3540SOL    HW122253   3.097   0.839   8.080  1.7245  2.3122 -1.0828
 3540SOL    HW222254   2.999   0.929   8.144  0.9929  0.4844  0.4205
 3541SOL     OW22255   0.196   4.178   2.611 -0.0490  0.2812  0.9173
 3541SOL    HW122256   0.191   4.099   2.665  1.8739  0.8156  1.8671
 3541SOL    HW222257   0.103   4.176   2.588 -0.1381  2.0768  1.1210
 3542SOL     OW22258   4.231   0.997   9.582 -0.0685 -0.1346  0.4902
 3542SOL    HW122259   4.160   0.984   9.645  0.5874 -0.2701  1.2118
 3542SOL    HW222260   4.186   1.055   9.521 -0.5003 -0.1286  0.8088
 3543SOL     OW22261   2.793   3.771   0.380 -0.3580  0.7678 -0.4040
 3543SOL    HW122262   2.803   3.814   0.296 -1.5233  1.4978 -0.1630
 3543SOL    HW222263   2.721   3.709   0.370 -1.0506  1.6018 -0.5268
 3544SOL     OW22264   0.725   4.424   3.056 -0.2237 -0.0691 -0.2094
 3544SOL    HW122265   0.733   4.386   3.144  0.1046 -0.2405 -0.3126
 3544SOL    HW222266   0.807   4.395   3.015  0.7693  2.5867 -0.1372
 3545SOL     OW22267   0.986   3.820   3.044  0.3854 -0.2195 -0.5504
 3545SOL    HW122268   0.995   3.828   2.949  2.5448 -3.2846 -0.6253
 3545SOL    HW222269   1.077   3.836   3.072 -0.7907  2.6994  1.5859
 3546SOL     OW22270   4.521   0.868   9.133 -0.1533 -0.1072 -0.1277
 3546SOL    HW122271   4.570   0.790   9.160 -0.4706 -0.3054 -0.1202
 3546SOL    HW222272   4.487   0.914   9.209 -3.5425 -0.1700 -1.6270
 3547SOL     OW22273   0.575   2.974   8.198  0.1203  0.2183 -0.5036
 3547SOL    HW122274   0.612   3.049   8.245 -0.2565 -0.5918  1.0856
 3547SOL    HW222275   0.552   3.007   8.111 -1.7523  0.6241  0.1406
 3548SOL     OW22276   1.799   2.059   4.017 -0.0663  0.3369  0.0533
 3548SOL    HW122277   1.710   2.091   4.032  0.3414  2.1391 -1.2507
 3548SOL    HW222278   1.800   1.990   4.083  0.7436 -0.4461 -0.7834
 3549SOL     OW22279   4.399   1.224   6.981  0.3462  0.0797  0.7445
 3549SOL    HW122280   4.478   1.271   6.955  0.1137  0.2952  0.4122
 3549SOL    HW222281   4.369   1.201   6.893  0.3697 -0.1359  0.7931
 3550SOL     OW22282   1.900   2.039   5.255  0.0271  0.2434 -0.1841
 3550SOL    HW122283   1.874   1.962   5.306  1.5630  0.0167  0.2636
 3550SOL    HW222284   1.880   2.112   5.313  1.4917  1.7178 -1.5285
 3551SOL     OW22285   3.452   2.530   9.744 -0.4451 -0.0020  0.2817
 3551SOL    HW122286   3.382   2.510   9.807 -1.3608  0.5616 -0.5579
 3551SOL    HW222287   3.534   2.504   9.787  0.0214 -0.0648 -0.6404
 3552SOL     OW22288   2.720   0.414   2.596  0.2739  0.3120 -0.4895
 3552SOL    HW122289   2.737   0.508   2.591  2.2305 -0.0425 -0.2004
 3552SOL    HW222290   2.624   0.411   2.602  0.3505  1.5902  1.1724
 3553SOL     OW22291   3.268   1.577   5.632  0.8801  0.2837 -0.0425
 3553SOL    HW122292   3.219   1.573   5.714  1.2383 -1.2799  0.1006
 3553SOL    HW222293   3.282   1.484   5.616 -1.6154  0.1722 -1.5099
 3554SOL     OW22294   1.166   3.297   1.488 -0.0037 -0.2779 -0.3210
 3554SOL    HW122295   1.108   3.359   1.532 -0.5207 -1.9080  1.3146
 3554SOL    HW222296   1.106   3.280   1.416 -1.2994  0.6930  0.5436
 3555SOL     OW22297   0.021   1.486   2.182  0.3156 -0.1747  0.1755
 3555SOL    HW122298   4.722   1.553   2.235  2.4635  0.0465  1.6154
 3555SOL    HW222299   0.078   1.448   2.249 -1.4229  0.6087  2.1183
 3556SOL     OW22300   4.293   3.925   8.456  0.8167  0.6924  0.3564
 3556SOL    HW122301   4.348   3.935   8.534  2.1493 -1.7945 -0.2329
 3556SOL    HW222302   4.362   3.958   8.398 -0.3949 -1.4735 -2.3548
 3557SOL     OW22303   0.258   2.564   2.420 -0.4921  0.1141 -0.3993
 3557SOL    HW122304   0.194   2.555   2.490  0.1616  2.1519  0.4772
 3557SOL    HW222305   0.298   2.645   2.453 -0.8169  0.0855  0.0552
 3558SOL     OW22306   4.689   0.701   0.657  0.0664 -0.2476  0.6941
 3558SOL    HW122307   4.695   0.689   0.752 -2.4350  0.1974  0.8923
 3558SOL    HW222308   0.016   0.766   0.658 -1.3150  1.2928 -2.0631
 3559SOL     OW22309   2.021   0.062  16.997 -0.3845 -0.2368  0.3160
 3559SOL    HW122310   2.070   0.140  16.970 -0.6932  0.5343  2.0195
 3559SOL    HW222311   1.954   0.059  16.929  0.3704  0.9726 -0.4914
 3560SOL     OW22312   0.337   4.190   0.875  0.1514  0.2631 -0.0479
 3560SOL    HW122313   0.366   4.185   0.966 -1.3380  0.8917  0.4619
 3560SOL    HW222314   0.423   4.205   0.836 -0.9504  0.1779 -2.5431
 3561SOL     OW22315   4.314   3.817   7.605  0.0421  0.0341  0.2068
 3561SOL    HW122316   4.381   3.799   7.539  1.3376  1.8771  1.0167
 3561SOL    HW222317   4.287   3.725   7.611  1.4293 -0.6029 -3.3409
 3562SOL     OW22318   2.417   1.835   0.001  0.2525  0.5599  0.1980
 3562SOL    HW122319   2.444   1.793   0.083 -2.3332  0.2176  0.8718
 3562SOL    HW222320   2.324   1.814  17.765  0.5741 -1.1915  1.0678
 3563SOL     OW22321   2.787   0.098  10.939  0.5831 -0.3496 -0.2464
 3563SOL    HW122322   2.740   0.116  10.857 -0.6730 -1.0100  0.3157
 3563SOL    HW222323   2.844   0.023  10.919 -3.2490 -3.7122  1.2516
 3564SOL     OW22324   4.604   3.630  12.782 -0.4193 -0.1820  0.0839
 3564SOL    HW122325   4.575   3.545  12.749 -0.0385 -0.5860  0.7900
 3564SOL    HW222326   4.524   3.683  12.782 -1.2639 -1.4606  0.1538
 3565SOL     OW22327   2.132   2.292  15.367  0.1806 -0.7052  0.3756
 3565SOL    HW122328   2.080   2.358  15.413 -0.4684 -0.9476 -0.0095
 3565SOL    HW222329   2.082   2.217  15.400 -1.9875  0.0683 -1.1799
 3566SOL     OW22330   3.092   2.477   3.482  0.1003 -0.1849  0.5110
 3566SOL    HW122331   3.020   2.443   3.535 -1.1342  0.9742 -0.4502
 3566SOL    HW222332   3.046   2.495   3.400  0.6939  0.1597  0.2517
 3567SOL     OW22333   1.077   2.099   2.262  0.5635 -0.7227 -0.3148
 3567SOL    HW122334   0.982   2.095   2.266  0.5119 -0.0839 -0.9206
 3567SOL    HW222335   1.086   2.183   2.308  1.0353 -0.9848  0.0761
 3568SOL     OW22336   3.442   1.391   9.975  0.5163  0.6099  0.8507
 3568SOL    HW122337   3.372   1.436   9.927 -0.3645  0.7521  2.2670
 3568SOL    HW222338   3.515   1.449   9.956 -0.4077  2.1044  1.9091
 3569SOL     OW22339   4.394   0.467   8.211 -0.4923 -0.6502 -0.8033
 3569SOL    HW122340   4.313   0.450   8.259  0.2263 -1.3797  0.1512
 3569SOL    HW222341   4.441   0.512   8.282 -1.0826  0.4910 -1.1326
 3570SOL     OW22342   1.194   2.211  16.531  0.0201  0.0326  0.1059
 3570SOL    HW122343   1.208   2.253  16.616 -2.7317 -1.3999  1.2572
 3570SOL    HW222344   1.270   2.152  16.538 -0.9636 -1.4959 -2.0135
 3571SOL     OW22345   3.194   0.916   4.631 -0.1786  0.1400 -0.0508
 3571SOL    HW122346   3.219   0.848   4.694  1.2006  0.8773  0.2002
 3571SOL    HW222347   3.100   0.898   4.629  0.1540 -1.6312 -0.2804
 3572SOL     OW22348   1.189   0.613   1.663  0.2494 -0.2952 -0.3243
 3572SOL    HW122349   1.218   0.522   1.659 -0.3776 -0.4372 -1.6292
 3572SOL    HW222350   1.147   0.622   1.749 -0.5672  0.1298 -0.7697
 3573SOL     OW22351   3.113   1.923   4.416  0.0154 -0.5190 -0.0198
 3573SOL    HW122352   3.186   1.946   4.358 -0.0534 -1.9027 -0.6451
 3573SOL    HW222353   3.108   2.007   4.462 -0.2296 -0.7923  0.4569
 3574SOL     OW22354   0.496   4.209   0.548  0.0315  0.6383  0.3483
 3574SOL    HW122355   0.535   4.184   0.632 -2.1734 -2.0812  0.5680
 3574SOL    HW222356   0.429   4.269   0.580 -0.9297 -1.8277  2.9683
 3575SOL     OW22357   0.024   1.493   4.343 -0.0354 -0.0945  1.0692
 3575SOL    HW122358   0.053   1.581   4.319 -2.8064  0.4337 -0.3255
 3575SOL    HW222359   4.673   1.503   4.331 -0.0855  0.5343  2.0243
 3576SOL     OW22360   0.384   1.569  12.296  0.1014 -0.0190  0.1377
 3576SOL    HW122361   0.378   1.497  12.233  2.9931 -0.6637  0.6229
 3576SOL    HW222362   0.455   1.542  12.354  0.1480 -0.1134  0.0346
 3577SOL     OW22363   3.232   1.097   9.201  0.0300 -0.1462 -0.4470
 3577SOL    HW122364   3.295   1.167   9.183  0.6759 -0.9352 -1.2180
 3577SOL    HW222365   3.235   1.101   9.296  0.0985 -0.6269 -0.4316
 3578SOL     OW22366   4.057   0.976   9.815  0.1583 -0.0578  0.1115
 3578SOL    HW122367   4.020   0.954   9.900 -0.8836 -1.2313 -0.6462
 3578SOL    HW222368   4.026   1.066   9.802  0.5909  0.2494  1.2186
 3579SOL     OW22369   0.339   3.652   3.274 -0.5334 -0.1505  0.1482
 3579SOL    HW122370   0.257   3.662   3.226 -0.9680 -2.4301  0.4159
 3579SOL    HW222371   0.394   3.708   3.219  0.0348  0.4754  1.3378
 3580SOL     OW22372   4.486   3.643   8.918  0.0200  0.2803  0.1510
 3580SOL    HW122373   4.458   3.676   9.004  0.1692 -1.5671  0.8931
 3580SOL    HW222374   4.537   3.565   8.940 -1.9898 -0.6320  1.5809
 3581SOL     OW22375   3.387   0.832  13.771 -0.0386  0.3524  0.0721
 3581SOL    HW122376   3.429   0.774  13.708  0.6254  0.7028  0.1999
 3581SOL    HW222377   3.320   0.875  13.718 -0.3456 -0.7459 -0.4469
 3582SOL     OW22378   1.169   4.001   2.467 -0.4828  0.4736  0.0419
 3582SOL    HW122379   1.216   4.005   2.550  1.5500  0.2052 -1.0879
 3582SOL    HW222380   1.173   4.094   2.444  0.8713  0.6314  0.9048
 3583SOL     OW22381   4.612   0.716   6.031  0.4681 -0.0378  0.6706
 3583SOL    HW122382   4.603   0.757   5.945  0.6870 -0.5401  0.4086
 3583SOL    HW222383   4.566   0.634   6.016 -1.3601  1.2405 -0.7953
 3584SOL     OW22384   2.398   1.342   5.401  0.0349  0.5546 -0.2703
 3584SOL    HW122385   2.346   1.413   5.363 -0.5036  0.3488  0.0773
 3584SOL    HW222386   2.380   1.274   5.336  0.5647  1.2285 -1.1322
 3585SOL     OW22387   2.936   2.395   9.928  0.1646 -0.6476 -0.0884
 3585SOL    HW122388   2.853   2.426   9.892  1.2284  1.8117 -0.4368
 3585SOL    HW222389   2.994   2.408   9.853 -1.5048  1.4044 -1.0105
 3586SOL     OW22390   2.386   2.553   9.575  0.3920 -0.2546 -0.6224
 3586SOL    HW122391   2.458   2.492   9.559  0.9915  0.6321 -1.3230
 3586SOL    HW222392   2.418   2.610   9.645 -0.2483 -2.1321  1.2220
 3587SOL     OW22393   0.794   2.244   7.474 -0.2266  0.1066  0.3231
 3587SOL    HW122394   0.880   2.278   7.451 -2.3094  4.1880 -1.4764
 3587SOL    HW222395   0.798   2.229   7.568  0.2626 -2.0281 -0.0472
 3588SOL     OW22396   1.364   1.139   0.399  0.0531  0.3392 -0.1990
 3588SOL    HW122397   1.355   1.170   0.309  1.2230 -0.4356 -0.5771
 3588SOL    HW222398   1.448   1.094   0.401  0.3041  0.7520 -2.0455
 3589SOL     OW22399   2.164   0.740   8.077  0.2671 -0.1786 -0.0369
 3589SOL    HW122400   2.204   0.825   8.096 -2.6400  1.0314  0.7597
 3589SOL    HW222401   2.108   0.756   8.001  0.1814  2.3286  0.5484
 3590SOL     OW22402   1.546   4.548  11.538  0.2913  0.1600 -0.0033
 3590SOL    HW122403   1.637   4.575  11.550  0.5287 -1.1174  1.0417
 3590SOL    HW222404   1.546   4.474  11.598  0.2419  0.1696  0.0092
 3591SOL     OW22405   2.800   1.910   8.256 -0.4007 -0.4108  0.1416
 3591SOL    HW122406   2.734   1.878   8.196  0.2522  2.1152 -1.9191
 3591SOL    HW222407   2.775   2.002   8.258  0.7361 -0.0442 -3.0025
 3592SOL     OW22408   4.315   1.079   9.906  0.0909 -0.5843  0.6692
 3592SOL    HW122409   4.279   1.151   9.958  0.4965 -0.8620  1.3273
 3592SOL    HW222410   4.251   1.072   9.835 -0.8577 -1.8432  1.6634
 3593SOL     OW22411   1.367   0.119   2.687 -0.4480 -0.2996 -0.6147
 3593SOL    HW122412   1.408   0.048   2.737 -1.5199  0.4167  1.2845
 3593SOL    HW222413   1.297   0.072   2.643 -0.2246 -2.4875  1.3388
 3594SOL     OW22414   4.177   0.849   6.554  0.1446 -0.1811  0.1629
 3594SOL    HW122415   4.201   0.792   6.627 -4.3745  0.1525  1.8947
 3594SOL    HW222416   4.246   0.824   6.493 -0.8138 -0.3737 -0.8450
 3595SOL     OW22417   1.565   0.120   4.735  0.3035 -0.2148  0.6892
 3595SOL    HW122418   1.475   0.097   4.713  0.1554  0.2173  0.8451
 3595SOL    HW222419   1.543   0.136   4.827  0.3270 -1.8156  0.9774
 3596SOL     OW22420   2.471   1.834  15.303 -0.3409  0.0013 -0.0890
 3596SOL    HW122421   2.376   1.846  15.300 -0.1964  0.9769 -0.4549
 3596SOL    HW222422   2.472   1.749  15.258 -1.0611 -0.3011  0.4476
 3597SOL     OW22423   0.997   4.064  12.820  0.0158  0.4371 -0.4319
 3597SOL    HW122424   0.930   4.128  12.798 -0.1081  0.9652  1.4771
 3597SOL    HW222425   0.938   4.003  12.864  0.7672 -1.5690 -2.1678
 3598SOL     OW22426   3.380   0.211   4.102  0.1746 -0.0051 -0.7010
 3598SOL    HW122427   3.329   0.271   4.157  2.0049  0.1537  0.8247
 3598SOL    HW222428   3.391   0.138   4.163 -0.3924 -0.9965 -1.7943
 3599SOL     OW22429   1.617   1.391   0.708  0.1839  0.0460  0.0399
 3599SOL    HW122430   1.538   1.438   0.683 -1.0945 -2.3038 -0.3292
 3599SOL    HW222431   1.633   1.411   0.800  1.2348 -1.4404  0.1889
 3600SOL     OW22432   4.018   0.238  10.568 -0.8155 -0.3091  0.4325
 3600SOL    HW122433   4.072   0.309  10.535 -0.1125 -0.8620  0.3984
 3600SOL    HW222434   4.046   0.221  10.658  0.9859  0.3706 -0.0143
 3601SOL     OW22435   4.478   3.511   3.475  0.6218 -0.0230 -0.2320
 3601SOL    HW122436   4.540   3.534   3.545 -0.9349  0.6400  0.9187
 3601SOL    HW222437   4.477   3.591   3.423  0.5453 -0.6830 -1.2588
 3602SOL     OW22438   0.682   4.709   7.566 -0.7403 -0.2587 -0.1453
 3602SOL    HW122439   0.657   0.037   7.508 -1.2691 -0.3196  0.0042
 3602SOL    HW222440   0.687   0.002   7.655  1.5261 -1.8750  0.3919
 3603SOL     OW22441   0.199   4.562  17.734  0.1142  0.4740  0.1011
 3603SOL    HW122442   0.184   4.574   0.056  1.2396 -1.9492  0.5916
 3603SOL    HW222443   0.242   4.644  17.709 -1.3475  1.3442  0.4156
 3604SOL     OW22444   1.026   0.389   1.684  0.2912  0.2461 -1.0177
 3604SOL    HW122445   1.028   0.335   1.605 -0.1784  0.0857 -0.9230
 3604SOL    HW222446   0.933   0.410   1.690 -0.1237 -1.3820 -1.7175
 3605SOL     OW22447   3.562   1.830   7.851  1.1849  0.0884 -0.0859
 3605SOL    HW122448   3.609   1.912   7.835 -0.1719  0.4316 -2.3650
 3605SOL    HW222449   3.506   1.856   7.923  1.0317  1.2620 -0.6314
 3606SOL     OW22450   3.076   2.800  16.919  0.5810  0.5578 -0.0945
 3606SOL    HW122451   3.120   2.771  16.999 -2.1358 -1.5142  0.6120
 3606SOL    HW222452   3.033   2.719  16.893 -1.7502  1.4326  1.0728
 3607SOL     OW22453   3.758   2.339   2.415 -0.1779  0.2559 -0.2781
 3607SOL    HW122454   3.697   2.348   2.341 -0.8942 -1.8379  0.0476
 3607SOL    HW222455   3.707   2.382   2.483  1.0218 -1.4151  1.6786
 3608SOL     OW22456   4.643   4.450  15.559  0.2230 -0.5607  0.1384
 3608SOL    HW122457   4.713   4.475  15.619  1.5960 -1.3648 -1.1212
 3608SOL    HW222458   4.692   4.406  15.489 -0.4992  1.1621 -1.4484
 3609SOL     OW22459   2.697   2.112   9.660  0.1542 -0.0738 -0.0656
 3609SOL    HW122460   2.615   2.079   9.697 -0.8735 -0.0983 -2.3761
 3609SOL    HW222461   2.755   2.079   9.729  1.7481  1.5522 -0.6352
 3610SOL     OW22462   2.465   0.735   6.678 -0.0314  0.1377  0.6738
 3610SOL    HW122463   2.546   0.785   6.680  0.4519 -0.6632  0.8307
 3610SOL    HW222464   2.410   0.785   6.738 -1.0116  0.3229 -0.3507
 3611SOL     OW22465   2.649   2.799  10.350 -0.1842  0.6251  0.5253
 3611SOL    HW122466   2.717   2.735  10.372 -2.4397 -1.5024  1.1898
 3611SOL    HW222467   2.594   2.807  10.427  0.1548 -3.8116  1.2081
 3612SOL     OW22468   4.609   0.695  11.762 -0.0179  0.9762  0.0103
 3612SOL    HW122469   4.681   0.674  11.702  2.5532 -0.4604  3.6146
 3612SOL    HW222470   4.544   0.683  11.692 -0.4826  1.8760  0.2956
 3613SOL     OW22471   4.029   4.066   3.116 -0.1553 -0.1375  0.6685
 3613SOL    HW122472   4.051   3.982   3.077 -1.7849  0.4418 -1.5230
 3613SOL    HW222473   3.957   4.091   3.057 -0.2971 -0.3464  0.7556
 3614SOL     OW22474   3.350   4.043   1.078 -0.5167  0.4673  0.4759
 3614SOL    HW122475   3.301   3.962   1.097 -0.5955  0.2518 -0.6298
 3614SOL    HW222476   3.350   4.100   1.155 -0.2178  0.6826  0.3112
 3615SOL     OW22477   3.755   1.429   5.654  0.1034  0.3042 -0.1688
 3615SOL    HW122478   3.696   1.353   5.653 -1.1845  1.3026  0.9511
 3615SOL    HW222479   3.714   1.515   5.657 -0.5802 -0.0665  1.1970
 3616SOL     OW22480   2.435   2.715   8.332  0.1803 -0.1891  0.2469
 3616SOL    HW122481   2.487   2.680   8.260 -0.3130 -0.9750  0.2686
 3616SOL    HW222482   2.391   2.634   8.356  0.7237 -1.3853 -2.7375
 3617SOL     OW22483   0.586   1.108  15.209 -0.2893 -0.0284  0.7508
 3617SOL    HW122484   0.539   1.149  15.137  2.5298  1.1751 -0.4139
 3617SOL    HW222485   0.663   1.165  15.215  0.6208 -1.0557 -1.1163
 3618SOL     OW22486   2.538   3.367   2.652  0.7234  0.2942  0.2523
 3618SOL    HW122487   2.493   3.392   2.572 -1.9155 -0.0134  1.6298
 3618SOL    HW222488   2.549   3.272   2.646  0.0563  0.2409 -0.1180
 3619SOL     OW22489   4.362   1.198   6.681 -0.3611  0.6292  0.0084
 3619SOL    HW122490   4.304   1.144   6.734  0.9732 -0.7581  0.0423
 3619SOL    HW222491   4.327   1.174   6.595  0.7591 -0.9138 -0.0146
 3620SOL     OW22492   3.361   1.710   2.409 -0.4150 -0.2594 -0.0883
 3620SOL    HW122493   3.386   1.712   2.316  0.6248 -0.0420  0.2034
 3620SOL    HW222494   3.428   1.669   2.463 -4.0007 -1.8633  3.1196
 3621SOL     OW22495   0.924   2.150   2.880 -0.6580 -0.3073  0.2140
 3621SOL    HW122496   0.984   2.223   2.895  0.3135 -1.0522 -0.0625
 3621SOL    HW222497   0.970   2.105   2.810  1.0271  0.9410  0.5262
 3622SOL     OW22498   1.796   4.221   0.658  0.1718  0.1564 -0.3344
 3622SOL    HW122499   1.767   4.183   0.741 -0.4413  4.2794  1.3238
 3622SOL    HW222500   1.783   4.312   0.684  1.7410  0.1259  0.5751
 3623SOL     OW22501   1.973   4.454   6.815 -0.0249 -0.1414 -0.1820
 3623SOL    HW122502   1.891   4.469   6.768  0.4560 -0.2301 -1.0525
 3623SOL    HW222503   2.034   4.431   6.745  0.2778 -3.7346  1.2598
 3624SOL     OW22504   0.253   2.155   9.236 -0.1475  0.3640  0.1783
 3624SOL    HW122505   0.325   2.216   9.250 -2.5012  2.8345  1.4842
 3624SOL    HW222506   0.189   2.201   9.182  1.1392  1.5636 -0.3246
 3625SOL     OW22507   2.677   4.179   3.721  0.0301 -0.1347 -0.2351
 3625SOL    HW122508   2.617   4.109   3.695  0.9013 -1.1435  0.4792
 3625SOL    HW222509   2.754   4.144   3.675  0.4281 -1.6657  1.5783
 3626SOL     OW22510   3.057   2.533   6.107 -0.0508  0.1433  0.2808
 3626SOL    HW122511   3.027   2.597   6.172  1.1717 -0.3538  1.3232
 3626SOL    HW222512   3.053   2.588   6.028 -1.5230  0.0181  0.2664
 3627SOL     OW22513   4.477   0.244  16.442 -0.1924  0.1348 -0.0888
 3627SOL    HW122514   4.566   0.261  16.410  0.3150  1.0598  1.8327
 3627SOL    HW222515   4.449   0.332  16.466 -1.0173 -0.5028  1.2262
 3628SOL     OW22516   1.711   1.838  10.644 -0.1169 -0.0246 -0.0853
 3628SOL    HW122517   1.772   1.799  10.707  0.7368 -0.1781 -1.0081
 3628SOL    HW222518   1.762   1.835  10.563  1.1117  0.1739  0.6643
 3629SOL     OW22519   1.346   4.058   7.848 -0.1350 -0.0585 -0.5501
 3629SOL    HW122520   1.418   4.012   7.805  0.8132  0.0127  0.9739
 3629SOL    HW222521   1.376   4.148   7.865  2.3463 -1.0132  0.1209
 3630SOL     OW22522   0.758   2.469   8.034  0.0323 -0.2730 -0.1454
 3630SOL    HW122523   0.762   2.565   8.040  1.2495 -0.3303 -0.1112
 3630SOL    HW222524   0.764   2.450   7.941  0.3024 -1.3532  0.0964
 3631SOL     OW22525   0.529   2.007  16.274 -0.3425 -0.4203  0.1795
 3631SOL    HW122526   0.564   2.021  16.362  2.2185 -1.0299 -0.7338
 3631SOL    HW222527   0.465   2.078  16.274  1.6327  1.3510 -0.6601
 3632SOL     OW22528   1.530   2.167  15.078  0.1506 -0.7494  0.0923
 3632SOL    HW122529   1.618   2.148  15.112  0.4515  0.9232  0.2487
 3632SOL    HW222530   1.490   2.204  15.156 -1.9758  0.6542 -1.6735
 3633SOL     OW22531   4.266   4.198   3.520  0.2641  0.1490  0.3105
 3633SOL    HW122532   4.266   4.146   3.440 -1.0944 -1.1067  1.1290
 3633SOL    HW222533   4.181   4.177   3.558  0.3445  2.4589  1.7864
 3634SOL     OW22534   3.843   0.818   9.959 -0.3945 -0.3820 -0.1217
 3634SOL    HW122535   3.848   0.725   9.982  2.1065 -0.7312 -2.1470
 3634SOL    HW222536   3.846   0.864  10.043  0.6801 -0.1527 -0.2781
 3635SOL     OW22537   0.819   1.586   2.681  0.2017  0.0044  0.0194
 3635SOL    HW122538   0.729   1.572   2.650  0.8305 -3.2794 -0.3967
 3635SOL    HW222539   0.834   1.494   2.704  1.1894  0.5487  1.5641
 3636SOL     OW22540   1.021   0.103   2.917  0.0970  0.0782 -0.0735
 3636SOL    HW122541   1.008   0.108   2.822  0.7731 -1.5049 -0.2483
 3636SOL    HW222542   0.950   0.048   2.950  0.9042 -1.3216 -0.6583
 3637SOL     OW22543   4.532   4.071   7.245  0.2809 -0.2785 -0.1694
 3637SOL    HW122544   4.616   4.056   7.289  0.1191 -1.0896 -0.1379
 3637SOL    HW222545   4.494   4.129   7.310 -0.4207 -0.6586 -0.2340
 3638SOL     OW22546   1.323   2.314  10.741 -0.1365 -0.5798 -0.3573
 3638SOL    HW122547   1.391   2.340  10.679 -0.3160 -0.7693 -0.6331
 3638SOL    HW222548   1.309   2.407  10.760 -0.0851 -0.6500  0.0286
 3639SOL     OW22549   1.219   4.287  11.396  0.6074 -0.2006 -0.1945
 3639SOL    HW122550   1.279   4.361  11.401  1.0840 -0.5784 -0.3714
 3639SOL    HW222551   1.273   4.232  11.339  0.3638 -0.4168 -0.2165
 3640SOL     OW22552   1.392   1.823   2.547 -0.3141 -0.5856 -0.5338
 3640SOL    HW122553   1.460   1.836   2.613 -1.0721  0.9017 -0.0446
 3640SOL    HW222554   1.440   1.868   2.478  0.7747 -0.1353  0.5089
 3641SOL     OW22555   0.701   3.381  10.109 -0.3312  0.0762  0.2441
 3641SOL    HW122556   0.618   3.425  10.124  1.0151  3.0799 -0.9566
 3641SOL    HW222557   0.760   3.423  10.172  3.4415 -1.0091 -2.5026
 3642SOL     OW22558   3.480   1.564   2.853 -0.0388 -0.5512 -0.1317
 3642SOL    HW122559   3.466   1.485   2.906  0.3513  0.5458  1.6080
 3642SOL    HW222560   3.390   1.580   2.823 -0.1013 -0.1576  0.2655
 3643SOL     OW22561   4.367   1.334   4.143  0.1004 -0.3306  0.0080
 3643SOL    HW122562   4.348   1.314   4.052 -0.6018 -1.7725  0.4733
 3643SOL    HW222563   4.357   1.257   4.199  0.2767 -0.2527  0.1460
 3644SOL     OW22564   2.858   2.787  13.774 -0.0114  0.1073  0.2948
 3644SOL    HW122565   2.927   2.843  13.808 -0.9650  0.4730  1.6441
 3644SOL    HW222566   2.864   2.793  13.679  0.6519  0.6604  0.3740
 3645SOL     OW22567   2.480   4.670  11.936  0.7218  0.2234 -0.2326
 3645SOL    HW122568   2.440   4.690  12.020  3.4763  1.3277  0.8375
 3645SOL    HW222569   2.540   4.597  11.955 -0.4932 -0.8375 -0.4489
 3646SOL     OW22570   4.674   3.870   3.151  0.6254 -0.4303  0.2437
 3646SOL    HW122571   4.704   3.957   3.125  2.0389 -0.6321  1.2187
 3646SOL    HW222572   0.011   3.818   3.145  0.4780 -0.6506  0.1860
 3647SOL     OW22573   1.634   2.456   4.220 -0.4348 -0.4743 -0.1057
 3647SOL    HW122574   1.653   2.363   4.211 -0.5808 -0.6691  1.6183
 3647SOL    HW222575   1.704   2.509   4.183 -0.5777 -0.1475  0.0884
 3648SOL     OW22576   3.012   3.461  10.026  0.1494  0.7048 -0.4152
 3648SOL    HW122577   3.016   3.547  10.069  0.3949  0.4487  0.0729
 3648SOL    HW222578   2.980   3.484   9.938 -0.8476  1.8146  0.2340
 3649SOL     OW22579   4.712   3.439   2.833  0.3410  0.5275 -0.4849
 3649SOL    HW122580   0.040   3.378   2.816 -1.5748 -2.2172  1.1921
 3649SOL    HW222581   4.667   3.383   2.897  1.2237 -0.3274 -0.6041
 3650SOL     OW22582   1.579   2.481   7.943 -0.1539 -0.2719 -0.8233
 3650SOL    HW122583   1.580   2.502   8.036  0.5166 -0.8323 -0.7018
 3650SOL    HW222584   1.506   2.531   7.906  0.2573  0.4806 -0.6130
 3651SOL     OW22585   2.563   2.778   2.185  0.8436 -0.3120  0.6231
 3651SOL    HW122586   2.477   2.771   2.143  0.2398 -1.5080  2.0590
 3651SOL    HW222587   2.537   2.737   2.267 -0.5838  1.7020  1.1682
 3652SOL     OW22588   1.372   3.669   5.863  0.2564  0.1918 -0.0771
 3652SOL    HW122589   1.455   3.709   5.838  1.3853 -1.0172  1.7150
 3652SOL    HW222590   1.399   3.581   5.888 -0.5912  0.1227  0.6219
 3653SOL     OW22591   3.298   0.129   9.222  0.0806  0.2324  0.0813
 3653SOL    HW122592   3.214   0.098   9.257  0.9450 -0.9000  1.1503
 3653SOL    HW222593   3.359   0.130   9.296 -0.9502  1.2334  0.9239
 3654SOL     OW22594   1.441   3.542   6.816  0.1487 -0.3257  0.3618
 3654SOL    HW122595   1.534   3.530   6.797  0.0188 -2.2171  0.8656
 3654SOL    HW222596   1.406   3.548   6.727 -0.6314 -0.0466  0.6913
 3655SOL     OW22597   2.412   1.319   8.640 -0.4200  0.7765 -0.3967
 3655SOL    HW122598   2.351   1.267   8.588  0.3693 -0.3980 -0.1615
 3655SOL    HW222599   2.370   1.305   8.725 -2.1479 -0.0927 -1.3983
 3656SOL     OW22600   1.255   2.741   7.678  1.0983  0.3681  0.2955
 3656SOL    HW122601   1.216   2.715   7.761  0.1774 -1.2401 -0.6494
 3656SOL    HW222602   1.341   2.761   7.715  1.4431 -0.7755  0.1277
 3657SOL     OW22603   4.173   0.883   2.931 -0.3286 -0.4202 -0.0318
 3657SOL    HW122604   4.129   0.968   2.922  0.4282 -0.0061  0.1996
 3657SOL    HW222605   4.264   0.913   2.932 -0.8689  1.2926 -2.0255
 3658SOL     OW22606   0.282   1.123  16.659 -0.1173 -0.0817 -0.0784
 3658SOL    HW122607   0.211   1.186  16.655 -0.1498  0.0234  2.0933
 3658SOL    HW222608   0.319   1.144  16.745  1.4563 -2.2793 -0.1986
 3659SOL     OW22609   0.783   1.201   8.315 -0.7154  0.6161 -0.0562
 3659SOL    HW122610   0.819   1.145   8.246 -0.2736 -0.8535  1.3608
 3659SOL    HW222611   0.780   1.277   8.257  0.4843 -0.3522 -1.4126
 3660SOL     OW22612   2.143   3.944   3.525  0.4327 -0.3994 -0.6702
 3660SOL    HW122613   2.146   4.030   3.568 -1.2169 -0.0447 -1.2674
 3660SOL    HW222614   2.235   3.925   3.505  1.1093  1.2671  0.8448
 3661SOL     OW22615   0.227   3.269   8.432 -0.0008 -0.1468 -0.4679
 3661SOL    HW122616   0.278   3.188   8.428 -1.9186 -1.4116  0.7493
 3661SOL    HW222617   0.141   3.231   8.449 -1.0416  2.2265 -0.4211
 3662SOL     OW22618   3.281   3.912   5.626  0.1615  0.4602  0.1980
 3662SOL    HW122619   3.219   3.931   5.697 -0.1625  2.4426 -0.6015
 3662SOL    HW222620   3.250   3.830   5.587 -0.7200  0.1165  1.6013
 3663SOL     OW22621   2.438   2.641   5.227  0.0660  0.0564  0.2794
 3663SOL    HW122622   2.345   2.640   5.203  0.4166 -0.4427 -1.0605
 3663SOL    HW222623   2.469   2.716   5.177 -2.7001  1.4263  0.5908
 3664SOL     OW22624   0.218   3.336   5.441 -0.3628 -0.3174 -0.2757
 3664SOL    HW122625   0.161   3.400   5.398  0.7684 -0.6280 -2.2495
 3664SOL    HW222626   0.201   3.262   5.383  1.4127 -0.2316 -0.9174
 3665SOL     OW22627   0.915   0.695   2.152  0.0639  0.8949  0.1578
 3665SOL    HW122628   0.947   0.779   2.119 -2.8953  2.6075  1.6087
 3665SOL    HW222629   0.859   0.721   2.226  0.1777 -2.1927  1.3554
 3666SOL     OW22630   0.812   1.083  14.390 -0.0780  0.0813  0.3097
 3666SOL    HW122631   0.732   1.104  14.438 -1.9661 -2.1112 -1.8960
 3666SOL    HW222632   0.780   1.090  14.300 -3.0488 -0.4671  1.3017
 3667SOL     OW22633   4.286   2.840  13.271  0.0350  0.0276 -0.1578
 3667SOL    HW122634   4.288   2.762  13.215 -0.8012  0.4388 -0.7679
 3667SOL    HW222635   4.377   2.868  13.263  0.8591 -2.2414  1.2067
 3668SOL     OW22636   4.514   4.006   8.362  0.4270  0.0083  0.2558
 3668SOL    HW122637   4.586   4.042   8.413 -1.4327  1.0919  2.0995
 3668SOL    HW222638   4.552   3.957   8.289  0.6265  3.0712 -1.7034
 3669SOL     OW22639   1.874   2.681   8.395  0.0709 -0.2024  0.2761
 3669SOL    HW122640   1.801   2.688   8.457 -0.7330 -2.5799 -0.4219
 3669SOL    HW222641   1.858   2.762   8.347  0.8170 -0.8851 -1.1055
 3670SOL     OW22642   4.302   4.719   4.900 -0.7371 -0.3810  0.0850
 3670SOL    HW122643   4.331   4.642   4.852 -0.3808 -1.3175  1.8140
 3670SOL    HW222644   4.358   0.043   4.862 -0.7205 -0.8612 -0.7501
 3671SOL     OW22645   1.185   2.450  13.889 -0.0199 -0.0205  0.5725
 3671SOL    HW122646   1.138   2.398  13.823 -0.7476  0.7178  0.5148
 3671SOL    HW222647   1.185   2.393  13.966 -0.1053 -0.0439  0.5554
 3672SOL     OW22648   0.940   3.802   3.814 -0.7091  0.0962  0.0152
 3672SOL    HW122649   0.954   3.872   3.751 -0.6845 -0.9756 -1.1820
 3672SOL    HW222650   1.019   3.806   3.868 -0.0392  1.5125 -1.0577
 3673SOL     OW22651   1.977   4.695   9.493  0.0813 -0.4087 -0.4799
 3673SOL    HW122652   1.953   0.032   9.539 -2.4220 -0.8985 -0.9304
 3673SOL    HW222653   2.034   4.724   9.421 -1.8512  1.2114 -1.3437
 3674SOL     OW22654   1.650   0.867   3.093  0.2661  0.1665 -0.2240
 3674SOL    HW122655   1.716   0.935   3.104 -1.3717  1.8822 -1.1359
 3674SOL    HW222656   1.657   0.845   3.000 -0.8570  0.6196 -0.4099
 3675SOL     OW22657   3.378   2.853   7.406 -0.4381  0.1859  0.5135
 3675SOL    HW122658   3.449   2.795   7.380  0.9008  2.3629 -0.5671
 3675SOL    HW222659   3.302   2.795   7.397  0.6489 -0.9983 -0.8444
 3676SOL     OW22660   4.472   3.211   7.123 -0.1688 -0.5811 -0.5176
 3676SOL    HW122661   4.530   3.246   7.056  1.4862  1.2604  1.9012
 3676SOL    HW222662   4.389   3.249   7.095 -0.1694 -0.8270 -0.8445
 3677SOL     OW22663   3.324   4.707   4.263 -0.7607 -0.4148  0.3304
 3677SOL    HW122664   3.338   4.680   4.172  0.0389  1.5265 -0.1289
 3677SOL    HW222665   3.333   4.630   4.320  0.8514  0.7007  1.5659
 3678SOL     OW22666   0.364   2.202  16.340  0.9251 -0.2697  0.2533
 3678SOL    HW122667   0.336   2.244  16.259 -0.3586 -1.8801 -0.1279
 3678SOL    HW222668   0.299   2.230  16.404  1.1299 -0.8448  0.7062
 3679SOL     OW22669   3.070   2.278   9.203  0.6779  0.1403 -0.0412
 3679SOL    HW122670   3.083   2.274   9.298  0.8931  0.9031 -0.0359
 3679SOL    HW222671   3.124   2.202   9.179 -1.2907 -1.0564 -0.6880
 3680SOL     OW22672   1.431   1.989   4.284 -0.5086  0.8078 -0.7951
 3680SOL    HW122673   1.404   1.977   4.375 -0.7507  3.6141 -0.4812
 3680SOL    HW222674   1.415   2.082   4.267  0.3823  1.1769  0.3576
 3681SOL     OW22675   0.330   0.047   4.816 -0.4162  0.5918 -0.4662
 3681SOL    HW122676   0.341   0.142   4.807  1.6151  0.2732 -1.3659
 3681SOL    HW222677   0.235   0.040   4.805 -0.5624  0.4482  0.8733
 3682SOL     OW22678   0.008   4.010  15.886 -0.3102 -0.4466 -0.4198
 3682SOL    HW122679   0.103   4.023  15.886 -0.0441 -2.3622 -1.3616
 3682SOL    HW222680   4.738   3.969  15.972  0.9334 -0.0606 -0.0355
 3683SOL     OW22681   2.324   2.228   3.468  0.2351  0.0628  0.1128
 3683SOL    HW122682   2.305   2.319   3.490  2.4443  0.9429 -1.5666
 3683SOL    HW222683   2.314   2.183   3.552 -1.0876 -1.0395 -0.6258
 3684SOL     OW22684   0.463   3.147   4.439  0.5214  0.2194 -0.5231
 3684SOL    HW122685   0.535   3.165   4.499  0.3496 -1.8491  0.3161
 3684SOL    HW222686   0.458   3.233   4.398 -1.1938  1.1761  1.7009
 3685SOL     OW22687   1.087   3.840   4.900 -0.1717 -0.4166  0.4200
 3685SOL    HW122688   1.076   3.894   4.978  1.3941  0.2239  0.1937
 3685SOL    HW222689   1.173   3.802   4.919  0.6952  0.0966 -2.5584
 3686SOL     OW22690   2.624   0.904   6.145 -0.3067 -0.1286 -0.6716
 3686SOL    HW122691   2.674   0.868   6.071  0.6135  0.9407 -0.5680
 3686SOL    HW222692   2.559   0.953   6.093 -0.5083 -2.1024 -2.2847
 3687SOL     OW22693   4.535   0.414   7.543  0.1301 -0.5196 -0.3413
 3687SOL    HW122694   4.623   0.453   7.547  0.2374 -0.6571 -1.3489
 3687SOL    HW222695   4.568   0.328   7.570 -0.8824 -0.0485  2.4197
 3688SOL     OW22696   3.645   4.055   9.880  0.1723  0.4266  0.3210
 3688SOL    HW122697   3.584   4.107   9.932  1.6803  1.2636  1.2899
 3688SOL    HW222698   3.680   4.115   9.814  0.4864 -0.4148 -0.2733
 3689SOL     OW22699   2.329   2.250  16.628 -0.3878 -0.1103  0.3519
 3689SOL    HW122700   2.401   2.192  16.651  0.4518  0.7492 -0.1311
 3689SOL    HW222701   2.281   2.260  16.710 -1.9636  2.6433 -0.8977
 3690SOL     OW22702   1.551   1.160  15.426 -0.4195 -0.2548  0.1108
 3690SOL    HW122703   1.460   1.187  15.411  0.1396  0.3279 -2.2750
 3690SOL    HW222704   1.601   1.199  15.354  1.4277  1.8089  2.5267
 3691SOL     OW22705   1.450   3.342   0.906  0.2468  0.1347  0.2196
 3691SOL    HW122706   1.444   3.267   0.847 -2.3245 -0.7234  1.5924
 3691SOL    HW222707   1.539   3.372   0.883 -0.2599  0.7481 -0.9509
 3692SOL     OW22708   3.970   4.454   3.356 -0.0185  0.2358  0.4128
 3692SOL    HW122709   3.927   4.494   3.280 -0.9608 -2.1990 -0.3394
 3692SOL    HW222710   3.900   4.407   3.400  0.1658  0.4284  0.9127
 3693SOL     OW22711   1.762   1.628   5.595 -0.1852 -0.2878 -0.0183
 3693SOL    HW122712   1.809   1.712   5.600  0.9660 -1.1882  4.1527
 3693SOL    HW222713   1.827   1.582   5.541  0.1544 -1.8021  1.6994
 3694SOL     OW22714   1.177   2.126   9.552  0.1754 -0.4058  0.3377
 3694SOL    HW122715   1.176   2.214   9.515 -1.9977  0.0844  1.5706
 3694SOL    HW222716   1.259   2.126   9.602 -0.7293 -0.8954  1.8122
 3695SOL     OW22717   2.661   2.527   3.111 -0.0298  0.1184  0.3841
 3695SOL    HW122718   2.669   2.474   3.032  0.3197  0.3305  0.2750
 3695SOL    HW222719   2.699   2.475   3.181  0.9709 -1.5356 -1.3910
 3696SOL     OW22720   2.351   4.450  12.838  0.4589 -0.0901  0.6329
 3696SOL    HW122721   2.339   4.542  12.862  1.9416  0.9786 -2.6850
 3696SOL    HW222722   2.294   4.453  12.761 -0.0673  0.6754  1.0557
 3697SOL     OW22723   0.076   1.300   6.134 -0.2694  0.2676  0.0807
 3697SOL    HW122724   0.138   1.238   6.172 -0.5709 -0.2952 -0.3369
 3697SOL    HW222725   0.001   1.240   6.130  1.5112 -1.9971  1.2551
 3698SOL     OW22726   4.650   3.452   5.695  0.2272  0.3623 -0.1418
 3698SOL    HW122727   4.574   3.474   5.749 -1.8337 -3.2194 -1.5677
 3698SOL    HW222728   4.709   3.504   5.749  1.7457 -0.4087 -1.0653
 3699SOL     OW22729   0.714   3.344   8.606 -0.6030  0.2611 -0.0806
 3699SOL    HW122730   0.646   3.279   8.623  0.6332 -0.6670  1.3386
 3699SOL    HW222731   0.661   3.409   8.559 -0.9683  0.3139  0.4087
 3700SOL     OW22732   0.663   3.513  17.383 -0.0531 -0.0501  0.0389
 3700SOL    HW122733   0.711   3.589  17.417 -0.3286 -0.3611  1.1388
 3700SOL    HW222734   0.572   3.543  17.392 -0.4196 -0.4716 -2.2247
 3701SOL     OW22735   4.021   0.992   7.006 -0.2873  0.2553 -0.2792
 3701SOL    HW122736   3.969   0.964   7.082  0.5516 -0.7670 -0.0853
 3701SOL    HW222737   4.016   1.088   7.013 -1.6189  0.1435  0.3107
 3702SOL     OW22738   2.320   3.514   3.273 -0.4433 -0.3342  0.6995
 3702SOL    HW122739   2.317   3.460   3.195  2.8028 -0.3190  0.5287
 3702SOL    HW222740   2.413   3.505   3.298 -1.1715 -1.0722  3.1747
 3703SOL     OW22741   0.724   2.555   6.873  0.4354 -0.4877 -0.0458
 3703SOL    HW122742   0.633   2.536   6.895 -0.6723  4.9633 -0.1656
 3703SOL    HW222743   0.757   2.465   6.866 -1.0581 -1.0341  0.0700
 3704SOL     OW22744   2.165   1.267   0.452 -0.0139  0.1025 -0.6661
 3704SOL    HW122745   2.255   1.244   0.428  0.2104  0.6173 -0.3056
 3704SOL    HW222746   2.123   1.265   0.366 -0.6023  2.1616 -0.4262
 3705SOL     OW22747   2.728   2.291  12.007  0.0225 -0.3305  0.3542
 3705SOL    HW122748   2.643   2.255  11.981  1.3154 -1.8395 -1.7654
 3705SOL    HW222749   2.781   2.213  11.989  1.5015  0.3894  1.6220
 3706SOL     OW22750   1.095   2.572   1.089  0.8249  0.4625  0.2642
 3706SOL    HW122751   1.174   2.621   1.069  1.0540 -0.5579 -1.2838
 3706SOL    HW222752   1.032   2.634   1.126 -0.1942  0.7001 -1.8421
 3707SOL     OW22753   0.286   4.095   4.548 -0.5445 -0.1917 -0.6402
 3707SOL    HW122754   0.317   4.177   4.587 -0.2712 -0.3812 -0.4564
 3707SOL    HW222755   0.235   4.099   4.467 -1.0066 -1.3382 -0.3994
 3708SOL     OW22756   1.491   0.520   8.263 -0.0921  0.0986  0.4815
 3708SOL    HW122757   1.466   0.434   8.297 -2.1751  0.1616 -0.8928
 3708SOL    HW222758   1.548   0.491   8.192 -1.5279  0.5540 -0.8411
 3709SOL     OW22759   4.079   4.376   5.706 -0.6424 -0.1708 -0.1432
 3709SOL    HW122760   4.033   4.424   5.637 -0.5261 -0.0868 -0.1612
 3709SOL    HW222761   4.151   4.433   5.731 -0.1615 -1.1005  0.5882
 3710SOL     OW22762   1.244   2.610  15.396 -0.0743  0.6515 -0.0205
 3710SOL    HW122763   1.203   2.689  15.431 -2.4986 -0.9429  0.7462
 3710SOL    HW222764   1.330   2.641  15.367 -1.2022  3.0436 -0.8238
 3711SOL     OW22765   0.972   4.635  15.428  0.2688 -0.0750  0.1761
 3711SOL    HW122766   0.905   4.694  15.462  1.0571  2.3683 -2.5171
 3711SOL    HW222767   1.048   4.672  15.474  1.2611 -1.3952 -0.4019
 3712SOL     OW22768   2.438   1.165   5.195  0.0186  0.1412  0.1116
 3712SOL    HW122769   2.518   1.113   5.191 -0.2853 -0.3755  0.7797
 3712SOL    HW222770   2.408   1.152   5.105  1.3471  0.2804 -0.3515
 3713SOL     OW22771   0.254   0.547   0.727  0.8092  0.2090  0.3244
 3713SOL    HW122772   0.204   0.527   0.647 -0.5184  2.4095  0.5917
 3713SOL    HW222773   0.299   0.627   0.698  1.7092  0.8242  3.4264
 3714SOL     OW22774   3.497   4.211  10.094 -0.1138 -0.6448 -0.3190
 3714SOL    HW122775   3.426   4.188  10.154 -0.3901  0.7868 -0.0937
 3714SOL    HW222776   3.557   4.158  10.145  2.5530  1.7920 -0.9313
 3715SOL     OW22777   2.708   0.346  10.193  0.1585 -0.8133 -0.6536
 3715SOL    HW122778   2.614   0.334  10.183 -0.1133  0.5722  0.1203
 3715SOL    HW222779   2.747   0.283  10.133  0.2565 -2.0664  0.7196
 3716SOL     OW22780   4.435   3.177   7.889 -0.5499  0.0389  0.4386
 3716SOL    HW122781   4.491   3.214   7.957  2.7413 -2.4517 -0.9484
 3716SOL    HW222782   4.344   3.197   7.913 -0.7546  1.3415 -1.4492
 3717SOL     OW22783   0.588   4.499   5.697 -0.3031  0.5448 -0.0620
 3717SOL    HW122784   0.568   4.508   5.604 -0.1465  1.1876 -0.0376
 3717SOL    HW222785   0.562   4.408   5.710  0.7875  0.4340  1.2858
 3718SOL     OW22786   2.839   1.032   8.415  0.2856  0.0364  0.1006
 3718SOL    HW122787   2.769   1.004   8.355 -0.8081 -1.3506  2.0457
 3718SOL    HW222788   2.782   1.028   8.492  0.3387 -0.5107  0.1104
 3719SOL     OW22789   2.983   4.209   6.255 -0.5452  0.3115  0.1922
 3719SOL    HW122790   3.060   4.164   6.221 -0.4291 -0.2434  1.1933
 3719SOL    HW222791   2.990   4.206   6.351  4.3887  2.2130 -0.1023
 3720SOL     OW22792   0.722   1.345   3.398 -0.0706 -0.0230  0.4355
 3720SOL    HW122793   0.781   1.420   3.390 -0.3148  0.1190 -0.0482
 3720SOL    HW222794   0.772   1.272   3.361 -1.7896 -0.6047 -0.7624
 3721SOL     OW22795   3.821   0.156  13.727  0.3737 -0.2502  0.3931
 3721SOL    HW122796   3.791   0.067  13.746  0.5539 -0.1289  1.2495
 3721SOL    HW222797   3.852   0.171  13.816  0.0894 -2.1817  0.8054
 3722SOL     OW22798   0.142   0.296   2.930 -0.0085  0.0881  0.0696
 3722SOL    HW122799   0.118   0.204   2.916 -1.8490  0.7755 -1.3701
 3722SOL    HW222800   0.195   0.304   2.850  0.4653  2.0830  0.5878
 3723SOL     OW22801   0.625   0.613   6.289 -0.0911 -0.5991 -0.3017
 3723SOL    HW122802   0.616   0.520   6.266  0.6197 -0.0845 -2.6211
 3723SOL    HW222803   0.697   0.607   6.352  0.7380  0.0298 -1.2021
 3724SOL     OW22804   3.622   4.741   9.061  0.2444  0.6183  0.0119
 3724SOL    HW122805   3.543   4.691   9.081  1.4233 -1.3253 -0.1741
 3724SOL    HW222806   3.609   0.073   9.118  0.5540  0.4304  0.3348
 3725SOL     OW22807   2.344   0.311   2.901  0.5675  0.2956 -0.0945
 3725SOL    HW122808   2.294   0.298   2.981 -1.5892 -2.4364 -1.8851
 3725SOL    HW222809   2.282   0.272   2.839 -0.1832  0.6921  0.4040
 3726SOL     OW22810   3.876   1.178  17.551 -0.1353 -0.3397 -0.2448
 3726SOL    HW122811   3.843   1.232  17.623 -2.4650 -1.4619 -0.4548
 3726SOL    HW222812   3.861   1.087  17.577 -1.0929 -0.5981 -1.7431
 3727SOL     OW22813   1.040   1.198   3.544 -0.7441 -0.2583 -0.0188
 3727SOL    HW122814   1.044   1.266   3.611 -1.4727  0.3801 -0.6261
 3727SOL    HW222815   0.997   1.243   3.471 -2.5863 -0.0422  1.2013
 3728SOL     OW22816   3.128   0.783   3.857 -0.0838 -0.4776  0.0184
 3728SOL    HW122817   3.202   0.727   3.832 -0.6275 -0.6600 -1.1742
 3728SOL    HW222818   3.067   0.715   3.886 -0.6501 -0.4945 -1.1926
 3729SOL     OW22819   0.556   4.248  16.819  0.5366 -0.4147  0.8370
 3729SOL    HW122820   0.561   4.342  16.833 -0.9834 -0.4674  1.7292
 3729SOL    HW222821   0.461   4.237  16.817  0.4658  0.1019  1.4840
 3730SOL     OW22822   3.261   0.257   8.608 -0.4655 -0.2448  0.2861
 3730SOL    HW122823   3.193   0.239   8.673 -0.5879  2.7523  0.9895
 3730SOL    HW222824   3.243   0.348   8.584  3.1963  0.4938  0.2706
 3731SOL     OW22825   4.613   2.196  12.724  0.4133  0.6752 -0.8461
 3731SOL    HW122826   4.565   2.116  12.747  1.4531  0.1176 -0.6422
 3731SOL    HW222827   4.679   2.159  12.666 -0.7144  1.3387 -2.5482
 3732SOL     OW22828   3.480   0.981  17.650  0.2187 -0.4704  0.6686
 3732SOL    HW122829   3.536   1.049  17.686  1.5922  0.1517 -2.6388
 3732SOL    HW222830   3.525   0.908  17.694 -0.2095 -0.0533  1.7932
 3733SOL     OW22831   2.178   3.852   6.256 -0.2805  0.1485  0.2065
 3733SOL    HW122832   2.260   3.850   6.207 -1.6665  0.5734 -2.1777
 3733SOL    HW222833   2.162   3.757   6.260 -1.7707  0.4714  1.8275
 3734SOL     OW22834   0.030   3.578   7.655 -0.7989  0.2193  0.3689
 3734SOL    HW122835   0.098   3.532   7.606  0.4295  0.5657  1.7643
 3734SOL    HW222836   0.086   3.633   7.709 -1.0698 -0.0929  0.9611
 3735SOL     OW22837   0.858   0.006   4.345  0.2310 -0.1391  0.1105
 3735SOL    HW122838   0.925   0.073   4.355  2.2993 -2.0722 -0.9449
 3735SOL    HW222839   0.785   0.042   4.396 -0.2955 -0.5865 -0.3206
 3736SOL     OW22840   1.433   1.705   3.554  0.2804 -0.0857  0.1432
 3736SOL    HW122841   1.441   1.621   3.599  1.8045 -0.9083 -1.6768
 3736SOL    HW222842   1.450   1.769   3.623  1.4256  0.3875 -0.5760
 3737SOL     OW22843   3.349   0.712   5.108  0.1180  0.3580 -0.0217
 3737SOL    HW122844   3.279   0.770   5.075  0.1068 -1.0605 -2.5139
 3737SOL    HW222845   3.370   0.749   5.194 -0.2111  1.1783 -0.2907
 3738SOL     OW22846   0.426   1.052   4.431  0.1209 -0.2701 -0.2248
 3738SOL    HW122847   0.500   0.992   4.440 -0.8497 -1.5026 -0.6334
 3738SOL    HW222848   0.458   1.136   4.466 -0.1098 -1.0090  1.7953
 3739SOL     OW22849   0.851   3.920   6.814  0.0534  0.7498  0.3512
 3739SOL    HW122850   0.795   3.876   6.879 -0.9216 -0.9198 -1.5965
 3739SOL    HW222851   0.800   3.902   6.734  1.2035 -2.2107  0.2686
 3740SOL     OW22852   0.397   3.101   6.980  0.2041 -0.2351  0.3048
 3740SOL    HW122853   0.347   3.028   7.017  0.1867  1.6263  3.9610
 3740SOL    HW222854   0.411   3.064   6.893  2.4368 -1.4208  1.1753
 3741SOL     OW22855   3.089   3.502   1.716  0.1492 -0.5730  0.0844
 3741SOL    HW122856   3.176   3.505   1.674 -0.0804  0.0099 -0.3481
 3741SOL    HW222857   3.050   3.430   1.667  1.5789 -0.9693 -0.5008
 3742SOL     OW22858   0.270   2.192   5.250 -0.1635  0.3616 -0.3769
 3742SOL    HW122859   0.209   2.124   5.222  1.4662 -2.4132  2.7495
 3742SOL    HW222860   0.327   2.139   5.307 -1.1483 -2.3944 -1.9907
 3743SOL     OW22861   1.933   0.599   2.742  0.8439 -0.4870  0.2915
 3743SOL    HW122862   1.957   0.689   2.721  2.2110 -1.3851 -2.0699
 3743SOL    HW222863   1.925   0.604   2.837 -0.6881 -0.1072  0.1406
 3744SOL     OW22864   4.654   1.897   8.870 -0.0995  0.3468  0.3433
 3744SOL    HW122865   4.623   1.962   8.807 -1.1573 -0.4483  0.0512
 3744SOL    HW222866   4.732   1.939   8.907 -0.2713  0.0351  1.0533
 3745SOL     OW22867   3.406   1.415   2.595 -0.6874 -0.1491 -0.3217
 3745SOL    HW122868   3.339   1.481   2.578  1.4678  1.7784 -1.3178
 3745SOL    HW222869   3.487   1.465   2.590 -0.7374  0.2525  2.5947
 3746SOL     OW22870   4.331   1.692  10.687 -0.4627  0.0975 -0.1951
 3746SOL    HW122871   4.407   1.639  10.713  0.3232  1.1379 -0.4165
 3746SOL    HW222872   4.329   1.685  10.592 -0.6476 -1.5660 -0.0741
 3747SOL     OW22873   2.833   4.316  12.684 -0.3314 -0.1322  0.2723
 3747SOL    HW122874   2.824   4.411  12.697  1.3331 -0.3924  3.1469
 3747SOL    HW222875   2.762   4.281  12.738  1.0382 -1.2570  1.3323
 3748SOL     OW22876   4.726   4.661   2.725 -0.7678  0.9460 -0.2014
 3748SOL    HW122877   0.058   4.604   2.710 -1.5046 -0.6471  2.2361
 3748SOL    HW222878   4.718   4.706   2.641 -2.2280 -3.6119 -2.5007
 3749SOL     OW22879   1.868   3.977   4.940 -0.2782  0.3272 -0.2939
 3749SOL    HW122880   1.845   4.039   5.010  2.2822  1.3560 -0.3607
 3749SOL    HW222881   1.812   4.011   4.871 -1.1120 -0.5186 -0.0448
 3750SOL     OW22882   4.368   3.701  16.450  0.5839  0.2030 -0.2221
 3750SOL    HW122883   4.425   3.654  16.388  0.8006  0.7246 -0.4242
 3750SOL    HW222884   4.314   3.751  16.389  1.7413  2.0803  0.2890
 3751SOL     OW22885   4.668   3.987   7.477 -0.8687  0.2037  0.3821
 3751SOL    HW122886   0.018   3.984   7.495 -0.2469  1.2444 -2.8387
 3751SOL    HW222887   4.639   3.952   7.561  0.3993 -0.5838  0.4868
 3752SOL     OW22888   0.233   3.842   1.911  0.1599 -0.4815  0.0448
 3752SOL    HW122889   0.153   3.875   1.953 -1.5193 -1.2405 -2.4868
 3752SOL    HW222890   0.200   3.758   1.879 -0.4464  0.7928 -2.6662
 3753SOL     OW22891   4.309   1.211  17.070  0.4219 -0.2665  0.0678
 3753SOL    HW122892   4.296   1.293  17.118  2.7330  1.1015 -1.6173
 3753SOL    HW222893   4.361   1.156  17.129 -0.4823  0.9812  2.0444
 3754SOL     OW22894   0.715   0.787   6.828 -0.0609  0.3828 -0.0802
 3754SOL    HW122895   0.710   0.832   6.744 -1.4352  2.6695  1.2238
 3754SOL    HW222896   0.696   0.696   6.803 -0.1861 -0.1010  1.7298
 3755SOL     OW22897   4.507   0.301  10.515  0.5971  0.3237  0.6741
 3755SOL    HW122898   4.524   0.391  10.543 -2.1366  0.7053  1.1425
 3755SOL    HW222899   4.449   0.278  10.588 -0.4029 -2.0235 -0.8646
 3756SOL     OW22900   4.743   3.951   2.046 -0.3678 -0.4915  0.0356
 3756SOL    HW122901   4.691   3.993   1.976 -0.4088  1.1219  1.0375
 3756SOL    HW222902   0.040   4.030   2.080 -1.5148  0.6252 -1.1636
 3757SOL     OW22903   2.477   4.194   2.495  0.3982  0.4628  0.0660
 3757SOL    HW122904   2.493   4.247   2.574 -1.6276 -0.9504  1.4276
 3757SOL    HW222905   2.546   4.226   2.437  2.5162 -0.8217  1.8593
 3758SOL     OW22906   4.175   0.290   8.624  0.2341  0.2494 -0.0575
 3758SOL    HW122907   4.119   0.286   8.702  1.9461  1.5207  1.2343
 3758SOL    HW222908   4.253   0.336   8.655  2.7730 -3.1404 -1.4602
 3759SOL     OW22909   2.539   0.922   7.445 -0.9928 -0.1678 -0.3400
 3759SOL    HW122910   2.492   1.002   7.421  0.2418  0.1304 -1.8095
 3759SOL    HW222911   2.535   0.869   7.365 -0.0054 -0.2730 -0.3256
 3760SOL     OW22912   1.941   2.218   5.697  0.0266 -0.8003 -0.2662
 3760SOL    HW122913   2.026   2.215   5.740 -1.2220  0.9948  2.3142
 3760SOL    HW222914   1.875   2.176   5.751  0.2905 -0.2752  0.4631
 3761SOL     OW22915   4.066   3.341   9.448 -0.8231  0.2579  0.3623
 3761SOL    HW122916   4.029   3.312   9.531  0.1096  0.4237  0.8349
 3761SOL    HW222917   4.096   3.258   9.411 -1.0830  1.0038 -1.5076
 3762SOL     OW22918   1.945   2.750   7.495  0.2063 -0.1223  0.3617
 3762SOL    HW122919   1.981   2.689   7.559  0.1311  0.6783  1.1831
 3762SOL    HW222920   1.992   2.735   7.413 -1.5421 -1.6603 -0.3577
 3763SOL     OW22921   3.906   2.910   4.789  0.3027 -0.0160 -0.0800
 3763SOL    HW122922   3.848   2.985   4.779  1.6714  1.0763  0.1593
 3763SOL    HW222923   3.836   2.851   4.815  0.0553  1.2282  2.1517
 3764SOL     OW22924   1.730   3.738   5.086 -0.2442  0.1385  0.6818
 3764SOL    HW122925   1.770   3.717   5.170  0.9757  0.4682  0.1826
 3764SOL    HW222926   1.764   3.824   5.062  2.4203 -0.4137  2.4555
 3765SOL     OW22927   0.041   3.678  11.706  0.0844  0.2667  0.1980
 3765SOL    HW122928   4.732   3.618  11.759 -1.7787 -0.3791 -2.3947
 3765SOL    HW222929   0.115   3.622  11.682 -0.6256 -0.2823 -0.7368
 3766SOL     OW22930   2.863   0.050   9.624 -1.0223 -0.4877  0.1168
 3766SOL    HW122931   2.908   0.058   9.708 -1.4264 -0.7210  0.3545
 3766SOL    HW222932   2.792   0.112   9.640 -0.6657  0.5020 -2.0581
 3767SOL     OW22933   4.001   2.236   9.154 -0.2766 -0.1806  0.1977
 3767SOL    HW122934   4.014   2.318   9.202 -0.0781  1.0862 -2.0226
 3767SOL    HW222935   3.938   2.268   9.089  0.6462  1.6361  0.1757
 3768SOL     OW22936   4.673   0.827   8.068 -0.0823  0.4920 -0.8836
 3768SOL    HW122937   4.695   0.740   8.033 -0.3364  0.5883 -1.2863
 3768SOL    HW222938   4.623   0.815   8.148  0.4487  0.7845 -0.5130
 3769SOL     OW22939   1.195   0.036   3.148 -0.4112 -0.3992  0.2864
 3769SOL    HW122940   1.208   0.084   3.066 -0.9842 -1.8261 -0.6584
 3769SOL    HW222941   1.134   0.097   3.188 -1.0805 -0.1801 -1.0937
 3770SOL     OW22942   1.474   0.292   2.166  0.0848  0.9633 -0.0305
 3770SOL    HW122943   1.418   0.330   2.098  0.9266 -1.6533 -2.1994
 3770SOL    HW222944   1.560   0.328   2.143  0.7867 -0.6252  0.1349
 3771SOL     OW22945   2.990   0.872   0.670  0.3266 -0.4539 -0.1093
 3771SOL    HW122946   2.956   0.784   0.681 -0.2047 -0.2947 -0.4808
 3771SOL    HW222947   3.083   0.851   0.663  0.5310  1.5515 -3.1831
 3772SOL     OW22948   2.913   1.095   4.087 -0.4735  0.3457  0.0030
 3772SOL    HW122949   2.825   1.069   4.060  0.4541 -1.4861 -1.2513
 3772SOL    HW222950   2.946   1.112   3.999  1.1297 -0.0288  0.5329
 3773SOL     OW22951   1.203   2.450   9.104  0.3279 -0.1706  0.0286
 3773SOL    HW122952   1.134   2.411   9.050  0.9778  0.4715 -1.2621
 3773SOL    HW222953   1.267   2.473   9.037  1.3386 -2.3024  0.2448
 3774SOL     OW22954   4.160   4.186  11.720 -0.0321 -0.4660  0.1058
 3774SOL    HW122955   4.130   4.145  11.801 -1.3393 -1.0332 -0.6669
 3774SOL    HW222956   4.227   4.247  11.752  0.0166  0.1303 -1.1118
 3775SOL     OW22957   2.145   1.886   9.844 -0.6618 -0.1134 -0.0939
 3775SOL    HW122958   2.158   1.972   9.805  3.7135 -0.6854  0.0547
 3775SOL    HW222959   2.175   1.907   9.933  0.0523  1.7467 -0.7887
 3776SOL     OW22960   2.293   0.933  17.471  0.0378 -0.4994  0.3179
 3776SOL    HW122961   2.386   0.919  17.486  0.2867  1.0609  0.2585
 3776SOL    HW222962   2.300   0.997  17.400  1.0159 -0.4305  0.4790
 3777SOL     OW22963   1.611   4.509   7.376 -0.4826  0.2251  0.5262
 3777SOL    HW122964   1.622   4.424   7.335 -0.7970  0.5308 -0.1931
 3777SOL    HW222965   1.537   4.544   7.326 -1.8685  0.1705  2.5140
 3778SOL     OW22966   2.717   4.234   3.310  0.4382 -0.5926  0.2425
 3778SOL    HW122967   2.751   4.284   3.384 -0.9950  0.2761  0.3182
 3778SOL    HW222968   2.644   4.187   3.352 -1.9458 -0.5123 -3.8245
 3779SOL     OW22969   3.602   4.523   4.764 -0.2300 -0.0291  0.3532
 3779SOL    HW122970   3.532   4.580   4.732 -2.2131 -2.7356 -0.1680
 3779SOL    HW222971   3.673   4.546   4.704 -0.0682 -2.3642 -0.3612
 3780SOL     OW22972   0.499   4.434   6.363 -0.2250 -0.2925  0.4451
 3780SOL    HW122973   0.542   4.519   6.375  0.7823 -0.7578  0.1068
 3780SOL    HW222974   0.407   4.457   6.369 -0.4750 -1.2974  0.3978
 3781SOL     OW22975   1.046   4.002   7.802 -0.3233 -0.1663 -0.3563
 3781SOL    HW122976   1.138   4.027   7.807 -0.2051 -0.6393 -0.1276
 3781SOL    HW222977   1.019   4.047   7.881  1.1116 -2.0091  1.2021
 3782SOL     OW22978   0.509   1.232   2.134  0.2033  0.0505 -0.1003
 3782SOL    HW122979   0.493   1.142   2.161  0.0338 -0.0799 -0.6378
 3782SOL    HW222980   0.439   1.284   2.174  1.2523  3.0337 -2.0981
 3783SOL     OW22981   2.479   4.067   9.868 -0.1336  0.4628 -0.2996
 3783SOL    HW122982   2.436   3.982   9.874  2.1953 -0.7817 -1.1268
 3783SOL    HW222983   2.512   4.075   9.779 -1.2222 -1.4805 -0.8694
 3784SOL     OW22984   0.061   2.053   4.579  0.3070  0.1430 -0.2205
 3784SOL    HW122985   0.101   2.009   4.505  2.1340 -1.1290  1.5539
 3784SOL    HW222986   4.718   2.012   4.574  0.5429 -0.1745 -1.5903
 3785SOL     OW22987   1.268   1.588   3.273  0.2710  0.2712  0.3438
 3785SOL    HW122988   1.234   1.675   3.254  0.9444  0.7619  1.3994
 3785SOL    HW222989   1.244   1.577   3.365 -0.4317  1.1056  0.2588
 3786SOL     OW22990   3.513   0.546   7.371 -0.1273 -0.3276 -0.5089
 3786SOL    HW122991   3.452   0.620   7.368 -2.3918 -2.0523  3.4579
 3786SOL    HW222992   3.465   0.499   7.440  0.3861  0.0718  0.1278
 3787SOL     OW22993   2.383   2.804   1.357 -0.5498  0.2093  0.0202
 3787SOL    HW122994   2.456   2.864   1.342 -0.6277  0.1174 -0.7582
 3787SOL    HW222995   2.429   2.720   1.364 -1.6492 -0.4171 -0.2693
 3788SOL     OW22996   1.307   1.876  15.218  0.7761 -0.3265 -0.0837
 3788SOL    HW122997   1.252   1.954  15.207  1.2880 -0.1414 -1.3575
 3788SOL    HW222998   1.330   1.863  15.126 -0.9824 -3.4360 -0.0773
 3789SOL     OW22999   0.527   0.208   0.649 -0.0026 -0.0954 -0.3930
 3789SOL    HW123000   0.605   0.163   0.618 -0.5177 -1.0297 -0.3207
 3789SOL    HW223001   0.554   0.262   0.723 -0.6011  0.6512 -0.7111
 3790SOL     OW23002   4.097   2.325   6.270  0.1960 -0.1855  0.6243
 3790SOL    HW123003   4.156   2.259   6.306 -1.2821 -0.4023  2.6898
 3790SOL    HW223004   4.133   2.327   6.182 -0.7538  1.1264  0.2608
 3791SOL     OW23005   2.876   0.163   2.274 -0.5593 -0.6111  0.1489
 3791SOL    HW123006   2.880   0.254   2.244 -0.2914 -1.1496 -1.4236
 3791SOL    HW223007   2.788   0.164   2.312 -0.8057  1.2200 -0.4290
 3792SOL     OW23008   3.712   0.519  17.550 -0.3060 -0.0016  0.4602
 3792SOL    HW123009   3.652   0.551  17.617 -0.7889  2.0199 -0.9783
 3792SOL    HW223010   3.659   0.537  17.473  0.1269 -0.0549  0.1491
 3793SOL     OW23011   0.431   1.406   7.424  0.5713 -0.0671  0.0304
 3793SOL    HW123012   0.519   1.369   7.411  1.3709  1.7705  0.2607
 3793SOL    HW223013   0.459   1.497   7.414 -0.6836  0.2905 -0.0974
 3794SOL     OW23014   0.598   2.135   4.461  0.0958  0.1397  0.1600
 3794SOL    HW123015   0.507   2.166   4.459  0.4969  1.2748 -0.2256
 3794SOL    HW223016   0.634   2.217   4.495 -0.1977  1.6547 -3.2299
 3795SOL     OW23017   3.136   0.250   6.421  0.2856  0.0279 -0.4440
 3795SOL    HW123018   3.100   0.198   6.493 -0.6076  0.1677 -0.7855
 3795SOL    HW223019   3.103   0.337   6.444  2.0801 -0.3405  3.5485
 3796SOL     OW23020   0.995   3.511   2.938  0.8318  0.5369 -0.3582
 3796SOL    HW123021   0.912   3.465   2.929  0.5529  1.2188 -1.2594
 3796SOL    HW223022   1.018   3.499   3.030  0.3783 -0.2646 -0.3487
 3797SOL     OW23023   4.121   0.512  12.428 -0.0015  1.2349 -0.5482
 3797SOL    HW123024   4.082   0.533  12.344  0.1065  3.2994 -0.0879
 3797SOL    HW223025   4.214   0.501  12.408  0.0942 -1.0756  1.1241
 3798SOL     OW23026   4.479   0.912   1.305 -0.1708 -0.0075 -0.5678
 3798SOL    HW123027   4.392   0.874   1.318 -0.8324  1.3862 -0.8928
 3798SOL    HW223028   4.497   0.896   1.213 -1.9894  1.4005 -1.1707
 3799SOL     OW23029   3.209   2.611  16.634 -1.3987  0.5862 -0.3196
 3799SOL    HW123030   3.224   2.704  16.618 -0.6768  0.6379  0.6353
 3799SOL    HW223031   3.272   2.597  16.705  0.7871 -1.3375 -2.6485
 3800SOL     OW23032   0.247   0.455   3.277 -0.1046  0.1372  0.0500
 3800SOL    HW123033   0.155   0.426   3.277 -0.3468  0.8586 -1.9994
 3800SOL    HW223034   0.243   0.532   3.219  2.5123  1.5040  1.7202
 3801SOL     OW23035   4.078   0.696   6.313  0.3600  0.4864 -0.4598
 3801SOL    HW123036   4.108   0.739   6.234  0.9495  0.8913 -0.0133
 3801SOL    HW223037   4.065   0.773   6.368 -1.0487  1.0309 -1.5729
 3802SOL     OW23038   4.013   3.648  12.276  0.5240 -0.3088 -0.1974
 3802SOL    HW123039   4.009   3.573  12.334  1.2413  0.4887  0.8901
 3802SOL    HW223040   3.934   3.693  12.307  1.3827  0.9739  0.1288
 3803SOL     OW23041   2.090   3.181   3.981 -0.1483 -0.1901  0.0657
 3803SOL    HW123042   2.112   3.092   4.010  0.0971 -1.0127 -2.6412
 3803SOL    HW223043   2.155   3.210   3.918 -1.2070  1.0101 -0.4638
 3804SOL     OW23044   2.121   3.975  10.543  0.4463 -0.2285 -0.0861
 3804SOL    HW123045   2.156   4.064  10.547 -0.5846  0.2567 -1.8950
 3804SOL    HW223046   2.034   3.997  10.577  0.1406  1.8899 -2.2040
 3805SOL     OW23047   3.032   2.049   7.769  0.3442 -0.3082 -0.3606
 3805SOL    HW123048   2.989   2.029   7.686  1.2575 -0.5593 -0.7670
 3805SOL    HW223049   3.045   2.142   7.748  2.0294 -0.5566 -0.4154
 3806SOL     OW23050   1.852   0.611   3.007  0.0331 -0.0490 -0.0883
 3806SOL    HW123051   1.930   0.658   3.037  0.2309 -1.0300  0.9059
 3806SOL    HW223052   1.862   0.539   3.069 -0.5887  1.0590  1.2743
 3807SOL     OW23053   2.737   3.305   2.037  0.0425 -0.1449  0.5216
 3807SOL    HW123054   2.748   3.367   2.108  0.1835  1.1570 -0.6457
 3807SOL    HW223055   2.809   3.242   2.048 -1.6193 -2.3514 -1.0645
 3808SOL     OW23056   1.659   4.561   5.112 -0.2598  0.0174 -0.1238
 3808SOL    HW123057   1.584   4.502   5.122 -0.5282  0.2013 -1.0760
 3808SOL    HW223058   1.686   4.564   5.204 -0.0078  0.4941 -0.2171
 3809SOL     OW23059   1.232   0.003   8.221 -0.5747  0.0742  0.1358
 3809SOL    HW123060   1.304   4.726   8.281  0.9352 -2.7830 -2.7267
 3809SOL    HW223061   1.262   0.092   8.202  1.5939 -0.9007 -0.9739
 3810SOL     OW23062   2.104   0.988   6.592 -0.3247 -0.3305  0.0506
 3810SOL    HW123063   2.182   0.953   6.549 -0.7954  0.9245 -1.8094
 3810SOL    HW223064   2.125   0.958   6.680  0.1028  1.6015  0.6125
 3811SOL     OW23065   0.563   3.315   0.864  0.1557  0.0265  0.1449
 3811SOL    HW123066   0.484   3.322   0.917 -1.1517 -1.0011 -1.6707
 3811SOL    HW223067   0.524   3.350   0.784  0.7797 -2.1853 -1.1357
 3812SOL     OW23068   3.487   4.422  11.394 -0.7412 -0.1836 -0.5393
 3812SOL    HW123069   3.518   4.343  11.350 -0.5774  1.6788 -3.8102
 3812SOL    HW223070   3.559   4.441  11.453 -1.1508  1.0915 -0.4442
 3813SOL     OW23071   2.011   0.904   9.176  0.1025 -0.3989  0.6765
 3813SOL    HW123072   1.933   0.867   9.219 -1.0907  0.7322 -0.5397
 3813SOL    HW223073   2.053   0.956   9.245 -0.6361  1.4088 -0.2469
 3814SOL     OW23074   1.744   0.203   5.129 -0.7648  0.1296 -0.5486
 3814SOL    HW123075   1.793   0.285   5.130 -2.5167  1.1612  1.6077
 3814SOL    HW223076   1.752   0.178   5.221 -1.2928  0.1909 -0.4869
 3815SOL     OW23077   4.621   1.913   3.123  0.3611  0.2516 -0.6456
 3815SOL    HW123078   4.589   1.983   3.179 -0.6766  0.7117 -1.8157
 3815SOL    HW223079   4.714   1.935   3.121  0.3272  0.3872 -0.7338
 3816SOL     OW23080   1.962   1.507  17.167  0.9231 -0.5137  0.2067
 3816SOL    HW123081   1.998   1.423  17.195 -1.4645 -0.7463  2.5831
 3816SOL    HW223082   2.032   1.570  17.187 -0.7758  1.2554  0.6417
 3817SOL     OW23083   1.570   0.250   3.201 -0.3032 -0.3354  0.5355
 3817SOL    HW123084   1.592   0.215   3.287  0.8429 -1.9448 -0.4184
 3817SOL    HW223085   1.626   0.194   3.148 -0.2350 -1.0186  1.3339
 3818SOL     OW23086   3.065   4.473  11.109  0.1938 -0.0186 -0.1365
 3818SOL    HW123087   3.095   4.431  11.028  0.1253 -3.0570  1.4042
 3818SOL    HW223088   3.149   4.471  11.154  0.5643 -1.3989 -0.8737
 3819SOL     OW23089   1.711   1.246   4.945  0.2878 -0.3614  0.1212
 3819SOL    HW123090   1.699   1.333   4.907  0.2724 -0.5616 -0.3316
 3819SOL    HW223091   1.727   1.184   4.874  0.8413 -1.1170  0.8933
 3820SOL     OW23092   3.959   0.852   9.371  0.4791  0.5614  0.0416
 3820SOL    HW123093   3.923   0.770   9.404  2.3376 -0.0448  0.5821
 3820SOL    HW223094   3.956   0.907   9.449 -1.4925  0.9688 -0.3342
 3821SOL     OW23095   1.326   0.091   6.556 -0.8459 -0.2410 -0.0747
 3821SOL    HW123096   1.283   0.006   6.544 -1.3468 -0.0163  0.1284
 3821SOL    HW223097   1.389   0.067   6.624  0.6752  1.6852 -0.7996
 3822SOL     OW23098   2.369   4.440   6.498 -0.3327  0.0202 -0.3605
 3822SOL    HW123099   2.442   4.379   6.483  0.5744  0.3661  2.6241
 3822SOL    HW223100   2.392   4.501   6.428 -2.8549  1.4498  0.0402
 3823SOL     OW23101   3.521   3.287   4.487  0.4699  0.6032 -0.1629
 3823SOL    HW123102   3.608   3.292   4.526  1.6278 -1.8743 -2.4283
 3823SOL    HW223103   3.535   3.231   4.410 -0.4101  0.7136 -0.4055
 3824SOL     OW23104   3.125   2.535   8.424 -0.6570  0.6331  0.4787
 3824SOL    HW123105   3.095   2.620   8.392  1.6492  0.9798 -0.7158
 3824SOL    HW223106   3.046   2.482   8.410  0.2744 -1.2435  2.4070
 3825SOL     OW23107   2.376   1.067  15.135  0.0534  0.5298  0.5669
 3825SOL    HW123108   2.435   1.129  15.092  2.3612 -1.1303  1.3550
 3825SOL    HW223109   2.342   1.122  15.206 -1.5180 -1.1074  1.0673
 3826SOL     OW23110   1.353   1.122   8.786 -0.3116  0.3137  0.0273
 3826SOL    HW123111   1.434   1.073   8.793 -0.0992  0.4995 -1.2423
 3826SOL    HW223112   1.356   1.160   8.698  0.5833 -0.8642 -0.4477
 3827SOL     OW23113   3.873   3.541  11.094  0.1272 -0.0608  0.2713
 3827SOL    HW123114   3.951   3.597  11.095  0.1358 -0.0604 -1.2651
 3827SOL    HW223115   3.807   3.600  11.131  0.4356  0.5407 -0.1376
 3828SOL     OW23116   1.035   1.374   8.671  0.0988 -0.1400  0.5805
 3828SOL    HW123117   1.069   1.284   8.676 -0.0555 -0.3664 -2.1656
 3828SOL    HW223118   1.024   1.393   8.577  2.4669  0.2304  0.3760
 3829SOL     OW23119   0.623   0.154  14.459 -0.3518 -0.5597  0.3810
 3829SOL    HW123120   0.687   0.084  14.444 -1.2079 -0.8591 -1.9216
 3829SOL    HW223121   0.557   0.108  14.511 -0.7191  1.9375  2.1475
 3830SOL     OW23122   1.942   0.090   3.153  0.3715 -0.4809 -0.6427
 3830SOL    HW123123   1.936   0.133   3.239 -1.7684  2.3235 -2.1778
 3830SOL    HW223124   1.856   0.049   3.143 -1.1700  2.8613 -1.3354
 3831SOL     OW23125   0.684   4.441   8.565  0.3341 -0.0934  0.0671
 3831SOL    HW123126   0.746   4.504   8.600  1.0737  0.2649 -1.8856
 3831SOL    HW223127   0.748   4.372   8.546  0.9966  0.6590 -0.4192
 3832SOL     OW23128   4.369   0.831   4.659  0.3934 -0.2787  0.0046
 3832SOL    HW123129   4.323   0.904   4.700 -1.4798 -1.7639  0.5504
 3832SOL    HW223130   4.441   0.878   4.618 -0.0940 -0.3829 -0.9786
 3833SOL     OW23131   1.259   2.583  14.401  0.1087  0.2397  0.3548
 3833SOL    HW123132   1.319   2.539  14.341  0.5069  1.0030  0.1884
 3833SOL    HW223133   1.238   2.508  14.456  2.7137 -0.0928  0.9135
 3834SOL     OW23134   3.369   2.516   1.872  0.1641 -0.0870  0.7412
 3834SOL    HW123135   3.293   2.461   1.855 -0.7158  1.7820 -1.3308
 3834SOL    HW223136   3.435   2.450   1.852 -0.6173 -1.5360  2.9291
 3835SOL     OW23137   1.765   1.723   7.783 -0.5429 -0.9129 -0.1163
 3835SOL    HW123138   1.710   1.651   7.754 -4.8288  1.7152  1.5015
 3835SOL    HW223139   1.716   1.803   7.763  1.6240  0.5777  0.4268
 3836SOL     OW23140   2.934   3.870  11.068  0.5589  0.1651  0.2360
 3836SOL    HW123141   2.867   3.820  11.115 -0.6011 -0.0162 -1.6446
 3836SOL    HW223142   2.959   3.931  11.138 -0.2655  0.7484  0.0176
 3837SOL     OW23143   4.194   1.496   6.973  0.2023  0.2799 -0.0241
 3837SOL    HW123144   4.244   1.438   7.029 -1.3843 -0.9241  0.1432
 3837SOL    HW223145   4.254   1.517   6.901 -2.3226  1.1059 -1.8842
 3838SOL     OW23146   3.969   0.127   8.511 -0.6947 -0.6691  0.3643
 3838SOL    HW123147   4.053   0.163   8.540 -0.6361 -1.7233  1.5011
 3838SOL    HW223148   3.982   0.129   8.416 -3.4304 -0.3555 -0.0157
 3839SOL     OW23149   3.338   4.473   4.432  0.4303  0.4153 -0.6958
 3839SOL    HW123150   3.347   4.398   4.374 -2.4550 -1.8091  1.7667
 3839SOL    HW223151   3.244   4.473   4.450  0.2566  1.1722 -1.6190
 3840SOL     OW23152   1.214   0.916   4.317 -0.2827 -0.3885 -0.2580
 3840SOL    HW123153   1.214   0.974   4.240 -0.3882 -0.6324 -0.4437
 3840SOL    HW223154   1.310   0.914   4.320 -0.3379 -1.0019  0.8625
 3841SOL     OW23155   3.094   2.018   1.627 -0.6299  0.3642  0.5641
 3841SOL    HW123156   3.129   1.993   1.542  0.5689  2.5451  0.4092
 3841SOL    HW223157   3.170   2.049   1.675  0.0003 -0.1605 -0.1076
 3842SOL     OW23158   2.991   0.671   5.511  0.1657 -1.0922 -0.4582
 3842SOL    HW123159   2.966   0.684   5.603  2.4638  1.1202 -0.1615
 3842SOL    HW223160   3.017   0.579   5.520  1.9629 -0.4636  0.7645
 3843SOL     OW23161   1.208   1.110  12.048  0.1784  0.1403 -0.6607
 3843SOL    HW123162   1.298   1.139  12.038  0.3107  0.1432  0.6341
 3843SOL    HW223163   1.170   1.182  12.097 -1.3509  0.1253 -1.8023
 3844SOL     OW23164   4.551   4.093   6.702  0.6691  0.0381 -0.3912
 3844SOL    HW123165   4.597   4.135   6.629 -0.2353  1.3781 -0.1875
 3844SOL    HW223166   4.463   4.083   6.665 -0.1711  1.2598  1.2895
 3845SOL     OW23167   4.454   2.723  12.142 -0.3972 -0.0488  0.2101
 3845SOL    HW123168   4.460   2.638  12.098 -1.3730  0.7372 -1.4234
 3845SOL    HW223169   4.459   2.683  12.229 -0.1821  0.4620  0.4337
 3846SOL     OW23170   2.294   1.191  15.335 -0.1727  0.4502 -0.4463
 3846SOL    HW123171   2.324   1.141  15.411  0.7505  1.1355 -0.3484
 3846SOL    HW223172   2.202   1.189  15.360 -0.2291 -1.7663 -0.9206
 3847SOL     OW23173   4.084   3.214   4.909 -0.1442  0.7644 -0.0466
 3847SOL    HW123174   4.009   3.198   4.966  1.0616 -1.2614  0.9879
 3847SOL    HW223175   4.138   3.143   4.944 -2.7508 -1.2241 -0.0755
 3848SOL     OW23176   1.037   2.856   8.178  0.2865  0.1711  0.2863
 3848SOL    HW123177   1.028   2.776   8.229  1.0529 -0.4454 -0.5527
 3848SOL    HW223178   1.051   2.819   8.091 -0.8678 -1.3378  0.7477
 3849SOL     OW23179   0.632   3.774   1.932 -0.2998  0.8396 -0.3426
 3849SOL    HW123180   0.722   3.742   1.940  0.6141  3.3294 -0.7035
 3849SOL    HW223181   0.590   3.695   1.897 -0.3547 -0.1295  1.9541
 3850SOL     OW23182   1.543   0.880   9.544 -0.1221  0.2293 -0.3062
 3850SOL    HW123183   1.574   0.832   9.621  2.1417  3.1668  0.5860
 3850SOL    HW223184   1.589   0.961   9.562  2.6165 -1.3440 -0.2684
 3851SOL     OW23185   1.808   1.974  11.903  0.6021 -0.2316  0.7768
 3851SOL    HW123186   1.884   2.020  11.869  0.9771 -2.6625 -1.6046
 3851SOL    HW223187   1.742   2.018  11.849  0.5104 -1.0843  0.2042
 3852SOL     OW23188   3.717   0.990   8.351  0.5303 -0.2834 -0.6717
 3852SOL    HW123189   3.688   1.023   8.436  0.9630  1.9905 -1.4272
 3852SOL    HW223190   3.808   0.965   8.369  0.4579 -0.6758 -0.8493
 3853SOL     OW23191   3.992   1.789  12.674  0.3414 -0.0518  0.0034
 3853SOL    HW123192   3.974   1.796  12.580  0.0206 -0.6905  0.0175
 3853SOL    HW223193   4.071   1.737  12.664  0.4148  0.2999 -1.2319
 3854SOL     OW23194   0.187   0.065   3.704 -0.0217 -0.0175  0.1770
 3854SOL    HW123195   0.191   0.109   3.620  1.4606 -1.3345 -0.4345
 3854SOL    HW223196   0.092   0.073   3.714  0.2852 -0.3351  3.4964
 3855SOL     OW23197   1.954   1.357   3.243 -0.5576  0.1553  0.6772
 3855SOL    HW123198   2.011   1.334   3.317  1.1629 -0.8462 -0.9518
 3855SOL    HW223199   1.955   1.452   3.243  0.5154  0.1485 -0.3098
 3856SOL     OW23200   0.161   3.048   2.272 -0.3633 -0.4367  0.2336
 3856SOL    HW123201   0.130   2.984   2.336  1.0285 -1.2608  0.0819
 3856SOL    HW223202   0.089   3.110   2.281  0.5567  0.5507  0.8964
 3857SOL     OW23203   3.628   0.310   5.177  1.0031 -0.2729  0.5195
 3857SOL    HW123204   3.627   0.406   5.183  0.9538 -0.3229  1.3244
 3857SOL    HW223205   3.622   0.291   5.271  0.0254 -0.3831  0.4391
 3858SOL     OW23206   0.325   1.823   8.946  0.1337  0.0838 -0.0117
 3858SOL    HW123207   0.268   1.901   8.942 -1.2646 -0.9572 -0.2881
 3858SOL    HW223208   0.306   1.787   9.032  0.5161  2.2461  0.9882
 3859SOL     OW23209   4.025   2.147   7.106  0.3130 -0.4272  0.5829
 3859SOL    HW123210   4.111   2.114   7.080 -0.8002  0.2921 -3.9429
 3859SOL    HW223211   4.011   2.212   7.037 -0.3623 -1.1715  0.0317
 3860SOL     OW23212   0.826   3.870  12.837 -0.9110  0.2459  0.2006
 3860SOL    HW123213   0.757   3.868  12.770 -0.9095 -0.2082  0.2143
 3860SOL    HW223214   0.840   3.776  12.843  2.3038  0.7134 -0.0374
 3861SOL     OW23215   0.633   3.740   7.218 -0.3121  0.0723  0.3335
 3861SOL    HW123216   0.635   3.830   7.187  0.5691  0.5846  1.8454
 3861SOL    HW223217   0.614   3.693   7.137  0.3801 -0.5706  0.5416
 3862SOL     OW23218   3.036   2.265   5.855  0.0186 -0.2421  0.6413
 3862SOL    HW123219   2.984   2.271   5.935  0.1229  1.4715  0.5817
 3862SOL    HW223220   3.005   2.344   5.811 -1.0189 -1.0094  0.0022
 3863SOL     OW23221   3.171   0.797   2.768 -0.1945 -0.2437  0.6744
 3863SOL    HW123222   3.118   0.717   2.769 -0.7457  0.1307  2.7604
 3863SOL    HW223223   3.232   0.791   2.842 -0.7686 -0.7525  1.1160
 3864SOL     OW23224   2.304   2.539   2.832 -0.0658  0.0572  0.8711
 3864SOL    HW123225   2.400   2.541   2.833 -0.0858  0.3734  1.9166
 3864SOL    HW223226   2.293   2.597   2.757  1.7191 -0.6959  0.0123
 3865SOL     OW23227   1.533   0.304   2.785  0.1903  0.2783  0.1542
 3865SOL    HW123228   1.607   0.249   2.759 -1.8482 -1.9829 -0.7599
 3865SOL    HW223229   1.465   0.249   2.747  0.3508 -0.6034  1.1485
 3866SOL     OW23230   2.454   4.116   5.882 -0.2301 -0.5011  0.3343
 3866SOL    HW123231   2.380   4.121   5.822 -2.1328  0.7659  2.8156
 3866SOL    HW223232   2.447   4.198   5.930 -0.8320 -0.0549 -0.5352
 3867SOL     OW23233   4.619   0.381  11.872 -0.2451 -0.3579 -0.6755
 3867SOL    HW123234   4.633   0.476  11.866 -2.1090  0.1148  2.3498
 3867SOL    HW223235   4.669   0.350  11.948 -0.8850 -2.9798 -1.3482
 3868SOL     OW23236   1.398   2.108   5.656  0.5397 -0.4610  0.0460
 3868SOL    HW123237   1.450   2.127   5.734  1.2053 -1.2811 -0.2040
 3868SOL    HW223238   1.403   2.176   5.590 -2.2511 -0.7845 -0.5047
 3869SOL     OW23239   0.875   1.790   3.244  0.5497 -0.0816  0.4968
 3869SOL    HW123240   0.862   1.815   3.152 -0.5614  0.3947  0.7936
 3869SOL    HW223241   0.882   1.876   3.284 -0.0995  0.4547 -0.5432
 3870SOL     OW23242   2.560   2.644   6.268 -0.2665  0.0784 -0.3168
 3870SOL    HW123243   2.517   2.612   6.348 -0.6788  2.9515  0.6221
 3870SOL    HW223244   2.549   2.739   6.279 -0.8697  0.1100 -1.2165
 3871SOL     OW23245   2.733   1.967  15.258  0.1345  0.3433 -0.0767
 3871SOL    HW123246   2.676   1.890  15.260  0.4959  0.0824  0.1121
 3871SOL    HW223247   2.680   2.043  15.283  1.9264  2.1162 -1.7139
 3872SOL     OW23248   0.107   0.872   7.477  0.0351 -0.0646  0.7456
 3872SOL    HW123249   0.087   0.845   7.567 -2.1219  0.6869  0.4818
 3872SOL    HW223250   0.022   0.902   7.446 -0.0437 -1.1646 -0.1434
 3873SOL     OW23251   2.451   0.040   0.055 -0.1954 -0.3034 -0.2731
 3873SOL    HW123252   2.376   0.040   0.114  1.2254  0.5474  1.5079
 3873SOL    HW223253   2.453   4.697   0.014  0.7478 -0.3082 -0.2158
 3874SOL     OW23254   2.896   3.661   7.485 -0.7416 -0.3256 -0.3480
 3874SOL    HW123255   2.913   3.613   7.404 -2.5952  1.4683 -1.7760
 3874SOL    HW223256   2.801   3.669   7.488 -0.7690  0.3414 -3.0862
 3875SOL     OW23257   1.726   2.926   4.103  0.1672 -0.1237  0.0638
 3875SOL    HW123258   1.711   2.991   4.171 -3.1723 -0.1253 -0.6657
 3875SOL    HW223259   1.745   2.977   4.023 -1.0960 -0.4664 -0.4484
 3876SOL     OW23260   0.760   3.625   6.689  0.3413 -0.4216 -0.2323
 3876SOL    HW123261   0.848   3.601   6.659 -0.3860 -0.7059 -2.1649
 3876SOL    HW223262   0.705   3.548   6.694  0.1272 -0.3819 -1.7796
 3877SOL     OW23263   1.455   4.387   8.777 -0.0015 -0.0270  0.1560
 3877SOL    HW123264   1.414   4.303   8.756  1.1878 -0.0581 -2.0416
 3877SOL    HW223265   1.434   4.393   8.870 -1.6983 -0.3287 -0.2166
 3878SOL     OW23266   0.490   2.704   8.207 -0.2678 -0.3395 -0.6450
 3878SOL    HW123267   0.483   2.799   8.195 -0.6731 -0.0808  1.6893
 3878SOL    HW223268   0.563   2.700   8.268  0.5393  1.2283 -1.5145
 3879SOL     OW23269   3.071   0.205   5.454 -0.4394 -0.4474  0.4570
 3879SOL    HW123270   3.097   0.292   5.425  0.8333 -0.0081  2.9212
 3879SOL    HW223271   3.080   0.213   5.549  1.9355  0.5545  0.1291
 3880SOL     OW23272   1.849   2.989  15.907 -0.0612 -0.3324  0.2726
 3880SOL    HW123273   1.832   3.083  15.916 -1.3920 -0.5561 -0.0572
 3880SOL    HW223274   1.804   2.954  15.984 -0.4360 -0.9371 -0.2254
 3881SOL     OW23275   0.276   0.177   0.593  0.4229  0.3407  0.0230
 3881SOL    HW123276   0.361   0.191   0.635  0.6253 -3.6979  0.9878
 3881SOL    HW223277   0.286   0.086   0.563 -0.9590  0.7382 -1.6074
 3882SOL     OW23278   1.444   4.168   6.702  0.0945  0.4087 -0.0743
 3882SOL    HW123279   1.368   4.220   6.729 -0.3027  0.0159 -0.4463
 3882SOL    HW223280   1.414   4.081   6.728 -4.1558  1.6003 -0.9255
 3883SOL     OW23281   1.317   3.706   4.992  0.0823  0.0773 -0.1629
 3883SOL    HW123282   1.386   3.739   4.934  1.8113 -1.4262  1.0384
 3883SOL    HW223283   1.360   3.728   5.075  0.5706  1.3352 -0.7530
 3884SOL     OW23284   1.124   4.464   1.428  0.5122  0.1309  0.2031
 3884SOL    HW123285   1.080   4.441   1.510 -0.1022 -2.1784 -0.8062
 3884SOL    HW223286   1.211   4.424   1.436  0.6678  0.4630  0.1824
 3885SOL     OW23287   0.743   1.496  10.271 -0.4450 -0.1525 -0.1572
 3885SOL    HW123288   0.729   1.572  10.328  0.1913 -1.7575  2.1024
 3885SOL    HW223289   0.835   1.520  10.258 -0.4036 -0.6517 -0.7647
 3886SOL     OW23290   1.936   0.748  10.214 -0.3064 -0.0083  0.0100
 3886SOL    HW123291   1.950   0.809  10.286  3.1016 -1.8383  0.9041
 3886SOL    HW223292   2.008   0.768  10.155  0.6608 -0.3566  1.0643
 3887SOL     OW23293   3.292   4.079   4.100  0.3035 -0.0876  0.2837
 3887SOL    HW123294   3.205   4.057   4.133 -0.1673 -0.0815 -0.9573
 3887SOL    HW223295   3.342   4.056   4.179 -3.3091 -2.0687  2.0340
 3888SOL     OW23296   3.996   1.340   0.937  0.3935 -0.1305  0.6962
 3888SOL    HW123297   4.033   1.252   0.930  1.2021  0.3086 -0.5268
 3888SOL    HW223298   3.904   1.326   0.912  0.7658  1.0204 -1.3393
 3889SOL     OW23299   4.655   2.562   2.952  0.1501 -0.8248  0.5304
 3889SOL    HW123300   4.723   2.528   3.010 -0.0040 -2.7320 -0.4061
 3889SOL    HW223301   4.702   2.545   2.870  2.5273 -0.1045  1.7511
 3890SOL     OW23302   0.758   4.577   9.470  0.5651  0.7817 -0.6564
 3890SOL    HW123303   0.749   4.529   9.388 -1.7224  0.4736 -0.2394
 3890SOL    HW223304   0.674   4.567   9.516  0.6711  0.2975 -0.5674
 3891SOL     OW23305   3.736   0.811   0.298 -0.3939 -0.2146 -0.7912
 3891SOL    HW123306   3.663   0.872   0.309 -1.7551 -1.8942 -0.4482
 3891SOL    HW223307   3.700   0.754   0.366 -0.2834 -2.0141 -2.2325
 3892SOL     OW23308   3.853   3.660   5.026 -0.7837  0.2806  0.6410
 3892SOL    HW123309   3.942   3.634   5.051 -0.5545 -0.4333 -0.9553
 3892SOL    HW223310   3.814   3.573   5.026 -0.8451  0.3127 -0.4034
 3893SOL     OW23311   2.550   0.453   6.971  0.4258 -0.3054  0.0131
 3893SOL    HW123312   2.608   0.389   6.930  1.0030 -0.5642  1.2565
 3893SOL    HW223313   2.611   0.516   7.009 -2.1154  1.1468  1.6761
 3894SOL     OW23314   3.051   0.637   5.810 -0.1049 -0.3605  0.0970
 3894SOL    HW123315   3.091   0.645   5.897  1.3472 -2.4103 -0.3864
 3894SOL    HW223316   2.981   0.577   5.837  2.3035 -4.0456 -1.7909
 3895SOL     OW23317   2.461   1.469  10.287  0.0221  0.6547  0.1958
 3895SOL    HW123318   2.481   1.562  10.275 -0.4520  0.5046 -1.7820
 3895SOL    HW223319   2.453   1.437  10.197  1.7638 -1.7303  0.8706
 3896SOL     OW23320   0.563   3.467   1.155 -0.7032 -0.2820 -0.7827
 3896SOL    HW123321   0.483   3.504   1.193 -0.4302  0.6586 -1.1297
 3896SOL    HW223322   0.557   3.377   1.187  2.8404 -0.1952  0.0794
 3897SOL     OW23323   4.359   1.232  12.053  0.1253 -0.1325  0.1174
 3897SOL    HW123324   4.386   1.143  12.029 -0.2500 -0.5471  1.2196
 3897SOL    HW223325   4.267   1.215  12.075 -0.2333  1.6771 -0.0285
 3898SOL     OW23326   1.657   3.100  17.231 -0.4799 -0.6455 -0.1840
 3898SOL    HW123327   1.670   3.188  17.266  1.8811 -0.9399 -0.2643
 3898SOL    HW223328   1.729   3.058  17.279  1.0915  2.6126  0.3139
 3899SOL     OW23329   4.351   2.057   6.965  0.7410  0.0149  0.2092
 3899SOL    HW123330   4.320   2.035   7.053  1.6327  0.0046  0.5185
 3899SOL    HW223331   4.428   2.112   6.980  0.3320  0.8409 -0.6835
 3900SOL     OW23332   1.935   1.552   6.871 -0.0590 -0.3990  0.3345
 3900SOL    HW123333   1.932   1.542   6.966  3.0516 -1.2774  0.3655
 3900SOL    HW223334   2.028   1.535   6.852 -0.2597  0.3568 -1.3050
 3901SOL     OW23335   4.257   0.737   7.383 -0.7338 -0.1822  0.1655
 3901SOL    HW123336   4.301   0.737   7.469 -0.7001 -2.1008  0.1366
 3901SOL    HW223337   4.302   0.669   7.334 -1.4210 -1.1392  0.8807
 3902SOL     OW23338   0.798   2.020   9.444  0.4098  0.0715  0.3972
 3902SOL    HW123339   0.780   1.926   9.444 -1.4098  0.4205 -2.2060
 3902SOL    HW223340   0.778   2.038   9.352 -1.0151 -0.2664  0.6454
 3903SOL     OW23341   2.807   4.127  17.110  0.7783 -0.0170  0.1873
 3903SOL    HW123342   2.826   4.036  17.087 -0.9922  0.3973 -2.9096
 3903SOL    HW223343   2.716   4.124  17.141  0.6510 -0.5658 -0.2493
 3904SOL     OW23344   3.471   0.176  11.472  0.4712 -0.4485  0.4169
 3904SOL    HW123345   3.474   0.104  11.410 -0.9383  0.5439 -0.8093
 3904SOL    HW223346   3.428   0.137  11.548  1.8023  0.5811  1.6868
 3905SOL     OW23347   1.975   4.350   4.866 -0.4926 -0.3253 -0.0748
 3905SOL    HW123348   1.883   4.376   4.859  0.9232  4.3504 -1.5661
 3905SOL    HW223349   1.980   4.350   4.962  0.1776 -2.1941 -0.1113
 3906SOL     OW23350   1.354   2.668   7.176 -0.2476 -0.1690 -0.5233
 3906SOL    HW123351   1.355   2.573   7.187 -1.2611  0.1929  2.5793
 3906SOL    HW223352   1.313   2.708   7.253 -0.2872  1.0697 -1.1814
 3907SOL     OW23353   0.179   2.591   8.181  0.3838 -0.2176 -0.0866
 3907SOL    HW123354   0.272   2.568   8.180 -0.2801 -2.8527 -1.5378
 3907SOL    HW223355   0.166   2.615   8.273 -0.2494  2.0274 -0.7757
 3908SOL     OW23356   0.351   0.942   5.475 -0.4045 -0.2200 -0.1626
 3908SOL    HW123357   0.402   1.019   5.450 -0.6817 -0.0947 -0.3357
 3908SOL    HW223358   0.411   0.905   5.540  0.9478 -0.8764 -1.7829
 3909SOL     OW23359   2.018   0.880   2.759  0.4532 -0.3084  0.6635
 3909SOL    HW123360   2.066   0.942   2.704  0.4649 -0.4003  0.5685
 3909SOL    HW223361   2.054   0.908   2.843  1.3821  0.7582 -0.0828
 3910SOL     OW23362   1.825   0.260   2.465  0.0346  0.3306  0.3377
 3910SOL    HW123363   1.862   0.298   2.385 -0.8990  0.0060 -0.2445
 3910SOL    HW223364   1.732   0.255   2.445  0.1925 -0.9193 -0.0757
 3911SOL     OW23365   2.040   0.987  11.350 -0.3451 -0.1680  0.1997
 3911SOL    HW123366   2.076   1.044  11.282  0.4035  0.0654  0.7992
 3911SOL    HW223367   2.125   0.973  11.391  0.9755 -1.3570 -2.9889
 3912SOL     OW23368   4.680   1.670   2.347 -0.4496  0.1854 -0.3626
 3912SOL    HW123369   4.654   1.761   2.360 -0.6363  0.2180 -0.9873
 3912SOL    HW223370   4.611   1.630   2.400 -1.1405  1.8616  0.0252
 3913SOL     OW23371   3.906   2.661  10.060 -0.3319 -0.0329  0.2886
 3913SOL    HW123372   3.927   2.753  10.076 -0.8683 -0.0950  1.3413
 3913SOL    HW223373   3.822   2.669  10.015 -0.0534  0.7752 -0.0807
 3914SOL     OW23374   3.347   4.164   1.710 -0.3427 -0.3685  0.4698
 3914SOL    HW123375   3.259   4.132   1.731  0.6362 -0.9127  3.8682
 3914SOL    HW223376   3.390   4.079   1.700 -1.6701 -0.8656 -1.0295
 3915SOL     OW23377   3.940   3.037   2.190 -0.3058  0.0385 -0.4102
 3915SOL    HW123378   4.021   2.988   2.198  0.1375  0.7830 -0.3781
 3915SOL    HW223379   3.923   3.044   2.096 -1.2861 -1.5220 -0.3554
 3916SOL     OW23380   3.754   0.087   7.815  0.1546 -0.2605 -0.0310
 3916SOL    HW123381   3.778   0.105   7.724  0.8864  2.0902  0.6300
 3916SOL    HW223382   3.797   0.159   7.861  0.0666 -0.8731  1.0061
 3917SOL     OW23383   0.698   1.099   1.867 -0.1863  0.0018  0.1747
 3917SOL    HW123384   0.725   1.103   1.958  1.9963 -0.3609 -0.4577
 3917SOL    HW223385   0.764   1.152   1.823 -1.1418  2.4839  1.7338
 3918SOL     OW23386   1.969   1.552   5.389  0.4923 -0.3924 -0.3590
 3918SOL    HW123387   1.911   1.559   5.313 -0.4097 -1.8701  0.1882
 3918SOL    HW223388   2.024   1.625   5.361  0.0097  0.9436  2.1963
 3919SOL     OW23389   0.290   1.232   3.102  0.2305 -0.1646 -0.6301
 3919SOL    HW123390   0.376   1.273   3.093 -0.2946  1.0086 -0.3425
 3919SOL    HW223391   0.239   1.313   3.108 -1.1493 -1.1551  1.1683
 3920SOL     OW23392   1.579   3.006   5.690  0.0417  0.6363  0.1421
 3920SOL    HW123393   1.646   3.041   5.631  0.2777  0.2533  0.1825
 3920SOL    HW223394   1.616   2.923   5.721 -1.3054 -0.9738 -2.6251
 3921SOL     OW23395   2.398   0.051   6.775 -0.8828 -0.1184 -0.2936
 3921SOL    HW123396   2.341   4.734   6.823  0.2053 -1.2673 -0.4468
 3921SOL    HW223397   2.333   0.096   6.721  0.1976  0.9710 -0.6832
 3922SOL     OW23398   3.224   3.293   2.270  0.0992  0.0409  0.0029
 3922SOL    HW123399   3.237   3.241   2.349  3.0008  0.2755 -0.3376
 3922SOL    HW223400   3.298   3.350   2.290 -1.3378  1.2174  2.0168
 3923SOL     OW23401   1.243   4.410   7.391 -0.2881 -0.3241 -0.0702
 3923SOL    HW123402   1.323   4.385   7.437 -0.3646  0.5167  0.5253
 3923SOL    HW223403   1.277   4.468   7.323  0.3224 -0.8595 -0.2213
 3924SOL     OW23404   0.806   2.892   9.210  0.3638  0.3871  0.4625
 3924SOL    HW123405   0.724   2.885   9.160  0.2290 -3.3183  1.1769
 3924SOL    HW223406   0.777   2.949   9.281 -1.2939 -0.9491  0.8710
 3925SOL     OW23407   1.761   0.485   1.042 -0.2429 -0.0524  0.1420
 3925SOL    HW123408   1.722   0.420   0.983  0.7659  0.2825 -0.8873
 3925SOL    HW223409   1.788   0.420   1.107  3.3203  0.8864 -0.3997
 3926SOL     OW23410   4.293   3.973  11.499 -0.3970 -0.5990 -0.2126
 3926SOL    HW123411   4.387   3.977  11.484  0.0543 -3.3572  1.7524
 3926SOL    HW223412   4.290   4.017  11.584  1.3978  0.5341 -0.7342
 3927SOL     OW23413   3.802   0.083  10.752 -0.1679 -0.0167 -0.0707
 3927SOL    HW123414   3.869   0.029  10.794 -3.1074 -2.1041  1.9456
 3927SOL    HW223415   3.727   0.061  10.807  0.1955  1.2888  0.9567
 3928SOL     OW23416   3.850   0.327   7.918  1.0857  0.4881 -0.1307
 3928SOL    HW123417   3.820   0.404   7.967 -0.0564 -0.4370  0.6255
 3928SOL    HW223418   3.943   0.331   7.940  1.3117 -2.4214 -0.6275
 3929SOL     OW23419   2.691   0.319  16.056 -0.3178  0.1999 -0.0764
 3929SOL    HW123420   2.669   0.297  16.146  1.5704  0.7175  0.5184
 3929SOL    HW223421   2.778   0.357  16.069  0.8276 -1.6177 -2.5019
 3930SOL     OW23422   2.609   2.928  11.592  0.3155 -0.2322 -0.0593
 3930SOL    HW123423   2.691   2.952  11.635  1.2468  0.9301 -2.5172
 3930SOL    HW223424   2.570   3.014  11.577 -2.2442 -1.1604  1.1962
 3931SOL     OW23425   3.717   2.694  14.729  0.3749 -0.1971  0.6995
 3931SOL    HW123426   3.733   2.779  14.687  0.5918 -2.0746 -2.9532
 3931SOL    HW223427   3.706   2.637  14.653 -0.5643  1.2544 -0.2446
 3932SOL     OW23428   4.599   3.802   4.303  0.1813 -0.1842  0.1067
 3932SOL    HW123429   4.544   3.864   4.256  0.6991  0.8680  0.8953
 3932SOL    HW223430   4.637   3.857   4.371  0.3631  0.4213 -0.4871
 3933SOL     OW23431   0.571   2.781   6.450  0.1002 -0.0644 -0.0310
 3933SOL    HW123432   0.556   2.704   6.504  0.4887  1.0150  1.6139
 3933SOL    HW223433   0.580   2.754   6.359 -0.8657 -1.4414  0.2875
 3934SOL     OW23434   4.555   3.375   9.353 -0.0517  0.5002 -0.7384
 3934SOL    HW123435   4.601   3.294   9.329  2.2061  1.0065  1.9146
 3934SOL    HW223436   4.469   3.354   9.317  0.4216 -0.4637 -1.3288
 3935SOL     OW23437   0.562   0.038   3.754  0.4013 -0.2176 -0.0521
 3935SOL    HW123438   0.503   4.710   3.730 -0.4301  0.0957  1.0524
 3935SOL    HW223439   0.560   0.087   3.672  4.1123  1.2907  0.7438
 3936SOL     OW23440   1.028   4.423   6.720  0.8242 -0.4035 -0.0983
 3936SOL    HW123441   0.989   4.336   6.734  0.2413 -0.4919 -2.2619
 3936SOL    HW223442   0.998   4.438   6.630  3.2987 -2.3250 -1.2350
 3937SOL     OW23443   1.844   1.398   4.435  0.4256 -0.6681 -0.6404
 3937SOL    HW123444   1.863   1.441   4.518 -2.8904 -1.3224  0.4535
 3937SOL    HW223445   1.916   1.336   4.446  1.9774  1.5856  1.9698
 3938SOL     OW23446   3.043   0.946   5.756 -0.0363  0.2125  0.5310
 3938SOL    HW123447   3.062   0.936   5.849  1.5950  1.3015  0.3153
 3938SOL    HW223448   3.089   0.866   5.731  0.4964  0.9786 -0.9213
 3939SOL     OW23449   3.187   4.595   8.760 -0.0058  0.5602  0.3137
 3939SOL    HW123450   3.149   4.665   8.708 -0.8375 -1.3495 -1.6634
 3939SOL    HW223451   3.161   4.511   8.722  0.9879  0.2202  0.3691
 3940SOL     OW23452   0.589   2.016   3.062 -0.3669  0.3080 -0.3830
 3940SOL    HW123453   0.672   2.008   3.015  0.3686  1.6089  0.6954
 3940SOL    HW223454   0.578   2.110   3.047  1.5646  0.3901 -1.3303
 3941SOL     OW23455   1.218   4.148  13.280 -0.3320  0.1736 -0.1452
 3941SOL    HW123456   1.277   4.075  13.262 -1.4240 -0.7395 -0.0135
 3941SOL    HW223457   1.276   4.217  13.249  1.3937 -1.6304 -0.9295
 3942SOL     OW23458   2.047   3.979   8.587  0.2854  0.0569 -0.0145
 3942SOL    HW123459   2.028   3.950   8.676  1.2292 -0.6402 -0.0325
 3942SOL    HW223460   1.958   3.993   8.555  0.1179  1.0028  0.8805
 3943SOL     OW23461   2.016   0.823   8.639  0.1111  0.1756 -0.0670
 3943SOL    HW123462   1.959   0.833   8.715 -0.3728  3.7878 -0.8839
 3943SOL    HW223463   1.964   0.753   8.599 -0.0304  0.2048  0.0634
 3944SOL     OW23464   4.199   1.517   5.385 -0.2268 -0.0254 -0.3614
 3944SOL    HW123465   4.115   1.486   5.418 -0.0198  1.9734  2.0899
 3944SOL    HW223466   4.187   1.611   5.397 -0.8246 -0.1376 -0.0326
 3945SOL     OW23467   0.715   4.572   2.400  0.5066  0.0042  0.1041
 3945SOL    HW123468   0.667   4.655   2.393 -2.3166 -1.6792 -0.2268
 3945SOL    HW223469   0.648   4.514   2.436  0.0607 -0.1827 -1.0038
 3946SOL     OW23470   3.431   3.035   8.739  0.5448 -0.0813 -0.2391
 3946SOL    HW123471   3.471   3.062   8.657  0.9120  2.5699  0.8060
 3946SOL    HW223472   3.354   2.985   8.714  0.6212  0.8865 -2.3685
 3947SOL     OW23473   0.716   0.366  14.312  0.3880  0.6317  0.1316
 3947SOL    HW123474   0.691   0.445  14.361 -0.1544  0.1283  0.6664
 3947SOL    HW223475   0.680   0.296  14.367  0.5150  0.5871  0.1588
 3948SOL     OW23476   0.880   0.123   8.444 -0.4353 -0.8176  0.4809
 3948SOL    HW123477   0.872   0.190   8.377  0.7646 -0.1497  1.0023
 3948SOL    HW223478   0.854   0.168   8.524  2.7513 -0.7264  1.4723
 3949SOL     OW23479   0.132   2.409   4.518 -0.1522 -0.1730  0.0457
 3949SOL    HW123480   0.222   2.443   4.520 -0.0423 -0.4299 -0.5610
 3949SOL    HW223481   0.100   2.448   4.599 -0.0852 -2.1932  1.0650
 3950SOL     OW23482   3.578   2.522   3.322  0.3930  0.6533 -0.7620
 3950SOL    HW123483   3.544   2.586   3.259 -2.6947 -1.7412 -1.5350
 3950SOL    HW223484   3.496   2.484   3.353  1.2153  1.9953  3.0295
 3951SOL     OW23485   4.187   0.761  11.929 -0.2258  0.3707 -0.3169
 3951SOL    HW123486   4.258   0.705  11.897 -0.1354  0.4022 -0.1675
 3951SOL    HW223487   4.109   0.706  11.920 -0.0916 -0.1512  1.6441
 3952SOL     OW23488   3.689   3.357   8.655 -0.6467 -0.3663 -0.3535
 3952SOL    HW123489   3.640   3.349   8.737  0.1644  2.1418  0.3892
 3952SOL    HW223490   3.678   3.447   8.624 -0.3607  0.0833  0.8044
 3953SOL     OW23491   3.344   0.343  14.036  0.0110 -0.3337  0.1783
 3953SOL    HW123492   3.288   0.315  13.963  0.7677 -0.0552 -0.5020
 3953SOL    HW223493   3.388   0.421  14.003 -2.9879  1.4650  0.4509
 3954SOL     OW23494   2.323   0.984   7.156 -0.0957  0.4020 -0.4932
 3954SOL    HW123495   2.409   0.944   7.158 -0.0930  0.4192 -0.3002
 3954SOL    HW223496   2.258   0.913   7.156  2.0984 -1.5762  1.3687
 3955SOL     OW23497   4.064   1.261   6.602 -0.2493 -0.3103  0.0738
 3955SOL    HW123498   4.135   1.209   6.563 -1.1477  0.7571 -2.9740
 3955SOL    HW223499   3.996   1.258   6.535 -1.9523 -1.5321  1.8328
 3956SOL     OW23500   0.515   0.452   1.241 -0.1014  0.2495  0.0371
 3956SOL    HW123501   0.426   0.440   1.275 -0.3935  0.6941 -0.5930
 3956SOL    HW223502   0.548   0.523   1.296  1.0877 -0.2442 -0.0509
 3957SOL     OW23503   3.806   2.591   7.122  0.0900 -0.7415  0.1394
 3957SOL    HW123504   3.858   2.554   7.050 -4.2665 -1.2544 -2.7353
 3957SOL    HW223505   3.722   2.607   7.080 -0.0127 -2.2450 -0.2314
 3958SOL     OW23506   1.357   0.945   4.783  0.2839 -0.2611 -0.1851
 3958SOL    HW123507   1.357   0.911   4.873  1.0465 -2.2066 -0.9374
 3958SOL    HW223508   1.400   1.029   4.800  5.0948 -2.8154  0.1997
 3959SOL     OW23509   1.540   0.376   5.166 -0.1841 -0.0601 -0.4548
 3959SOL    HW123510   1.577   0.446   5.220 -1.0932 -0.8556  1.1877
 3959SOL    HW223511   1.614   0.318   5.150  1.0706  0.9597  1.6013
 3960SOL     OW23512   4.015   2.848   1.149 -0.7745 -0.3479  0.4787
 3960SOL    HW123513   4.002   2.935   1.112  0.8812  0.3712  1.6192
 3960SOL    HW223514   3.935   2.853   1.201  0.4298  1.5187  2.1542
 3961SOL     OW23515   4.720   2.774   9.220  0.0391  0.1172  0.5141
 3961SOL    HW123516   0.060   2.746   9.182 -0.8174  0.6882 -1.7778
 3961SOL    HW223517   0.000   2.853   9.268  1.7397  0.6927 -1.3075
 3962SOL     OW23518   0.527   0.262   3.890 -0.0948  0.0076  0.2075
 3962SOL    HW123519   0.536   0.168   3.873 -1.2549 -0.3340  1.4587
 3962SOL    HW223520   0.612   0.304   3.877 -0.3335  0.4362  0.0433
 3963SOL     OW23521   1.636   0.947   7.603  0.2232 -0.4073 -0.3191
 3963SOL    HW123522   1.659   0.859   7.633 -0.7325  0.9086  4.1388
 3963SOL    HW223523   1.567   0.973   7.663 -0.9712  0.5057 -2.0825
 3964SOL     OW23524   3.030   2.294   6.820  0.0247 -0.3354 -0.4656
 3964SOL    HW123525   2.954   2.351   6.811 -1.2096 -1.8410  0.3309
 3964SOL    HW223526   3.078   2.348   6.883  0.3418 -3.2416  1.8426
 3965SOL     OW23527   0.144   2.319  11.541 -0.1036 -0.4485  0.0484
 3965SOL    HW123528   0.178   2.230  11.528 -1.4096 -1.4275  3.2506
 3965SOL    HW223529   0.228   2.361  11.559 -0.3038  0.2351 -0.6457
 3966SOL     OW23530   0.535   0.359   1.989 -0.0972 -0.3490  0.3039
 3966SOL    HW123531   0.589   0.432   2.018  0.0001 -0.6146  0.7991
 3966SOL    HW223532   0.455   0.397   1.952 -0.5813  0.2550  1.9578
 3967SOL     OW23533   3.869   4.178  11.628  0.3406 -0.4086 -0.0421
 3967SOL    HW123534   3.886   4.120  11.555 -0.3374  1.7950 -1.9398
 3967SOL    HW223535   3.956   4.176  11.668  0.5708 -2.7383 -0.6713
 3968SOL     OW23536   4.090   3.869   1.844  0.4343 -0.1064  0.4381
 3968SOL    HW123537   4.071   3.820   1.764 -1.9943 -0.5678  1.3210
 3968SOL    HW223538   4.111   3.798   1.905  0.0464  1.1869  2.0825
 3969SOL     OW23539   2.267   4.102   2.647 -0.3021  0.4782 -0.1501
 3969SOL    HW123540   2.250   4.183   2.695 -0.4669  0.3309  0.0406
 3969SOL    HW223541   2.340   4.120   2.587  1.0030  1.1475  1.6460
 3970SOL     OW23542   2.633   1.626   8.565  0.1125 -0.1868  0.4392
 3970SOL    HW123543   2.674   1.540   8.558  1.6242  0.4473  1.2704
 3970SOL    HW223544   2.606   1.625   8.657  0.2771  1.1893  0.5095
 3971SOL     OW23545   0.999   3.761   1.767  0.4677  0.0810 -0.2741
 3971SOL    HW123546   0.986   3.784   1.859 -2.3990  1.1031 -0.9196
 3971SOL    HW223547   0.909   3.775   1.736 -0.0651 -0.1440  1.1986
 3972SOL     OW23548   2.681   2.104   3.654 -0.0133 -0.5406 -0.1673
 3972SOL    HW123549   2.653   2.034   3.713  0.3711 -0.2739  0.3400
 3972SOL    HW223550   2.716   2.162   3.722  0.5988  0.0121 -0.9493
 3973SOL     OW23551   3.316   3.148   5.061 -0.1250  0.1192 -0.0148
 3973SOL    HW123552   3.233   3.184   5.033 -0.6547  0.0554  1.4784
 3973SOL    HW223553   3.336   3.094   4.984 -1.5402  1.4519 -1.3148
 3974SOL     OW23554   3.312   3.945   7.251  0.0685 -0.4199  0.1406
 3974SOL    HW123555   3.367   3.941   7.328 -1.8558 -0.2403  1.5353
 3974SOL    HW223556   3.369   3.900   7.189  0.1540  0.4330 -0.4084
 3975SOL     OW23557   3.124   3.275   5.463 -0.3958 -0.1131  0.0914
 3975SOL    HW123558   3.132   3.181   5.475 -1.6132 -0.2819 -0.4835
 3975SOL    HW223559   3.076   3.271   5.381  0.1868  0.5534 -0.2832
 3976SOL     OW23560   2.459   3.255  13.329 -0.0786  0.1005  0.6951
 3976SOL    HW123561   2.403   3.282  13.402 -3.0999  1.2832 -2.0704
 3976SOL    HW223562   2.489   3.168  13.358 -1.5436 -0.3224  0.9206
 3977SOL     OW23563   1.973   0.180   3.682  0.2936 -0.1797  0.4766
 3977SOL    HW123564   1.949   0.262   3.725  2.2792  1.7126 -2.0062
 3977SOL    HW223565   1.915   0.176   3.607  1.0432  0.7403 -0.1620
 3978SOL     OW23566   2.487   3.430   5.551 -0.0606  0.1860 -0.0515
 3978SOL    HW123567   2.412   3.488   5.538  0.1864  0.0527 -2.0804
 3978SOL    HW223568   2.550   3.482   5.600 -0.8508  0.8158  0.3007
 3979SOL     OW23569   2.452   4.737   7.614  0.0522 -0.0903  0.3475
 3979SOL    HW123570   2.480   0.082   7.592  0.9541 -0.6572 -0.7401
 3979SOL    HW223571   2.401   4.716   7.536 -0.9622  0.0049  0.9821
 3980SOL     OW23572   1.215   2.987  10.126  0.0019  0.2151 -0.1181
 3980SOL    HW123573   1.230   2.907  10.175  0.9788 -0.2551 -1.1968
 3980SOL    HW223574   1.157   2.962  10.054  0.0955 -1.1670  0.2937
 3981SOL     OW23575   1.616   2.063   4.895 -0.1812 -0.1276 -0.0735
 3981SOL    HW123576   1.578   2.147   4.921 -1.5784 -0.4749 -0.9615
 3981SOL    HW223577   1.650   2.099   4.813 -0.2993  0.3517  0.0876
 3982SOL     OW23578   3.915   1.466   9.607 -0.1809  0.1135 -0.0015
 3982SOL    HW123579   3.905   1.561   9.613  2.5050  0.3991 -0.2834
 3982SOL    HW223580   3.940   1.460   9.515 -1.4989  1.2741 -0.4359
 3983SOL     OW23581   2.874   0.060   3.250 -0.2974  0.2635  0.4155
 3983SOL    HW123582   2.789   0.100   3.230 -0.5716 -0.5523 -0.0778
 3983SOL    HW223583   2.935   0.133   3.262 -0.7855  0.8610 -0.7268
 3984SOL     OW23584   0.204   3.418   4.706  0.2799  0.1585 -0.2882
 3984SOL    HW123585   0.219   3.504   4.745  0.3586  0.3365 -0.7156
 3984SOL    HW223586   0.137   3.429   4.638 -0.4557 -0.4279  0.3343
 3985SOL     OW23587   0.594   3.063  16.240  0.0982 -0.5710 -0.2260
 3985SOL    HW123588   0.640   3.108  16.170  0.8548  1.4467  1.5603
 3985SOL    HW223589   0.670   3.038  16.293 -1.0536 -0.4740  1.4880
 3986SOL     OW23590   2.517   4.211   7.522 -0.1253  0.3564  0.5329
 3986SOL    HW123591   2.565   4.264   7.585 -1.3980 -0.4287  2.1758
 3986SOL    HW223592   2.542   4.256   7.442 -0.0536  1.4583  1.1881
 3987SOL     OW23593   3.073   1.234  17.721 -0.1890 -0.1792 -0.3673
 3987SOL    HW123594   3.094   1.180  17.645 -0.0968 -0.6269 -0.0216
 3987SOL    HW223595   3.036   1.309  17.673  1.4058 -1.0845 -3.0409
 3988SOL     OW23596   0.095   3.751   8.975  0.0237 -1.0289  0.1407
 3988SOL    HW123597   0.160   3.694   8.936  0.8474 -0.4695  0.6990
 3988SOL    HW223598   0.152   3.827   8.973  0.5710 -1.3352  3.2135
 3989SOL     OW23599   0.973   2.643   1.635  0.5877 -0.7320  0.1574
 3989SOL    HW123600   0.969   2.738   1.623 -0.4354 -0.8774 -0.5851
 3989SOL    HW223601   0.897   2.618   1.583 -1.8760  1.7352  2.5999
 3990SOL     OW23602   3.708   1.694   7.241  1.3403  0.0385 -0.2111
 3990SOL    HW123603   3.742   1.773   7.200  1.7568  0.1129  0.2803
 3990SOL    HW223604   3.696   1.717   7.333  0.7462  1.3593 -0.6191
 3991SOL     OW23605   0.119   0.564   4.030  0.4370  0.4194  0.5647
 3991SOL    HW123606   0.185   0.589   4.095 -0.0579  0.4605  1.0557
 3991SOL    HW223607   0.155   0.606   3.952 -2.2533 -0.6273 -1.2356
 3992SOL     OW23608   4.651   1.043   7.093 -0.1402  0.1857 -0.4134
 3992SOL    HW123609   4.671   0.978   7.025  1.6626  2.4769 -2.0855
 3992SOL    HW223610   4.728   1.100   7.084 -0.5924  1.0427  1.2126
 3993SOL     OW23611   0.660   0.004   5.224  0.0816  0.1995  0.0844
 3993SOL    HW123612   0.742   0.044   5.195 -0.6792  0.5905 -1.5272
 3993SOL    HW223613   0.630   4.706   5.144 -2.7677 -0.4237  1.4676
 3994SOL     OW23614   0.934   0.307   1.984 -0.1287 -0.1039  0.6164
 3994SOL    HW123615   0.995   0.353   2.042  0.7649 -0.5722  0.0475
 3994SOL    HW223616   0.905   0.384   1.935  0.6840  0.9879  1.8540
 3995SOL     OW23617   1.015   4.153   5.774 -0.1996 -0.5235 -0.1547
 3995SOL    HW123618   1.051   4.212   5.708  0.1459  0.3917  0.8386
 3995SOL    HW223619   1.044   4.067   5.745  1.6243  0.5524 -1.4490
 3996SOL     OW23620   2.464   3.199   7.415 -0.2592  0.6828 -0.7714
 3996SOL    HW123621   2.449   3.117   7.462  0.1023  2.4191  2.3641
 3996SOL    HW223622   2.399   3.261   7.449 -2.5562 -1.8626 -0.5305
 3997SOL     OW23623   3.337   0.376  14.307 -0.7303  0.4418  0.1784
 3997SOL    HW123624   3.334   0.339  14.219  0.9742  1.2610 -0.2195
 3997SOL    HW223625   3.292   0.460  14.293 -1.2570  0.0724 -0.3591
 3998SOL     OW23626   3.418   0.151   2.856 -0.5984  0.0346 -0.6495
 3998SOL    HW123627   3.349   0.179   2.796 -1.4648 -2.8639 -1.0120
 3998SOL    HW223628   3.453   0.237   2.878  0.0061 -0.7117  1.2388
 3999SOL     OW23629   1.241   4.246  17.691  0.5663 -0.2703  0.2310
 3999SOL    HW123630   1.263   4.155  17.673 -0.0841 -0.4163  0.1768
 3999SOL    HW223631   1.328   4.281  17.675  0.5239  0.0072  0.6054
 4000SOL     OW23632   4.388   3.699   9.170  0.4694 -0.6599  0.1020
 4000SOL    HW123633   4.330   3.754   9.223 -1.7732 -1.7836 -1.1870
 4000SOL    HW223634   4.353   3.610   9.172  1.1531 -0.9295  0.1556
 4001SOL     OW23635   1.822   1.229   6.919  0.2284  0.8097 -0.2547
 4001SOL    HW123636   1.888   1.211   6.853  0.1744  0.5767 -0.2440
 4001SOL    HW223637   1.840   1.156   6.978 -1.2527  0.6579  0.0049
 4002SOL     OW23638   4.660   0.053   3.691  0.0820  0.4247 -0.0865
 4002SOL    HW123639   4.643   0.086   3.779  1.5017 -0.1592  0.3938
 4002SOL    HW223640   4.572   0.060   3.653  0.6589  0.7081 -1.3710
 4003SOL     OW23641   1.246   1.417  17.037  0.4652 -0.5128  0.2387
 4003SOL    HW123642   1.226   1.510  17.047 -1.0777 -0.8721  0.5436
 4003SOL    HW223643   1.160   1.374  17.031 -0.9644  1.8820  4.2037
 4004SOL     OW23644   1.331   4.726   4.664 -0.1593  0.3438 -0.2256
 4004SOL    HW123645   1.250   4.704   4.710  1.1750 -1.8438  1.0813
 4004SOL    HW223646   1.330   4.657   4.598 -0.1425  0.3386 -0.2207
 4005SOL     OW23647   3.864   4.478  11.264 -0.0489 -0.3312 -0.3481
 4005SOL    HW123648   3.895   4.441  11.347 -0.3299  0.8318  0.2732
 4005SOL    HW223649   3.890   4.410  11.202  0.9605 -0.7902  0.5694
 4006SOL     OW23650   3.645   1.712  13.564 -0.1471 -0.5824  0.2122
 4006SOL    HW123651   3.623   1.753  13.480 -0.1158  0.1786  0.5761
 4006SOL    HW223652   3.572   1.742  13.619  0.2090 -2.4810  1.7248
 4007SOL     OW23653   2.947   0.949  13.482  0.2838 -0.4011  0.3825
 4007SOL    HW123654   2.925   1.011  13.551  2.3971 -0.5153  1.1686
 4007SOL    HW223655   2.958   1.014  13.412 -0.1369  0.6957  1.3465
 4008SOL     OW23656   0.840   2.777   6.066  0.5981 -0.2753  0.0597
 4008SOL    HW123657   0.838   2.713   6.138 -0.1591 -0.2529  0.0570
 4008SOL    HW223658   0.800   2.726   5.995  2.3010  0.4391 -1.3970
 4009SOL     OW23659   3.479   1.655   7.089  0.0302  0.1507  0.0294
 4009SOL    HW123660   3.564   1.631   7.128 -0.6156  0.1160  1.4223
 4009SOL    HW223661   3.487   1.750   7.093  0.0937  0.2647 -2.9455
 4010SOL     OW23662   1.963   1.615   9.117  0.5981 -0.7192 -0.0485
 4010SOL    HW123663   1.977   1.549   9.184  0.6900  1.3724  1.9916
 4010SOL    HW223664   1.937   1.680   9.182  1.2730  0.4191 -0.9145
 4011SOL     OW23665   3.425   3.627   3.230  0.2312 -0.5838 -0.0351
 4011SOL    HW123666   3.500   3.577   3.263 -0.1806 -0.5250  0.9960
 4011SOL    HW223667   3.413   3.688   3.304 -0.9501 -1.1398  0.2230
 4012SOL     OW23668   3.869   0.583   5.698 -0.2063 -0.5650  0.5322
 4012SOL    HW123669   3.955   0.543   5.711 -0.5819 -2.2058 -2.0953
 4012SOL    HW223670   3.861   0.557   5.606  0.5653 -0.2403  0.3678
 4013SOL     OW23671   4.011   3.218   2.363 -0.5807 -0.4452 -0.3997
 4013SOL    HW123672   4.081   3.197   2.301  0.6717  0.1608  0.7862
 4013SOL    HW223673   3.951   3.148   2.340 -1.0542 -0.7909  1.8912
 4014SOL     OW23674   1.247   1.785   6.248 -0.1395 -0.0636 -0.1224
 4014SOL    HW123675   1.268   1.694   6.223 -2.0266 -1.0235  1.7627
 4014SOL    HW223676   1.268   1.843   6.175  2.6937 -0.3564  0.4691
 4015SOL     OW23677   1.620   0.829   4.923 -0.6559  0.1639 -0.6075
 4015SOL    HW123678   1.547   0.781   4.962 -0.8549 -1.4871 -2.9542
 4015SOL    HW223679   1.582   0.917   4.919 -0.4488  0.2969  0.5322
 4016SOL     OW23680   1.821   3.682   3.347  0.2527  0.0438  0.0478
 4016SOL    HW123681   1.912   3.676   3.375 -0.4239 -0.3944  2.1531
 4016SOL    HW223682   1.825   3.616   3.278  0.0732  0.8183 -0.7082
 4017SOL     OW23683   0.899   4.141  14.001  0.4703 -0.5010  0.3608
 4017SOL    HW123684   0.881   4.065  14.056  0.4424 -0.5005  0.3521
 4017SOL    HW223685   0.927   4.212  14.058 -0.9971  0.5751 -0.2794
 4018SOL     OW23686   3.756   3.955   8.603  0.1131 -0.0709 -0.5419
 4018SOL    HW123687   3.818   3.913   8.543  1.1573  0.8979 -0.1303
 4018SOL    HW223688   3.824   4.006   8.645 -0.6816  0.5022  0.0545
 4019SOL     OW23689   2.421   0.247   7.978  0.3154 -0.2897  0.7707
 4019SOL    HW123690   2.477   0.299   8.036  0.5511  0.3927 -0.0598
 4019SOL    HW223691   2.471   0.167   7.959  2.1993  1.2124 -0.6679
 4020SOL     OW23692   1.182   0.048  16.409 -0.3465 -0.5431  0.1517
 4020SOL    HW123693   1.160   0.009  16.494 -3.6453  0.7268 -0.1570
 4020SOL    HW223694   1.219   0.130  16.442 -0.0068 -1.4845  2.1805
 4021SOL     OW23695   0.040   0.746  16.720  0.1134  0.8213  0.0853
 4021SOL    HW123696   4.718   0.808  16.690  0.2440  0.9394  0.0423
 4021SOL    HW223697   0.119   0.790  16.688  1.5900 -1.7489  0.2095
 4022SOL     OW23698   2.401   2.741   3.647 -0.5880  0.2356 -0.0825
 4022SOL    HW123699   2.459   2.741   3.722  0.0534 -3.5921 -0.5505
 4022SOL    HW223700   2.374   2.832   3.653 -3.0772 -0.4338 -1.0164
 4023SOL     OW23701   0.851   2.157   6.184  0.0029 -0.2899 -0.0415
 4023SOL    HW123702   0.828   2.064   6.179 -0.4455 -0.0584 -2.3447
 4023SOL    HW223703   0.929   2.159   6.238  0.6900  1.7100 -1.1119
 4024SOL     OW23704   0.152   3.130   5.255  0.5238 -0.4714 -0.3028
 4024SOL    HW123705   0.062   3.154   5.234  0.7325 -0.8917 -1.6755
 4024SOL    HW223706   0.194   3.121   5.170  0.9939  1.4113 -0.2710
 4025SOL     OW23707   4.146   3.151   2.018  0.1364 -0.3356 -0.4988
 4025SOL    HW123708   4.144   3.127   1.925  1.4177  1.4936 -0.9976
 4025SOL    HW223709   4.164   3.067   2.061 -3.5846  0.3303  2.3176
 4026SOL     OW23710   2.281   1.008  14.417 -0.0428  0.0187 -0.0531
 4026SOL    HW123711   2.203   1.053  14.385  0.0034  0.1142 -0.0322
 4026SOL    HW223712   2.322   0.966  14.341 -0.3438 -1.2853  0.5032
 4027SOL     OW23713   2.851   2.826  17.109 -0.4111  0.1767  0.2567
 4027SOL    HW123714   2.786   2.880  17.063  0.0832 -0.6907 -1.4430
 4027SOL    HW223715   2.921   2.822  17.044 -1.4886  0.0020 -0.8972
 4028SOL     OW23716   3.776   4.651  13.151  0.9759 -0.3312 -0.2025
 4028SOL    HW123717   3.802   4.693  13.233 -1.0028  0.2842  0.1235
 4028SOL    HW223718   3.723   4.576  13.181  0.7474  0.6793  1.9073
 4029SOL     OW23719   3.308   1.515   8.578  0.2509  0.0323 -0.3023
 4029SOL    HW123720   3.274   1.439   8.627  0.7875  0.6365  1.0194
 4029SOL    HW223721   3.230   1.567   8.559  2.2139  1.3423 -4.6157
 4030SOL     OW23722   3.722   2.696   8.489  0.4649  0.1640  0.1568
 4030SOL    HW123723   3.738   2.671   8.580  0.9133  0.9795  0.3021
 4030SOL    HW223724   3.815   2.701   8.465  0.4748 -1.2044 -0.0931
 4031SOL     OW23725   2.186   3.703   4.712  0.0426  0.1231 -0.3508
 4031SOL    HW123726   2.193   3.660   4.797 -2.0092 -0.0583 -0.2655
 4031SOL    HW223727   2.104   3.667   4.678 -1.6865  3.6168  0.1856
 4032SOL     OW23728   1.443   2.316   3.356 -0.0446  0.1504 -0.4162
 4032SOL    HW123729   1.488   2.396   3.384  1.4096 -0.9510  0.3821
 4032SOL    HW223730   1.517   2.255   3.352 -0.5148 -0.3450 -1.5081
 4033SOL     OW23731   2.727   1.077  11.647  0.2862  0.6773 -0.4817
 4033SOL    HW123732   2.801   1.137  11.640 -0.0769  0.9660 -1.8207
 4033SOL    HW223733   2.698   1.079  11.556 -2.0660  2.8793  0.3270
 4034SOL     OW23734   4.592   0.952  16.599  0.0215 -0.0110 -0.4782
 4034SOL    HW123735   4.553   0.989  16.519  4.1562  0.9400 -2.0608
 4034SOL    HW223736   4.526   0.883  16.604  0.9348 -0.9517 -1.2792
 4035SOL     OW23737   3.765   2.083  13.447  0.5657  0.3643  0.3743
 4035SOL    HW123738   3.791   2.088  13.355  0.4903  2.3289  0.4610
 4035SOL    HW223739   3.695   2.018  13.454 -1.0325  1.9573 -0.9524
 4036SOL     OW23740   3.899   4.416   1.879  0.0023 -0.3180  0.5702
 4036SOL    HW123741   3.925   4.324   1.885  2.2499  0.1896 -1.3237
 4036SOL    HW223742   3.984   4.456   1.896 -1.1628  2.0503  0.8095
 4037SOL     OW23743   3.580   1.199  17.752  0.2909 -0.0024 -0.4546
 4037SOL    HW123744   3.658   1.251  17.770 -1.0331  1.8592 -0.0913
 4037SOL    HW223745   3.525   1.232   0.052  0.5349 -1.1089  0.2486
 4038SOL     OW23746   3.730   2.573   3.866  0.0020  0.2898  0.4594
 4038SOL    HW123747   3.743   2.653   3.814 -0.9082  0.8943  1.1781
 4038SOL    HW223748   3.719   2.511   3.793 -1.4687 -0.5451  1.4135
 4039SOL     OW23749   4.174   1.788  14.773 -0.0633  0.4201  0.4553
 4039SOL    HW123750   4.242   1.756  14.832 -1.6132 -3.5095  0.1180
 4039SOL    HW223751   4.170   1.877  14.808  0.3189 -0.2330  2.1710
 4040SOL     OW23752   4.320   2.854   9.711  0.1893 -0.7757  0.6119
 4040SOL    HW123753   4.242   2.879   9.662  0.7399 -1.0040 -0.3669
 4040SOL    HW223754   4.289   2.867   9.801 -2.6225 -0.4496 -0.3849
 4041SOL     OW23755   1.451   4.318   4.686 -0.3080  0.3343 -1.1138
 4041SOL    HW123756   1.463   4.391   4.626  0.1162  1.0824 -0.1216
 4041SOL    HW223757   1.491   4.352   4.767 -0.5080  1.6764 -1.5814
 4042SOL     OW23758   0.524   4.617   8.407 -0.1162 -0.1210  0.1734
 4042SOL    HW123759   0.573   4.553   8.459 -0.4784 -0.4086  0.1523
 4042SOL    HW223760   0.458   4.640   8.472 -0.4417  1.7342 -0.7976
 4043SOL     OW23761   2.550   0.900  13.152  0.6242  0.1880  0.4951
 4043SOL    HW123762   2.499   0.826  13.184  2.0914  0.4487  3.4295
 4043SOL    HW223763   2.642   0.884  13.173  0.6595  2.4825  2.0353
 4044SOL     OW23764   2.101   3.669  14.148 -0.1572 -0.4566  0.1015
 4044SOL    HW123765   2.029   3.652  14.088 -0.1571 -0.1424  0.0121
 4044SOL    HW223766   2.085   3.599  14.211  2.1336 -1.2143 -0.1648
 4045SOL     OW23767   4.241   0.256   3.421 -0.8058  0.7247  0.2470
 4045SOL    HW123768   4.176   0.324   3.409  0.6101  1.6559 -2.0748
 4045SOL    HW223769   4.210   0.185   3.477 -2.2087  1.3862  0.2908
 4046SOL     OW23770   3.437   2.324   5.454  0.5376 -0.1765 -0.4862
 4046SOL    HW123771   3.398   2.404   5.419 -1.3658 -0.6333  0.5824
 4046SOL    HW223772   3.407   2.252   5.398  0.3274  0.9439 -1.7990
 4047SOL     OW23773   1.802   0.394   7.507 -0.7643  0.0306 -0.3606
 4047SOL    HW123774   1.734   0.426   7.447 -1.3154 -0.9171 -0.2294
 4047SOL    HW223775   1.757   0.388   7.590 -1.4831  1.3936 -0.6610
 4048SOL     OW23776   1.339   1.554   5.032 -0.2305 -0.3875 -0.1596
 4048SOL    HW123777   1.327   1.547   4.937  1.4785  1.9626 -0.5498
 4048SOL    HW223778   1.371   1.644   5.033  0.5863 -0.6708 -0.0648
 4049SOL     OW23779   4.472   2.531   3.182 -0.4441  0.7471 -0.3553
 4049SOL    HW123780   4.526   2.549   3.104 -1.7606  4.0014 -0.5081
 4049SOL    HW223781   4.404   2.470   3.154  1.0650 -1.3718  0.6432
 4050SOL     OW23782   0.553   4.314   3.854 -0.0655 -0.2255 -0.1790
 4050SOL    HW123783   0.538   4.222   3.872  0.6908 -0.2537  0.3008
 4050SOL    HW223784   0.633   4.318   3.801 -0.4736  0.0749 -0.7760
 4051SOL     OW23785   1.151   3.883   8.398  0.4381  0.1617  0.1969
 4051SOL    HW123786   1.117   3.834   8.324  0.6561 -0.7806  0.7146
 4051SOL    HW223787   1.247   3.884   8.392  0.4301  0.6636  0.1479
 4052SOL     OW23788   3.025   0.978  11.487 -0.3821 -0.0051  0.2197
 4052SOL    HW123789   3.031   0.915  11.415  1.5563  1.2777 -0.7167
 4052SOL    HW223790   3.079   0.926  11.546 -0.4347 -0.4653 -0.1424
 4053SOL     OW23791   4.530   2.634   6.661  0.1319  0.8612  0.0991
 4053SOL    HW123792   4.514   2.649   6.568 -0.3791  1.1427  0.2342
 4053SOL    HW223793   4.622   2.660   6.658  0.0776  1.1143  0.5204
 4054SOL     OW23794   2.364   3.566   4.964 -0.0742 -0.2586 -0.0267
 4054SOL    HW123795   2.380   3.649   5.009 -2.7156 -0.8638  2.0408
 4054SOL    HW223796   2.420   3.587   4.889  1.4111 -0.3458  1.0676
 4055SOL     OW23797   0.879   2.939   1.794  0.8409  0.3178 -0.4638
 4055SOL    HW123798   0.820   3.014   1.799  1.5265  0.7101  1.9645
 4055SOL    HW223799   0.824   2.867   1.824  1.5293  0.7004  1.7696
 4056SOL     OW23800   4.131   2.058   7.438 -0.0272  0.2922  0.5325
 4056SOL    HW123801   4.178   1.985   7.478 -0.0287 -0.5377 -0.9632
 4056SOL    HW223802   4.040   2.045   7.468  0.3749  0.4721  1.8460
 4057SOL     OW23803   2.960   0.964   3.137 -0.1260  0.2239  0.2710
 4057SOL    HW123804   3.013   0.976   3.057 -1.2410 -2.5914 -0.8738
 4057SOL    HW223805   2.924   0.878   3.116  0.6122 -0.2675  1.0633
 4058SOL     OW23806   0.515   1.992   2.467  0.0205 -0.2166 -0.2497
 4058SOL    HW123807   0.443   2.055   2.460 -0.3666 -0.4737  1.4584
 4058SOL    HW223808   0.481   1.931   2.533 -0.1489 -0.7907 -0.8714
 4059SOL     OW23809   0.265   3.148   4.713 -0.0681  0.0667  0.4415
 4059SOL    HW123810   0.221   3.100   4.643  0.3515 -0.8291  0.7928
 4059SOL    HW223811   0.246   3.240   4.696  0.3653 -0.2883 -1.9019
 4060SOL     OW23812   1.775   0.841  13.588 -0.6380 -0.7007 -0.1986
 4060SOL    HW123813   1.696   0.828  13.535  1.0214 -0.8758 -2.6475
 4060SOL    HW223814   1.808   0.926  13.558  0.9661 -1.5343 -0.7973
 4061SOL     OW23815   3.933   0.594   4.167  0.2343 -0.0219 -0.3277
 4061SOL    HW123816   3.851   0.550   4.143 -0.4700  1.4784 -0.6678
 4061SOL    HW223817   3.956   0.641   4.087 -0.8151  1.4057  0.2044
 4062SOL     OW23818   0.776   2.325  16.149 -0.0354 -0.1950  0.1894
 4062SOL    HW123819   0.862   2.290  16.123 -0.6012 -1.2829 -0.2568
 4062SOL    HW223820   0.719   2.300  16.076 -1.4210  0.6581  0.9809
 4063SOL     OW23821   0.987   0.208   1.480 -0.1204 -0.3240  0.0204
 4063SOL    HW123822   0.950   0.126   1.516 -0.9466  0.4921  1.0336
 4063SOL    HW223823   1.047   0.178   1.411 -0.9103  2.3841 -1.8103
 4064SOL     OW23824   3.973   0.064   7.441 -0.2361  0.1478  0.5119
 4064SOL    HW123825   3.980   4.714   7.421  0.9815  0.4061 -0.2559
 4064SOL    HW223826   3.889   0.076   7.484 -0.1801  3.1633 -0.2340
 4065SOL     OW23827   0.238   2.740   8.734 -0.1002  0.1610  0.1379
 4065SOL    HW123828   0.160   2.794   8.730 -1.8915 -2.4769 -0.4674
 4065SOL    HW223829   0.203   2.658   8.768 -1.1477 -0.2345 -1.9272
 4066SOL     OW23830   4.007   3.293   5.480  0.1757  0.0744  0.4653
 4066SOL    HW123831   3.925   3.338   5.499  0.0254 -0.6521  1.5106
 4066SOL    HW223832   3.965   3.218   5.438  0.3467 -0.3827  1.1114
 4067SOL     OW23833   3.391   1.747  16.863 -0.3638  0.6638  0.1178
 4067SOL    HW123834   3.336   1.675  16.830 -2.1527  2.3566 -0.6094
 4067SOL    HW223835   3.393   1.805  16.787 -0.4094  2.4120  1.4551
 4068SOL     OW23836   3.783   3.908   4.675  0.1453 -0.0752 -0.6224
 4068SOL    HW123837   3.873   3.894   4.646  0.4773 -0.9335  0.8323
 4068SOL    HW223838   3.742   3.823   4.688 -0.5893  1.0053  3.9845
 4069SOL     OW23839   0.600   2.800   0.990  0.1640  0.0031  0.0296
 4069SOL    HW123840   0.621   2.733   0.924  2.9956  0.2814  0.6458
 4069SOL    HW223841   0.541   2.856   0.940  1.2815  1.7653  0.6617
 4070SOL     OW23842   4.359   1.674   0.288 -0.1098 -0.4414 -0.0617
 4070SOL    HW123843   4.363   1.580   0.268  5.2739 -0.4396  1.0979
 4070SOL    HW223844   4.375   1.706   0.200 -2.8104  0.2258 -0.3220
 4071SOL     OW23845   1.704   2.531   6.531  0.3328 -0.3858 -0.2314
 4071SOL    HW123846   1.669   2.455   6.579  0.5814 -0.4966 -0.2250
 4071SOL    HW223847   1.638   2.599   6.545  1.3444  0.7160 -0.8923
 4072SOL     OW23848   3.959   2.061   2.975  0.2195 -0.3338 -0.2040
 4072SOL    HW123849   3.994   1.973   2.987  0.1161 -0.0460  2.2707
 4072SOL    HW223850   4.028   2.101   2.922  0.7976  0.5345  1.1908
 4073SOL     OW23851   0.452   0.210  17.515 -0.1866 -0.0093 -0.0231
 4073SOL    HW123852   0.535   0.247  17.546 -0.8579  2.5230 -1.1829
 4073SOL    HW223853   0.480   0.127  17.476  2.3339  0.7549  0.1467
 4074SOL     OW23854   4.057   4.024   8.379 -0.5862  0.9589 -0.4148
 4074SOL    HW123855   4.122   3.972   8.427 -0.7292  0.1206 -1.1254
 4074SOL    HW223856   4.059   4.104   8.430 -2.4371  0.2853  0.7129
 4075SOL     OW23857   0.326   2.590   6.291 -0.4141 -0.1694 -0.1362
 4075SOL    HW123858   0.416   2.601   6.263 -1.0949  1.2426 -1.7712
 4075SOL    HW223859   0.338   2.564   6.382 -0.5474  1.5352  0.3772
 4076SOL     OW23860   3.504   2.465   2.906 -0.2479 -0.1673  0.4258
 4076SOL    HW123861   3.481   2.553   2.936  0.6538  0.4697 -0.7358
 4076SOL    HW223862   3.465   2.460   2.819  3.2168 -0.1243 -1.1538
 4077SOL     OW23863   3.174   1.324  13.846 -0.3638  0.7915  0.2438
 4077SOL    HW123864   3.185   1.298  13.937  1.5307 -2.0046 -0.7736
 4077SOL    HW223865   3.092   1.373  13.846 -1.0625 -0.3723 -0.3907
 4078SOL     OW23866   0.109   1.958   7.652 -0.4282 -0.0449 -0.5242
 4078SOL    HW123867   0.127   2.052   7.643  0.3169 -0.0864  0.6229
 4078SOL    HW223868   0.052   1.946   7.576 -1.4082  0.0527  0.1951
 4079SOL     OW23869   4.515   3.843   8.738 -0.3328 -0.3256 -0.4477
 4079SOL    HW123870   4.593   3.804   8.699 -0.7393 -0.9749 -0.6083
 4079SOL    HW223871   4.490   3.776   8.802  0.1326  0.6666  0.7707
 4080SOL     OW23872   0.709   3.780  14.455 -0.2017 -0.2674  0.5136
 4080SOL    HW123873   0.706   3.760  14.361  0.7185 -0.3584  0.5037
 4080SOL    HW223874   0.715   3.874  14.471  0.9669 -0.6811  2.5485
 4081SOL     OW23875   3.341   2.355   8.358 -0.1802 -0.4443  0.3283
 4081SOL    HW123876   3.278   2.419   8.392 -1.2737 -0.7733 -1.0639
 4081SOL    HW223877   3.337   2.286   8.424  1.5415 -0.0584  0.8349
 4082SOL     OW23878   2.923   1.951   3.011 -0.3529  0.5870 -0.0624
 4082SOL    HW123879   2.894   1.920   3.097 -0.4509 -1.1463 -0.7311
 4082SOL    HW223880   2.946   2.041   3.032  0.3722  0.2553  0.5691
 4083SOL     OW23881   3.655   2.381  15.697 -0.3158 -0.4688 -0.0730
 4083SOL    HW123882   3.587   2.416  15.754 -1.9202 -2.0757 -0.9961
 4083SOL    HW223883   3.604   2.324  15.640 -0.9002  0.2083 -0.2220
 4084SOL     OW23884   0.925   4.341   6.294 -0.4273  1.1210 -0.5890
 4084SOL    HW123885   0.832   4.322   6.279 -0.7611  2.0367  0.2913
 4084SOL    HW223886   0.962   4.255   6.308 -1.1504  1.0420  0.9159
 4085SOL     OW23887   0.075   3.588   5.868 -0.1292  0.5964  0.3468
 4085SOL    HW123888   0.018   3.599   5.944 -0.9359 -0.8968 -0.0506
 4085SOL    HW223889   0.107   3.678   5.861  4.0781 -0.9860 -0.7840
 4086SOL     OW23890   2.134   3.661   2.754 -0.2246 -0.1345  0.0225
 4086SOL    HW123891   2.171   3.713   2.683 -1.7582  0.6390 -0.2200
 4086SOL    HW223892   2.060   3.625   2.705 -0.9600  3.5305 -1.5820
 4087SOL     OW23893   2.263   1.533   5.275  0.6490 -0.4543 -1.0471
 4087SOL    HW123894   2.233   1.475   5.205  0.0492  1.1534 -2.1297
 4087SOL    HW223895   2.233   1.619   5.245  3.3488  0.3482 -1.4332
 4088SOL     OW23896   0.863   1.730   2.089  0.7117  0.5123  0.0130
 4088SOL    HW123897   0.779   1.707   2.129  1.0665  0.4786  0.7457
 4088SOL    HW223898   0.910   1.734   2.172 -1.8246  0.3924  1.4507
 4089SOL     OW23899   2.765   2.180   8.194 -0.1517 -0.0190 -0.2462
 4089SOL    HW123900   2.834   2.200   8.131  0.6299 -0.6568  0.4134
 4089SOL    HW223901   2.695   2.225   8.147  0.8323  0.7060 -1.0020
 4090SOL     OW23902   4.582   3.687  16.259  0.0287 -0.1890 -0.5294
 4090SOL    HW123903   4.555   3.648  16.176  0.0034  0.8329 -1.0114
 4090SOL    HW223904   4.645   3.621  16.286 -1.3473 -0.6919  1.4281
 4091SOL     OW23905   2.892   1.320   6.290 -0.2026 -0.2062 -0.2732
 4091SOL    HW123906   2.824   1.385   6.280 -2.0227 -2.0969 -0.2187
 4091SOL    HW223907   2.868   1.265   6.216 -2.2745 -1.4371  1.3124
 4092SOL     OW23908   3.137   1.203  11.801  0.2904 -0.0242 -0.6360
 4092SOL    HW123909   3.153   1.295  11.824 -0.9469 -0.7086  2.9736
 4092SOL    HW223910   3.220   1.161  11.824  0.1032 -0.0480 -0.0188
 4093SOL     OW23911   1.398   4.009   4.038 -0.5729  0.4604 -0.2042
 4093SOL    HW123912   1.360   4.094   4.018 -0.9990  0.3905  0.3215
 4093SOL    HW223913   1.485   4.026   4.000 -0.3034  1.1899  0.7431
 4094SOL     OW23914   4.558   3.236   3.516 -1.0568  0.4499 -0.0760
 4094SOL    HW123915   4.506   3.297   3.569  0.6127 -0.3908  2.5420
 4094SOL    HW223916   4.494   3.182   3.470 -0.4778  0.6088 -1.0596
 4095SOL     OW23917   4.201   3.489   9.094  0.1527 -0.1288  0.6030
 4095SOL    HW123918   4.212   3.397   9.116  1.3325 -0.4032 -1.1090
 4095SOL    HW223919   4.117   3.506   9.137  0.8757  3.8214  0.4961
 4096SOL     OW23920   4.166   0.959   1.205  0.1710 -0.1886  0.4256
 4096SOL    HW123921   4.076   0.938   1.179 -0.6924  2.2269  1.4937
 4096SOL    HW223922   4.203   0.889   1.259 -0.0792 -0.9378 -0.3651
 4097SOL     OW23923   4.583   4.089   1.875  0.3429 -0.4026  0.2885
 4097SOL    HW123924   4.615   4.111   1.787 -0.3952 -0.7953 -0.0769
 4097SOL    HW223925   4.534   4.169   1.895  1.6551  0.7436 -1.0158
 4098SOL     OW23926   2.783   0.011   5.198 -0.4185 -0.2186  0.6637
 4098SOL    HW123927   2.774   0.071   5.273 -0.6721  1.9690 -1.1253
 4098SOL    HW223928   2.866   0.041   5.161  1.1354 -1.4400  3.1020
 4099SOL     OW23929   3.256   1.753   8.945  0.1878  0.4635  0.3273
 4099SOL    HW123930   3.218   1.770   9.032 -1.1982 -1.9980  0.1858
 4099SOL    HW223931   3.195   1.801   8.889  1.4953 -2.5326 -3.6625
 4100SOL     OW23932   0.814   4.276  10.080 -0.0421 -0.8411  0.5701
 4100SOL    HW123933   0.784   4.219  10.008  0.8910  1.6530 -1.7898
 4100SOL    HW223934   0.909   4.278  10.070  0.1147 -0.0065  2.3722
 4101SOL     OW23935   1.678   0.398   4.337  0.3407 -0.2905 -0.0396
 4101SOL    HW123936   1.606   0.341   4.311  0.7756 -1.4945  1.4326
 4101SOL    HW223937   1.728   0.413   4.257  2.3191  0.2659  1.3253
 4102SOL     OW23938   4.440   3.610   2.991 -0.0685  0.6083 -0.3666
 4102SOL    HW123939   4.404   3.609   3.080  0.8504  3.5115  0.0331
 4102SOL    HW223940   4.518   3.553   2.994 -0.6635 -0.2378 -0.8432
 4103SOL     OW23941   2.770   2.750  15.212  0.2628  0.0507  0.0949
 4103SOL    HW123942   2.679   2.721  15.214  0.9153 -1.8660  1.8270
 4103SOL    HW223943   2.759   2.807  15.136 -0.7771 -0.7616 -0.3678
 4104SOL     OW23944   4.562   3.196   0.695 -0.1558 -0.1630  0.0864
 4104SOL    HW123945   4.601   3.238   0.771 -1.4143  0.4110  0.4171
 4104SOL    HW223946   4.618   3.118   0.689 -1.7939 -1.3026 -0.4125
 4105SOL     OW23947   0.381   3.322   9.554 -0.1909  0.2735 -0.0432
 4105SOL    HW123948   0.314   3.390   9.553 -0.6414 -0.1832 -0.9621
 4105SOL    HW223949   0.396   3.313   9.648  0.1803 -0.1672 -0.1400
 4106SOL     OW23950   1.109   4.360  11.910 -0.1886 -0.1685  0.2026
 4106SOL    HW123951   1.055   4.282  11.921  1.2902 -1.3981 -1.3148
 4106SOL    HW223952   1.130   4.360  11.817  2.3980 -1.5019  0.7911
 4107SOL     OW23953   4.608   2.869   8.981 -0.2415  0.1072 -0.2490
 4107SOL    HW123954   4.647   2.839   9.063  2.1092 -0.1219 -1.4617
 4107SOL    HW223955   4.630   2.794   8.925 -2.7443  0.4418 -1.6835
 4108SOL     OW23956   3.321   1.834   3.540 -1.1356 -0.0444 -0.7694
 4108SOL    HW123957   3.255   1.787   3.592  1.4610 -1.3350  1.3324
 4108SOL    HW223958   3.332   1.907   3.601  0.9206 -0.5998 -0.4962
 4109SOL     OW23959   4.071   1.719   7.069 -0.1334  0.0740 -0.1106
 4109SOL    HW123960   4.118   1.637   7.056  0.0901  0.2836 -0.6215
 4109SOL    HW223961   4.118   1.733   7.151  0.8120  1.5518 -0.8937
 4110SOL     OW23962   2.201   0.966   3.830  0.4601 -0.1354 -0.3574
 4110SOL    HW123963   2.110   0.982   3.806  0.4708  0.0306 -0.2916
 4110SOL    HW223964   2.222   0.884   3.787 -0.3881  0.6320 -2.2318
 4111SOL     OW23965   0.117   2.127  15.215  0.0336 -0.1640 -0.5836
 4111SOL    HW123966   0.129   2.174  15.133 -0.0437  1.1761  0.1582
 4111SOL    HW223967   0.190   2.155  15.270 -0.9867  2.6294 -0.6642
 4112SOL     OW23968   0.527   2.923   5.602 -0.2230  0.1118  0.3253
 4112SOL    HW123969   0.525   2.827   5.604 -0.9323  0.1083 -1.0936
 4112SOL    HW223970   0.452   2.932   5.543 -0.0315 -0.0195  0.0590
 4113SOL     OW23971   3.357   1.515  13.174 -0.2903  0.3455 -0.3047
 4113SOL    HW123972   3.349   1.605  13.204  0.6615  0.1761  0.4853
 4113SOL    HW223973   3.450   1.503  13.197 -0.4409  1.3977  0.8448
 4114SOL     OW23974   3.573   1.618   5.382 -0.0096 -0.4099  0.1405
 4114SOL    HW123975   3.637   1.586   5.318  1.3662  2.9846 -0.2086
 4114SOL    HW223976   3.510   1.546   5.384 -0.6823  0.1200 -1.8011
 4115SOL     OW23977   2.072   4.194   7.903 -0.6864  0.1343  0.3462
 4115SOL    HW123978   2.140   4.241   7.855  0.8509 -0.5235  1.8917
 4115SOL    HW223979   2.128   4.180   7.980 -3.1458  0.0187  2.1355
 4116SOL     OW23980   3.242   4.660  10.753 -0.2933  0.0748 -0.3309
 4116SOL    HW123981   3.216   4.654  10.661  1.6785  0.7962 -0.9327
 4116SOL    HW223982   3.329   4.625  10.734  1.1193  3.6333 -0.4337
 4117SOL     OW23983   2.972   1.562   8.785 -0.0738  0.4952 -0.1972
 4117SOL    HW123984   2.996   1.506   8.859 -0.3813  2.6968  1.5640
 4117SOL    HW223985   2.935   1.640   8.825 -0.5499 -0.1578  0.6456
 4118SOL     OW23986   3.396   3.898   1.453  0.2157 -0.1484 -0.5165
 4118SOL    HW123987   3.346   3.820   1.431  2.2802 -1.1744 -1.6158
 4118SOL    HW223988   3.408   3.891   1.548  1.8170 -2.6465 -0.8858
 4119SOL     OW23989   3.592   0.730   0.742 -0.1276  0.0663  0.4695
 4119SOL    HW123990   3.645   0.690   0.811  0.9283  0.6342 -0.0149
 4119SOL    HW223991   3.637   0.690   0.668 -0.5748  0.1850  0.1308
 4120SOL     OW23992   3.806   2.717   4.327 -0.3331  0.1030  0.2815
 4120SOL    HW123993   3.716   2.697   4.301 -1.0410  1.6344  1.6088
 4120SOL    HW223994   3.851   2.641   4.288  0.5265  0.2287  1.0327
 4121SOL     OW23995   1.139   2.617   3.885  0.1292  0.2550 -0.5100
 4121SOL    HW123996   1.052   2.651   3.863 -0.2060 -2.2526 -3.1850
 4121SOL    HW223997   1.125   2.577   3.971  0.7684 -0.0043 -0.5273
 4122SOL     OW23998   2.082   3.179  16.376 -0.2946 -0.5150 -0.1957
 4122SOL    HW123999   2.047   3.233  16.305 -0.0029  2.5690  1.9998
 4122SOL    HW224000   2.127   3.249  16.424 -0.2035  0.3033 -1.4689
 4123SOL     OW24001   2.271   3.943   4.578  0.3338 -0.4727  0.4068
 4123SOL    HW124002   2.262   3.893   4.659  1.9274  0.7503  1.3418
 4123SOL    HW224003   2.184   3.960   4.541 -0.5933 -0.6221  2.5123
 4124SOL     OW24004   2.540   4.407   3.761  0.0096  0.1782  0.0594
 4124SOL    HW124005   2.451   4.412   3.726 -0.0915 -0.5047  0.2135
 4124SOL    HW224006   2.578   4.323   3.738 -0.5727  0.9765 -3.8678
 4125SOL     OW24007   4.531   2.916   8.306  0.3446 -0.6281 -0.1331
 4125SOL    HW124008   4.515   3.008   8.326 -0.7814 -1.0535  0.9015
 4125SOL    HW224009   4.530   2.927   8.210  2.3950 -0.2262 -0.1074
 4126SOL     OW24010   3.787   1.375  17.732 -0.0670  0.8026  0.4937
 4126SOL    HW124011   3.872   1.394   0.003 -0.8777  3.1037  1.1308
 4126SOL    HW224012   3.750   1.463  17.731 -1.6023  0.1368 -0.1820
 4127SOL     OW24013   3.628   2.710   7.910 -0.7247 -0.7436  0.0459
 4127SOL    HW124014   3.723   2.725   7.909 -0.6590 -1.2218 -1.6420
 4127SOL    HW224015   3.628   2.620   7.877 -1.6379 -0.2180 -1.3856
 4128SOL     OW24016   1.227   3.485   8.700  0.0447  0.7278  0.2107
 4128SOL    HW124017   1.167   3.414   8.676 -0.5988  0.4517  2.6961
 4128SOL    HW224018   1.167   3.531   8.758 -1.1949 -0.9504  0.2776
 4129SOL     OW24019   4.440   3.674  15.178  0.2113  0.0535 -0.2649
 4129SOL    HW124020   4.454   3.702  15.268 -2.1140 -0.8131  0.3824
 4129SOL    HW224021   4.393   3.752  15.148  2.9360  1.5311 -0.6512
 4130SOL     OW24022   1.533   2.865   4.509 -0.5688  0.1248 -0.2072
 4130SOL    HW124023   1.605   2.803   4.517 -0.0443  0.8064  0.3956
 4130SOL    HW224024   1.503   2.826   4.427  2.4528 -1.4303 -0.5843
 4131SOL     OW24025   0.537   0.796  12.210  0.3912 -0.4231 -0.5098
 4131SOL    HW124026   0.481   0.809  12.134  0.6426 -0.2082 -0.6573
 4131SOL    HW224027   0.614   0.848  12.187 -0.8584  1.7593  0.1652
 4132SOL     OW24028   3.108   0.455   5.598 -0.3893 -0.4753 -0.1542
 4132SOL    HW124029   3.103   0.370   5.642 -1.7678 -0.9400 -1.2283
 4132SOL    HW224030   3.093   0.522   5.664  2.6941 -1.1866  1.2847
 4133SOL     OW24031   3.592   2.246   1.700 -0.1183  0.2195 -0.0939
 4133SOL    HW124032   3.511   2.297   1.696 -1.3502 -1.8757 -1.3827
 4133SOL    HW224033   3.592   2.195   1.619  0.8706 -1.5290  1.0134
 4134SOL     OW24034   1.283   3.661  14.230 -0.4208 -0.6123 -0.0248
 4134SOL    HW124035   1.197   3.704  14.223 -0.4034 -0.6452 -0.4415
 4134SOL    HW224036   1.342   3.733  14.208 -1.4488 -0.1852 -1.4290
 4135SOL     OW24037   0.736   2.050   2.178 -0.1443  0.5659  0.1941
 4135SOL    HW124038   0.648   2.032   2.209 -1.1847  2.4136 -1.6616
 4135SOL    HW224039   0.763   1.965   2.143  2.0730  1.0632  0.6809
 4136SOL     OW24040   0.204   2.931   9.002 -0.2101  0.4130 -0.0859
 4136SOL    HW124041   0.160   3.015   8.988 -2.3462 -0.7875 -0.3954
 4136SOL    HW224042   0.245   2.921   8.916 -0.5885  1.3411 -0.3794
 4137SOL     OW24043   0.275   2.157   2.505 -0.4364  0.2809 -0.1559
 4137SOL    HW124044   0.199   2.142   2.450 -0.8958  0.8734  0.3187
 4137SOL    HW224045   0.281   2.253   2.507 -1.2467  0.3277 -0.0461
 4138SOL     OW24046   0.382   1.032   1.796 -0.6226 -0.1315 -1.0565
 4138SOL    HW124047   0.456   1.069   1.747  1.3549  0.5800  2.5117
 4138SOL    HW224048   0.310   1.086   1.764 -2.1490  0.1006  2.8066
 4139SOL     OW24049   2.583   4.646   7.077  0.0979 -0.3699  0.0025
 4139SOL    HW124050   2.636   4.573   7.045  0.5528  1.1370 -2.6943
 4139SOL    HW224051   2.501   4.597   7.078  1.0737 -1.9087  1.9313
 4140SOL     OW24052   3.887   2.039   2.661  0.4360  0.4846  0.3357
 4140SOL    HW124053   3.919   2.079   2.742  1.3409 -1.6863  1.0577
 4140SOL    HW224054   3.792   2.039   2.673  0.2497  1.0974 -1.2551
 4141SOL     OW24055   2.486   1.797   1.233  0.2131  0.1002 -0.1830
 4141SOL    HW124056   2.438   1.805   1.151  0.9431 -1.6637 -0.7690
 4141SOL    HW224057   2.509   1.886   1.259  0.3280 -0.0955  0.4017
 4142SOL     OW24058   0.973   4.463   9.073 -0.0998  0.2075 -0.1852
 4142SOL    HW124059   1.018   4.411   9.139 -0.0726  0.7565  0.2281
 4142SOL    HW224060   0.893   4.478   9.124  0.7837 -3.9132  2.3993
 4143SOL     OW24061   2.025   2.088   3.270 -0.0576  0.7238  0.0721
 4143SOL    HW124062   2.006   2.071   3.362  1.0816  1.9466  0.5343
 4143SOL    HW224063   2.009   2.182   3.261  0.1694  0.9306  1.7930
 4144SOL     OW24064   3.991   2.962   3.007 -0.1756  0.3651  0.2360
 4144SOL    HW124065   4.078   2.980   2.971  0.4450 -2.2562  0.4734
 4144SOL    HW224066   3.938   2.946   2.929  1.8536 -1.5795 -0.7286
 4145SOL     OW24067   2.313   0.375   9.287 -0.5503  0.1059 -0.0912
 4145SOL    HW124068   2.366   0.454   9.277 -0.7544  0.4748  1.6922
 4145SOL    HW224069   2.375   0.309   9.256  0.1172  0.0283  1.4064
 4146SOL     OW24070   4.363   1.783   6.953  0.7921 -0.1664  0.2392
 4146SOL    HW124071   4.360   1.766   6.858  0.8044  2.2979 -0.1948
 4146SOL    HW224072   4.347   1.877   6.946  1.1498 -0.0704  0.7767
 4147SOL     OW24073   3.435   1.957   3.161  0.2096 -0.2210  0.3297
 4147SOL    HW124074   3.355   1.949   3.108 -0.1020  0.3646  0.7050
 4147SOL    HW224075   3.454   2.043   3.125 -0.1683 -0.5795 -0.7152
 4148SOL     OW24076   3.300   2.865   3.810  0.0351  0.7428 -0.2890
 4148SOL    HW124077   3.231   2.930   3.829 -1.5823 -0.6213 -1.5069
 4148SOL    HW224078   3.239   2.792   3.798  1.4037 -0.5372  0.6755
 4149SOL     OW24079   4.330   2.258   8.146  0.1121 -0.0497  0.0724
 4149SOL    HW124080   4.307   2.222   8.060  1.3789 -0.3866 -0.1258
 4149SOL    HW224081   4.402   2.199   8.165 -1.9486 -1.5782  3.0850
 4150SOL     OW24082   4.619   3.887   6.306  0.1229 -0.6664  0.4559
 4150SOL    HW124083   4.704   3.866   6.268  0.7880  0.9934  1.0329
 4150SOL    HW224084   4.570   3.897   6.224 -1.8857  0.1233  1.7584
 4151SOL     OW24085   0.621   1.039   5.812 -0.1657 -0.2214 -0.0496
 4151SOL    HW124086   0.675   0.965   5.787 -0.3166  0.0866 -1.2752
 4151SOL    HW224087   0.631   1.030   5.907 -0.5019  1.3987  0.1371
 4152SOL     OW24088   3.038   0.765   8.432  0.3188 -0.2694  0.6127
 4152SOL    HW124089   3.044   0.773   8.337  4.3633 -0.6852  0.8675
 4152SOL    HW224090   2.966   0.822   8.460  2.9257  0.9733  4.6908
 4153SOL     OW24091   0.506   3.743   0.083 -0.2565  0.1239  0.0090
 4153SOL    HW124092   0.536   3.653   0.098 -0.7610 -0.1112 -0.4058
 4153SOL    HW224093   0.453   3.738   0.003  1.5467 -0.3523 -1.1507
 4154SOL     OW24094   0.666   4.000   4.940  0.0291 -1.1861 -0.4130
 4154SOL    HW124095   0.576   4.028   4.927  0.7620  1.2573 -0.1268
 4154SOL    HW224096   0.716   4.080   4.956 -0.4102 -0.6061 -1.9802
 4155SOL     OW24097   1.174   3.664  16.959  0.2166  0.2155 -0.5887
 4155SOL    HW124098   1.172   3.687  17.052 -0.7660  1.3580 -0.8865
 4155SOL    HW224099   1.144   3.573  16.965 -0.3331  0.4961  0.9737
 4156SOL     OW24100   1.914   0.353   8.993  0.0776  0.1934  0.3185
 4156SOL    HW124101   1.998   0.371   8.951 -0.6267  0.9727 -0.7412
 4156SOL    HW224102   1.888   0.271   8.951 -1.5047  0.4765  0.7822
 4157SOL     OW24103   4.265   1.987   7.196  0.7597  0.3961 -0.1932
 4157SOL    HW124104   4.317   1.910   7.221  0.5151 -0.3590 -2.0110
 4157SOL    HW224105   4.226   2.002   7.282  2.5343  0.4030  0.6271
 4158SOL     OW24106   1.924   3.482   2.911 -0.8279  0.4218  0.4308
 4158SOL    HW124107   1.981   3.410   2.884 -0.0527  0.5094  1.8508
 4158SOL    HW224108   1.983   3.557   2.909  0.0824 -0.2997  0.2150
 4159SOL     OW24109   0.449   0.939  14.105  0.2668  0.7083  0.0982
 4159SOL    HW124110   0.452   0.916  14.198  0.1151 -0.6276 -0.2315
 4159SOL    HW224111   0.540   0.926  14.079 -0.1707 -2.5168  0.2645
 4160SOL     OW24112   1.506   0.264   2.428 -0.1569  0.2061 -0.2962
 4160SOL    HW124113   1.486   0.262   2.335  1.4830 -3.0058 -0.5826
 4160SOL    HW224114   1.454   0.342   2.445 -1.3755 -0.4789 -0.8959
 4161SOL     OW24115   0.304   4.613   3.569  0.2499 -0.4810 -0.8880
 4161SOL    HW124116   0.349   4.576   3.645  1.7008  0.6445 -1.1879
 4161SOL    HW224117   0.290   4.698   3.612 -0.8232 -0.3993 -1.4066
 4162SOL     OW24118   0.984   1.819   8.205 -0.7300 -0.0028  0.6332
 4162SOL    HW124119   1.046   1.785   8.268 -0.4650 -0.4322  0.1407
 4162SOL    HW224120   1.042   1.840   8.132 -3.4677  0.3928 -1.4307
 4163SOL     OW24121   1.309   0.583  12.047  0.1457 -0.0223 -0.7630
 4163SOL    HW124122   1.225   0.610  12.010  0.1638  0.8034 -0.2262
 4163SOL    HW224123   1.334   0.661  12.097 -1.1512 -0.9058  1.2479
 4164SOL     OW24124   4.297   0.153  10.337  0.4981 -0.2733  0.4345
 4164SOL    HW124125   4.356   0.128  10.266 -0.5861 -0.2474 -0.4735
 4164SOL    HW224126   4.355   0.216  10.380 -1.5510  1.7249  0.2876
 4165SOL     OW24127   2.609   2.349   9.080 -0.1827 -0.0002  0.4295
 4165SOL    HW124128   2.703   2.333   9.065  0.0244  0.9433  0.7076
 4165SOL    HW224129   2.612   2.410   9.153  2.7966  0.9446 -0.4652
 4166SOL     OW24130   4.096   3.359   1.768 -0.0003  0.2852 -0.3203
 4166SOL    HW124131   4.070   3.319   1.851 -0.4217 -0.3303 -0.7541
 4166SOL    HW224132   4.189   3.337   1.765 -0.3908 -1.4763  0.3312
 4167SOL     OW24133   3.351   4.657   3.024 -0.1470 -0.0365 -0.2683
 4167SOL    HW124134   3.362   0.003   2.992 -1.4625 -0.1582 -1.0679
 4167SOL    HW224135   3.268   4.669   3.069  1.2162 -1.8023  2.6908
 4168SOL     OW24136   2.565   0.847  17.527 -1.2451 -0.0431 -0.2970
 4168SOL    HW124137   2.642   0.816  17.574 -2.6432 -3.2473 -0.1352
 4168SOL    HW224138   2.561   0.802  17.442  0.9595 -0.3107 -0.2666
 4169SOL     OW24139   3.743   3.886   2.747  0.1638  0.4191  0.4745
 4169SOL    HW124140   3.678   3.817   2.729  2.8523 -2.2045  0.8176
 4169SOL    HW224141   3.696   3.969   2.758  1.3580  1.1524  0.0036
 4170SOL     OW24142   4.638   1.863  12.329  0.4460 -0.3591  0.0547
 4170SOL    HW124143   4.674   1.932  12.275  0.4240  0.3151  0.8966
 4170SOL    HW224144   4.702   1.797  12.301  1.1604 -0.3681  1.6819
 4171SOL     OW24145   2.777   2.229   7.533 -0.1301 -0.3518  0.3674
 4171SOL    HW124146   2.739   2.223   7.446  2.3172  1.2419 -0.8274
 4171SOL    HW224147   2.871   2.222   7.517 -0.2758 -0.6110 -0.3579
 4172SOL     OW24148   4.443   3.298  15.536  0.2416 -0.4503  0.4090
 4172SOL    HW124149   4.454   3.364  15.604  0.1519  1.8867 -1.8222
 4172SOL    HW224150   4.409   3.349  15.462  2.9178  1.9190  0.7948
 4173SOL     OW24151   2.136   1.717  11.691  0.0442  0.3719  0.0872
 4173SOL    HW124152   2.117   1.655  11.761 -0.4060 -0.3492 -0.6868
 4173SOL    HW224153   2.229   1.729  11.711 -0.7122  1.3522  3.0946
 4174SOL     OW24154   0.424   4.725   6.167 -0.3605 -0.6867  0.4564
 4174SOL    HW124155   0.337   4.730   6.207 -1.6074  2.0528 -2.6316
 4174SOL    HW224156   0.428   0.054   6.105  0.1194  0.6503  2.0428
 4175SOL     OW24157   0.130   3.649  14.579 -0.4340 -0.0944  0.3170
 4175SOL    HW124158   0.113   3.559  14.552  0.0813  0.1096 -0.6856
 4175SOL    HW224159   0.076   3.654  14.658 -0.0149 -0.1983  0.6094
 4176SOL     OW24160   1.599   1.596  10.638  0.2792  0.2225  0.1791
 4176SOL    HW124161   1.557   1.615  10.722 -0.5475 -2.2768  0.3350
 4176SOL    HW224162   1.628   1.683  10.610 -0.1959  1.2912  2.9816
 4177SOL     OW24163   2.128   2.561  11.214 -0.2052 -0.2977 -0.7229
 4177SOL    HW124164   2.056   2.520  11.261 -0.2021 -0.1897 -0.6237
 4177SOL    HW224165   2.088   2.645  11.195  2.3533  0.4423 -2.8452
 4178SOL     OW24166   1.340   2.135   8.807 -0.2437  0.2705 -0.0925
 4178SOL    HW124167   1.291   2.096   8.735 -0.3773 -0.6204  0.4806
 4178SOL    HW224168   1.424   2.091   8.793  0.1478  0.8391  0.4835
 4179SOL     OW24169   3.421   0.904   8.981  0.6084  0.1687  0.3060
 4179SOL    HW124170   3.479   0.830   8.963  2.0806  1.5189 -0.4572
 4179SOL    HW224171   3.465   0.956   9.049  0.3695  1.4528 -0.5282
 4180SOL     OW24172   1.329   2.160   6.189 -0.7562  0.3170  0.2311
 4180SOL    HW124173   1.329   2.080   6.136 -0.3478  0.0978  0.5649
 4180SOL    HW224174   1.399   2.129   6.246  0.5283 -1.0570 -2.1062
 4181SOL     OW24175   1.450   0.290   0.483  0.0030 -0.1051 -0.0803
 4181SOL    HW124176   1.515   0.327   0.424 -0.4803 -1.2272 -1.3017
 4181SOL    HW224177   1.515   0.254   0.544 -1.0533 -0.8065  0.6232
 4182SOL     OW24178   2.622   0.161   8.762 -0.7834 -0.1427 -0.4765
 4182SOL    HW124179   2.702   0.109   8.774 -0.1969  0.9739  0.4195
 4182SOL    HW224180   2.619   0.177   8.668  0.7898 -0.7998 -0.6402
 4183SOL     OW24181   4.529   3.706   3.874 -0.4059  0.0638  0.5505
 4183SOL    HW124182   4.590   3.654   3.822 -0.6052 -1.3864  1.7576
 4183SOL    HW224183   4.544   3.658   3.956  2.4954  2.4803  1.4214
 4184SOL     OW24184   4.321   2.355   2.484 -0.1196 -0.3939  0.6823
 4184SOL    HW124185   4.233   2.322   2.465 -0.0191  1.7461 -3.3383
 4184SOL    HW224186   4.371   2.274   2.474  0.5073  0.0856 -0.0684
 4185SOL     OW24187   2.314   4.577   2.030 -0.3326 -0.3230  0.1422
 4185SOL    HW124188   2.366   4.522   2.088  0.4686  0.7340  0.4394
 4185SOL    HW224189   2.293   4.509   1.966  0.8111  0.4039 -1.0178
 4186SOL     OW24190   1.743   3.904  17.658 -0.3131  0.2336  0.2302
 4186SOL    HW124191   1.681   3.938  17.724 -0.0366 -0.7768  1.0030
 4186SOL    HW224192   1.756   3.991  17.619  1.1740  0.2191  0.7056
 4187SOL     OW24193   4.070   1.175   2.914  0.1579  0.4790 -0.1767
 4187SOL    HW124194   4.031   1.260   2.890 -3.1472 -1.7228 -2.7520
 4187SOL    HW224195   4.002   1.121   2.872  0.6973 -1.7764  1.8570
 4188SOL     OW24196   4.170   3.130   4.624  0.1249 -0.1624  0.6670
 4188SOL    HW124197   4.112   3.151   4.551  0.3281 -0.2764  0.4708
 4188SOL    HW224198   4.115   3.154   4.698  1.7777 -0.4504  1.9864
 4189SOL     OW24199   4.514   3.829   2.760 -0.2145  0.4201 -0.8584
 4189SOL    HW124200   4.449   3.863   2.699  0.7126  0.6281 -1.7475
 4189SOL    HW224201   4.467   3.780   2.827  0.7106  0.8937  0.1479
 4190SOL     OW24202   3.885   3.168  14.688  0.4439  0.5007  0.3179
 4190SOL    HW124203   3.929   3.180  14.604  0.4587  3.0259  0.7084
 4190SOL    HW224204   3.900   3.074  14.702  1.9072  0.4076 -1.7970
 4191SOL     OW24205   1.222   2.624  10.590  0.3855  0.0309  0.0290
 4191SOL    HW124206   1.155   2.686  10.618 -1.5300 -2.4782  0.9408
 4191SOL    HW224207   1.266   2.602  10.672  0.0115  0.9536  0.4842
 4192SOL     OW24208   4.587   4.341   2.516  0.0486  0.6278 -0.3352
 4192SOL    HW124209   4.497   4.373   2.517  0.1279  0.8865 -0.8911
 4192SOL    HW224210   4.571   4.254   2.552  1.6809  0.2999 -0.3853
 4193SOL     OW24211   0.608   1.493  12.779 -0.5070 -0.8322  0.5113
 4193SOL    HW124212   0.660   1.455  12.851 -1.5727 -1.7463  0.8121
 4193SOL    HW224213   0.515   1.472  12.789 -0.5558 -0.2828  1.1905
 4194SOL     OW24214   2.218   1.722   3.440  0.1010  0.6342  0.2096
 4194SOL    HW124215   2.245   1.787   3.375  0.6152  0.6094  0.3979
 4194SOL    HW224216   2.273   1.745   3.514 -0.7421  2.0331  0.4042
 4195SOL     OW24217   1.566   2.229  16.453  0.1220  0.5155 -0.0150
 4195SOL    HW124218   1.528   2.152  16.494 -1.8682  0.9335 -1.0887
 4195SOL    HW224219   1.637   2.249  16.514  2.2806 -1.2798 -1.9471
 4196SOL     OW24220   2.892   4.114   7.633  0.1096  0.1205 -0.1494
 4196SOL    HW124221   2.811   4.160   7.650 -0.0862 -0.6517  0.9988
 4196SOL    HW224222   2.879   4.023   7.661 -2.1832  1.2522  2.4323
 4197SOL     OW24223   0.177   2.302   2.910 -0.1896  0.0893  0.0835
 4197SOL    HW124224   0.114   2.243   2.868 -0.8291  0.0545  1.0799
 4197SOL    HW224225   0.256   2.281   2.862 -0.8201 -0.5601 -0.6712
 4198SOL     OW24226   1.857   0.861   5.058 -0.4133  0.0444 -0.3192
 4198SOL    HW124227   1.895   0.773   5.061  1.3426  0.8814  2.1552
 4198SOL    HW224228   1.779   0.856   5.003 -1.5131 -2.9288  1.5093
 4199SOL     OW24229   3.855   4.612   0.325 -0.0238  0.4208 -0.2568
 4199SOL    HW124230   3.855   4.613   0.421 -3.9195  1.6942 -0.2840
 4199SOL    HW224231   3.799   4.688   0.309  1.4947  1.7432  0.7015
 4200SOL     OW24232   1.159   0.478   7.400  0.0158 -0.0272  0.5201
 4200SOL    HW124233   1.087   0.534   7.370 -0.0019 -0.5837 -0.4668
 4200SOL    HW224234   1.104   0.402   7.416 -1.2604  0.6373 -0.6888
 4201SOL     OW24235   4.090   1.483   1.988 -0.0210  0.0125  0.7146
 4201SOL    HW124236   4.020   1.440   1.938  0.9851 -0.5761 -0.1977
 4201SOL    HW224237   4.149   1.499   1.914 -2.1282  0.2911 -0.9117
 4202SOL     OW24238   0.989   0.939   1.967  0.1546  0.6340  0.7560
 4202SOL    HW124239   1.001   1.012   2.028  1.1809  2.4332 -1.5866
 4202SOL    HW224240   0.976   0.984   1.884  1.0847 -0.8879 -0.2203
 4203SOL     OW24241   0.616   1.569   5.702 -0.2326 -0.9762 -0.2773
 4203SOL    HW124242   0.606   1.605   5.791  1.3816 -0.8223 -0.1714
 4203SOL    HW224243   0.708   1.584   5.682  0.0165 -1.4675  0.5178
 4204SOL     OW24244   2.795   4.503  10.364 -0.1533 -0.1721  0.0416
 4204SOL    HW124245   2.831   4.533  10.280 -1.1778 -2.1055 -1.1014
 4204SOL    HW224246   2.783   4.584  10.414  1.3885  0.6497 -0.9276
 4205SOL     OW24247   2.552   0.298   0.306  0.1645 -0.3281 -0.0043
 4205SOL    HW124248   2.636   0.332   0.338 -1.8904  2.9580  1.8830
 4205SOL    HW224249   2.558   0.330   0.216  0.1144  0.3721  0.2368
 4206SOL     OW24250   0.634   3.030   7.930  0.0886  0.5125 -0.9373
 4206SOL    HW124251   0.644   3.043   7.836  3.2892  0.7769 -0.5898
 4206SOL    HW224252   0.727   3.033   7.954  0.2395 -0.7639 -1.3501
 4207SOL     OW24253   2.220   0.405   0.942 -0.8004  0.2569 -0.1511
 4207SOL    HW124254   2.216   0.414   1.037  1.4677 -1.1736  0.0663
 4207SOL    HW224255   2.223   0.495   0.908 -1.1405  1.1764  2.2418
 4208SOL     OW24256   2.462   3.509   6.201  0.0135  0.3827 -0.3110
 4208SOL    HW124257   2.554   3.527   6.222 -0.5821  2.2836  0.6027
 4208SOL    HW224258   2.472   3.464   6.117 -0.1499  0.7490 -0.5285
 4209SOL     OW24259   3.441   1.497   1.803 -0.0413  0.3643 -0.4921
 4209SOL    HW124260   3.535   1.512   1.795  0.2124  0.2915  2.2863
 4209SOL    HW224261   3.406   1.586   1.808  0.2639  0.3783  1.5566
 4210SOL     OW24262   3.491   2.417   1.120 -0.3939 -0.6429 -0.3901
 4210SOL    HW124263   3.491   2.439   1.026 -1.5062  1.5972  0.1486
 4210SOL    HW224264   3.407   2.446   1.156  0.1822  1.8003 -0.9664
 4211SOL     OW24265   4.353   0.783   9.729  0.5170  0.6001  0.3442
 4211SOL    HW124266   4.337   0.873   9.703 -2.1533  0.1430  0.3565
 4211SOL    HW224267   4.445   0.766   9.706  0.2353  0.4166 -0.6597
 4212SOL     OW24268   3.528   3.864   4.243  0.3326 -0.3674  0.3453
 4212SOL    HW124269   3.484   3.895   4.321 -0.9338 -0.3900 -0.3638
 4212SOL    HW224270   3.622   3.866   4.262  0.6815  1.6142 -1.4930
 4213SOL     OW24271   2.601   0.974   6.494  0.4281 -0.0237 -0.1056
 4213SOL    HW124272   2.693   0.992   6.512 -0.2442  0.6751  2.6717
 4213SOL    HW224273   2.591   1.049   6.435 -2.2231  0.4409  0.9481
 4214SOL     OW24274   1.024   4.386  17.652  0.5654 -0.5247  0.5150
 4214SOL    HW124275   1.035   4.364  17.560  0.5480  0.0768  0.3661
 4214SOL    HW224276   1.088   4.320  17.679  0.0619 -1.1232  0.2337
 4215SOL     OW24277   1.389   4.287   7.579 -0.1522  0.3138  0.2396
 4215SOL    HW124278   1.392   4.197   7.610  1.4180  0.0435 -0.7433
 4215SOL    HW224279   1.385   4.337   7.661 -2.2383  1.3084 -0.4522
 4216SOL     OW24280   0.328   0.403   4.510  0.2727  0.4352 -0.1500
 4216SOL    HW124281   0.359   0.359   4.430 -2.3441  2.0418 -2.0644
 4216SOL    HW224282   0.236   0.388   4.490  0.1615  0.8446  0.0537
 4217SOL     OW24283   0.232   3.085   0.809 -0.3562 -0.2053  0.3437
 4217SOL    HW124284   0.234   3.162   0.866  1.7260 -1.2498  1.6722
 4217SOL    HW224285   0.275   3.123   0.732 -0.3126  0.4024  0.6627
 4218SOL     OW24286   2.190   2.800   5.484  0.0860  0.0644  0.2841
 4218SOL    HW124287   2.140   2.762   5.556 -1.0243  1.3606  0.1992
 4218SOL    HW224288   2.251   2.851   5.537  0.2918 -1.0871  1.1302
 4219SOL     OW24289   3.878   3.855  11.857  0.1240 -0.2739  0.0290
 4219SOL    HW124290   3.867   3.791  11.927  1.3348 -0.4994  0.0199
 4219SOL    HW224291   3.974   3.849  11.858  0.2912  2.2321 -0.8561
 4220SOL     OW24292   0.028   3.345  10.950 -0.0564 -0.3054 -0.0295
 4220SOL    HW124293   4.692   3.293  10.937 -0.1958 -0.6201  1.9678
 4220SOL    HW224294   0.078   3.267  10.975 -2.8891 -1.7401  1.1329
 4221SOL     OW24295   0.164   4.495  12.587 -1.0069  0.1434  0.0465
 4221SOL    HW124296   0.144   4.569  12.530 -0.3080 -1.1153 -1.8094
 4221SOL    HW224297   0.098   4.432  12.559 -0.1924 -0.4616 -0.5079
 4222SOL     OW24298   3.198   1.425   9.747  0.4011  0.7762  0.0015
 4222SOL    HW124299   3.112   1.454   9.777  0.2749 -0.1386  0.5314
 4222SOL    HW224300   3.193   1.338   9.788 -0.7023  1.1455  0.6558
 4223SOL     OW24301   3.230   2.145  10.105 -0.7360 -0.2169  0.4124
 4223SOL    HW124302   3.304   2.192  10.144  0.5387 -0.3050 -1.9076
 4223SOL    HW224303   3.224   2.078  10.172 -3.0000 -0.0028  0.4097
 4224SOL     OW24304   2.707   1.937   6.684  0.3795  0.2576 -0.1117
 4224SOL    HW124305   2.722   1.864   6.743  2.2918  0.0081 -0.9055
 4224SOL    HW224306   2.633   1.903   6.634 -0.3231  3.6450 -1.4183
 4225SOL     OW24307   1.068   2.104   5.807  0.2227 -0.4886 -0.3300
 4225SOL    HW124308   1.135   2.141   5.750  0.3074  0.3829  0.3420
 4225SOL    HW224309   1.022   2.175   5.852 -0.1703  0.2371 -1.8688
 4226SOL     OW24310   4.356   0.460   7.340  0.0680  0.2787 -0.4868
 4226SOL    HW124311   4.407   0.452   7.421  0.4932  1.5374 -0.6277
 4226SOL    HW224312   4.309   0.377   7.345 -0.8435  0.9871  2.7957
 4227SOL     OW24313   3.052   2.787   1.988  0.1292 -0.3970 -0.2737
 4227SOL    HW124314   2.974   2.765   2.039 -0.6866  0.1539 -1.2925
 4227SOL    HW224315   3.068   2.877   2.016 -0.6022 -1.0692  2.3296
 4228SOL     OW24316   2.249   1.624   6.601  0.1423 -0.5674 -0.9406
 4228SOL    HW124317   2.198   1.698   6.632 -0.2124 -0.9109 -0.7005
 4228SOL    HW224318   2.323   1.636   6.660 -0.9691 -0.5220  0.4422
 4229SOL     OW24319   3.218   2.883  16.566 -0.2904 -0.4636  0.6496
 4229SOL    HW124320   3.200   2.972  16.596 -0.9756 -0.5756  0.5736
 4229SOL    HW224321   3.229   2.899  16.472  1.2300  0.6004  1.0057
 4230SOL     OW24322   0.701   2.557   9.416  0.0639  0.4593 -0.1539
 4230SOL    HW124323   0.727   2.516   9.333 -2.6411 -2.1504  0.2726
 4230SOL    HW224324   0.608   2.560   9.394  0.0564 -0.5438 -0.2941
 4231SOL     OW24325   2.637   0.094  10.693  0.2190 -0.6851 -0.5435
 4231SOL    HW124326   2.621   0.176  10.647 -1.7593  0.1131  1.5609
 4231SOL    HW224327   2.551   0.052  10.691 -1.1034  1.9879 -1.0012
 4232SOL     OW24328   3.267   3.806   1.134 -0.4059  0.2547  0.3742
 4232SOL    HW124329   3.230   3.764   1.211 -2.5544 -3.0950 -2.4603
 4232SOL    HW224330   3.359   3.783   1.146  0.0669  0.6860 -2.4092
 4233SOL     OW24331   1.604   2.127  11.737 -0.0452  0.6932 -0.1610
 4233SOL    HW124332   1.605   2.150  11.644 -3.0449  2.5182  0.2433
 4233SOL    HW224333   1.535   2.060  11.743  0.4735 -0.0645 -3.0736
 4234SOL     OW24334   2.495   1.196  11.920 -0.3413 -0.0831 -0.1723
 4234SOL    HW124335   2.562   1.132  11.941  0.3404  0.8306  0.4149
 4234SOL    HW224336   2.468   1.215  12.010  0.9979 -3.8405  1.0064
 4235SOL     OW24337   4.659   3.733  11.463 -0.4479  0.6746  0.3549
 4235SOL    HW124338   4.700   3.736  11.550  1.0958  2.4863 -0.4299
 4235SOL    HW224339   4.724   3.698  11.404 -0.2302 -0.3378  1.1895
 4236SOL     OW24340   2.006   0.059   2.499  0.1416 -0.9555 -0.4821
 4236SOL    HW124341   2.081   0.112   2.527 -1.2074  0.6207  0.1766
 4236SOL    HW224342   1.939   0.125   2.479  1.0498  0.0619 -0.1388
 4237SOL     OW24343   3.115   2.284  11.334 -0.1010 -0.0734  0.4098
 4237SOL    HW124344   3.181   2.338  11.378  0.4466 -0.4096  0.0100
 4237SOL    HW224345   3.171   2.256  11.261 -0.3462  2.2368 -0.6718
 4238SOL     OW24346   2.276   0.098   4.728 -0.1907  0.5354  0.0795
 4238SOL    HW124347   2.347   0.035   4.719 -0.6564  0.0568 -0.2439
 4238SOL    HW224348   2.223   0.040   4.782 -0.6153  0.0904 -0.8203
 4239SOL     OW24349   1.892   1.346   2.522 -0.5967  0.0996 -0.1254
 4239SOL    HW124350   1.823   1.298   2.476 -0.5158  0.0199 -0.1658
 4239SOL    HW224351   1.945   1.276   2.562 -1.0192  0.7152  1.5011
 4240SOL     OW24352   0.061   1.421   2.765  0.0712 -0.6142 -0.4964
 4240SOL    HW124353   0.066   1.334   2.725  0.1492 -0.8475  0.0223
 4240SOL    HW224354   4.716   1.451   2.746  0.0862  0.2582  0.8460
 4241SOL     OW24355   4.459   0.164  12.915 -0.9623  0.1322 -0.3883
 4241SOL    HW124356   4.457   0.229  12.986  0.8508 -0.1554 -0.0725
 4241SOL    HW224357   4.516   0.103  12.961  0.1785 -0.0745 -2.0842
 4242SOL     OW24358   3.734   1.587   4.675  0.0946  0.4383  0.1871
 4242SOL    HW124359   3.802   1.653   4.690 -0.5600  1.0371  0.5248
 4242SOL    HW224360   3.770   1.512   4.723 -1.1046  0.6262  1.3679
 4243SOL     OW24361   2.189   0.872  13.151 -0.0926 -0.6635 -0.0324
 4243SOL    HW124362   2.269   0.827  13.178  1.4548  1.8945 -0.2783
 4243SOL    HW224363   2.193   0.864  13.056  0.9865  0.4405 -0.0818
 4244SOL     OW24364   1.515   2.893   6.603  0.0006  0.2283  0.7782
 4244SOL    HW124365   1.556   2.846   6.676 -0.4052  1.0107  1.4943
 4244SOL    HW224366   1.437   2.935   6.637 -1.0891  0.9538 -2.6289
 4245SOL     OW24367   3.162   0.607   4.460 -0.6236  0.0250  0.1141
 4245SOL    HW124368   3.085   0.551   4.464 -0.1966 -0.4476  1.5663
 4245SOL    HW224369   3.136   0.677   4.400 -0.7986 -1.9002 -2.0365
 4246SOL     OW24370   2.124   2.167   8.250 -0.3685 -0.4179  0.4978
 4246SOL    HW124371   2.070   2.230   8.298 -0.6499 -0.7482  0.6128
 4246SOL    HW224372   2.206   2.169   8.300 -1.2971 -2.0143  2.1011
 4247SOL     OW24373   1.223   2.422   8.709  0.0112  0.1068 -0.8866
 4247SOL    HW124374   1.292   2.430   8.775 -2.2800  0.8771  1.3903
 4247SOL    HW224375   1.220   2.508   8.667 -1.5737  0.2374 -0.4962
 4248SOL     OW24376   2.475   3.395  16.471 -0.4975 -0.4424  0.4207
 4248SOL    HW124377   2.456   3.449  16.548 -0.9063 -0.9146  0.6516
 4248SOL    HW224378   2.467   3.457  16.399  0.4485  0.4500  1.0809
 4249SOL     OW24379   0.567   3.333   3.483 -0.4336  0.1485 -0.2317
 4249SOL    HW124380   0.570   3.238   3.490  1.5347  0.1963 -0.4837
 4249SOL    HW224381   0.650   3.358   3.525 -1.0213 -0.3577  1.2461
 4250SOL     OW24382   0.859   3.653  17.611 -0.2540  0.5010  0.0535
 4250SOL    HW124383   0.867   3.655  17.706  1.3608  1.3941 -0.0981
 4250SOL    HW224384   0.827   3.743  17.600 -0.1048  0.3253 -1.9189
 4251SOL     OW24385   1.907   4.438   7.958  0.8558 -0.0965  0.0542
 4251SOL    HW124386   1.952   4.355   7.939  2.6154  0.8086  0.2712
 4251SOL    HW224387   1.960   4.457   8.035 -0.8618  0.2086  1.1654
 4252SOL     OW24388   4.505   3.642   6.343  0.6352 -0.3112  0.1871
 4252SOL    HW124389   4.540   3.731   6.344 -3.7938  1.3895  0.9322
 4252SOL    HW224390   4.434   3.658   6.282  1.7923  0.2364 -1.0230
 4253SOL     OW24391   2.085   2.686   5.701 -0.6558 -0.2567 -0.1918
 4253SOL    HW124392   2.040   2.602   5.695 -0.2376 -0.4141 -1.0857
 4253SOL    HW224393   2.144   2.670   5.775 -0.9587  0.4402  0.1931
 4254SOL     OW24394   1.262   4.741  14.646  0.0378  0.0928 -0.0828
 4254SOL    HW124395   1.298   4.653  14.641 -0.8854 -0.2204 -1.0791
 4254SOL    HW224396   1.206   4.737  14.724 -0.7307 -1.1680 -0.7087
 4255SOL     OW24397   0.309   0.470   7.173  0.3592  0.3496  0.1375
 4255SOL    HW124398   0.245   0.425   7.118 -2.4637  2.4870  1.6528
 4255SOL    HW224399   0.298   0.560   7.144  0.8967 -0.5067 -2.7311
 4256SOL     OW24400   3.263   1.317   5.702 -0.0311 -0.4772  0.0251
 4256SOL    HW124401   3.251   1.285   5.612 -0.7142 -0.5173  0.1351
 4256SOL    HW224402   3.320   1.245   5.728 -1.3948 -1.2728  0.7381
 4257SOL     OW24403   1.536   0.637  12.909 -0.0171  0.0042  0.2963
 4257SOL    HW124404   1.593   0.587  12.968  2.5483  0.3330 -1.8879
 4257SOL    HW224405   1.589   0.717  12.903 -0.5886  0.3361 -0.3228
 4258SOL     OW24406   1.043   0.637   2.491 -0.0691  0.5934 -0.3355
 4258SOL    HW124407   0.965   0.688   2.468  1.4634  1.3851 -3.8194
 4258SOL    HW224408   1.103   0.673   2.425  0.8806 -0.6811 -0.1514
 4259SOL     OW24409   2.975   1.287   7.628  0.4107  0.2192  0.6906
 4259SOL    HW124410   2.937   1.370   7.598 -0.6457 -1.7067 -3.3890
 4259SOL    HW224411   2.907   1.221   7.618  0.2704  0.2999  1.1396
 4260SOL     OW24412   4.221   2.933   2.154  0.3330  0.2891 -0.5895
 4260SOL    HW124413   4.278   2.879   2.099  0.6406  0.6588 -0.6338
 4260SOL    HW224414   4.285   2.956   2.221 -1.2241  0.7988  0.7188
 4261SOL     OW24415   0.783   1.122   7.886 -0.4451  0.5233 -0.5906
 4261SOL    HW124416   0.700   1.166   7.868 -0.2355  1.3881  0.5120
 4261SOL    HW224417   0.844   1.194   7.903  0.1682 -0.1015 -0.1131
 4262SOL     OW24418   3.744   0.224   8.223 -0.0547 -0.4695 -0.2548
 4262SOL    HW124419   3.715   0.251   8.311 -0.5128  2.3965 -1.2934
 4262SOL    HW224420   3.732   0.129   8.224  0.7688 -0.5563  1.1880
 4263SOL     OW24421   3.247   0.626  15.546 -0.2435  0.5191 -0.4664
 4263SOL    HW124422   3.240   0.543  15.593 -0.4975  0.2073 -1.0574
 4263SOL    HW224423   3.240   0.603  15.453  2.9123 -3.9348  0.4049
 4264SOL     OW24424   0.586   2.610   3.064 -0.1665 -0.5300  0.4504
 4264SOL    HW124425   0.515   2.550   3.039  0.3778 -1.7104  1.7289
 4264SOL    HW224426   0.660   2.549   3.065  0.4901  0.2207 -1.2984
 4265SOL     OW24427   1.802   4.229   7.334  0.3736  0.6649  0.4553
 4265SOL    HW124428   1.887   4.271   7.342  0.3173  0.5660  1.5299
 4265SOL    HW224429   1.801   4.213   7.239 -0.2004  0.6773  0.4578
 4266SOL     OW24430   0.223   2.759  11.866  0.0294  0.0805  0.1898
 4266SOL    HW124431   0.318   2.775  11.872 -0.2341  2.1472 -1.3881
 4266SOL    HW224432   0.216   2.678  11.916  2.9099 -0.4718 -0.2675
 4267SOL     OW24433   0.031   1.010   1.981  0.0176 -0.4367 -0.6143
 4267SOL    HW124434   0.056   1.038   1.893 -1.2823 -0.0083 -0.8504
 4267SOL    HW224435   0.072   0.924   1.988  0.0745 -0.2807  0.9393
 4268SOL     OW24436   1.639   3.933   3.627  0.6868 -0.2937 -0.0845
 4268SOL    HW124437   1.560   3.988   3.622  1.2953  0.5136 -0.7660
 4268SOL    HW224438   1.636   3.885   3.709  1.2182 -0.4854 -0.1783
 4269SOL     OW24439   3.025   4.233   3.814  0.1938  0.0873 -0.5119
 4269SOL    HW124440   2.936   4.259   3.835  0.3084 -0.3826  0.5525
 4269SOL    HW224441   3.022   4.143   3.847  0.7474 -0.0767 -0.9047
 4270SOL     OW24442   1.538   3.878   8.991  0.6153  0.0647  0.0944
 4270SOL    HW124443   1.611   3.871   9.053 -1.9122 -1.5518  2.8922
 4270SOL    HW224444   1.476   3.821   9.037  1.0713 -0.2672  0.3053
 4271SOL     OW24445   0.166   3.603   1.806  0.4812  0.0164  0.5198
 4271SOL    HW124446   0.111   3.534   1.843 -0.9841 -0.5209 -2.6559
 4271SOL    HW224447   0.123   3.608   1.720  0.6829 -2.1769  0.2875
 4272SOL     OW24448   0.019   3.960  13.078 -0.2238 -0.1904 -0.0907
 4272SOL    HW124449   4.710   4.028  13.121  1.1765 -0.7784  2.5291
 4272SOL    HW224450   4.702   3.887  13.090  0.4869 -0.7027  0.4042
 4273SOL     OW24451   4.114   1.795   9.347 -0.1290 -0.1211  0.4693
 4273SOL    HW124452   4.131   1.837   9.262  0.8556  0.6320  1.0294
 4273SOL    HW224453   4.112   1.864   9.413 -0.7259 -1.1010  1.4662
 4274SOL     OW24454   4.183   1.260   3.941 -0.3141 -0.3896  0.5527
 4274SOL    HW124455   4.203   1.308   3.861  1.1965  0.6252  1.5273
 4274SOL    HW224456   4.088   1.251   3.934 -0.1643  0.5280 -2.8461
 4275SOL     OW24457   4.219   0.556  14.135 -0.1756  0.8076 -0.1234
 4275SOL    HW124458   4.203   0.494  14.064  0.7093  0.5090 -0.0635
 4275SOL    HW224459   4.189   0.636  14.092 -0.8312  0.0058 -1.1693
 4276SOL     OW24460   0.559   2.158   1.828  0.4143 -0.0055 -0.0299
 4276SOL    HW124461   0.630   2.221   1.818  0.3402  0.2273  0.9786
 4276SOL    HW224462   0.515   2.202   1.901  2.3026  0.5936  0.7429
 4277SOL     OW24463   2.576   4.382   7.317 -0.4359 -0.1536 -0.2951
 4277SOL    HW124464   2.504   4.365   7.256  0.9152 -0.1391 -1.8770
 4277SOL    HW224465   2.651   4.379   7.258  0.5659  1.0530  0.9232
 4278SOL     OW24466   4.604   1.756   4.751 -0.3164  0.5314  0.8024
 4278SOL    HW124467   4.674   1.720   4.805  0.1112 -0.4086 -0.4003
 4278SOL    HW224468   4.638   1.755   4.662 -1.3622 -2.7259  0.4372
 4279SOL     OW24469   0.376   2.092   1.649 -0.1640  0.2811 -0.0418
 4279SOL    HW124470   0.422   2.069   1.569 -0.6202 -1.2954  0.1582
 4279SOL    HW224471   0.446   2.112   1.712  0.7512 -1.1151 -0.5999
 4280SOL     OW24472   3.434   0.720   9.767  0.6662 -0.5494 -0.3649
 4280SOL    HW124473   3.525   0.745   9.755  0.3477  1.8130  2.1490
 4280SOL    HW224474   3.415   0.698   9.676 -0.9603 -0.3708 -0.0727
 4281SOL     OW24475   1.730   2.407   1.506  0.2582 -0.6943  0.0105
 4281SOL    HW124476   1.712   2.351   1.581 -1.4993 -0.3895 -0.1821
 4281SOL    HW224477   1.812   2.369   1.475  1.5423  1.1658  1.1066
 4282SOL     OW24478   0.932   1.090   1.481 -0.4404 -0.0675 -0.0014
 4282SOL    HW124479   0.994   1.036   1.432  1.2508  0.5090  1.4968
 4282SOL    HW224480   0.930   1.169   1.427  0.2259 -0.9595 -1.3458
 4283SOL     OW24481   0.097   0.266   1.006  0.1664 -0.4365  0.2692
 4283SOL    HW124482   0.091   0.259   0.911 -0.5119 -0.9027  0.3423
 4283SOL    HW224483   0.161   0.200   1.034  1.4456 -0.1441 -2.0069
 4284SOL     OW24484   1.950   3.603   2.576  0.0054  0.0055  0.1084
 4284SOL    HW124485   1.871   3.557   2.605 -1.2663  1.9357 -0.3027
 4284SOL    HW224486   1.911   3.667   2.516  1.6521 -0.5850 -1.5989
 4285SOL     OW24487   2.865   1.165   3.755  0.2415  0.4998 -0.1055
 4285SOL    HW124488   2.807   1.124   3.691  0.1651 -1.0784  0.9787
 4285SOL    HW224489   2.816   1.234   3.799 -0.6080 -0.0650 -0.1835
 4286SOL     OW24490   2.006   3.667   8.456 -0.0286 -0.1220 -0.2041
 4286SOL    HW124491   2.024   3.603   8.387  1.3590 -0.3896  0.4198
 4286SOL    HW224492   1.921   3.639   8.491  0.3791  0.1197  0.9705
 4287SOL     OW24493   0.179   4.511   4.816  0.7325 -0.3794 -0.1190
 4287SOL    HW124494   0.170   4.509   4.911  0.2434 -1.6348 -0.1837
 4287SOL    HW224495   0.275   4.509   4.810  0.6707 -1.9064 -0.7875
 4288SOL     OW24496   1.426   4.712   3.282 -0.4097  0.2232 -0.3541
 4288SOL    HW124497   1.376   4.683   3.358 -0.1523 -1.2565 -0.7554
 4288SOL    HW224498   1.349   0.004   3.237 -1.5244 -1.4556  0.2402
 4289SOL     OW24499   1.004   1.007   6.387  0.0175  0.0314 -0.0466
 4289SOL    HW124500   1.027   1.070   6.455  0.2354  0.5569 -0.6079
 4289SOL    HW224501   1.091   0.980   6.359  0.3303  1.2653 -0.2433
 4290SOL     OW24502   0.112   3.169   6.631  0.1493  0.3005  0.0367
 4290SOL    HW124503   0.135   3.114   6.706 -0.7103  1.1590  0.9441
 4290SOL    HW224504   0.048   3.113   6.588 -0.0279 -0.3172  1.0934
 4291SOL     OW24505   0.886   2.446   1.385 -0.0187 -1.1123  0.5655
 4291SOL    HW124506   0.980   2.443   1.402  0.2023  3.5206 -0.0022
 4291SOL    HW224507   0.865   2.374   1.325 -0.5338 -0.2039 -0.3340
 4292SOL     OW24508   2.334   4.006   6.465  0.0589 -0.3216  0.1159
 4292SOL    HW124509   2.395   4.017   6.392  0.2776  0.6533  0.4537
 4292SOL    HW224510   2.272   3.940   6.433 -2.6432  1.9984  0.5672
 4293SOL     OW24511   1.327   2.232   4.328  0.2912  0.4960  0.2936
 4293SOL    HW124512   1.403   2.290   4.338  0.6853  0.0024  0.1825
 4293SOL    HW224513   1.280   2.229   4.411  0.1563  2.9782  0.3068
 4294SOL     OW24514   0.317   2.139   5.678  0.1090 -0.2464 -0.1844
 4294SOL    HW124515   0.264   2.095   5.745  1.5134 -0.4083  0.8147
 4294SOL    HW224516   0.374   2.197   5.728  1.0141  0.2875 -1.8550
 4295SOL     OW24517   1.829   2.893   8.257 -0.7579  0.0791  0.2422
 4295SOL    HW124518   1.761   2.960   8.251 -0.2125  0.6363  0.4025
 4295SOL    HW224519   1.855   2.881   8.166 -0.2514  0.7588  0.3002
 4296SOL     OW24520   3.205   1.344   8.791 -0.2282  0.2749  0.0307
 4296SOL    HW124521   3.118   1.308   8.810  0.3047 -0.1205  1.6557
 4296SOL    HW224522   3.246   1.279   8.735  0.7319  1.1995 -0.3412
 4297SOL     OW24523   4.239   1.176  11.708  0.2889 -0.1876  0.5988
 4297SOL    HW124524   4.234   1.080  11.706 -1.7656 -0.1040  1.2109
 4297SOL    HW224525   4.280   1.193  11.793  0.5410 -1.0576  0.6516
 4298SOL     OW24526   0.725   3.742   2.247 -0.0555  0.0773 -0.5486
 4298SOL    HW124527   0.678   3.697   2.177  0.8885 -0.5429 -0.7964
 4298SOL    HW224528   0.791   3.677   2.273 -0.8846 -0.9392 -0.9775
 4299SOL     OW24529   3.010   0.530   7.765  0.1194 -0.6177 -0.9953
 4299SOL    HW124530   3.016   0.578   7.847 -2.4972 -1.0185 -0.5475
 4299SOL    HW224531   3.067   0.584   7.710 -0.6935 -0.1882 -1.4247
 4300SOL     OW24532   1.052   1.760   7.127  0.5710 -0.4460  0.4608
 4300SOL    HW124533   0.970   1.712   7.121 -1.0273  2.4373 -0.5489
 4300SOL    HW224534   1.022   1.834   7.181  1.7265 -0.4830  1.1589
 4301SOL     OW24535   2.863   1.519   2.369 -0.0983  0.1741  0.7703
 4301SOL    HW124536   2.795   1.520   2.302 -0.7471  0.4086  1.4236
 4301SOL    HW224537   2.918   1.451   2.330 -1.1316  0.9144 -1.9750
 4302SOL     OW24538   2.119   4.552   9.039  0.2229 -0.0473  0.0261
 4302SOL    HW124539   2.171   4.626   9.005 -2.1392  1.4731 -0.2811
 4302SOL    HW224540   2.197   4.520   9.084  0.7104  0.0921 -0.7090
 4303SOL     OW24541   4.179   3.083   6.113  0.1323  0.3248  0.5882
 4303SOL    HW124542   4.164   3.151   6.178  1.7236  1.6518 -0.4278
 4303SOL    HW224543   4.094   3.053   6.079 -0.5906  0.4537  2.2956
 4304SOL     OW24544   3.522   4.332   2.471  0.7572 -0.4251 -0.1267
 4304SOL    HW124545   3.532   4.412   2.524  0.5743 -1.1849  1.0505
 4304SOL    HW224546   3.460   4.359   2.403  0.3918  0.2221  0.4656
 4305SOL     OW24547   2.285   1.598   7.221 -0.3072 -0.1526  0.1105
 4305SOL    HW124548   2.339   1.520   7.231  0.7965  0.6053  0.0264
 4305SOL    HW224549   2.239   1.592   7.305 -1.4289 -0.1905 -0.5074
 4306SOL     OW24550   2.273   2.995   3.653  0.0758 -0.4266 -0.3827
 4306SOL    HW124551   2.297   3.071   3.706  0.6126  1.1380 -2.8716
 4306SOL    HW224552   2.237   3.036   3.574  3.7206  0.0946 -1.7431
 4307SOL     OW24553   0.400   2.899  11.533 -0.0786 -0.2155  1.0565
 4307SOL    HW124554   0.370   2.978  11.488 -1.2941 -2.4286 -2.0153
 4307SOL    HW224555   0.438   2.932  11.615  0.9458  1.7371 -0.2025
 4308SOL     OW24556   3.930   1.621   2.862 -0.3039  0.0990  0.1668
 4308SOL    HW124557   3.988   1.547   2.845 -1.5430 -0.2658 -2.4826
 4308SOL    HW224558   3.980   1.682   2.917 -0.9084  1.6122 -0.9441
 4309SOL     OW24559   3.448   2.463  11.867  0.0398 -0.3986  0.5137
 4309SOL    HW124560   3.447   2.558  11.851 -0.6348 -0.3955  0.5428
 4309SOL    HW224561   3.509   2.447  11.939  1.7083 -2.7499 -1.4600
 4310SOL     OW24562   2.749   3.240   4.084 -0.0436  0.7408 -0.3816
 4310SOL    HW124563   2.792   3.317   4.046 -0.1554  1.4624  0.9443
 4310SOL    HW224564   2.782   3.170   4.028 -2.0223  0.5382 -1.2881
 4311SOL     OW24565   1.260   0.853   3.196 -0.3528 -0.8501 -0.4655
 4311SOL    HW124566   1.253   0.830   3.288 -0.0099 -0.0790 -0.2445
 4311SOL    HW224567   1.291   0.768   3.165  0.4734 -0.8452  0.3202
 4312SOL     OW24568   3.683   1.749   5.948  0.4923 -0.5109  0.5626
 4312SOL    HW124569   3.617   1.717   5.887 -1.1377  2.8386  0.6088
 4312SOL    HW224570   3.704   1.674   6.004 -0.8939  1.4776  3.7771
 4313SOL     OW24571   3.447   2.554  16.085 -0.1981  0.1297 -0.4738
 4313SOL    HW124572   3.470   2.632  16.134 -0.5257 -0.1106  0.0630
 4313SOL    HW224573   3.354   2.543  16.107  0.6617 -1.1157  2.5962
 4314SOL     OW24574   4.327   1.491   1.812 -0.3407 -0.1553 -0.4480
 4314SOL    HW124575   4.284   1.552   1.753  2.9688  1.0140 -1.6660
 4314SOL    HW224576   4.418   1.500   1.786 -0.4326 -1.2373 -1.1430
 4315SOL     OW24577   0.958   1.958   1.365 -0.0005 -0.5680  0.2769
 4315SOL    HW124578   0.938   2.018   1.437  1.9741  1.5791 -0.9525
 4315SOL    HW224579   0.872   1.926   1.342  0.2319 -0.3521 -0.8980
 4316SOL     OW24580   2.592   0.042   9.734  0.2430 -0.6893  0.4726
 4316SOL    HW124581   2.499   0.032   9.711  0.5984 -1.2346 -0.7396
 4316SOL    HW224582   2.629   4.709   9.691 -2.1762 -1.4828 -0.1795
 4317SOL     OW24583   3.659   2.525  16.586  0.3841  0.3300 -0.2973
 4317SOL    HW124584   3.727   2.458  16.591  0.3700  0.3673  0.3669
 4317SOL    HW224585   3.591   2.479  16.635  0.3387  3.0602  2.1391
 4318SOL     OW24586   0.016   0.058   7.323  0.4511 -0.5535 -0.2885
 4318SOL    HW124587   0.076   0.006   7.270 -1.3227 -0.6188 -2.2267
 4318SOL    HW224588   4.705   4.730   7.355 -1.6342  1.1487 -0.0299
 4319SOL     OW24589   3.481   0.089   9.423 -0.1973  0.1903  0.1744
 4319SOL    HW124590   3.423   0.119   9.493  1.3085 -0.1859  1.5786
 4319SOL    HW224591   3.469   4.739   9.438 -2.5502  0.2456 -1.2982
 4320SOL     OW24592   1.895   1.667   1.865  0.4513 -0.4219  0.6105
 4320SOL    HW124593   1.845   1.738   1.905 -1.7781 -0.7745 -1.5280
 4320SOL    HW224594   1.984   1.686   1.892  0.3467 -0.5199  1.0244
 4321SOL     OW24595   3.496   1.772   8.626  0.2250 -0.7360  0.2310
 4321SOL    HW124596   3.403   1.763   8.604  0.7486  0.9278 -2.6997
 4321SOL    HW224597   3.498   1.867   8.615 -0.6709 -0.5799  1.4729
 4322SOL     OW24598   0.616   0.143   9.221  0.2190 -0.6313 -0.5671
 4322SOL    HW124599   0.681   0.107   9.281 -0.2588  0.1199  0.4026
 4322SOL    HW224600   0.670   0.180   9.153 -0.5180  1.1951 -0.1475
 4323SOL     OW24601   4.509   1.126   4.875 -0.2528  0.5377  0.3519
 4323SOL    HW124602   4.523   1.137   4.969  1.6456 -1.2705  0.2755
 4323SOL    HW224603   4.563   1.049   4.858 -1.8108 -0.0501 -1.9813
 4324SOL     OW24604   4.509   4.591  13.704  0.2639 -0.4390 -0.5525
 4324SOL    HW124605   4.529   4.651  13.633  1.8268 -1.9975 -1.4194
 4324SOL    HW224606   4.596   4.567  13.734 -0.6040 -1.6716  0.9677
 4325SOL     OW24607   4.393   4.202   6.940  0.0525  0.2077  0.3971
 4325SOL    HW124608   4.411   4.270   6.876 -1.7545  0.0563 -0.2592
 4325SOL    HW224609   4.426   4.129   6.888  2.2316  2.6762 -1.6475
 4326SOL     OW24610   4.661   1.989   8.354 -0.1688 -0.3021 -0.0994
 4326SOL    HW124611   4.700   2.055   8.411 -0.7328 -0.9403  1.0366
 4326SOL    HW224612   4.708   1.909   8.376  0.4632  0.2956  0.7324
 4327SOL     OW24613   3.571   1.584  16.680 -0.0336  0.0541 -0.6488
 4327SOL    HW124614   3.617   1.632  16.612  1.1136  2.8387  2.1022
 4327SOL    HW224615   3.567   1.658  16.741 -0.1804 -1.3153  0.9859
 4328SOL     OW24616   1.012   3.962   7.018 -0.6109  0.0427 -0.1423
 4328SOL    HW124617   1.078   3.899   6.989 -0.1158 -0.0142  1.1135
 4328SOL    HW224618   0.949   3.940   6.949  0.0867 -0.4802 -0.6135
 4329SOL     OW24619   3.243   2.824   8.684 -0.4847 -0.5469  0.3517
 4329SOL    HW124620   3.277   2.814   8.595 -0.4424  0.5317  0.2477
 4329SOL    HW224621   3.149   2.814   8.669 -0.9008 -0.4913  2.9086
 4330SOL     OW24622   4.053   1.054  10.112 -0.5082  0.1056 -0.3384
 4330SOL    HW124623   4.089   1.143  10.110 -0.7944  0.2690  1.7087
 4330SOL    HW224624   3.961   1.080  10.106 -0.6973  0.1261  2.6184
 4331SOL     OW24625   2.511   2.965  16.381  0.1861  0.1696 -0.6954
 4331SOL    HW124626   2.590   2.989  16.332  0.4964  1.1496  0.2991
 4331SOL    HW224627   2.522   2.870  16.379  0.8748  0.2746 -2.6401
 4332SOL     OW24628   1.606   2.928  12.463  0.2895 -0.3805 -0.1483
 4332SOL    HW124629   1.652   3.012  12.468  0.5515 -0.5705  0.5290
 4332SOL    HW224630   1.645   2.899  12.380  1.7610 -1.1563  0.8220
 4333SOL     OW24631   0.269   3.274   3.436 -0.3255 -0.7705 -0.2912
 4333SOL    HW124632   0.314   3.295   3.354  0.3375 -0.8488  0.0526
 4333SOL    HW224633   0.337   3.233   3.488  0.5103  1.4542  0.4003
 4334SOL     OW24634   4.732   4.173   5.433 -0.2350 -0.2161  0.1015
 4334SOL    HW124635   0.066   4.228   5.449 -0.7479  1.1550 -2.0753
 4334SOL    HW224636   0.035   4.098   5.395  0.3791  0.2906 -0.1587
 4335SOL     OW24637   0.800   4.026   3.928  0.1678  0.1141  0.1114
 4335SOL    HW124638   0.706   4.038   3.913  0.3213  1.5959  0.3855
 4335SOL    HW224639   0.805   3.935   3.899  0.6582  0.2495 -0.2328
 4336SOL     OW24640   0.657   2.118   6.554  0.4595  0.0775  0.1194
 4336SOL    HW124641   0.704   2.037   6.571 -0.7770 -0.9632 -1.4482
 4336SOL    HW224642   0.631   2.147   6.641 -0.1338 -1.1874  0.3558
 4337SOL     OW24643   1.349   1.464   0.623  0.4642  0.1994 -0.0551
 4337SOL    HW124644   1.399   1.463   0.541  1.1411  0.0006  0.3713
 4337SOL    HW224645   1.305   1.549   0.623  0.5436  0.2377  0.1380
 4338SOL     OW24646   3.927   2.730   3.287 -0.2814  0.1140  0.3614
 4338SOL    HW124647   3.902   2.641   3.311  0.1619 -0.0393  0.2502
 4338SOL    HW224648   4.019   2.718   3.261 -0.2851 -0.4624  0.6149
 4339SOL     OW24649   3.944   1.683   5.695 -0.1973 -0.6941  0.0820
 4339SOL    HW124650   3.884   1.739   5.646 -0.2814  0.1911  1.1922
 4339SOL    HW224651   3.925   1.593   5.669 -0.5947 -0.3755 -0.7285
 4340SOL     OW24652   1.874   2.033   1.722 -0.3965  0.0391 -0.6336
 4340SOL    HW124653   1.839   2.006   1.807 -1.3847  0.6006 -0.8623
 4340SOL    HW224654   1.805   2.023   1.657  1.2575  1.7832 -2.6467
 4341SOL     OW24655   1.875   3.286   8.431  0.2860 -0.0918 -0.4995
 4341SOL    HW124656   1.952   3.323   8.388 -2.2336  2.4143 -2.8822
 4341SOL    HW224657   1.834   3.363   8.471 -1.8045 -0.6820 -1.5505
 4342SOL     OW24658   4.374   4.434   3.165  0.0074  0.0426 -0.4582
 4342SOL    HW124659   4.338   4.356   3.206 -2.1067  1.5682  0.6431
 4342SOL    HW224660   4.423   4.463   3.242 -3.9933  1.1098  1.7127
 4343SOL     OW24661   4.336   0.237   4.691 -0.0127 -0.0909  0.4525
 4343SOL    HW124662   4.278   0.163   4.672  1.6309 -1.4287  0.6200
 4343SOL    HW224663   4.285   0.314   4.666 -0.8043 -0.8078 -0.1279
 4344SOL     OW24664   4.073   1.789   7.489 -0.2584  0.5713  0.1611
 4344SOL    HW124665   4.093   1.756   7.576  0.6700  2.0159  0.4935
 4344SOL    HW224666   4.129   1.740   7.429 -1.0005 -0.0224 -0.0589
 4345SOL     OW24667   0.276   3.254   8.972 -0.4075  0.1666  0.1301
 4345SOL    HW124668   0.308   3.262   9.062 -4.8075  2.1648  1.5476
 4345SOL    HW224669   0.360   3.224   8.938  0.4438  1.3960  1.1357
 4346SOL     OW24670   2.669   1.068   8.635  0.2247  0.3524 -0.3583
 4346SOL    HW124671   2.671   0.976   8.660 -0.0782  0.5405  0.3641
 4346SOL    HW224672   2.700   1.110   8.715  0.1477  2.0392 -1.2014
 4347SOL     OW24673   2.578   3.869   8.186  0.2073 -0.3035 -0.4553
 4347SOL    HW124674   2.667   3.898   8.164  1.1964 -2.5683  0.4677
 4347SOL    HW224675   2.538   3.953   8.208 -2.1440 -1.3095 -0.8856
 4348SOL     OW24676   3.730   1.061   2.260 -0.4739  0.1933 -0.2572
 4348SOL    HW124677   3.732   1.023   2.348 -3.2205 -1.3577 -0.8860
 4348SOL    HW224678   3.686   0.989   2.215 -2.4922  2.3597 -1.7719
 4349SOL     OW24679   3.211   0.606  14.252  0.4520  0.2286 -0.3193
 4349SOL    HW124680   3.129   0.646  14.282  1.8044  0.6803  2.8639
 4349SOL    HW224681   3.217   0.658  14.172  0.5303  1.5234  0.5295
 4350SOL     OW24682   4.669   3.740  15.051  0.0601  0.8781  0.2835
 4350SOL    HW124683   4.726   3.784  15.114  1.4754 -0.1534 -0.2904
 4350SOL    HW224684   4.589   3.728  15.103  1.6962 -1.5815  2.1770
 4351SOL     OW24685   3.727   3.225   7.356  0.1043  0.2541 -0.1880
 4351SOL    HW124686   3.660   3.191   7.416  1.2958  1.6371  1.9412
 4351SOL    HW224687   3.743   3.311   7.396 -1.3078  1.0486 -1.3248
 4352SOL     OW24688   3.341   2.373   1.632 -0.2234 -0.2959  0.0092
 4352SOL    HW124689   3.321   2.322   1.553  0.0001 -0.0989 -0.1781
 4352SOL    HW224690   3.299   2.457   1.610  0.3549  0.2744  1.1047
 4353SOL     OW24691   3.899   3.933  12.946  0.6180 -0.4843 -0.2070
 4353SOL    HW124692   3.906   3.975  13.031 -1.9555  2.3569 -1.4146
 4353SOL    HW224693   3.824   3.875  12.964  0.4630 -0.5496 -1.0273
 4354SOL     OW24694   0.101   3.102   4.504 -0.1414  0.2666  0.8251
 4354SOL    HW124695   0.143   3.188   4.492  2.3594 -0.8348  1.7242
 4354SOL    HW224696   0.031   3.105   4.439  1.3771 -0.7078 -0.8570
 4355SOL     OW24697   2.640   2.603   4.127  0.3626 -0.4309 -0.3305
 4355SOL    HW124698   2.689   2.535   4.172  0.7035  0.4149  0.5864
 4355SOL    HW224699   2.549   2.574   4.137 -0.4523  2.2539  0.2351
 4356SOL     OW24700   1.757   2.488   3.227 -0.6697 -0.0426  0.2406
 4356SOL    HW124701   1.746   2.410   3.173  1.3826 -0.2240  0.0670
 4356SOL    HW224702   1.678   2.491   3.281 -1.7924 -1.7862 -1.3123
 4357SOL     OW24703   4.073   1.765   4.598  0.3679  0.2964  0.2867
 4357SOL    HW124704   4.020   1.773   4.677 -0.4941 -1.1736 -0.1320
 4357SOL    HW224705   4.099   1.672   4.596 -1.6900 -0.2917  1.6671
 4358SOL     OW24706   0.733   1.345  12.997  0.0802  0.0025  0.0317
 4358SOL    HW124707   0.786   1.265  12.993  0.6238  0.5258 -3.1724
 4358SOL    HW224708   0.645   1.332  13.031 -0.7075 -1.3545 -2.5467
 4359SOL     OW24709   0.683   3.840   5.357  0.5077 -0.0696 -0.3080
 4359SOL    HW124710   0.716   3.819   5.445  0.8729 -0.3775 -0.5138
 4359SOL    HW224711   0.625   3.764   5.346  0.8183 -0.3221 -0.2201
 4360SOL     OW24712   1.994   2.402   8.365 -0.1501 -0.5545 -0.0827
 4360SOL    HW124713   1.944   2.455   8.427  0.7068 -0.2594  0.3606
 4360SOL    HW224714   1.969   2.434   8.279 -0.5989  0.1558  0.3161
 4361SOL     OW24715   3.637   1.624  13.944  0.0377 -0.0527 -0.4114
 4361SOL    HW124716   3.596   1.564  14.006 -2.0916 -0.0154 -1.7762
 4361SOL    HW224717   3.652   1.570  13.866 -0.7080  0.5437 -0.9712
 4362SOL     OW24718   3.035   4.732   6.876 -0.0783  0.3456 -0.3285
 4362SOL    HW124719   3.056   4.711   6.967  0.0151  3.2412  0.3061
 4362SOL    HW224720   3.062   4.646   6.843 -0.5147  0.0234  0.1341
 4363SOL     OW24721   4.065   0.624  15.956 -0.0515 -0.2415  0.1183
 4363SOL    HW124722   4.081   0.669  15.873 -0.3995 -1.1024 -0.4216
 4363SOL    HW224723   4.127   0.551  15.954  0.3072  0.0548  0.3394
 4364SOL     OW24724   3.666   3.891   6.854  0.3181  0.0195  0.2479
 4364SOL    HW124725   3.741   3.843   6.821 -0.2268 -1.9039  1.7802
 4364SOL    HW224726   3.695   3.982   6.845 -0.4990  0.3317  0.6990
 4365SOL     OW24727   3.164   1.966  13.416  0.0669 -0.1893  0.4152
 4365SOL    HW124728   3.092   1.979  13.478  0.5662  0.5777  0.8405
 4365SOL    HW224729   3.226   2.037  13.435  0.6690 -0.6458  0.1622
 4366SOL     OW24730   1.794   3.937   2.444 -0.0841 -0.2639  0.1755
 4366SOL    HW124731   1.718   3.901   2.490 -0.6784  0.6306 -0.0950
 4366SOL    HW224732   1.802   3.873   2.373 -0.9685 -0.0750 -0.0978
 4367SOL     OW24733   0.865   0.573   1.250 -0.2297  0.4187  0.2619
 4367SOL    HW124734   0.800   0.643   1.249 -2.4011 -1.5731  1.6942
 4367SOL    HW224735   0.932   0.608   1.309 -1.2061  4.1941 -0.9243
 4368SOL     OW24736   4.085   3.333   5.192 -0.4858 -0.3787  0.3598
 4368SOL    HW124737   4.053   3.333   5.282 -1.6042  0.1632 -0.0371
 4368SOL    HW224738   4.022   3.273   5.151  0.3341 -1.5212  0.7827
 4369SOL     OW24739   3.737   4.733  17.017 -0.3468 -0.1210  0.5113
 4369SOL    HW124740   3.819   4.684  17.010 -0.2073  0.6227 -3.1950
 4369SOL    HW224741   3.717   0.003  16.924  0.8521  1.1610  0.4243
 4370SOL     OW24742   3.474   3.202   2.837 -0.3099  0.2202  0.3546
 4370SOL    HW124743   3.389   3.203   2.793 -0.7771  1.3087  1.2785
 4370SOL    HW224744   3.457   3.152   2.917 -0.4104 -0.1731  0.0929
 4371SOL     OW24745   2.508   3.471   0.989  0.1459  0.3292 -0.4157
 4371SOL    HW124746   2.426   3.496   1.033 -0.3213 -0.1264 -1.0423
 4371SOL    HW224747   2.475   3.434   0.908  0.5324 -0.1692 -0.3408
 4372SOL     OW24748   2.576   2.983   1.326 -0.1821  0.6178 -0.7472
 4372SOL    HW124749   2.663   2.999   1.363 -0.8088  3.3958 -0.5529
 4372SOL    HW224750   2.568   3.032   1.244 -2.0654  0.4416 -0.6694
 4373SOL     OW24751   0.044   1.714   5.937  0.0627 -0.1217  0.4159
 4373SOL    HW124752   4.706   1.695   5.984  0.5670  0.3652  1.5122
 4373SOL    HW224753   0.112   1.669   5.987  0.5486  1.8130  1.5139
 4374SOL     OW24754   3.810   4.502   4.070 -0.2355 -0.8553 -0.4243
 4374SOL    HW124755   3.849   4.458   3.995  0.6128 -0.9677  0.0900
 4374SOL    HW224756   3.723   4.462   4.066 -0.6875 -0.0033  0.8440
 4375SOL     OW24757   2.141   0.952  10.908  0.5573  0.2413 -0.3506
 4375SOL    HW124758   2.139   0.861  10.939 -0.5629 -0.2079 -1.7303
 4375SOL    HW224759   2.102   0.987  10.987  2.3881  2.0345 -0.2517
 4376SOL     OW24760   0.789   1.858   6.971 -0.3109  0.2672  0.0817
 4376SOL    HW124761   0.823   1.816   7.050 -1.6339  0.2477  0.6421
 4376SOL    HW224762   0.699   1.823   6.971  0.3035 -1.3330  0.9756
 4377SOL     OW24763   1.751   3.218   8.015  0.2029 -0.3340 -0.2113
 4377SOL    HW124764   1.763   3.188   8.105 -0.5252 -1.1665 -0.3977
 4377SOL    HW224765   1.842   3.206   7.987  0.8572  1.5241  1.0990
 4378SOL     OW24766   3.744   0.245   8.590 -0.1785  0.4074  0.1737
 4378SOL    HW124767   3.683   0.193   8.643 -0.6101  1.8662  1.1139
 4378SOL    HW224768   3.820   0.188   8.577 -0.9619 -1.0120  1.8186
 4379SOL     OW24769   3.062   2.818   4.876 -0.4801 -0.1102 -0.1496
 4379SOL    HW124770   3.044   2.831   4.969  1.9986  1.6476  0.0678
 4379SOL    HW224771   3.153   2.839   4.856  0.0053 -0.3226  1.8811
 4380SOL     OW24772   0.064   1.468  11.206 -0.1275 -0.0041  0.0465
 4380SOL    HW124773   0.048   1.560  11.183 -0.1516  0.3588  1.4817
 4380SOL    HW224774   4.744   1.452  11.275 -0.9876 -2.7936 -1.4194
 4381SOL     OW24775   3.485   1.370  13.990 -0.2107  0.5499  0.4591
 4381SOL    HW124776   3.428   1.432  13.945  0.0591 -0.2811 -1.0440
 4381SOL    HW224777   3.442   1.284  13.989 -0.0849  0.4637  3.0636
 4382SOL     OW24778   4.066   3.928   4.644 -0.0883 -1.1696  0.2789
 4382SOL    HW124779   4.076   3.919   4.549  0.0820 -2.2940  0.4012
 4382SOL    HW224780   4.085   3.836   4.667 -1.1221 -1.4858 -0.1371
 4383SOL     OW24781   1.866   0.181   7.066 -0.9774 -0.4254 -0.1808
 4383SOL    HW124782   1.801   0.202   7.133  0.7437  3.2999  0.2954
 4383SOL    HW224783   1.908   0.265   7.049 -0.9586 -0.3272  0.3447
 4384SOL     OW24784   0.432   1.027   3.632  0.0702 -0.0701  0.0792
 4384SOL    HW124785   0.365   1.018   3.565 -1.7736  3.3975  1.4784
 4384SOL    HW224786   0.375   1.003   3.705 -1.8275  1.5145 -0.8783
 4385SOL     OW24787   4.698   0.071   2.943  0.0422  0.0419  0.3234
 4385SOL    HW124788   4.692   0.009   3.016  0.3277  1.1737  1.3097
 4385SOL    HW224789   4.694   0.011   2.868  1.1315  0.9338 -0.4465
 4386SOL     OW24790   0.048   0.685   7.157 -0.5044  0.2708 -0.1318
 4386SOL    HW124791   4.716   0.714   7.207 -0.0391  3.0146 -1.0142
 4386SOL    HW224792   0.061   0.606   7.210 -0.3606  1.5567  1.7523
 4387SOL     OW24793   1.063   1.248   6.582 -0.0972  0.0175 -0.3012
 4387SOL    HW124794   1.117   1.293   6.517 -0.7389 -0.5230 -1.2089
 4387SOL    HW224795   1.017   1.324   6.617  1.3803  1.5216 -1.5729
 4388SOL     OW24796   0.131   1.459   8.869 -0.0497 -0.4127 -0.5283
 4388SOL    HW124797   0.212   1.510   8.858 -0.1191 -1.0040 -3.8597
 4388SOL    HW224798   0.116   1.478   8.961 -1.8086  2.6755 -1.4383
 4389SOL     OW24799   4.460   3.098   2.582 -0.5867  0.3993 -0.3631
 4389SOL    HW124800   4.402   3.022   2.587  1.8009 -1.3942 -0.0372
 4389SOL    HW224801   4.491   3.105   2.672 -1.0237 -3.4615  0.0720
 4390SOL     OW24802   0.092   0.868   5.645  0.3333  0.1681 -0.0302
 4390SOL    HW124803   0.115   0.903   5.731 -3.3729  1.4423  0.4712
 4390SOL    HW224804   0.161   0.813   5.608  0.2372 -1.3806  2.1317
 4391SOL     OW24805   1.195   4.687   9.162  0.2843  0.1967 -1.0525
 4391SOL    HW124806   1.129   4.737   9.114  1.0643  2.3853  0.1748
 4391SOL    HW224807   1.152   4.654   9.240  1.6131  2.3899  0.5936
 4392SOL     OW24808   0.151   1.504   5.293  0.7833  0.1992  0.9996
 4392SOL    HW124809   0.147   1.508   5.389 -0.7750 -1.1078  0.9985
 4392SOL    HW224810   0.126   1.412   5.280 -1.2786  0.8982  0.0058
 4393SOL     OW24811   0.190   2.226   6.365  0.2988 -0.3773  0.4270
 4393SOL    HW124812   0.163   2.312   6.333 -0.3765  0.0431  2.1530
 4393SOL    HW224813   0.284   2.241   6.370  0.0889  1.0800  0.1646
 4394SOL     OW24814   0.290   3.247   1.710 -0.5583  0.1409  0.2421
 4394SOL    HW124815   0.262   3.338   1.704  0.2105  0.2720 -1.2228
 4394SOL    HW224816   0.210   3.196   1.717 -0.5990  0.2604  0.6637
 4395SOL     OW24817   3.715   2.911  14.606 -0.3242  0.2770 -0.2106
 4395SOL    HW124818   3.795   2.954  14.577 -1.1408  0.2705 -2.4631
 4395SOL    HW224819   3.671   2.891  14.523  0.2499 -0.2098 -0.3964
 4396SOL     OW24820   3.661   0.656   3.873  0.0650  0.9708 -0.0406
 4396SOL    HW124821   3.716   0.709   3.930  1.8678 -1.2197  0.2464
 4396SOL    HW224822   3.683   0.570   3.909 -0.4656  0.4621 -0.9463
 4397SOL     OW24823   2.809   4.347   3.894  0.3091 -0.0121 -0.0333
 4397SOL    HW124824   2.741   4.286   3.868 -1.3611  1.3565  1.1207
 4397SOL    HW224825   2.774   4.391   3.972  0.4686  0.8367 -0.4377
 4398SOL     OW24826   1.834   3.436   3.159  0.6925 -0.2095  0.3521
 4398SOL    HW124827   1.862   3.344   3.164  0.8025 -0.3427 -2.3432
 4398SOL    HW224828   1.859   3.451   3.067 -0.6905  2.1842  0.3645
 4399SOL     OW24829   4.155   1.510   5.856 -0.2237 -0.1420 -0.3705
 4399SOL    HW124830   4.234   1.539   5.810 -1.3888 -0.0569 -2.3371
 4399SOL    HW224831   4.123   1.594   5.887  0.7914 -0.2083  0.8365
 4400SOL     OW24832   2.072   2.432  12.642  0.1036  0.2645 -0.1074
 4400SOL    HW124833   2.040   2.385  12.565 -2.1844  2.0329 -0.2558
 4400SOL    HW224834   2.018   2.511  12.644  0.9944  0.8569  0.3665
 4401SOL     OW24835   4.588   4.105  17.068  0.0444  0.0224  0.1916
 4401SOL    HW124836   4.572   4.012  17.083  0.0929 -0.0083  0.0508
 4401SOL    HW224837   4.506   4.136  17.030  0.6946  0.1601 -1.0919
 4402SOL     OW24838   2.645   3.387   6.478 -0.5401 -0.3708  0.4460
 4402SOL    HW124839   2.697   3.462   6.509 -0.9332  0.8779 -1.9094
 4402SOL    HW224840   2.627   3.332   6.554  0.8586 -0.5750  0.6228
 4403SOL     OW24841   4.685   0.567  12.635  0.3604 -0.1199  0.3426
 4403SOL    HW124842   4.631   0.503  12.681 -1.7698  2.6012  1.6516
 4403SOL    HW224843   0.022   0.574  12.687 -0.1480  0.4372  1.0668
 4404SOL     OW24844   1.939   4.711   4.049  0.1052  0.2677  0.1848
 4404SOL    HW124845   1.951   0.040   4.110 -0.1816  1.0197 -0.6594
 4404SOL    HW224846   1.878   0.007   3.987  1.8695  0.5834 -1.3512
 4405SOL     OW24847   4.585   4.097   8.830 -0.5846 -0.1587 -0.1123
 4405SOL    HW124848   4.581   4.011   8.787 -1.1709 -0.2889  0.2007
 4405SOL    HW224849   4.590   4.056   8.916 -4.1116  0.9480  0.6326
 4406SOL     OW24850   0.577   0.674   1.400  0.0700  0.5091  0.3486
 4406SOL    HW124851   0.529   0.705   1.477 -0.6530 -1.3277  0.6545
 4406SOL    HW224852   0.613   0.757   1.370  0.2001  0.9013  1.5641
 4407SOL     OW24853   0.093   3.589  17.248 -0.4647  0.1367 -0.0072
 4407SOL    HW124854   0.017   3.573  17.193 -1.0511 -0.6770  1.0490
 4407SOL    HW224855   0.164   3.592  17.183 -0.5340 -1.5067 -0.1741
 4408SOL     OW24856   3.332   2.628   1.215  0.2602 -0.0836  0.3033
 4408SOL    HW124857   3.288   2.705   1.252 -0.0081  0.0828 -0.3644
 4408SOL    HW224858   3.424   2.638   1.237  0.0127  3.6894 -0.4210
 4409SOL     OW24859   0.548   0.555   3.433  0.1652  0.6795  0.5480
 4409SOL    HW124860   0.612   0.516   3.374 -0.3810 -0.0721  0.4562
 4409SOL    HW224861   0.498   0.484   3.474 -2.1388  0.5454 -2.5139
 4410SOL     OW24862   1.881   2.498  15.060  0.4916 -0.2882 -0.1768
 4410SOL    HW124863   1.818   2.570  15.057  0.4307 -0.2860  1.3299
 4410SOL    HW224864   1.944   2.534  14.997  1.5843 -1.3025  0.3408
 4411SOL     OW24865   4.040   0.046   5.742  0.2169 -0.1268 -0.1668
 4411SOL    HW124866   4.002   4.728   5.805  0.3728  0.6722  0.7229
 4411SOL    HW224867   4.134   0.054   5.760  0.2483 -3.5462  1.2866
 4412SOL     OW24868   2.272   0.359   1.875 -0.5350  0.2543 -0.0316
 4412SOL    HW124869   2.235   0.426   1.933 -0.8631  0.9905 -1.1134
 4412SOL    HW224870   2.346   0.406   1.837 -0.6118 -0.4267 -1.0253
 4413SOL     OW24871   0.490   1.780  13.824  0.6142 -0.2396 -0.4087
 4413SOL    HW124872   0.435   1.703  13.839 -1.6175  1.2562 -0.9000
 4413SOL    HW224873   0.439   1.804  13.746 -1.7273 -0.3229  1.0931
 4414SOL     OW24874   1.538   0.504   7.515  0.1356  0.5264  0.2218
 4414SOL    HW124875   1.455   0.515   7.563  0.1701 -0.2328  0.4547
 4414SOL    HW224876   1.538   0.582   7.460  0.5744 -0.1528 -0.7393
 4415SOL     OW24877   2.433   3.620  10.490  0.3313  0.3085 -0.1001
 4415SOL    HW124878   2.419   3.621  10.395  2.1872  0.1566 -0.3816
 4415SOL    HW224879   2.349   3.652  10.523  0.8914  0.6484  1.0094
 4416SOL     OW24880   0.651   0.894   6.336  0.3981  0.5204  0.4435
 4416SOL    HW124881   0.692   0.915   6.252 -0.6624  0.5641 -0.0590
 4416SOL    HW224882   0.618   0.808   6.311 -0.7791  1.4544 -1.1749
 4417SOL     OW24883   3.843   0.177  16.018 -0.9767  0.3122 -0.2560
 4417SOL    HW124884   3.823   0.261  16.058 -0.0084  0.1830  0.5020
 4417SOL    HW224885   3.891   0.191  15.936  1.0497 -1.6475  0.5922
 4418SOL     OW24886   3.337   4.556   7.653 -0.0019 -0.1105  0.0847
 4418SOL    HW124887   3.318   4.463   7.663  1.2643 -0.5666 -1.6796
 4418SOL    HW224888   3.262   4.593   7.700 -1.3417  1.0700 -2.9162
 4419SOL     OW24889   0.957   1.456  14.950  0.1259  0.0593  0.1222
 4419SOL    HW124890   0.999   1.417  15.027  1.3703 -1.6174 -1.4083
 4419SOL    HW224891   1.037   1.477  14.901  0.0778 -1.7189 -0.7168
 4420SOL     OW24892   3.298   0.254   8.206  0.3206  0.2198 -0.7605
 4420SOL    HW124893   3.359   0.206   8.263 -0.2842  1.0841  0.6057
 4420SOL    HW224894   3.242   0.187   8.167 -1.0826  1.1406 -0.3082
 4421SOL     OW24895   0.215   3.240  17.140 -0.0391 -0.1515 -0.1267
 4421SOL    HW124896   0.227   3.150  17.112  1.6413  0.1498 -0.3432
 4421SOL    HW224897   0.132   3.231  17.188 -0.8381  2.6335 -0.9791
 4422SOL     OW24898   0.093   0.245   8.899  0.3635  0.1770 -0.5296
 4422SOL    HW124899   0.112   0.312   8.833  0.3038  0.7042  0.0004
 4422SOL    HW224900   0.091   0.301   8.976  1.6241  0.7133 -0.8930
 4423SOL     OW24901   1.555   1.948   6.668 -0.8900 -0.1094 -0.2620
 4423SOL    HW124902   1.504   1.901   6.602  0.0292 -2.3307  0.6171
 4423SOL    HW224903   1.616   1.884   6.704 -2.6706 -0.5346  1.9416
 4424SOL     OW24904   0.573   4.660  13.311 -0.7235 -0.6693 -0.1516
 4424SOL    HW124905   0.558   4.620  13.226  0.9893  2.1927 -1.7998
 4424SOL    HW224906   0.497   4.718  13.320 -0.4341 -0.5347  1.5020
 4425SOL     OW24907   0.305   3.015  11.966  0.3115  0.2698  0.2378
 4425SOL    HW124908   0.238   2.947  11.955  2.0494 -1.3553 -0.3938
 4425SOL    HW224909   0.298   3.059  12.050  2.1388 -0.6741  0.8631
 4426SOL     OW24910   1.913   2.049   8.608 -0.0820 -0.1283  0.1117
 4426SOL    HW124911   1.907   2.121   8.545  1.9424  0.7930  0.9873
 4426SOL    HW224912   1.826   2.010   8.598  0.2034 -0.8818  0.5366
 4427SOL     OW24913   1.731   0.931   2.828 -0.0996  0.2807 -0.5490
 4427SOL    HW124914   1.697   0.904   2.742  0.2118  1.1121 -0.9362
 4427SOL    HW224915   1.823   0.904   2.827 -0.3459 -0.4670 -4.8664
 4428SOL     OW24916   4.294   4.082   1.770 -0.0173 -0.0918  0.4578
 4428SOL    HW124917   4.311   4.098   1.862  1.2464  0.6453  0.0935
 4428SOL    HW224918   4.223   4.019   1.787  1.1736 -0.8435  2.6522
 4429SOL     OW24919   4.550   3.219   6.440  0.6342  0.2436  0.3901
 4429SOL    HW124920   4.480   3.227   6.504 -0.4502  2.4911 -1.0571
 4429SOL    HW224921   4.517   3.255   6.357 -1.5555 -0.7558  0.8356
 4430SOL     OW24922   3.756   0.667   4.499 -0.0946  0.0823  0.6998
 4430SOL    HW124923   3.746   0.578   4.534  3.1693 -0.2293  0.9093
 4430SOL    HW224924   3.833   0.693   4.549 -0.9323  0.7834  1.6058
 4431SOL     OW24925   1.626   2.634  15.023  0.2105 -0.0144  0.8623
 4431SOL    HW124926   1.544   2.681  15.009  0.0227 -0.9334 -1.1525
 4431SOL    HW224927   1.603   2.548  14.987 -0.2428 -0.1417  1.4405
 4432SOL     OW24928   0.282   0.143   8.676 -0.1850  0.4795  0.2155
 4432SOL    HW124929   0.329   0.060   8.664 -0.7466 -0.1472  2.3862
 4432SOL    HW224930   0.278   0.178   8.587  0.0171  1.1966  0.4879
 4433SOL     OW24931   0.057   2.045  12.594  0.5070 -0.2041 -0.1295
 4433SOL    HW124932   0.147   2.016  12.606 -0.1520 -2.2860 -0.3004
 4433SOL    HW224933   0.067   2.114  12.528  1.4280  0.0961  0.3360
 4434SOL     OW24934   0.240   2.624   4.268 -0.2583 -0.2653  0.5771
 4434SOL    HW124935   0.305   2.587   4.328 -0.7566  0.0603  1.3154
 4434SOL    HW224936   0.163   2.596   4.318 -0.7719  0.0223 -0.0508
 4435SOL     OW24937   0.683   4.332  13.581  0.2927  0.5584  0.0051
 4435SOL    HW124938   0.666   4.253  13.632  2.0618  0.5917  0.6469
 4435SOL    HW224939   0.769   4.361  13.610 -0.5822  2.8338  0.3566
 4436SOL     OW24940   1.800   2.132   4.700 -0.3133  0.1823  0.2715
 4436SOL    HW124941   1.764   2.123   4.612 -2.1128 -2.1049  1.2483
 4436SOL    HW224942   1.892   2.111   4.682 -1.0981 -2.6296 -0.4635
 4437SOL     OW24943   0.952   4.454   5.072  0.2406  0.3962 -0.2656
 4437SOL    HW124944   0.974   4.516   5.142 -0.1038  0.3357 -0.1022
 4437SOL    HW224945   1.031   4.400   5.074 -0.7361 -1.0742 -0.9884
 4438SOL     OW24946   2.935   2.421   2.452  0.0561 -0.6409 -0.1433
 4438SOL    HW124947   2.882   2.482   2.504 -2.8368 -3.8444  0.6591
 4438SOL    HW224948   2.864   2.371   2.412 -0.1091 -0.1030 -0.5196
 4439SOL     OW24949   1.066   3.047   7.534 -0.2137 -0.1004  0.3334
 4439SOL    HW124950   1.122   3.026   7.609  0.7901  2.3661  0.2945
 4439SOL    HW224951   1.132   3.106   7.497 -0.3342 -0.7717 -0.9167
 4440SOL     OW24952   0.545   1.663   7.399 -0.1733  0.0605  0.0814
 4440SOL    HW124953   0.535   1.716   7.478  2.7590  0.1001  0.4261
 4440SOL    HW224954   0.640   1.650   7.398 -0.0864  0.6591  0.3721
 4441SOL     OW24955   0.597   3.917   7.844 -0.0609 -0.3654  0.0701
 4441SOL    HW124956   0.661   3.968   7.793  1.8709 -1.6320  1.2321
 4441SOL    HW224957   0.517   3.935   7.795  1.3855  1.2236 -1.7339
 4442SOL     OW24958   0.535   1.633   7.852  0.5743 -0.0804 -0.1349
 4442SOL    HW124959   0.472   1.595   7.914  0.1926  0.8560  0.0659
 4442SOL    HW224960   0.486   1.716   7.851  0.5498 -0.1070 -1.0398
 4443SOL     OW24961   3.737   1.446  11.323 -0.4617 -0.6271 -0.2462
 4443SOL    HW124962   3.749   1.352  11.309  0.0061 -0.4234 -1.2071
 4443SOL    HW224963   3.806   1.470  11.386 -2.6218 -0.5174  2.0593
 4444SOL     OW24964   3.294   2.858   7.665  0.3405 -0.1218 -0.2635
 4444SOL    HW124965   3.329   2.773   7.689  0.8608  0.1829  0.0620
 4444SOL    HW224966   3.333   2.867   7.578  1.0233  0.8531  0.1374
 4445SOL     OW24967   3.665   1.556  10.451 -0.0926  0.5485  0.4292
 4445SOL    HW124968   3.665   1.651  10.437  0.8464  0.6175  0.9100
 4445SOL    HW224969   3.723   1.546  10.526 -0.7195  3.5229  1.2929
 4446SOL     OW24970   3.218   3.638   5.325  0.5125  0.1190  0.0036
 4446SOL    HW124971   3.141   3.590   5.357 -0.7740  1.8113 -0.5327
 4446SOL    HW224972   3.177   3.716   5.289  0.7370  0.5205  0.6175
 4447SOL     OW24973   0.290   3.050  16.266 -0.0613 -0.1020 -0.7672
 4447SOL    HW124974   0.242   2.971  16.242 -1.1611 -0.0283  1.1718
 4447SOL    HW224975   0.381   3.053  16.235 -0.4497 -1.2510 -1.9894
 4448SOL     OW24976   0.905   3.377  17.527  0.0666  0.1598 -0.4049
 4448SOL    HW124977   0.899   3.467  17.558  1.3624  0.3544 -0.7202
 4448SOL    HW224978   0.839   3.375  17.458  1.2223 -0.0914 -1.5092
 4449SOL     OW24979   3.482   3.152   6.473  1.1852  0.6537  0.3261
 4449SOL    HW124980   3.438   3.132   6.390  0.3346  3.3296  0.1319
 4449SOL    HW224981   3.533   3.071   6.482  2.3428  1.4548  0.9922
 4450SOL     OW24982   2.029   4.458   1.818  0.1795 -0.4233  0.8376
 4450SOL    HW124983   2.069   4.411   1.891  2.5420  0.0671 -0.1086
 4450SOL    HW224984   2.037   4.545   1.856  0.0322  0.1161 -0.3449
 4451SOL     OW24985   1.601   2.435  13.068  0.0299 -0.5293 -0.2185
 4451SOL    HW124986   1.557   2.517  13.089 -0.3171 -0.3603 -1.6176
 4451SOL    HW224987   1.677   2.455  13.014  0.0834 -1.5053 -0.5037
 4452SOL     OW24988   2.776   4.151  13.036  0.3070  0.0578  0.1224
 4452SOL    HW124989   2.731   4.214  13.092 -1.0506 -2.7542  2.2006
 4452SOL    HW224990   2.855   4.196  13.006 -0.0662  0.6216 -0.0205
 4453SOL     OW24991   2.588   1.013   6.842  0.3379 -0.1240  0.0393
 4453SOL    HW124992   2.498   1.044   6.846  0.7836  1.4323 -2.1328
 4453SOL    HW224993   2.620   1.006   6.932 -0.3153  0.3101  0.3072
 4454SOL     OW24994   4.133   1.912   2.629 -0.5803  0.1741  0.4523
 4454SOL    HW124995   4.114   1.874   2.543 -0.2420  2.7577 -0.7640
 4454SOL    HW224996   4.043   1.945   2.640 -0.3334  0.0676  2.7232
 4455SOL     OW24997   4.438   2.906  13.760  0.2711  0.3028  0.4705
 4455SOL    HW124998   4.363   2.846  13.756 -1.1174  2.0257  0.8365
 4455SOL    HW224999   4.466   2.908  13.852  0.1860  2.0164  0.4533
 4456SOL     OW25000   3.543   0.322   4.935  0.1489 -0.1878  0.2222
 4456SOL    HW125001   3.562   0.235   4.901 -0.2736  0.1491 -0.8530
 4456SOL    HW225002   3.544   0.296   5.027 -0.5935 -0.6324  0.1024
 4457SOL     OW25003   3.652   2.815   0.993  0.3001  0.0204  0.2948
 4457SOL    HW125004   3.701   2.733   0.994  0.3013  0.0201  0.0880
 4457SOL    HW225005   3.712   2.869   0.943  0.1607 -0.0023  0.1047
 4458SOL     OW25006   2.759   4.180   7.165 -0.2039 -0.4653  0.4461
 4458SOL    HW125007   2.819   4.195   7.238 -1.4937 -0.8826  1.5969
 4458SOL    HW225008   2.755   4.084   7.160  2.0577 -0.5121 -0.0423
 4459SOL     OW25009   4.517   0.463   7.037  0.2904 -0.4818 -0.3324
 4459SOL    HW125010   4.554   0.547   7.065  0.0385 -0.6073  0.3703
 4459SOL    HW225011   4.572   0.398   7.081  0.7240 -1.0850 -1.7903
 4460SOL     OW25012   0.454   3.704   5.331 -1.3988  0.3694  0.3963
 4460SOL    HW125013   0.487   3.615   5.325 -0.4091  0.7572 -0.0136
 4460SOL    HW225014   0.412   3.701   5.417 -0.0010 -1.4271  1.0075
 4461SOL     OW25015   3.666   3.629   8.580  0.1434  0.0106  0.1621
 4461SOL    HW125016   3.656   3.578   8.500 -2.4604  1.7290 -0.6280
 4461SOL    HW225017   3.722   3.703   8.552 -1.8710  0.9658 -1.3400
 4462SOL     OW25018   1.532   0.265   8.394 -0.0438 -0.5190  0.1236
 4462SOL    HW125019   1.551   0.192   8.453  0.3350 -1.4759 -1.1786
 4462SOL    HW225020   1.511   0.328   8.464 -2.2651  0.2997 -1.2971
 4463SOL     OW25021   2.292   1.374   7.725  0.7185  0.2646  0.1312
 4463SOL    HW125022   2.375   1.327   7.726  0.8730  0.5410  0.2457
 4463SOL    HW225023   2.314   1.467   7.735  2.6134 -0.1859  0.2071
 4464SOL     OW25024   3.789   2.468   5.349 -0.4383  0.2921 -0.2213
 4464SOL    HW125025   3.817   2.520   5.273  0.0726 -1.1588 -1.0066
 4464SOL    HW225026   3.760   2.393   5.297 -0.1848 -1.3766  2.0666
 4465SOL     OW25027   3.383   1.615   4.854 -0.0146 -0.2429 -0.3209
 4465SOL    HW125028   3.373   1.664   4.772 -0.8090  1.2817  0.6784
 4465SOL    HW225029   3.401   1.690   4.911  0.9124 -1.2768  0.7491
 4466SOL     OW25030   2.911   0.421  10.750  0.7112 -0.5897 -0.0770
 4466SOL    HW125031   2.897   0.398  10.659  2.6128  1.4329 -0.8801
 4466SOL    HW225032   2.822   0.423  10.786  0.6315  0.9659 -0.3679
 4467SOL     OW25033   1.271   4.348   6.844  0.2235 -0.2620  0.2360
 4467SOL    HW125034   1.225   4.309   6.918  2.0793 -1.0477  0.9743
 4467SOL    HW225035   1.201   4.387   6.791  0.4315 -0.6884 -0.3518
 4468SOL     OW25036   1.362   2.905   0.352 -0.2061 -0.4313 -0.1322
 4468SOL    HW125037   1.306   2.886   0.427  1.2617 -1.5769  0.6800
 4468SOL    HW225038   1.309   2.861   0.285 -0.6317 -0.1206 -0.0013
 4469SOL     OW25039   3.035   4.377   8.708 -0.0781 -0.3014  0.2094
 4469SOL    HW125040   2.969   4.359   8.642 -1.4868 -2.1055  2.0920
 4469SOL    HW225041   3.080   4.296   8.732 -0.3788 -0.2085  1.0999
 4470SOL     OW25042   4.088   1.282  15.071 -0.4398 -0.1666 -0.0995
 4470SOL    HW125043   4.112   1.201  15.116 -0.5870  0.4402  1.0757
 4470SOL    HW225044   4.029   1.318  15.138 -1.3632  1.9141 -2.0319
 4471SOL     OW25045   0.323   1.470  12.802 -0.4744  0.5119  0.3554
 4471SOL    HW125046   0.277   1.473  12.718  0.5046  2.5954 -0.1130
 4471SOL    HW225047   0.332   1.565  12.809  2.5643  0.0839  2.5075
 4472SOL     OW25048   2.924   0.701   3.250 -0.0929 -0.3476  0.5571
 4472SOL    HW125049   2.995   0.736   3.304  2.5492  1.0423 -3.8453
 4472SOL    HW225050   2.864   0.684   3.322 -2.6067  1.6897 -1.0678
 4473SOL     OW25051   0.380   3.337  17.339  0.0514  0.3628  0.2571
 4473SOL    HW125052   0.338   3.317  17.255  0.0452 -0.1714  0.3891
 4473SOL    HW225053   0.327   3.401  17.386 -1.4610 -1.0813  0.5368
 4474SOL     OW25054   1.331   4.543   4.026 -0.5944  0.3644  0.3334
 4474SOL    HW125055   1.275   4.578   4.095 -0.3436  2.5667 -0.5837
 4474SOL    HW225056   1.420   4.562   4.054 -0.6468  0.2217  0.5920
 4475SOL     OW25057   1.414   2.364  17.642  0.1524  0.0676 -0.1972
 4475SOL    HW125058   1.507   2.373  17.664 -0.3556  1.7538  1.3493
 4475SOL    HW225059   1.408   2.370  17.547 -1.8455 -1.1157 -0.1395
 4476SOL     OW25060   0.211   2.823   6.356 -0.2237 -0.7669 -1.0355
 4476SOL    HW125061   0.260   2.888   6.306  3.8897 -1.0033  2.6349
 4476SOL    HW225062   0.269   2.752   6.330 -1.3738 -1.3434 -2.0227
 4477SOL     OW25063   0.196   2.577   7.356  0.0201  0.6391  0.1710
 4477SOL    HW125064   0.103   2.594   7.341  0.0072  2.4291  2.3431
 4477SOL    HW225065   0.216   2.497   7.307 -0.4176  1.4238 -1.2743
 4478SOL     OW25066   2.572   0.289  16.662 -0.2818  0.0522  0.0196
 4478SOL    HW125067   2.594   0.256  16.749  0.3417 -0.7482 -0.4311
 4478SOL    HW225068   2.620   0.225  16.609  0.4074  1.2164 -0.7504
 4479SOL     OW25069   1.172   0.727   6.844 -0.5324  0.2129  0.0549
 4479SOL    HW125070   1.260   0.764   6.849  0.3948 -2.1584  1.2529
 4479SOL    HW225071   1.122   0.803   6.814 -0.1222  0.2421 -0.5481
 4480SOL     OW25072   3.783   4.319   2.209  0.1157 -0.9838  0.3075
 4480SOL    HW125073   3.755   4.257   2.276 -0.5606 -1.3558 -0.3216
 4480SOL    HW225074   3.876   4.333   2.229  0.4786  1.2264 -2.8049
 4481SOL     OW25075   1.859   4.234   6.589 -0.0138  0.2963  0.5293
 4481SOL    HW125076   1.859   4.315   6.537  0.4510  0.2158  0.4104
 4481SOL    HW225077   1.953   4.224   6.603  0.2198  0.6466 -0.7815
 4482SOL     OW25078   0.318   0.177   0.180  0.6052  0.3516 -0.1575
 4482SOL    HW125079   0.269   0.096   0.195  2.7352 -0.7213  0.9746
 4482SOL    HW225080   0.283   0.244   0.239  0.2446 -0.6542  0.7673
 4483SOL     OW25081   2.958   4.118   7.928  0.2607 -0.4044 -0.4598
 4483SOL    HW125082   2.925   4.189   7.983  0.8898 -1.3766  1.1959
 4483SOL    HW225083   2.939   4.146   7.839 -0.1677 -0.8272 -0.4996
 4484SOL     OW25084   0.617   0.317   8.700  0.0542 -0.1076 -0.4508
 4484SOL    HW125085   0.571   0.233   8.692 -2.3968  0.9378  2.5708
 4484SOL    HW225086   0.699   0.290   8.741 -0.2688  0.3084  0.4806
 4485SOL     OW25087   0.150   0.696  15.651  0.0892  0.1094  0.2924
 4485SOL    HW125088   0.226   0.746  15.621 -0.1500 -0.4306 -1.1932
 4485SOL    HW225089   0.095   0.769  15.681  0.7059  0.7231 -0.0611
 4486SOL     OW25090   1.502   3.469   3.047  0.4317  0.0698  0.0407
 4486SOL    HW125091   1.428   3.441   2.994 -0.4411  0.9393  0.8088
 4486SOL    HW225092   1.561   3.502   2.978 -0.7191  2.3135  0.1176
 4487SOL     OW25093   2.321   0.553   2.311  0.0399  0.5878  0.2186
 4487SOL    HW125094   2.258   0.589   2.374 -0.8051  0.4224 -0.5360
 4487SOL    HW225095   2.380   0.628   2.306  0.3033  0.3780  0.2067
 4488SOL     OW25096   0.681   2.884   3.081 -0.0501 -0.0991 -0.3808
 4488SOL    HW125097   0.622   2.811   3.061 -0.9022  0.4574  0.1223
 4488SOL    HW225098   0.759   2.834   3.105  0.4178  1.9951  2.3664
 4489SOL     OW25099   4.322   2.299  10.730  0.3378  0.6208 -0.0973
 4489SOL    HW125100   4.412   2.280  10.758 -0.3287  0.4301  1.9391
 4489SOL    HW225101   4.337   2.367  10.664 -0.2686  1.2973  0.4543
 4490SOL     OW25102   1.673   3.024  15.076  0.1179 -0.0184 -0.4410
 4490SOL    HW125103   1.590   2.981  15.053  0.2880  1.3532 -3.6507
 4490SOL    HW225104   1.666   3.104  15.024 -0.4698 -0.1756 -0.6056
 4491SOL     OW25105   2.162   2.304  15.902  0.4507 -0.0839  0.2323
 4491SOL    HW125106   2.207   2.237  15.850 -1.2442 -1.6542  0.7690
 4491SOL    HW225107   2.147   2.377  15.843 -2.3472  0.9919  2.2399
 4492SOL     OW25108   1.788   1.311   1.298 -1.0707  1.4085 -0.8451
 4492SOL    HW125109   1.730   1.388   1.297 -2.3093  0.4474 -1.6594
 4492SOL    HW225110   1.846   1.329   1.225  0.8966  0.3375  0.4598
 4493SOL     OW25111   3.896   2.205   1.267  0.0117  0.3049  0.5203
 4493SOL    HW125112   3.984   2.208   1.305  0.5040 -0.2346 -0.5673
 4493SOL    HW225113   3.889   2.271   1.198  2.1678 -1.2300 -1.1968
 4494SOL     OW25114   2.402   2.525   3.232 -0.2358  0.1819  0.2633
 4494SOL    HW125115   2.414   2.612   3.269  1.6645  0.0403 -0.0152
 4494SOL    HW225116   2.478   2.520   3.175  0.6847 -3.1659  1.7716
 4495SOL     OW25117   4.127   1.534   4.918 -0.1881 -0.0301 -0.0691
 4495SOL    HW125118   4.191   1.596   4.883  1.4759 -0.5051  2.1412
 4495SOL    HW225119   4.170   1.487   4.989  1.8493  0.5926 -0.9051
 4496SOL     OW25120   4.017   3.206  15.474  0.7192  0.1938  0.2642
 4496SOL    HW125121   4.012   3.196  15.569  0.3023 -0.3870  0.1790
 4496SOL    HW225122   3.960   3.134  15.449  0.4780 -0.1720  1.8706
 4497SOL     OW25123   2.366   0.864   8.385 -0.2512 -0.1348 -0.2345
 4497SOL    HW125124   2.279   0.900   8.369  0.2067  1.2206  0.3218
 4497SOL    HW225125   2.350   0.786   8.439  0.0022 -0.0372 -0.0148
 4498SOL     OW25126   4.211   4.635   8.115 -0.2180  0.4742  0.2698
 4498SOL    HW125127   4.292   4.673   8.148  0.7512 -0.0040 -1.5935
 4498SOL    HW225128   4.176   4.704   8.059  0.4832 -0.5427 -1.4384
 4499SOL     OW25129   0.001   0.473   7.301 -0.2731 -0.6498 -0.0019
 4499SOL    HW125130   4.683   0.411   7.263 -0.2029 -0.2404 -0.7638
 4499SOL    HW225131   0.053   0.418   7.361  0.9486  1.1731  0.5937
 4500SOL     OW25132   0.022   0.656   4.466  0.3773  0.4083  0.1508
 4500SOL    HW125133   0.053   0.567   4.448 -0.5187 -0.3355  2.3020
 4500SOL    HW225134   4.725   0.635   4.550 -1.4105  0.6315 -0.6509
 4501SOL     OW25135   1.261   1.064  12.727  0.2387 -0.3372  0.0486
 4501SOL    HW125136   1.331   1.038  12.787 -1.4012 -1.4355  1.4670
 4501SOL    HW225137   1.176   1.037  12.761  0.3024 -1.1120 -0.3912
 4502SOL     OW25138   4.515   4.401   5.808 -0.3106  0.5217  0.1278
 4502SOL    HW125139   4.497   4.350   5.729 -0.6019  1.5811 -0.4880
 4502SOL    HW225140   4.453   4.365   5.872 -1.8103  0.0450 -1.6076
 4503SOL     OW25141   1.306   0.616  10.879 -0.5396 -0.0569 -0.2486
 4503SOL    HW125142   1.347   0.659  10.954  0.8426  1.1767 -1.7157
 4503SOL    HW225143   1.287   0.527  10.909  1.1693 -0.5280 -0.5597
 4504SOL     OW25144   1.758   4.052   8.374 -0.4892  0.0450 -0.0803
 4504SOL    HW125145   1.830   4.112   8.354  0.9564 -0.6861  2.8567
 4504SOL    HW225146   1.765   4.042   8.469  1.5158  0.8157 -0.1346
 4505SOL     OW25147   4.734   0.118  17.428 -0.2859  0.6750  0.0519
 4505SOL    HW125148   0.015   0.027  17.412  1.6313  1.0515  0.9053
 4505SOL    HW225149   4.721   0.147  17.337 -2.1744  2.7757  0.9797
 4506SOL     OW25150   0.068   0.629  16.238 -0.4387 -0.0790 -0.8855
 4506SOL    HW125151   0.117   0.550  16.259 -3.1151 -1.7386 -0.9229
 4506SOL    HW225152   0.138   0.674  16.192  0.1926  0.3031  0.4527
 4507SOL     OW25153   2.415   1.179   7.466  0.0103 -0.2354 -0.1912
 4507SOL    HW125154   2.474   1.168   7.541 -0.2652  1.0694  0.2135
 4507SOL    HW225155   2.334   1.167   7.515  0.2342  0.5234  0.3493
 4508SOL     OW25156   2.467   3.155   6.518 -0.0756  0.5696 -0.0370
 4508SOL    HW125157   2.407   3.168   6.591  0.4720 -0.0708  0.5265
 4508SOL    HW225158   2.438   3.232   6.470  1.7958  1.9993  1.1705
 4509SOL     OW25159   4.227   2.840   3.470  0.0513  0.3475 -0.7376
 4509SOL    HW125160   4.261   2.764   3.516 -1.4923 -0.0503 -0.2708
 4509SOL    HW225161   4.235   2.814   3.378 -0.4885  0.2745 -0.7607
 4510SOL     OW25162   0.933   1.979   9.707  0.1944 -0.3442 -0.0337
 4510SOL    HW125163   1.027   1.997   9.697  0.2916 -1.2477 -0.7173
 4510SOL    HW225164   0.892   1.995   9.622 -0.5278  0.3788  0.4466
 4511SOL     OW25165   2.450   1.808   4.181  0.0021 -0.2600 -0.0110
 4511SOL    HW125166   2.483   1.722   4.207 -1.3751 -1.3366 -1.7746
 4511SOL    HW225167   2.530   1.854   4.207  0.5946 -0.1940 -1.9495
 4512SOL     OW25168   0.348   3.300   7.475  0.0838 -0.1598  0.5352
 4512SOL    HW125169   0.444   3.302   7.476  0.0979 -1.0361  1.2131
 4512SOL    HW225170   0.316   3.374   7.424  0.1421 -2.4535 -2.8273
 4513SOL     OW25171   2.358   3.550   6.789  0.5313 -0.1150 -0.3959
 4513SOL    HW125172   2.288   3.597   6.743 -0.1899 -1.3061 -0.5281
 4513SOL    HW225173   2.431   3.568   6.731 -0.0906  2.3303 -0.4277
 4514SOL     OW25174   2.749   2.689   3.774 -0.2491 -0.4472  0.0227
 4514SOL    HW125175   2.782   2.627   3.837 -1.4712 -0.6318  0.4864
 4514SOL    HW225176   2.714   2.621   3.716 -0.8708 -0.2127  0.1182
 4515SOL     OW25177   0.434   3.411   0.613 -0.2156  0.3933 -0.4564
 4515SOL    HW125178   0.361   3.472   0.614 -1.0879 -0.6361 -3.0584
 4515SOL    HW225179   0.497   3.455   0.556  0.5389 -1.5164 -1.0808
 4516SOL     OW25180   3.404   0.981   9.755 -0.4290 -0.5142  0.2997
 4516SOL    HW125181   3.493   1.016   9.762  0.4560 -2.3658 -2.2805
 4516SOL    HW225182   3.420   0.887   9.761  3.9554  0.0339 -2.9521
 4517SOL     OW25183   3.583   4.296   1.760  0.0146 -0.9942 -0.2001
 4517SOL    HW125184   3.494   4.272   1.733 -0.3100 -0.0315  0.0183
 4517SOL    HW225185   3.627   4.213   1.740  0.9882 -0.3934 -0.5448
 4518SOL     OW25186   2.934   2.735   6.956 -0.6000  0.0375  0.1785
 4518SOL    HW125187   2.981   2.818   6.951  2.0205 -1.3980  1.0729
 4518SOL    HW225188   2.890   2.745   6.871 -0.6526 -0.0083  0.2004
 4519SOL     OW25189   0.017   0.434   8.461 -0.1238  0.2337  0.3905
 4519SOL    HW125190   0.088   0.486   8.500  0.3005  1.3672 -1.8830
 4519SOL    HW225191   0.035   0.415   8.369 -3.0073 -0.0573 -0.1091
 4520SOL     OW25192   0.994   1.650   9.353 -0.8489  0.0524 -0.5938
 4520SOL    HW125193   0.914   1.701   9.363 -0.2565  1.7704 -4.7833
 4520SOL    HW225194   1.059   1.720   9.339 -0.9404  0.3023  0.1953
 4521SOL     OW25195   1.797   4.392   3.940  0.2268 -0.1155 -0.0871
 4521SOL    HW125196   1.776   4.428   3.853  1.1447  0.5683 -0.0315
 4521SOL    HW225197   1.893   4.398   3.935  0.2757 -1.0049 -0.2203
 4522SOL     OW25198   3.907   1.238  12.100  0.0449  0.4307  0.0976
 4522SOL    HW125199   3.931   1.264  12.011 -0.6618  1.0736  0.0879
 4522SOL    HW225200   3.980   1.179  12.118 -1.2209 -1.2441 -0.2257
 4523SOL     OW25201   4.139   2.069   5.438 -0.0508  0.2410  0.1160
 4523SOL    HW125202   4.085   2.052   5.515 -1.7337 -1.8620 -1.5481
 4523SOL    HW225203   4.074   2.078   5.369  1.9729  0.0037 -1.7954
 4524SOL     OW25204   1.374   3.795   5.242  0.7801 -0.0645  0.3369
 4524SOL    HW125205   1.370   3.887   5.216 -1.9098 -0.5916 -1.1195
 4524SOL    HW225206   1.305   3.788   5.308 -1.4061 -0.8034 -2.0286
 4525SOL     OW25207   3.775   4.309   8.845  0.0903  0.5887 -0.5174
 4525SOL    HW125208   3.817   4.274   8.923 -2.3095 -0.5162  0.2965
 4525SOL    HW225209   3.834   4.379   8.818 -1.5080  1.5223 -1.6141
 4526SOL     OW25210   3.374   0.650   6.252  0.0002 -0.1169 -0.3009
 4526SOL    HW125211   3.457   0.694   6.231 -0.5231  1.1122  0.2419
 4526SOL    HW225212   3.330   0.723   6.295  0.5499 -0.0567  0.1514
 4527SOL     OW25213   4.054   0.977  13.578 -0.6366  0.2099 -0.0114
 4527SOL    HW125214   3.961   0.985  13.598 -0.4450  2.0422  0.1543
 4527SOL    HW225215   4.076   0.891  13.542  1.5902 -0.0539  1.9640
 4528SOL     OW25216   2.280   3.611   2.061  0.2276  0.6129 -0.9806
 4528SOL    HW125217   2.288   3.705   2.079 -0.2883  0.4200  0.2062
 4528SOL    HW225218   2.212   3.573   2.117  0.0764  1.7283 -0.3927
 4529SOL     OW25219   2.551   3.893   7.732  0.5666  0.0737 -0.3024
 4529SOL    HW125220   2.619   3.876   7.799 -1.8383  0.6159  2.2652
 4529SOL    HW225221   2.523   3.808   7.697  1.0756  0.4852 -1.6949
 4530SOL     OW25222   0.894   0.538   8.414  0.0193 -0.0788  0.2931
 4530SOL    HW125223   0.819   0.534   8.474 -1.2226  1.6890 -1.1365
 4530SOL    HW225224   0.874   0.626   8.382  0.6723  0.5054  1.5375
 4531SOL     OW25225   1.333   1.328  15.675 -0.0192 -0.4638 -0.6739
 4531SOL    HW125226   1.283   1.408  15.692 -0.6508 -1.3162  1.4778
 4531SOL    HW225227   1.372   1.315  15.761 -1.5192 -1.3042 -0.1062
 4532SOL     OW25228   3.520   3.883  14.033 -0.4303  0.1050  0.6084
 4532SOL    HW125229   3.516   3.959  13.974  1.3163  0.9939  1.6443
 4532SOL    HW225230   3.553   3.814  13.975 -1.5170 -0.5115  0.7300
 4533SOL     OW25231   0.020   2.607  16.888  0.0849 -0.1793 -0.3871
 4533SOL    HW125232   0.049   2.696  16.908  2.1236 -0.7622 -0.8183
 4533SOL    HW225233   4.689   2.637  16.836 -1.3170  0.5981  2.0381
 4534SOL     OW25234   0.482   2.821   4.170 -1.0176 -0.0749 -0.2537
 4534SOL    HW125235   0.400   2.865   4.189  0.0354  1.6045  0.4587
 4534SOL    HW225236   0.510   2.783   4.254 -1.3871  2.4600  1.0073
 4535SOL     OW25237   3.193   0.033   4.514  0.2710 -0.2638  0.3785
 4535SOL    HW125238   3.222   0.051   4.425 -0.8234 -0.4825 -0.0247
 4535SOL    HW225239   3.167   4.684   4.516  0.5702 -0.3508  0.2711
 4536SOL     OW25240   0.746   2.552   0.177 -0.1841  0.1281  0.3231
 4536SOL    HW125241   0.712   2.588   0.095  0.6314 -0.1751 -0.1529
 4536SOL    HW225242   0.840   2.559   0.160 -0.1322 -0.5135  0.3350
 4537SOL     OW25243   4.350   2.350   1.678 -0.0348 -0.0776 -0.3206
 4537SOL    HW125244   4.275   2.293   1.660 -0.3938 -0.3877  2.2092
 4537SOL    HW225245   4.390   2.313   1.757  0.4180 -1.2258 -1.0741
 4538SOL     OW25246   0.102   0.660   9.310 -0.2114 -0.0657  0.2528
 4538SOL    HW125247   0.183   0.628   9.271 -0.5969 -2.3616  1.3475
 4538SOL    HW225248   0.040   0.590   9.291 -1.1533  0.8286  0.0184
 4539SOL     OW25249   1.109   2.964   6.592  0.0957 -0.2278  0.0709
 4539SOL    HW125250   1.186   3.005   6.632  0.4350 -0.3363 -0.4802
 4539SOL    HW225251   1.156   2.899   6.540  2.9950  1.2577  0.8073
 4540SOL     OW25252   3.019   3.814  16.872 -0.5086  0.3392 -0.7735
 4540SOL    HW125253   3.112   3.826  16.895 -0.3305 -0.1210 -1.2594
 4540SOL    HW225254   3.009   3.857  16.787  0.4149  1.1885 -0.4535
 4541SOL     OW25255   1.886   3.117   4.756  0.4728 -0.6345 -0.5271
 4541SOL    HW125256   1.857   3.030   4.729 -1.6368 -0.3011  0.6732
 4541SOL    HW225257   1.962   3.140   4.703  1.2140 -2.2438 -0.1430
 4542SOL     OW25258   1.723   4.252  13.564  0.7036 -0.3656 -0.0355
 4542SOL    HW125259   1.718   4.339  13.525  0.5815  0.1829  1.1906
 4542SOL    HW225260   1.664   4.205  13.506  0.2657 -1.7731  1.5546
 4543SOL     OW25261   4.407   3.012   3.736  0.2807 -0.2139 -0.2269
 4543SOL    HW125262   4.493   3.050   3.714 -0.5109  2.0992  0.6615
 4543SOL    HW225263   4.374   3.065   3.809  1.6808 -0.6073  0.7039
 4544SOL     OW25264   3.066   2.104   3.689  0.3782 -0.8631 -0.3720
 4544SOL    HW125265   3.142   2.068   3.734 -1.5622  0.1253  3.6731
 4544SOL    HW225266   3.095   2.195   3.699 -1.0839 -0.5485  0.8674
 4545SOL     OW25267   3.090   3.210   5.831  0.1223  0.6786 -0.3620
 4545SOL    HW125268   3.029   3.178   5.764 -0.6441 -0.2152  0.7621
 4545SOL    HW225269   3.107   3.128   5.877 -0.6006  1.4787  1.3040
 4546SOL     OW25270   0.004   1.990   9.175  0.2495  0.0397 -0.1761
 4546SOL    HW125271   4.713   1.908   9.212 -2.3214  0.8884 -0.7084
 4546SOL    HW225272   0.088   2.004   9.219  0.0728  0.8258 -0.0890
 4547SOL     OW25273   4.332   2.585   2.634 -0.1726 -0.4827 -0.3094
 4547SOL    HW125274   4.338   2.509   2.576 -1.0903 -1.3761  0.7550
 4547SOL    HW225275   4.354   2.545   2.718 -0.3791  0.1584  0.0534
 4548SOL     OW25276   3.547   0.590   7.074 -0.3000  0.0017 -0.2742
 4548SOL    HW125277   3.637   0.594   7.105 -0.5251  1.7352  0.1897
 4548SOL    HW225278   3.537   0.683   7.054  0.0554  0.2007  0.5014
 4549SOL     OW25279   3.508   1.128   6.754  0.6376  0.7286 -0.5057
 4549SOL    HW125280   3.586   1.164   6.795  0.5774 -0.0199  0.2673
 4549SOL    HW225281   3.529   1.152   6.663 -2.5908  3.3734 -0.5518
 4550SOL     OW25282   1.970   4.490   3.395  0.2181  1.0228 -0.0978
 4550SOL    HW125283   1.956   4.419   3.333  2.6865 -0.9880  1.6399
 4550SOL    HW225284   2.062   4.474   3.416 -0.1743 -1.0046  0.0365
 4551SOL     OW25285   4.107   0.977   5.108 -0.2420  0.8962 -0.1622
 4551SOL    HW125286   4.031   0.948   5.059 -0.2371 -1.6613  1.3660
 4551SOL    HW225287   4.073   1.063   5.133 -1.7493  0.4609 -0.7326
 4552SOL     OW25288   4.037   2.909  13.178  0.0468  0.2870 -0.3297
 4552SOL    HW125289   4.128   2.891  13.202 -0.6866 -2.5547  0.2486
 4552SOL    HW225290   3.992   2.948  13.252 -0.1684 -1.1519  0.2957
 4553SOL     OW25291   3.217   2.946   2.951 -0.2608  0.1599  0.1974
 4553SOL    HW125292   3.125   2.931   2.930 -0.0432  1.2746 -1.5519
 4553SOL    HW225293   3.204   2.966   3.044  0.0380  1.1807  0.0253
 4554SOL     OW25294   0.843   3.708   8.529  0.2405 -0.0565 -0.2618
 4554SOL    HW125295   0.768   3.705   8.588  1.1459 -1.6656  0.8162
 4554SOL    HW225296   0.799   3.713   8.444 -0.6245 -2.0425  0.0652
 4555SOL     OW25297   4.068   3.541   2.315 -0.6186 -0.4636  0.5277
 4555SOL    HW125298   3.982   3.517   2.348 -1.0430 -0.7429 -0.7976
 4555SOL    HW225299   4.107   3.453   2.312  0.0607 -0.1856  1.1205
 4556SOL     OW25300   3.037   0.322  11.764  0.3550 -0.0447 -0.0556
 4556SOL    HW125301   2.965   0.268  11.796  1.3192 -0.8429  0.7530
 4556SOL    HW225302   3.022   0.409  11.802 -2.7220 -1.1280  1.1907
 4557SOL     OW25303   2.749   1.722   3.140  0.6870 -0.7410 -0.3250
 4557SOL    HW125304   2.704   1.741   3.222  2.7583 -2.1225  1.1200
 4557SOL    HW225305   2.840   1.729   3.168 -0.2082  1.1583  2.1301
 4558SOL     OW25306   1.622   3.370   5.475 -0.2119  0.1955  0.0332
 4558SOL    HW125307   1.655   3.281   5.467  0.4363  0.5623 -1.2793
 4558SOL    HW225308   1.695   3.404   5.527 -0.4120  0.5086  0.1169
 4559SOL     OW25309   2.339   0.948   6.454  0.1706 -0.2387 -0.5155
 4559SOL    HW125310   2.433   0.942   6.469  0.1073  1.4147  0.4543
 4559SOL    HW225311   2.336   0.985   6.366  0.1283  0.3165 -0.2792
 4560SOL     OW25312   2.479   3.151  16.134  0.0698 -0.9306  0.4147
 4560SOL    HW125313   2.441   3.130  16.048 -0.1950 -1.2873  0.6224
 4560SOL    HW225314   2.443   3.090  16.198 -0.6525  0.7643  1.5864
 4561SOL     OW25315   0.154   1.333   7.379 -0.3740 -0.4278 -0.0933
 4561SOL    HW125316   0.125   1.337   7.470  1.7506 -0.3391  0.5800
 4561SOL    HW225317   0.247   1.358   7.384 -1.2481  2.3705  2.3966
 4562SOL     OW25318   0.346   1.337   0.558 -0.9106 -0.2069  0.0306
 4562SOL    HW125319   0.302   1.252   0.566 -1.2126 -0.1426 -1.0035
 4562SOL    HW225320   0.432   1.317   0.596 -0.9404 -0.5147 -0.0647
 4563SOL     OW25321   1.009   3.238   6.592 -0.1862  0.3031  0.0331
 4563SOL    HW125322   1.032   3.146   6.578  0.2429  0.1385  1.8457
 4563SOL    HW225323   0.938   3.235   6.656  0.4959 -0.1739  0.7639
 4564SOL     OW25324   3.297   1.120   4.424  0.2549  0.5062  0.3592
 4564SOL    HW125325   3.209   1.113   4.388  0.9803  0.2960 -1.3918
 4564SOL    HW225326   3.278   1.048   4.484  2.5765 -0.2842  0.1393
 4565SOL     OW25327   4.156   2.205   1.352  0.5089  0.0776 -0.3618
 4565SOL    HW125328   4.238   2.156   1.343 -0.4651 -1.7538  0.8571
 4565SOL    HW225329   4.176   2.298   1.343  1.3675 -0.3500 -2.9505
 4566SOL     OW25330   0.044   1.855   5.486  0.3501 -0.4011 -0.0791
 4566SOL    HW125331   0.128   1.835   5.527  0.8667 -1.2848 -1.5589
 4566SOL    HW225332   0.007   1.840   5.573  1.9019  2.3806  1.0388
 4567SOL     OW25333   2.665   4.268   2.324  0.1323  0.0057 -0.1559
 4567SOL    HW125334   2.642   4.206   2.255 -0.7430  0.4695 -0.2710
 4567SOL    HW225335   2.759   4.249   2.322 -0.3342 -2.2647 -1.2311
 4568SOL     OW25336   0.056   3.096   3.520 -0.3648 -0.0290  0.6121
 4568SOL    HW125337   0.104   3.154   3.461 -0.8010 -0.3344 -0.0403
 4568SOL    HW225338   4.714   3.138   3.533 -0.0597  1.3518 -1.9092
 4569SOL     OW25339   3.080   3.186   0.766 -0.3322 -0.0386 -0.2134
 4569SOL    HW125340   3.006   3.128   0.780  1.1491 -1.9087 -0.1184
 4569SOL    HW225341   3.138   3.156   0.836 -0.6492  0.6685  0.3477
 4570SOL     OW25342   2.923   3.384   5.613  0.0876 -0.4415 -0.4011
 4570SOL    HW125343   2.900   3.292   5.623 -0.3357 -0.1492  1.3140
 4570SOL    HW225344   2.991   3.383   5.546 -1.3736 -1.0742 -1.8729
 4571SOL     OW25345   3.981   2.893   7.144  0.2427 -0.3832  0.5452
 4571SOL    HW125346   4.047   2.914   7.079  0.0825 -0.1615  0.4541
 4571SOL    HW225347   3.945   2.979   7.167 -0.0656 -0.2448 -0.4845
 4572SOL     OW25348   2.009   3.842   3.782  0.0837  1.0444 -0.2424
 4572SOL    HW125349   1.968   3.757   3.794 -0.9126  1.4846 -0.5724
 4572SOL    HW225350   2.021   3.846   3.687  0.0945 -1.4403 -0.3451
 4573SOL     OW25351   3.980   4.201  17.126  0.6012  0.0730 -0.3330
 4573SOL    HW125352   3.909   4.176  17.067  0.3489 -1.7410  0.7371
 4573SOL    HW225353   3.932   4.230  17.203  0.6360  1.8533 -0.9970
 4574SOL     OW25354   0.117   1.489  16.202  0.2509  0.1681  0.1148
 4574SOL    HW125355   0.163   1.421  16.252  1.1177 -0.0714 -1.0220
 4574SOL    HW225356   0.105   1.559  16.266 -0.2726 -0.9123  1.2038
 4575SOL     OW25357   3.896   0.435   6.518  0.5330 -1.2932  0.4461
 4575SOL    HW125358   3.902   0.390   6.602  1.5263  0.2525  1.2136
 4575SOL    HW225359   3.943   0.370   6.467  0.7808  1.1099 -2.3925
 4576SOL     OW25360   0.498   3.876   0.774  0.2570 -0.3170  0.2961
 4576SOL    HW125361   0.550   3.932   0.832  0.8237 -1.0850  0.5319
 4576SOL    HW225362   0.518   3.790   0.811  1.4240  0.8711  2.4359
 4577SOL     OW25363   4.160   2.679   6.492 -1.0678  0.5011  0.0059
 4577SOL    HW125364   4.182   2.770   6.508 -0.1789 -0.0576  2.0299
 4577SOL    HW225365   4.120   2.677   6.405  1.0876  1.1684 -0.9869
 4578SOL     OW25366   1.916   3.249  10.933  0.5213 -0.2521  0.3369
 4578SOL    HW125367   1.839   3.252  10.989  1.2118 -1.9060  1.3652
 4578SOL    HW225368   1.965   3.314  10.984  0.6749 -0.4500  0.4418
 4579SOL     OW25369   4.437   0.052   1.475  0.5036  0.3342  0.6151
 4579SOL    HW125370   4.345   0.026   1.465  0.8569 -0.1204 -1.4727
 4579SOL    HW225371   4.472   4.709   1.497 -0.7679  0.0906  1.6619
 4580SOL     OW25372   1.916   1.242   5.551  0.0474 -0.3317 -0.7490
 4580SOL    HW125373   1.926   1.147   5.550  0.0619 -0.3424  1.0561
 4580SOL    HW225374   1.824   1.254   5.572  0.1066  1.0065 -1.2425
 4581SOL     OW25375   3.649   0.538   1.986 -0.1726  0.2855 -0.4346
 4581SOL    HW125376   3.696   0.459   1.961 -3.4573 -1.0492 -2.3797
 4581SOL    HW225377   3.585   0.512   2.053  1.2011  0.3684  0.8927
 4582SOL     OW25378   3.258   2.296   3.004 -0.9086 -0.8566  0.2335
 4582SOL    HW125379   3.254   2.385   3.038  4.2401  0.4226 -2.5767
 4582SOL    HW225380   3.352   2.282   2.995 -1.1899 -0.2825 -3.4432
 4583SOL     OW25381   1.736   1.462   5.939  0.5609  0.1763  0.3411
 4583SOL    HW125382   1.662   1.439   5.883  1.1781 -0.6710 -0.1294
 4583SOL    HW225383   1.681   1.472   6.017 -0.0223  0.9866 -0.1804
 4584SOL     OW25384   2.773   0.313   9.027 -0.0180  0.2082  0.0545
 4584SOL    HW125385   2.867   0.328   9.018 -0.3900  3.0048  0.8147
 4584SOL    HW225386   2.745   0.344   9.113  4.4750 -1.9166  2.2833
 4585SOL     OW25387   2.768   3.783   3.461  0.5649  0.2952  0.3552
 4585SOL    HW125388   2.765   3.854   3.525 -0.2027  1.2322 -0.7095
 4585SOL    HW225389   2.834   3.812   3.397 -1.4156  1.4625 -1.1746
 4586SOL     OW25390   2.373   3.111   5.146 -0.0589 -0.3140  0.1483
 4586SOL    HW125391   2.399   3.104   5.054 -0.4983  1.1675 -0.0880
 4586SOL    HW225392   2.371   3.206   5.159 -0.3028 -0.2825 -0.1288
 4587SOL     OW25393   1.973   0.543   6.633 -0.6594  0.5638 -0.2318
 4587SOL    HW125394   1.944   0.530   6.542 -1.1425 -2.3684  0.3365
 4587SOL    HW225395   2.046   0.604   6.631  0.2119 -0.5167 -2.2619
 4588SOL     OW25396   3.822   0.982   5.682 -0.3488 -0.2578  0.3736
 4588SOL    HW125397   3.828   0.908   5.742 -1.8249 -1.1598 -0.5831
 4588SOL    HW225398   3.876   1.057   5.705 -1.2744  1.0825 -1.7036
 4589SOL     OW25399   3.386   0.487   5.902 -0.7724  0.6061 -0.0328
 4589SOL    HW125400   3.370   0.565   5.848  2.7106  2.3261  1.4233
 4589SOL    HW225401   3.481   0.486   5.913 -0.6899 -3.0161 -1.1229
 4590SOL     OW25402   2.954   2.883   5.176 -0.7247  0.6072  0.1831
 4590SOL    HW125403   2.910   2.952   5.226  0.5316  1.8290 -0.4024
 4590SOL    HW225404   3.042   2.909   5.201  0.6823 -0.6839 -3.4580
 4591SOL     OW25405   3.601   0.487   9.338 -0.4294 -0.4579 -0.1953
 4591SOL    HW125406   3.528   0.539   9.305 -0.3685 -1.2829 -1.6272
 4591SOL    HW225407   3.571   0.468   9.427  0.5013 -0.5982  0.0952
 4592SOL     OW25408   3.696   4.687   7.255 -0.2094  0.8029 -0.5577
 4592SOL    HW125409   3.750   4.615   7.223 -0.3620  0.4364  0.0053
 4592SOL    HW225410   3.756   0.013   7.227  1.7185 -1.6615 -2.5190
 4593SOL     OW25411   1.038   4.554   3.125  0.1515  0.3283 -0.0578
 4593SOL    HW125412   0.958   4.579   3.170 -0.6047  0.1059 -1.2967
 4593SOL    HW225413   1.084   4.637   3.112  0.3027  0.4553  1.3181
 4594SOL     OW25414   1.680   0.698   4.240 -0.0620  0.4965  0.1675
 4594SOL    HW125415   1.730   0.640   4.297  0.0283  1.7608  1.3954
 4594SOL    HW225416   1.750   0.744   4.193  1.2472  0.8948  2.4990
 4595SOL     OW25417   4.313   3.229   9.103  0.9285 -0.4466 -0.5496
 4595SOL    HW125418   4.392   3.184   9.073  0.9269  0.0881 -1.3519
 4595SOL    HW225419   4.259   3.152   9.083 -1.2286  1.4688 -2.0891
 4596SOL     OW25420   1.383   2.772   4.735  0.0453  0.1343  0.4401
 4596SOL    HW125421   1.448   2.833   4.698 -0.7682 -0.1492 -1.4410
 4596SOL    HW225422   1.299   2.798   4.697 -0.0465 -0.0910  0.4921
 4597SOL     OW25423   3.700   0.332  11.559 -0.1144 -0.3115 -0.0173
 4597SOL    HW125424   3.699   0.385  11.480  0.4496 -0.0624  0.1439
 4597SOL    HW225425   3.620   0.279  11.557 -0.5848  0.4441 -0.8792
 4598SOL     OW25426   3.370   1.058   5.774 -0.1472  0.6619 -0.5073
 4598SOL    HW125427   3.374   1.006   5.694 -3.5731  0.4248 -0.5366
 4598SOL    HW225428   3.394   0.987   5.834  1.8518 -0.1635 -2.3122
 4599SOL     OW25429   3.689   0.596  10.249 -0.3248  0.5724  0.1394
 4599SOL    HW125430   3.736   0.522  10.212 -3.8420 -1.3037 -0.5197
 4599SOL    HW225431   3.650   0.626  10.167 -0.4560  0.0262  0.0080
 4600SOL     OW25432   0.784   3.678   6.087  0.0306 -0.0144  0.1463
 4600SOL    HW125433   0.739   3.633   6.158 -0.8627 -1.7935 -1.5478
 4600SOL    HW225434   0.714   3.685   6.022 -2.7658 -0.9270  3.0343
 4601SOL     OW25435   1.495   2.996   2.752  0.2563  0.0415  0.0504
 4601SOL    HW125436   1.442   2.928   2.793 -0.1742 -0.2062 -0.9098
 4601SOL    HW225437   1.450   3.011   2.668  1.8147  0.5476 -0.6913
 4602SOL     OW25438   2.558   1.118  12.854 -0.0037 -0.2253  0.0233
 4602SOL    HW125439   2.648   1.088  12.863  0.5816  1.5520  0.2327
 4602SOL    HW225440   2.577   1.187  12.790 -1.6656  0.6169  0.4207
 4603SOL     OW25441   1.839   0.343   5.569  0.5984 -0.0656 -0.1036
 4603SOL    HW125442   1.856   0.292   5.647 -0.0233 -0.4823 -0.2393
 4603SOL    HW225443   1.835   0.432   5.605 -0.2502 -0.9211  1.8876
 4604SOL     OW25444   4.372   0.041   5.480  0.6947  0.8171  0.0304
 4604SOL    HW125445   4.428   4.714   5.513  0.2778  1.4966  2.1778
 4604SOL    HW225446   4.437   0.083   5.423  1.9374 -2.5068 -1.0506
 4605SOL     OW25447   4.595   1.821   7.185  0.2011  0.4190  1.1058
 4605SOL    HW125448   4.612   1.866   7.268 -2.6907 -0.0916  1.9501
 4605SOL    HW225449   4.676   1.831   7.135  0.8281 -1.6644  1.6990
 4606SOL     OW25450   0.750   4.147   4.455  0.1950  0.0188 -0.4582
 4606SOL    HW125451   0.775   4.088   4.384 -3.9990 -0.8310 -1.2206
 4606SOL    HW225452   0.681   4.192   4.406  0.2253  1.9768  1.3307
 4607SOL     OW25453   4.398   1.472   8.755  0.1272 -0.2175 -0.2964
 4607SOL    HW125454   4.465   1.538   8.776  3.7741 -2.7827 -3.8565
 4607SOL    HW225455   4.370   1.492   8.665  2.7114 -1.6528 -1.4395
 4608SOL     OW25456   0.896   0.457   7.734  0.0786  0.3657 -0.6107
 4608SOL    HW125457   0.897   0.453   7.638  0.1670  1.3819 -0.6582
 4608SOL    HW225458   0.991   0.456   7.748  0.3038 -0.8290 -2.2436
 4609SOL     OW25459   2.209   0.190   7.230 -0.0367 -0.0276 -0.1005
 4609SOL    HW125460   2.172   0.107   7.200  1.1395 -0.5396 -0.1395
 4609SOL    HW225461   2.245   0.222   7.148 -0.7498 -2.0198 -1.1780
 4610SOL     OW25462   3.805   3.927  14.293  0.0903  0.3285  0.0775
 4610SOL    HW125463   3.886   3.876  14.296 -0.6330 -0.7929  0.8433
 4610SOL    HW225464   3.808   3.946  14.200 -0.5267 -1.7537 -0.3658
 4611SOL     OW25465   1.237   3.313  15.719 -0.0624 -0.2150 -0.4452
 4611SOL    HW125466   1.247   3.305  15.624  0.8822 -0.5940 -0.3236
 4611SOL    HW225467   1.284   3.393  15.741 -1.7819  0.4443  0.8246
 4612SOL     OW25468   3.368   1.960   9.424  0.0594 -0.3821  0.0022
 4612SOL    HW125469   3.348   2.002   9.508 -0.1953 -0.7304  0.1155
 4612SOL    HW225470   3.426   2.029   9.392 -2.1037  1.0820 -0.7004
 4613SOL     OW25471   3.952   0.622  13.629 -0.4038 -0.3072  0.0021
 4613SOL    HW125472   3.903   0.668  13.561  1.5192  2.0968  0.2513
 4613SOL    HW225473   3.908   0.537  13.625  0.6616 -0.9715  2.1715
 4614SOL     OW25474   3.246   3.228  12.084  0.0206 -0.1107  0.0027
 4614SOL    HW125475   3.214   3.184  12.006  0.1865 -1.0898  0.4899
 4614SOL    HW225476   3.309   3.163  12.115  0.5543  0.3622 -0.0912
 4615SOL     OW25477   1.496   1.662   1.551 -0.5306  0.0265  0.6974
 4615SOL    HW125478   1.428   1.636   1.489 -0.3691  0.9641  0.1273
 4615SOL    HW225479   1.573   1.611   1.525  0.0991  0.6687  1.3139
 4616SOL     OW25480   2.777   0.453   3.286  0.1063  0.4669  0.1614
 4616SOL    HW125481   2.720   0.396   3.338 -1.2491  1.2311 -0.4998
 4616SOL    HW225482   2.709   0.511   3.252  2.2315  2.6790 -0.3625
 4617SOL     OW25483   4.384   0.492  13.273  0.0145  0.1571  0.3735
 4617SOL    HW125484   4.390   0.472  13.180 -0.0130  1.8915  0.0077
 4617SOL    HW225485   4.303   0.544  13.273 -1.0916 -1.5386  0.9589
 4618SOL     OW25486   3.766   0.404  10.922  0.1928  0.4123 -0.9546
 4618SOL    HW125487   3.755   0.495  10.952  0.5264  0.3494 -0.6400
 4618SOL    HW225488   3.734   0.358  10.999  1.3480 -0.2888 -0.8922
 4619SOL     OW25489   0.430   4.375  11.141 -0.1909  0.3001 -0.3535
 4619SOL    HW125490   0.341   4.340  11.141 -1.0271  2.4070  1.6943
 4619SOL    HW225491   0.441   4.378  11.046  1.0763  0.9784 -0.1904
 4620SOL     OW25492   3.363   1.036   3.742 -0.0663  0.2729 -0.4305
 4620SOL    HW125493   3.414   1.115   3.753  0.2328  0.1608 -0.9746
 4620SOL    HW225494   3.302   1.036   3.815  1.8180 -2.4700  1.1462
 4621SOL     OW25495   0.724   4.509   0.445  0.0169 -0.4135  0.0148
 4621SOL    HW125496   0.710   4.516   0.539 -0.6189  0.8725 -0.1851
 4621SOL    HW225497   0.762   4.590   0.411  1.4658  0.3412  3.4740
 4622SOL     OW25498   3.561   1.286  10.668 -0.6693  0.8116  0.3150
 4622SOL    HW125499   3.616   1.213  10.639  0.0790  2.2855 -1.9555
 4622SOL    HW225500   3.616   1.315  10.740  1.8485  0.1210 -1.3243
 4623SOL     OW25501   4.136   1.869   4.925 -0.2083 -0.1374 -0.1467
 4623SOL    HW125502   4.181   1.951   4.905  0.5658 -0.6219 -0.3877
 4623SOL    HW225503   4.203   1.807   4.896  1.2395  0.9462  0.8819
 4624SOL     OW25504   1.810   1.774   8.057 -0.6316 -0.1604 -0.2865
 4624SOL    HW125505   1.787   1.726   7.978 -0.2603  1.1843 -1.1989
 4624SOL    HW225506   1.873   1.838   8.024 -0.7517  0.3057  0.3798
 4625SOL     OW25507   0.123   4.311   0.058  0.2502 -0.6306  0.1658
 4625SOL    HW125508   0.057   4.296  17.761  0.6443 -2.3339  0.1587
 4625SOL    HW225509   0.073   4.282   0.134  1.0763 -3.5024 -0.4098
 4626SOL     OW25510   4.026   1.311   4.269  0.0808 -0.1370  0.5907
 4626SOL    HW125511   4.087   1.384   4.281  1.0479 -0.7642 -0.4677
 4626SOL    HW225512   4.069   1.238   4.314 -0.1617  0.0728  1.1553
 4627SOL     OW25513   3.593   3.097   3.474  0.5602  0.2090 -0.2211
 4627SOL    HW125514   3.534   3.030   3.441  0.2853  0.1364  0.4280
 4627SOL    HW225515   3.596   3.073   3.566 -2.3916  2.1650  0.3962
 4628SOL     OW25516   2.107   0.648  13.983 -0.9048  0.0553  0.2455
 4628SOL    HW125517   2.040   0.680  13.923 -0.5891  0.4675  0.1058
 4628SOL    HW225518   2.075   0.665  14.072  0.3624 -0.5889  0.8312
 4629SOL     OW25519   0.005   2.417   6.215 -0.3219  0.2818  0.3763
 4629SOL    HW125520   0.063   2.493   6.206  0.3023 -0.3136 -0.5518
 4629SOL    HW225521   0.008   2.390   6.123 -1.4797  0.6195  0.2439
 4630SOL     OW25522   0.976   0.108   2.627 -0.2454  0.1360 -0.2441
 4630SOL    HW125523   0.960   0.118   2.533 -2.1828  0.0714  0.0843
 4630SOL    HW225524   1.052   0.051   2.621 -1.0400 -1.0755  1.3053
 4631SOL     OW25525   2.825   0.158   7.737  0.0762  0.4345 -0.1745
 4631SOL    HW125526   2.767   0.232   7.721  1.5653  1.2975 -1.6536
 4631SOL    HW225527   2.771   0.084   7.711  0.0915  0.1508  0.6048
 4632SOL     OW25528   4.634   3.326   1.408 -0.0367 -0.0353  0.0247
 4632SOL    HW125529   4.636   3.237   1.372  0.4305 -0.9804  2.3731
 4632SOL    HW225530   4.539   3.339   1.407 -0.1640 -1.0682 -0.9648
 4633SOL     OW25531   2.109   2.228  11.352  0.0253  0.2265 -0.2230
 4633SOL    HW125532   2.200   2.256  11.336 -0.3016  1.5806  0.2622
 4633SOL    HW225533   2.112   2.140  11.315  2.1622  0.2811 -0.2290
 4634SOL     OW25534   3.363   1.987   6.408 -0.3573  0.2274  0.5005
 4634SOL    HW125535   3.406   1.906   6.434  2.5357  1.1872 -1.3483
 4634SOL    HW225536   3.439   2.044   6.418  1.0257 -1.8180  1.5924
 4635SOL     OW25537   3.593   0.030   4.902  0.3193 -0.3726 -0.0513
 4635SOL    HW125538   3.620   4.684   4.883 -0.6703 -0.7903  0.4830
 4635SOL    HW225539   3.547   0.041   4.819 -0.7977  0.5253  0.6829
 4636SOL     OW25540   1.116   0.323   4.135 -0.6015 -0.3637  0.2389
 4636SOL    HW125541   1.139   0.309   4.043 -0.9991  0.7617 -0.0397
 4636SOL    HW225542   1.189   0.375   4.169 -3.2289  2.8809  1.0310
 4637SOL     OW25543   1.669   3.386  13.987 -0.0130  0.3145  0.7297
 4637SOL    HW125544   1.585   3.429  13.975  0.0464  0.6301  1.4421
 4637SOL    HW225545   1.729   3.406  13.915  0.0424 -1.8178  0.1969
 4638SOL     OW25546   1.066   4.379  15.402  0.2201 -0.1522 -0.0309
 4638SOL    HW125547   0.998   4.333  15.353  0.3581 -1.4027  0.9493
 4638SOL    HW225548   1.035   4.470  15.404  1.6398  0.3219  0.8714
 4639SOL     OW25549   1.678   2.903   6.037 -0.2271  0.6490 -0.4802
 4639SOL    HW125550   1.663   2.827   6.093  0.3498  1.8645  1.3239
 4639SOL    HW225551   1.601   2.924   5.984 -0.9506  1.1010  0.7381
 4640SOL     OW25552   0.412   2.707   1.760 -0.0163 -0.2096 -0.1146
 4640SOL    HW125553   0.430   2.626   1.712  1.6768  0.1635 -0.1068
 4640SOL    HW225554   0.487   2.703   1.819  1.0121  0.4878 -1.3899
 4641SOL     OW25555   3.353   4.434  17.462 -0.2509 -0.2453 -0.1078
 4641SOL    HW125556   3.334   4.354  17.511 -0.2956  0.2549  0.6902
 4641SOL    HW225557   3.446   4.450  17.474  0.0342 -0.1725 -2.4137
 4642SOL     OW25558   0.542   2.407   5.998 -0.5553  0.0836  0.1337
 4642SOL    HW125559   0.452   2.373   5.993  0.3390 -2.2927  0.3618
 4642SOL    HW225560   0.604   2.339   5.974  1.1266  1.1667  1.4242
 4643SOL     OW25561   2.170   3.279   4.930  0.4561 -0.5901  0.0163
 4643SOL    HW125562   2.086   3.244   4.959  0.1618 -0.9167 -1.2403
 4643SOL    HW225563   2.151   3.373   4.924 -1.9998 -1.1045 -0.0281
 4644SOL     OW25564   0.088   4.343   8.118 -0.4426  0.0604  0.2870
 4644SOL    HW125565   0.066   4.415   8.177 -0.0552 -0.1510  0.6851
 4644SOL    HW225566   0.001   4.305   8.128  0.3158 -1.5431  0.7377
 4645SOL     OW25567   2.965   1.443   8.324  0.3494  0.7016  0.2758
 4645SOL    HW125568   3.016   1.362   8.329  0.8876  0.8654 -2.6090
 4645SOL    HW225569   2.900   1.424   8.392  1.7818 -0.9292  1.1977
 4646SOL     OW25570   3.716   0.876   7.771  0.0337  0.1001 -0.4299
 4646SOL    HW125571   3.720   0.971   7.785  1.0315  0.0683 -0.4740
 4646SOL    HW225572   3.739   0.841   7.858 -2.9359 -2.4949 -0.7059
 4647SOL     OW25573   1.324   1.355   4.605 -0.8084  0.0665 -0.1137
 4647SOL    HW125574   1.328   1.281   4.666 -2.0980  0.5871  0.5956
 4647SOL    HW225575   1.416   1.354   4.576 -0.1379  1.2681  1.9614
 4648SOL     OW25576   3.336   2.233   2.555 -0.2703 -0.5235  0.5286
 4648SOL    HW125577   3.373   2.281   2.629 -1.6472  1.2990  0.0344
 4648SOL    HW225578   3.240   2.234   2.564 -0.3511 -1.3337 -0.2444
 4649SOL     OW25579   3.180   0.561   3.586  0.3093 -0.0905 -0.3440
 4649SOL    HW125580   3.087   0.583   3.599  0.6586  2.7032 -2.5313
 4649SOL    HW225581   3.222   0.645   3.603 -1.1682  0.7314 -0.7064
 4650SOL     OW25582   1.840   2.265  15.711  0.5622 -0.3258 -0.8392
 4650SOL    HW125583   1.910   2.321  15.678  1.0754 -0.7452 -0.4609
 4650SOL    HW225584   1.884   2.182  15.731  2.8219  1.2921  0.8406
 4651SOL     OW25585   4.159   0.941   3.302 -0.2998  0.0715  0.0512
 4651SOL    HW125586   4.195   1.028   3.281 -1.3446  0.5400  0.2183
 4651SOL    HW225587   4.191   0.938   3.393 -1.9459 -0.2228  0.6115
 4652SOL     OW25588   2.289   4.457   3.354 -0.3351  0.1961  0.1219
 4652SOL    HW125589   2.366   4.442   3.300 -0.6982 -1.7263  0.1511
 4652SOL    HW225590   2.220   4.480   3.292 -0.0070 -0.5775 -0.5212
 4653SOL     OW25591   0.532   4.530   5.450 -0.0240 -0.4591  0.2411
 4653SOL    HW125592   0.456   4.497   5.402 -0.1020  0.3816 -0.2102
 4653SOL    HW225593   0.539   4.620   5.416  0.4076 -1.5804 -2.6538
 4654SOL     OW25594   4.534   2.265  16.831  0.2135  0.1640 -0.5703
 4654SOL    HW125595   4.525   2.301  16.919  1.5798 -4.5799  1.4869
 4654SOL    HW225596   4.500   2.176  16.842 -0.9504  0.8799  1.7786
 4655SOL     OW25597   3.124   4.389  10.875 -0.1842  0.1962 -0.1399
 4655SOL    HW125598   3.170   4.430  10.802  1.3184 -0.9507  0.1483
 4655SOL    HW225599   3.099   4.306  10.834 -0.1605  0.9289 -1.6438
 4656SOL     OW25600   1.207   2.564   6.667 -0.3243  0.0814 -1.0046
 4656SOL    HW125601   1.159   2.619   6.730  0.0231 -0.4422 -0.2771
 4656SOL    HW225602   1.203   2.473   6.697 -3.4408  0.1055 -1.3571
 4657SOL     OW25603   0.563   4.269   8.099 -0.0613  0.0841  0.0383
 4657SOL    HW125604   0.543   4.350   8.052  0.6484  0.3889  0.2594
 4657SOL    HW225605   0.650   4.262   8.059 -0.1828  1.1794 -0.4032
 4658SOL     OW25606   1.852   1.231  10.166 -0.0740 -0.1406  0.2266
 4658SOL    HW125607   1.843   1.282  10.247  1.6055 -0.2724  0.4992
 4658SOL    HW225608   1.860   1.294  10.094 -0.3375  1.2375  1.4006
 4659SOL     OW25609   4.652   4.561   3.971 -0.2686 -0.1404 -0.4560
 4659SOL    HW125610   4.601   4.574   4.051 -0.5417 -0.9983 -0.4970
 4659SOL    HW225611   4.630   4.650   3.944  0.6908  0.8096  1.8638
 4660SOL     OW25612   1.657   1.683   6.567  0.7565  0.2897  0.0202
 4660SOL    HW125613   1.584   1.625   6.590  1.5178  0.3875  2.6651
 4660SOL    HW225614   1.721   1.632   6.617 -1.4220 -1.2543  1.2263
 4661SOL     OW25615   2.518   4.708   4.799  0.2212 -0.4384  0.6505
 4661SOL    HW125616   2.565   4.699   4.716 -0.1255 -0.1851  0.4266
 4661SOL    HW225617   2.565   4.646   4.854 -2.4568 -2.3259  0.8284
 4662SOL     OW25618   2.701   3.898   0.630 -1.0692  0.8652 -0.0400
 4662SOL    HW125619   2.740   3.829   0.577 -0.8832  0.8798  0.0781
 4662SOL    HW225620   2.752   3.876   0.708 -2.1685 -1.4688  0.0057
 4663SOL     OW25621   3.649   4.045   3.574  0.3330  0.3966  0.3942
 4663SOL    HW125622   3.556   4.067   3.566  0.3559  0.5902  0.6409
 4663SOL    HW225623   3.676   4.058   3.483 -0.4498 -0.8522 -0.0178
 4664SOL     OW25624   2.908   0.916   5.433 -0.2169 -0.2120 -0.1656
 4664SOL    HW125625   2.940   0.826   5.441  0.4613  0.0146 -0.3158
 4664SOL    HW225626   2.911   0.928   5.339  1.5050  0.0757 -0.0726
 4665SOL     OW25627   1.293   0.061  13.711  0.1179  0.2894 -0.4248
 4665SOL    HW125628   1.286   0.107  13.628  1.2446  1.8546  0.3600
 4665SOL    HW225629   1.338   4.722  13.690  0.9383  0.0878  2.1800
 4666SOL     OW25630   4.001   2.036   6.335 -0.6621 -0.7471  0.5813
 4666SOL    HW125631   3.973   1.976   6.404  1.5768 -1.0327  1.2309
 4666SOL    HW225632   3.923   2.061   6.285 -1.0751 -0.5695  1.3076
 4667SOL     OW25633   3.502   4.089  13.862 -0.4282  0.4336  0.0975
 4667SOL    HW125634   3.503   4.068  13.769  0.9344  0.2895  0.1355
 4667SOL    HW225635   3.463   4.176  13.869 -1.5908 -0.0182 -0.6992
 4668SOL     OW25636   1.966   1.420   9.821  0.2286  0.3897 -0.4715
 4668SOL    HW125637   1.930   1.467   9.896  1.5334 -1.0461  1.0480
 4668SOL    HW225638   2.012   1.496   9.786 -1.6288  2.3090  1.2036
 4669SOL     OW25639   1.474   2.506  15.618  0.7106  0.2547  0.2260
 4669SOL    HW125640   1.486   2.508  15.523  1.5660 -1.7704  0.2924
 4669SOL    HW225641   1.394   2.558  15.611  1.0810  0.5639 -1.5642
 4670SOL     OW25642   1.331   4.052  10.099 -0.4353  0.0360 -0.1175
 4670SOL    HW125643   1.363   4.135  10.063 -0.2896  0.1783  0.3415
 4670SOL    HW225644   1.313   3.994  10.024  0.2114  1.7323 -1.5828
 4671SOL     OW25645   2.822   2.820   2.152 -0.0208  0.2154  0.5890
 4671SOL    HW125646   2.808   2.914   2.167  0.7854  0.7536 -1.9810
 4671SOL    HW225647   2.729   2.797   2.158 -0.0458  0.5542  1.4004
 4672SOL     OW25648   0.495   1.484   6.689  0.1333 -0.0179  0.1126
 4672SOL    HW125649   0.436   1.497   6.763  0.4826  1.3323  0.1514
 4672SOL    HW225650   0.491   1.567   6.643  0.6366  0.6119  1.1975
 4673SOL     OW25651   3.583   4.618   5.607  0.9410  0.5107  0.2723
 4673SOL    HW125652   3.572   4.600   5.514  0.6514  2.6391 -0.1059
 4673SOL    HW225653   3.515   4.682   5.627 -0.3699 -0.5153 -0.9432
 4674SOL     OW25654   4.474   4.204   5.534 -0.4523  0.0956  0.9585
 4674SOL    HW125655   4.566   4.195   5.509 -0.6037  0.8513  0.1322
 4674SOL    HW225656   4.436   4.192   5.447  1.6608  0.6746 -0.0289
 4675SOL     OW25657   3.862   2.352   1.054  0.0791 -0.4980 -0.3944
 4675SOL    HW125658   3.864   2.439   1.015  0.5466 -0.2955  0.0727
 4675SOL    HW225659   3.812   2.312   0.983  0.3826 -0.9743 -0.3447
 4676SOL     OW25660   3.233   3.522   7.841  0.0643 -0.1895 -0.3896
 4676SOL    HW125661   3.287   3.473   7.904 -0.5621 -1.8956 -1.1749
 4676SOL    HW225662   3.285   3.502   7.763 -0.8773 -0.2924 -0.9846
 4677SOL     OW25663   0.344   4.169   3.482 -0.0731 -0.5635 -0.0854
 4677SOL    HW125664   0.336   4.133   3.394  0.4075 -0.3345 -0.2177
 4677SOL    HW225665   0.270   4.231   3.485  1.1471  0.9476 -1.7901
 4678SOL     OW25666   2.625   1.872   5.861 -0.2920  0.1235  0.3511
 4678SOL    HW125667   2.568   1.862   5.937 -1.4420  1.2071 -0.3688
 4678SOL    HW225668   2.707   1.833   5.890 -0.6209 -0.6085  0.3025
 4679SOL     OW25669   2.499   4.513   5.686 -0.1556  0.3152 -0.1963
 4679SOL    HW125670   2.564   4.560   5.634  0.3207 -0.7215 -0.5339
 4679SOL    HW225671   2.541   4.429   5.704 -0.5583 -0.0204 -0.7752
 4680SOL     OW25672   0.018   3.404   4.980 -0.0095  0.1483  0.3536
 4680SOL    HW125673   4.742   3.352   4.901  0.1119  0.1652  0.3131
 4680SOL    HW225674   0.110   3.383   4.995  0.6432  1.2676 -2.1810
 4681SOL     OW25675   1.639   0.709   0.287 -0.2167  0.1744  0.5162
 4681SOL    HW125676   1.690   0.702   0.207  1.8846 -0.2382  1.8881
 4681SOL    HW225677   1.620   0.619   0.314 -0.2655 -0.0760 -0.3566
 4682SOL     OW25678   3.000   2.192  16.001  0.5285  0.1350  0.4151
 4682SOL    HW125679   2.925   2.243  15.971 -0.4544  0.5971  3.6678
 4682SOL    HW225680   3.079   2.223  15.956 -0.2029  1.3098 -0.0224
 4683SOL     OW25681   1.340   3.949   0.932 -0.5547 -0.3504  0.3200
 4683SOL    HW125682   1.250   3.974   0.954 -0.6412 -0.9314  0.6129
 4683SOL    HW225683   1.371   3.916   1.016  0.7667 -0.5854 -0.2670
 4684SOL     OW25684   4.018   4.249  11.332  0.2787 -0.3993 -0.2717
 4684SOL    HW125685   4.094   4.249  11.273  0.3480  1.0092 -0.1774
 4684SOL    HW225686   4.037   4.161  11.363 -1.0859 -0.5179  0.2100
 4685SOL     OW25687   0.744   1.129   5.177 -0.5224  0.3197 -0.3198
 4685SOL    HW125688   0.697   1.128   5.260 -0.0151 -0.1903 -0.0428
 4685SOL    HW225689   0.744   1.039   5.144  1.9491 -0.4214  1.7464
 4686SOL     OW25690   3.272   0.936   2.552  0.4112 -0.4635  0.0059
 4686SOL    HW125691   3.254   0.887   2.632 -0.2985  0.1840  0.2392
 4686SOL    HW225692   3.353   0.981   2.572  1.0447 -1.9792  0.8505
 4687SOL     OW25693   1.313   0.101   0.239 -0.5402 -0.5973 -0.8321
 4687SOL    HW125694   1.258   0.023   0.238  1.6909 -2.1568 -1.0004
 4687SOL    HW225695   1.270   0.146   0.313  1.5169 -1.8198  1.0907
 4688SOL     OW25696   0.117   4.166   2.150  0.2915 -0.5216  0.5909
 4688SOL    HW125697   0.088   4.231   2.215 -0.4381 -0.7579  0.5061
 4688SOL    HW225698   0.203   4.201   2.127  0.3153 -0.1494  1.2319
 4689SOL     OW25699   3.262   2.172   1.433 -0.4425 -0.2713 -0.0659
 4689SOL    HW125700   3.195   2.174   1.364 -0.0159 -0.5389 -0.4843
 4689SOL    HW225701   3.305   2.090   1.412  2.6650  1.2530  0.4123
 4690SOL     OW25702   3.361   3.686   9.274  0.4126  0.1604 -0.2028
 4690SOL    HW125703   3.425   3.706   9.342 -1.1997  2.4804  0.6340
 4690SOL    HW225704   3.280   3.706   9.321  0.4706  0.4101 -0.2087
 4691SOL     OW25705   4.184   0.009   2.099 -0.4963  0.7670  0.0505
 4691SOL    HW125706   4.221   0.096   2.083  1.4282  0.1752  1.2228
 4691SOL    HW225707   4.094   0.024   2.127 -0.8115 -0.2336 -0.4496
 4692SOL     OW25708   3.756   4.351   9.158 -0.2814  0.3952  0.6843
 4692SOL    HW125709   3.675   4.312   9.126 -0.4052  0.7749  0.5402
 4692SOL    HW225710   3.725   4.383   9.243  2.7670  1.9846  1.1916
 4693SOL     OW25711   1.442   3.640   4.200 -0.0063  0.2928  0.8162
 4693SOL    HW125712   1.409   3.581   4.268 -2.1426  2.4224  1.5954
 4693SOL    HW225713   1.371   3.647   4.136  0.3019 -2.1572  0.1947
 4694SOL     OW25714   3.191   2.512   7.535  0.5199 -0.2281  0.0510
 4694SOL    HW125715   3.248   2.559   7.596  0.4808 -1.6995  1.2352
 4694SOL    HW225716   3.247   2.436   7.518 -1.1325 -0.8610 -2.4844
 4695SOL     OW25717   1.056   1.466   6.989 -0.0326  0.0679 -0.1787
 4695SOL    HW125718   0.962   1.477   6.975 -0.4637 -1.7951  1.1492
 4695SOL    HW225719   1.085   1.533   7.050  1.1393  0.0876 -0.7579
 4696SOL     OW25720   0.250   4.080  12.610  0.7154 -0.0624  0.1559
 4696SOL    HW125721   0.323   4.020  12.600  0.4573 -0.2499 -0.6468
 4696SOL    HW225722   0.230   4.097  12.518  0.9178  0.3951  0.1952
 4697SOL     OW25723   2.400   3.439  11.940  0.0379  0.4969 -0.2803
 4697SOL    HW125724   2.406   3.529  11.910 -3.5436  0.3379 -1.5060
 4697SOL    HW225725   2.452   3.447  12.020 -1.3662  0.2446  0.6484
 4698SOL     OW25726   4.601   0.929   4.558 -0.2444 -0.2267  0.3346
 4698SOL    HW125727   4.681   0.980   4.544  1.1361 -2.5982 -0.4895
 4698SOL    HW225728   4.602   0.906   4.651 -1.3010  1.2413  0.7056
 4699SOL     OW25729   1.917   1.048   3.254 -0.1219 -0.3691 -0.3207
 4699SOL    HW125730   1.938   1.123   3.310  0.8039  0.1891 -1.4306
 4699SOL    HW225731   1.841   1.086   3.209 -0.8441  0.2478  1.4161
 4700SOL     OW25732   1.096   3.094  12.259 -0.0328  0.0313  0.3701
 4700SOL    HW125733   1.147   3.100  12.340 -1.1882  0.7952  1.0437
 4700SOL    HW225734   1.101   3.184  12.226 -0.7535  0.2649  0.8911
 4701SOL     OW25735   0.967   2.111   1.579 -0.1847 -0.3323  0.3729
 4701SOL    HW125736   0.980   2.063   1.661 -1.4538 -1.3444 -0.0237
 4701SOL    HW225737   0.973   2.198   1.619 -0.4226  0.8049 -2.1039
 4702SOL     OW25738   2.321   0.457   5.374 -0.5506  0.0956  0.0881
 4702SOL    HW125739   2.298   0.521   5.306  0.5572  2.3538  1.8326
 4702SOL    HW225740   2.234   0.436   5.406 -1.4782  1.8072 -1.2905
 4703SOL     OW25741   2.239   2.464   9.164  0.2208 -0.3195 -0.3544
 4703SOL    HW125742   2.290   2.389   9.133 -0.6928 -1.7155  1.5640
 4703SOL    HW225743   2.231   2.442   9.257  0.8967  0.0726 -0.2030
 4704SOL     OW25744   0.259   4.577  16.687 -0.3528 -1.1251 -0.4137
 4704SOL    HW125745   0.202   4.593  16.762  0.4340 -1.5369  0.2675
 4704SOL    HW225746   0.328   4.535  16.738  0.5617  1.1139  0.1862
 4705SOL     OW25747   3.133   1.097   7.476  0.0848 -0.0249 -0.0388
 4705SOL    HW125748   3.055   1.095   7.421 -0.2193  3.3642  0.2693
 4705SOL    HW225749   3.139   1.191   7.497 -4.4490 -0.0235  1.2884
 4706SOL     OW25750   2.140   2.719   4.407 -0.3244  0.1230  0.1033
 4706SOL    HW125751   2.184   2.795   4.447  1.6697 -0.5484 -0.8099
 4706SOL    HW225752   2.058   2.749   4.368 -0.4120  1.4066  1.2849
 4707SOL     OW25753   1.863   4.733   6.573  0.1706  0.0094 -0.3978
 4707SOL    HW125754   1.905   4.735   6.659 -2.9518 -3.4943  1.1974
 4707SOL    HW225755   1.887   0.075   6.536 -1.0980  0.8151  0.6345
 4708SOL     OW25756   0.127   1.729   5.166  0.1178  0.2176  0.5106
 4708SOL    HW125757   0.141   1.642   5.204 -0.3684  0.7532  1.9240
 4708SOL    HW225758   0.216   1.733   5.131 -0.1857  1.9711 -0.0922
 4709SOL     OW25759   1.116   1.031   6.722  0.2125  0.0089  0.2309
 4709SOL    HW125760   1.126   1.101   6.658  1.5339 -2.2953 -2.0814
 4709SOL    HW225761   1.035   1.058   6.765 -0.1124 -0.1751 -0.2743
 4710SOL     OW25762   0.595   4.168  11.164 -0.6232 -0.1160  0.0066
 4710SOL    HW125763   0.540   4.091  11.153  3.1255 -2.9444  1.1116
 4710SOL    HW225764   0.528   4.234  11.181 -0.1029  1.1284 -2.6560
 4711SOL     OW25765   0.084   1.917  17.032 -0.0178 -0.2356 -0.4986
 4711SOL    HW125766   0.063   2.009  17.047 -0.2318 -0.3970  0.1790
 4711SOL    HW225767   0.059   1.885  17.119 -0.1717  1.3275  0.0225
 4712SOL     OW25768   4.713   2.295   8.273 -0.1736 -0.2708  0.1995
 4712SOL    HW125769   4.649   2.254   8.214  1.5200 -0.2341 -1.6565
 4712SOL    HW225770   0.049   2.252   8.242 -0.3732  0.9295 -1.9777
 4713SOL     OW25771   0.582   3.452   5.328  0.0892 -0.4742 -0.0909
 4713SOL    HW125772   0.626   3.410   5.401 -1.2629  1.2706  1.7237
 4713SOL    HW225773   0.546   3.375   5.284 -0.1672 -1.2426  1.4652
 4714SOL     OW25774   2.310   3.372   7.893 -0.3630 -0.1714  0.3358
 4714SOL    HW125775   2.372   3.440   7.917 -0.0452  0.2090 -1.5216
 4714SOL    HW225776   2.367   3.317   7.839 -1.4121 -0.7402 -0.1945
 4715SOL     OW25777   3.509   1.244   8.092 -0.0293 -0.3152 -0.2178
 4715SOL    HW125778   3.424   1.202   8.108 -1.0324  2.1510  0.9381
 4715SOL    HW225779   3.488   1.332   8.063  0.2500 -0.4720 -0.9022
 4716SOL     OW25780   1.742   3.994   8.643 -0.2936  0.6339 -0.0542
 4716SOL    HW125781   1.746   3.919   8.703 -0.9823  0.5993 -0.0580
 4716SOL    HW225782   1.666   4.040   8.678 -0.5033  0.0011  0.3290
 4717SOL     OW25783   3.414   1.364   9.540  0.2592  0.0737  0.3164
 4717SOL    HW125784   3.387   1.383   9.630 -3.6662 -2.9039 -0.2331
 4717SOL    HW225785   3.447   1.452   9.521  2.3902 -0.7176  0.3519
 4718SOL     OW25786   1.421   0.105   3.774  0.2736  0.1640  0.0370
 4718SOL    HW125787   1.351   0.118   3.710  0.2577 -1.1647 -0.2315
 4718SOL    HW225788   1.468   0.027   3.743  2.0884  0.6367  1.6135
 4719SOL     OW25789   4.013   2.778   5.001 -0.4715 -0.1684 -0.1961
 4719SOL    HW125790   4.085   2.813   5.055 -0.4397  0.7815 -0.8570
 4719SOL    HW225791   4.007   2.838   4.927  1.7197  0.6018  0.2371
 4720SOL     OW25792   0.834   3.127   5.681 -0.2454 -0.2013  0.4912
 4720SOL    HW125793   0.873   3.043   5.656 -4.3334 -1.6003 -1.0986
 4720SOL    HW225794   0.821   3.156   5.591 -0.5324  1.7137  1.1430
 4721SOL     OW25795   2.607   1.666   8.820 -0.1029  0.3969 -0.2054
 4721SOL    HW125796   2.544   1.697   8.885  0.4279  0.9061  0.0693
 4721SOL    HW225797   2.658   1.591   8.851  0.3257  0.5799 -0.4720
 4722SOL     OW25798   1.831   3.044   3.885 -0.6283 -1.0342  0.4205
 4722SOL    HW125799   1.901   2.987   3.852 -0.4235 -0.4128 -0.2024
 4722SOL    HW225800   1.874   3.129   3.894  1.1889 -1.6772 -2.4576
 4723SOL     OW25801   0.981   4.089   1.290 -0.2193 -0.0638  0.3389
 4723SOL    HW125802   1.055   4.107   1.348 -0.9926  0.4060  1.1874
 4723SOL    HW225803   0.923   4.049   1.355 -0.5895 -1.1366 -0.6545
 4724SOL     OW25804   3.262   2.996   5.967  0.1760  0.2796 -0.0842
 4724SOL    HW125805   3.333   2.935   5.985  0.5646  1.0368  0.9415
 4724SOL    HW225806   3.222   2.961   5.887  2.1577 -3.5270  0.5992
 4725SOL     OW25807   3.130   2.742   9.505 -0.0663  0.4385 -1.1956
 4725SOL    HW125808   3.211   2.763   9.551 -0.8048  0.7498 -0.0392
 4725SOL    HW225809   3.162   2.720   9.417 -1.4624 -1.1324 -1.3111
 4726SOL     OW25810   1.436   3.646   1.380  0.6333 -0.5131 -0.3028
 4726SOL    HW125811   1.487   3.661   1.300  0.2992  0.0398 -0.4079
 4726SOL    HW225812   1.410   3.554   1.375 -0.9047 -0.0850  0.0219
 4727SOL     OW25813   3.304   0.518   8.241 -0.0681  0.2320 -0.0343
 4727SOL    HW125814   3.309   0.500   8.147  3.0341 -1.5271  0.4648
 4727SOL    HW225815   3.305   0.426   8.267 -3.0111  0.5566  1.2215
 4728SOL     OW25816   2.768   1.316  15.157 -0.0511 -0.3243 -0.0957
 4728SOL    HW125817   2.698   1.358  15.206 -0.5592  0.7546 -1.7373
 4728SOL    HW225818   2.809   1.395  15.121 -0.0416 -1.0958 -1.8151
 4729SOL     OW25819   4.403   1.770  14.941 -0.0316  0.2067  0.0770
 4729SOL    HW125820   4.347   1.798  15.013  0.2866  2.0700 -0.3785
 4729SOL    HW225821   4.488   1.803  14.971 -1.4201  3.7609  0.1921
 4730SOL     OW25822   3.315   1.942   7.420  0.4381  0.2732  0.5241
 4730SOL    HW125823   3.319   2.008   7.489  1.7560  0.1950  0.5137
 4730SOL    HW225824   3.407   1.916   7.418  0.3721  0.0945 -0.2056
 4731SOL     OW25825   4.247   2.961   2.916 -0.0689  0.2042  0.6606
 4731SOL    HW125826   4.256   2.866   2.921 -1.3232  0.1448  1.7349
 4731SOL    HW225827   4.332   2.982   2.954  0.0225  2.2115 -0.6220
 4732SOL     OW25828   2.138   4.135   7.101 -0.4556 -0.8641  0.1335
 4732SOL    HW125829   2.058   4.185   7.086  0.9002  0.8716 -1.3791
 4732SOL    HW225830   2.140   4.136   7.197 -0.6069 -1.7359  0.1483
 4733SOL     OW25831   1.109   1.485   7.299 -0.2304 -0.0960  0.9351
 4733SOL    HW125832   1.029   1.436   7.279 -2.2703  3.1176  1.1446
 4733SOL    HW225833   1.084   1.505   7.389  0.6487 -0.2846  1.2163
 4734SOL     OW25834   1.713   0.866  15.300 -0.2908  0.2789  0.4162
 4734SOL    HW125835   1.808   0.852  15.298 -0.6689 -2.0923 -0.9305
 4734SOL    HW225836   1.675   0.802  15.239 -0.1511  0.0876  0.5266
 4735SOL     OW25837   2.260   4.341   5.752 -0.4297 -0.1941 -0.1808
 4735SOL    HW125838   2.256   4.261   5.699 -0.0184  0.1442 -0.7175
 4735SOL    HW225839   2.349   4.376   5.746 -0.4975  0.0401  0.1371
 4736SOL     OW25840   1.584   1.852   7.289 -0.2484 -0.2749 -0.2846
 4736SOL    HW125841   1.549   1.927   7.336  1.8536  0.3772  0.2506
 4736SOL    HW225842   1.500   1.829   7.249 -0.0938 -2.2197  0.4863
 4737SOL     OW25843   1.049   0.682   1.874  0.0190  0.0251 -0.2214
 4737SOL    HW125844   1.027   0.764   1.917  0.6152  0.8147 -1.4408
 4737SOL    HW225845   0.996   0.617   1.920 -0.4138  1.7079  1.6639
 4738SOL     OW25846   3.725   3.187   3.261  0.0989  0.3174 -0.2076
 4738SOL    HW125847   3.675   3.157   3.337  1.0629 -0.3754  0.1438
 4738SOL    HW225848   3.808   3.140   3.267  0.1605  0.2596 -1.5376
 4739SOL     OW25849   1.132   4.227   5.083  0.1541 -0.2672 -0.2790
 4739SOL    HW125850   1.222   4.236   5.050 -0.1296  0.0296 -0.9671
 4739SOL    HW225851   1.125   4.132   5.069 -0.0339 -0.2454 -0.3333
 4740SOL     OW25852   0.635   0.591   4.007  0.5378 -0.2952  0.1119
 4740SOL    HW125853   0.559   0.545   4.043  2.3352 -1.5786  2.3161
 4740SOL    HW225854   0.674   0.620   4.090 -0.8415  0.8311  0.3802
 4741SOL     OW25855   3.064   3.506   5.039 -0.5739  0.3144 -0.2944
 4741SOL    HW125856   3.018   3.489   5.121 -1.0738 -2.7244 -1.1733
 4741SOL    HW225857   3.008   3.568   4.993  0.2420  0.9265 -0.4536
 4742SOL     OW25858   4.649   1.505   7.730 -0.2618  0.4198 -0.0746
 4742SOL    HW125859   4.579   1.570   7.729  1.1393  1.9224 -1.0725
 4742SOL    HW225860   4.608   1.438   7.676  1.5681 -2.1518  1.7438
 4743SOL     OW25861   1.011   3.360   9.349  0.7933 -0.1851  0.1421
 4743SOL    HW125862   1.029   3.376   9.257 -0.1992  3.7038  0.6341
 4743SOL    HW225863   1.097   3.360   9.393  0.4509  0.0215  0.8173
 4744SOL     OW25864   4.562   2.646   6.395 -0.5190 -0.5026  0.6033
 4744SOL    HW125865   4.623   2.577   6.422 -2.2371 -3.0402 -1.9188
 4744SOL    HW225866   4.569   2.651   6.299 -1.2670 -0.6490  0.5413
 4745SOL     OW25867   3.553   3.992  13.177  0.2413  0.0636 -0.0184
 4745SOL    HW125868   3.557   4.027  13.266 -0.9096  1.7375 -0.6171
 4745SOL    HW225869   3.523   4.063  13.121  2.6510  1.2019  0.1528
 4746SOL     OW25870   4.019   1.201  13.927 -0.9351 -0.0940 -0.3170
 4746SOL    HW125871   4.015   1.197  13.832 -3.1437  0.5405 -0.2396
 4746SOL    HW225872   3.935   1.242  13.945 -1.3395 -0.8549 -0.5155
 4747SOL     OW25873   1.516   2.003   6.315  0.0461  0.2872  0.0271
 4747SOL    HW125874   1.461   1.950   6.373 -1.4672 -0.0932 -1.7349
 4747SOL    HW225875   1.588   1.940   6.309 -2.6221 -2.7306 -0.8232
 4748SOL     OW25876   2.397   4.549  17.708 -0.0629 -0.0758 -0.3609
 4748SOL    HW125877   2.377   4.478  17.770 -0.5478  0.0608 -0.3557
 4748SOL    HW225878   2.429   4.499  17.633 -0.4991  0.8292 -1.1464
 4749SOL     OW25879   1.839   1.560   7.157  0.0448 -0.5711  0.1192
 4749SOL    HW125880   1.765   1.521   7.203  0.3974 -1.4239 -0.0309
 4749SOL    HW225881   1.866   1.619   7.227  1.2990  0.0192 -0.8579
 4750SOL     OW25882   3.813   1.267  15.004  0.1030  0.4147 -0.5730
 4750SOL    HW125883   3.802   1.342  14.946 -0.0042  1.0788  0.2967
 4750SOL    HW225884   3.908   1.262  14.992 -0.1079 -2.2333 -1.0962
 4751SOL     OW25885   0.397   0.243   6.049 -0.3017 -0.2428  0.3512
 4751SOL    HW125886   0.348   0.322   6.025 -0.4269 -0.5729 -0.4679
 4751SOL    HW225887   0.428   0.214   5.963 -1.8909  0.1410 -0.3477
 4752SOL     OW25888   4.486   1.428   4.451 -0.3335  0.0116 -0.4448
 4752SOL    HW125889   4.564   1.452   4.501  0.5448 -1.0378 -1.3086
 4752SOL    HW225890   4.490   1.333   4.436 -1.3154 -0.0483 -0.3301
 4753SOL     OW25891   4.338   3.796  17.635  0.0743  0.0729 -0.1839
 4753SOL    HW125892   4.269   3.848  17.677 -0.2290 -0.5509  0.0983
 4753SOL    HW225893   4.411   3.816  17.694  0.7661  0.7367 -1.2664
 4754SOL     OW25894   2.384   1.517   9.717 -0.3776 -0.4543  0.2093
 4754SOL    HW125895   2.303   1.553   9.680 -0.6815 -1.7232 -0.3771
 4754SOL    HW225896   2.375   1.429   9.679 -4.0141  0.0410 -0.0555
 4755SOL     OW25897   1.711   0.309  13.642 -0.7303 -0.4243  0.4295
 4755SOL    HW125898   1.728   0.326  13.549  2.3189 -2.1247  0.6718
 4755SOL    HW225899   1.639   0.371  13.651  0.9649  1.5838  0.1199
 4756SOL     OW25900   1.971   0.352   2.252  0.0190  0.5755 -0.4084
 4756SOL    HW125901   1.994   0.441   2.225  1.8959  0.2010 -0.0410
 4756SOL    HW225902   2.054   0.314   2.225 -0.8909 -1.0091 -0.9539
 4757SOL     OW25903   1.646   2.185  12.495 -0.3237 -0.6476 -0.1413
 4757SOL    HW125904   1.740   2.200  12.504 -0.4786 -0.1400  0.5952
 4757SOL    HW225905   1.638   2.162  12.402 -0.9160  2.1213 -0.7755
 4758SOL     OW25906   1.832   1.860   2.660 -0.9925 -1.0520  0.4836
 4758SOL    HW125907   1.821   1.784   2.603 -1.4485 -0.9063  0.3770
 4758SOL    HW225908   1.902   1.830   2.718  0.6479  1.7190 -0.0719
 4759SOL     OW25909   4.118   2.530   8.237 -0.0263  0.2267 -0.6339
 4759SOL    HW125910   4.114   2.557   8.328  0.1165  0.0297 -0.5686
 4759SOL    HW225911   4.120   2.434   8.245 -2.1107  0.3287  1.0518
 4760SOL     OW25912   1.390   2.849   9.854 -0.2723 -0.0062 -0.0149
 4760SOL    HW125913   1.335   2.793   9.799 -2.3362  1.0251  1.0095
 4760SOL    HW225914   1.436   2.778   9.900 -2.7368 -2.0022 -0.6485
 4761SOL     OW25915   3.467   4.743   6.364  0.0491  0.1894  0.1368
 4761SOL    HW125916   3.513   4.686   6.427 -2.1079 -1.1709  0.4824
 4761SOL    HW225917   3.458   0.076   6.421 -0.5708 -1.2291  1.9449
 4762SOL     OW25918   3.883   1.465  10.639  0.4209  0.7063 -0.1900
 4762SOL    HW125919   3.912   1.409  10.711 -1.2657  0.3200  0.1984
 4762SOL    HW225920   3.914   1.417  10.562 -1.5242 -3.5644  1.6679
 4763SOL     OW25921   1.257   0.595  10.629  0.2154  0.0273  0.6781
 4763SOL    HW125922   1.168   0.631  10.627  0.5104  0.7309  0.3967
 4763SOL    HW225923   1.276   0.601  10.722  1.0169  1.3021  0.4327
 4764SOL     OW25924   0.356   0.747   8.345  0.1499 -0.3225 -0.2168
 4764SOL    HW125925   0.308   0.772   8.266  1.0982  0.8296 -0.4348
 4764SOL    HW225926   0.398   0.826   8.378  2.1134 -1.8341  0.9133
 4765SOL     OW25927   1.749   1.900   5.064  0.3571 -0.0563 -0.2737
 4765SOL    HW125928   1.710   1.978   5.025 -2.1555 -0.9515  0.4266
 4765SOL    HW225929   1.793   1.940   5.139 -2.3220 -0.2179  1.4038
 4766SOL     OW25930   1.039   1.126   8.467  0.1961  0.3198  0.0676
 4766SOL    HW125931   1.048   1.104   8.560 -0.0266  0.8806  0.2209
 4766SOL    HW225932   0.943   1.122   8.463  0.2423 -0.9594  0.1447
 4767SOL     OW25933   1.724   4.628   3.401 -0.7013  0.0458  0.5432
 4767SOL    HW125934   1.679   4.544   3.411 -0.3644  0.0058  1.7055
 4767SOL    HW225935   1.815   4.597   3.400 -0.4095  0.9760 -3.5203
 4768SOL     OW25936   2.537   3.610   2.344  0.0591 -0.1389 -0.4450
 4768SOL    HW125937   2.624   3.578   2.320  0.6566  0.7430  0.5608
 4768SOL    HW225938   2.563   3.689   2.391  0.7844 -0.6402  0.0031
 4769SOL     OW25939   4.325   2.316   7.824  0.4473 -0.2297 -0.3524
 4769SOL    HW125940   4.413   2.279   7.813  0.2122 -0.7336 -0.5514
 4769SOL    HW225941   4.347   2.404   7.853  0.3834 -0.4162  0.2641
 4770SOL     OW25942   0.060   1.514   5.586 -0.0818  0.1940 -0.8063
 4770SOL    HW125943   0.106   1.437   5.621 -1.5639 -1.1548 -1.8410
 4770SOL    HW225944   0.112   1.582   5.630 -0.3498  2.3539 -3.8464
 4771SOL     OW25945   4.721   0.043   9.702  0.1343 -0.2430  0.1450
 4771SOL    HW125946   0.057   0.079   9.742 -0.9469 -0.4447  2.4510
 4771SOL    HW225947   4.711   4.710   9.758  1.8870 -0.6315 -0.0580
 4772SOL     OW25948   1.451   3.520  14.008 -0.2603  0.4263  0.5436
 4772SOL    HW125949   1.405   3.565  13.937  0.1277  1.1017  0.7216
 4772SOL    HW225950   1.396   3.532  14.085 -0.3712 -1.9688  0.8274
 4773SOL     OW25951   3.517   1.524  14.758  0.1450  0.1990  0.1772
 4773SOL    HW125952   3.519   1.620  14.756 -0.8526  0.2781  2.5923
 4773SOL    HW225953   3.605   1.504  14.788  0.3888  0.5812 -0.2915
 4774SOL     OW25954   3.208   3.495  12.182  0.1854  0.3904  0.0995
 4774SOL    HW125955   3.265   3.554  12.132 -0.5669 -0.1706 -1.4093
 4774SOL    HW225956   3.229   3.410  12.144 -0.5267  1.0488 -1.7500
 4775SOL     OW25957   3.750   3.908   6.139  0.3305  0.0113  0.4618
 4775SOL    HW125958   3.718   3.818   6.130  0.2758  0.4095 -3.0781
 4775SOL    HW225959   3.751   3.936   6.048  1.4256 -1.0858  0.1351
 4776SOL     OW25960   2.383   0.736  13.298 -0.2778 -0.3473 -0.1810
 4776SOL    HW125961   2.319   0.722  13.368 -2.1068 -2.0815 -2.1773
 4776SOL    HW225962   2.432   0.655  13.312 -2.3450 -1.3671  1.1436
 4777SOL     OW25963   4.128   1.941   4.037 -0.1995 -0.3700  0.4013
 4777SOL    HW125964   4.169   1.870   3.988 -2.0265 -0.2704 -1.2665
 4777SOL    HW225965   4.141   1.906   4.125 -2.1225 -0.1982  0.7467
 4778SOL     OW25966   2.752   1.814   5.355 -0.7023 -0.0376  0.4475
 4778SOL    HW125967   2.713   1.764   5.427  0.1735  0.1865  1.0727
 4778SOL    HW225968   2.674   1.831   5.303  0.6112  1.2056 -1.0940
 4779SOL     OW25969   4.361   3.827   2.197 -0.2992  0.5084  0.4736
 4779SOL    HW125970   4.435   3.848   2.253  0.4475 -1.1375  0.0969
 4779SOL    HW225971   4.287   3.809   2.256 -0.8886 -0.5381 -0.5873
 4780SOL     OW25972   0.724   2.079   5.516  0.1448  0.0666  0.0013
 4780SOL    HW125973   0.748   2.006   5.459  1.8448  2.0844 -1.8501
 4780SOL    HW225974   0.632   2.082   5.493  0.0157  1.7395  0.7412
 4781SOL     OW25975   0.225   3.211  11.762 -0.0811 -0.5049 -0.6369
 4781SOL    HW125976   0.309   3.180  11.796 -1.3993 -2.2814  1.0186
 4781SOL    HW225977   0.173   3.131  11.771 -0.3675 -0.2714 -0.1931
 4782SOL     OW25978   0.261   1.691   3.192 -0.1811  0.3635  0.5578
 4782SOL    HW125979   0.349   1.658   3.209 -0.1300  0.5715  0.6930
 4782SOL    HW225980   0.223   1.626   3.132 -0.5145  0.3990  0.7325
 4783SOL     OW25981   1.830   2.307   3.609  0.5831  0.2062  0.1629
 4783SOL    HW125982   1.746   2.271   3.637  1.0981 -1.1221  0.0220
 4783SOL    HW225983   1.876   2.227   3.585  1.0756  0.0898  1.4793
 4784SOL     OW25984   1.113   1.742   4.918 -0.2012 -0.2667 -0.8656
 4784SOL    HW125985   1.153   1.679   4.857  0.2109 -0.4776 -0.3803
 4784SOL    HW225986   1.026   1.740   4.879 -2.0952 -0.8470  3.4091
 4785SOL     OW25987   1.699   1.797   6.345  0.0194 -0.3247  0.4410
 4785SOL    HW125988   1.700   1.770   6.437 -0.0983  3.1040  1.4668
 4785SOL    HW225989   1.700   1.711   6.302  1.6732  0.5449 -1.2757
 4786SOL     OW25990   3.954   3.774   5.929 -0.0159  0.8907 -0.0309
 4786SOL    HW125991   3.873   3.821   5.947 -0.4193  0.6784 -1.3086
 4786SOL    HW225992   3.983   3.817   5.849  1.0172  2.0199  0.9573
 4787SOL     OW25993   3.466   0.802   1.272  0.2866  0.0633 -0.0082
 4787SOL    HW125994   3.514   0.731   1.314  2.0329  2.6474  2.3082
 4787SOL    HW225995   3.429   0.850   1.346 -0.7518  0.2507 -0.6454
 4788SOL     OW25996   3.743   2.594  13.258 -0.0725 -0.0315  0.3077
 4788SOL    HW125997   3.807   2.552  13.316 -1.1557 -0.3958  1.2457
 4788SOL    HW225998   3.797   2.636  13.191  2.3917  0.3752  2.5538
 4789SOL     OW25999   2.809   4.533   1.973  0.4098 -0.2175  0.2437
 4789SOL    HW126000   2.732   4.589   1.984 -0.5648 -1.7375  1.3491
 4789SOL    HW226001   2.874   4.586   2.018  1.2160 -0.2536 -0.9081
 4790SOL     OW26002   0.701   1.839   8.534  0.0202  0.2728 -0.1156
 4790SOL    HW126003   0.761   1.771   8.504  0.1156 -0.5689  1.9285
 4790SOL    HW226004   0.746   1.907   8.585 -0.5281  0.7377 -0.2524
 4791SOL     OW26005   1.796   1.424   9.351 -0.0665 -0.4645 -0.1581
 4791SOL    HW126006   1.803   1.330   9.337 -0.0271 -0.3689 -0.7532
 4791SOL    HW226007   1.879   1.440   9.396 -0.4582 -1.6107  0.9614
 4792SOL     OW26008   1.696   2.199   3.056  0.3762 -0.0938  0.1570
 4792SOL    HW126009   1.616   2.147   3.063 -0.4082  1.2685  1.4095
 4792SOL    HW226010   1.736   2.167   2.975 -1.4106  0.1251 -0.8027
 4793SOL     OW26011   2.811   3.579   3.642 -0.5131  0.4216 -0.1000
 4793SOL    HW126012   2.819   3.630   3.561  1.2976  1.5971  0.8094
 4793SOL    HW226013   2.887   3.521   3.635 -0.2146  0.8413 -0.3352
 4794SOL     OW26014   2.182   2.802   7.193  0.8235  0.0345  0.1313
 4794SOL    HW126015   2.096   2.829   7.162  1.6202  1.0164 -1.1727
 4794SOL    HW226016   2.202   2.880   7.244  1.8185  0.4035 -0.8498
 4795SOL     OW26017   2.006   3.580  13.637  0.1233 -0.0134  0.4052
 4795SOL    HW126018   2.086   3.532  13.660 -0.4912 -1.3868 -0.2950
 4795SOL    HW226019   2.022   3.662  13.683 -1.0923  0.2336  0.3924
 4796SOL     OW26020   0.500   1.581   5.316 -0.1441  0.1166 -0.0196
 4796SOL    HW126021   0.458   1.495   5.312  1.3295 -0.6639  1.2082
 4796SOL    HW226022   0.588   1.552   5.341 -0.8167 -1.1530  0.8949
 4797SOL     OW26023   1.608   3.552  17.543  0.2557  0.1955  0.6424
 4797SOL    HW126024   1.666   3.624  17.518 -1.1160  0.9855 -0.2484
 4797SOL    HW226025   1.630   3.547  17.636 -1.5385  0.0409  1.0568
 4798SOL     OW26026   1.665   3.762   8.787  0.2837 -0.1568  0.4011
 4798SOL    HW126027   1.622   3.811   8.857  0.7641  0.2666  0.4059
 4798SOL    HW226028   1.592   3.731   8.734  0.9756  1.2272 -1.3580
 4799SOL     OW26029   0.040   3.873  10.787 -0.0110 -0.3022 -0.4291
 4799SOL    HW126030   0.020   3.837  10.874  0.8809  0.5047  0.1125
 4799SOL    HW226031   0.129   3.843  10.765  0.4649 -0.2906  1.4798
 4800SOL     OW26032   3.684   3.169  13.628 -0.5718  0.2362 -0.1022
 4800SOL    HW126033   3.645   3.092  13.585 -2.0270  0.8902  0.0476
 4800SOL    HW226034   3.620   3.188  13.696 -0.7085  2.0038 -0.7234
 4801SOL     OW26035   0.118   1.347   2.394 -0.0695 -0.1901 -0.5926
 4801SOL    HW126036   0.051   1.292   2.353  1.2482 -0.5558 -2.2557
 4801SOL    HW226037   0.120   1.296   2.475  3.1400 -1.1956 -1.3258
 4802SOL     OW26038   4.105   4.105  14.680  0.4910 -0.0537  0.0028
 4802SOL    HW126039   4.102   4.197  14.707  0.5514  0.3393 -1.3336
 4802SOL    HW226040   4.086   4.102  14.587  0.7294 -1.4185  0.0011
 4803SOL     OW26041   1.315   4.198  15.294  0.1773  0.1371  0.0816
 4803SOL    HW126042   1.316   4.129  15.228  0.4227  0.4857 -0.2818
 4803SOL    HW226043   1.406   4.200  15.325  0.2349  3.9958 -0.3269
 4804SOL     OW26044   3.036   1.058   8.770  0.1262  0.1857 -0.2534
 4804SOL    HW126045   3.132   1.055   8.766  0.2244 -1.2400  3.3425
 4804SOL    HW226046   3.013   0.965   8.770  0.8409  0.0103 -0.9763
 4805SOL     OW26047   3.375   2.975   9.363 -0.5978  0.7119  0.4303
 4805SOL    HW126048   3.469   2.973   9.383 -0.0584 -0.1347 -2.1326
 4805SOL    HW226049   3.332   2.960   9.446  1.4462  0.1518  1.3899
 4806SOL     OW26050   1.913   3.180   5.028 -0.6931  0.0547 -0.4774
 4806SOL    HW126051   1.846   3.122   5.065 -1.3894  1.7771  0.9144
 4806SOL    HW226052   1.884   3.181   4.936 -0.9377  0.9608 -0.3873
 4807SOL     OW26053   1.043   1.262  11.690 -0.0991 -0.4254 -0.1775
 4807SOL    HW126054   1.015   1.219  11.610  1.7082 -0.6381 -0.7038
 4807SOL    HW226055   1.089   1.339  11.656 -0.5190  0.1686  0.5754
 4808SOL     OW26056   3.653   4.312   8.613  0.1571 -0.5704 -0.1016
 4808SOL    HW126057   3.700   4.294   8.695 -0.8277  3.9505  1.4482
 4808SOL    HW226058   3.663   4.405   8.594  2.6807 -1.5529 -3.5965
 4809SOL     OW26059   1.449   2.336  13.285 -0.1050  0.1918  0.5018
 4809SOL    HW126060   1.523   2.390  13.259  0.7804 -0.5257  1.5318
 4809SOL    HW226061   1.497   2.297  13.359  3.1497  0.2087 -1.6187
 4810SOL     OW26062   4.732   0.454   1.553  1.0138  0.0858 -0.3352
 4810SOL    HW126063   4.684   0.534   1.574 -1.2560 -1.3350 -0.0907
 4810SOL    HW226064   4.665   0.387   1.568  2.1692 -1.1564 -0.7125
 4811SOL     OW26065   0.535   2.039   3.485 -0.0771  0.0781 -0.3372
 4811SOL    HW126066   0.494   2.115   3.527  1.3184  0.3286  0.5941
 4811SOL    HW226067   0.570   1.993   3.561  1.0737  0.6731 -0.4949
 4812SOL     OW26068   3.801   3.427   6.501  0.7736 -0.4593  0.1550
 4812SOL    HW126069   3.805   3.522   6.493  0.0512 -0.3971  0.5628
 4812SOL    HW226070   3.707   3.417   6.481  0.9409 -0.7020 -0.5230
 4813SOL     OW26071   3.791   0.682   7.581  0.7566 -0.0600 -0.2434
 4813SOL    HW126072   3.789   0.747   7.651 -2.1457 -0.9426  0.5052
 4813SOL    HW226073   3.843   0.613   7.622  0.3761  0.1277  0.5744
 4814SOL     OW26074   1.753   2.064   5.837  0.2609  0.3371 -0.4266
 4814SOL    HW126075   1.793   1.993   5.889 -0.6237  0.9001  1.0214
 4814SOL    HW226076   1.677   2.102   5.882  2.0497  2.1350  1.0619
 4815SOL     OW26077   2.959   2.799   8.673  0.0589 -0.4814  0.0817
 4815SOL    HW126078   2.965   2.814   8.579 -0.5687 -1.7128 -0.1464
 4815SOL    HW226079   2.888   2.854   8.707  0.1635  1.1743 -2.3359
 4816SOL     OW26080   2.778   0.463  12.466  0.4229 -0.3845 -0.6716
 4816SOL    HW126081   2.744   0.377  12.441  0.9917 -1.0683  0.9219
 4816SOL    HW226082   2.696   0.512  12.470  0.5847 -0.3808  2.6869
 4817SOL     OW26083   4.675   4.557   6.969  0.3692  0.2905 -0.1984
 4817SOL    HW126084   4.604   4.505   6.933 -0.6181  1.2950  0.2981
 4817SOL    HW226085   4.674   4.551   7.065  0.1689  2.3868 -0.0602
 4818SOL     OW26086   0.720   1.632  12.113 -0.2252 -0.7843  0.1956
 4818SOL    HW126087   0.639   1.586  12.132  0.5947 -1.7442  1.3749
 4818SOL    HW226088   0.765   1.565  12.062 -1.3334  0.3767 -2.3396
 4819SOL     OW26089   2.278   3.941   5.018 -0.1243 -0.3769  0.3051
 4819SOL    HW126090   2.227   3.999   5.074  1.2261 -0.1283  1.2790
 4819SOL    HW226091   2.258   3.973   4.930  4.5291 -1.5939 -1.2215
 4820SOL     OW26092   3.243   3.668   1.364 -0.5745  0.4647  0.4733
 4820SOL    HW126093   3.175   3.699   1.424 -0.5257  1.7832 -0.1315
 4820SOL    HW226094   3.270   3.584   1.400  1.1566  2.0862  2.9661
 4821SOL     OW26095   1.747   1.810   5.339 -0.2445 -0.7121  0.0003
 4821SOL    HW126096   1.656   1.833   5.357  0.8237  2.4324  1.5628
 4821SOL    HW226097   1.784   1.826   5.426 -0.2884  0.9071 -0.2660
 4822SOL     OW26098   1.571   0.679   5.834 -0.8427  0.5768 -0.5994
 4822SOL    HW126099   1.603   0.615   5.898 -0.1094  0.7537 -0.7878
 4822SOL    HW226100   1.619   0.756   5.866 -0.9370 -0.2723  1.6107
 4823SOL     OW26101   0.293   0.428   4.783 -0.1124  0.0971  0.1407
 4823SOL    HW126102   0.308   0.434   4.689  1.7729 -1.7432  0.3383
 4823SOL    HW226103   0.238   0.507   4.791  0.8500  0.8085 -0.3045
 4824SOL     OW26104   0.255   4.106   8.495 -0.1487 -0.2364 -0.0890
 4824SOL    HW126105   0.159   4.097   8.496  0.0554 -1.8705  3.9506
 4824SOL    HW226106   0.271   4.133   8.404 -1.8951  1.3493  0.0798
 4825SOL     OW26107   3.565   1.422   7.818  0.3169  0.0055  0.1874
 4825SOL    HW126108   3.472   1.429   7.796  0.8483 -0.1142 -2.1157
 4825SOL    HW226109   3.557   1.478   7.895  0.8597  2.4251 -1.5180
 4826SOL     OW26110   2.117   1.963   2.784 -0.0827  0.4088 -0.5983
 4826SOL    HW126111   2.189   1.947   2.723  2.6290  1.0045  2.4545
 4826SOL    HW226112   2.099   1.873   2.809  0.1732 -0.0536 -2.0833
 4827SOL     OW26113   0.126   2.001   5.081 -0.1677  0.1219  0.0182
 4827SOL    HW126114   0.117   1.972   4.990 -0.1663  1.5124 -0.4191
 4827SOL    HW226115   0.144   1.918   5.126 -0.9572 -0.1674 -0.1942
 4828SOL     OW26116   1.610   1.844   1.244  0.2065 -0.4474  0.2640
 4828SOL    HW126117   1.682   1.902   1.216  0.6957 -0.8802  0.6185
 4828SOL    HW226118   1.536   1.886   1.201  1.2806  0.4667 -0.6974
 4829SOL     OW26119   1.373   0.458   1.920 -0.1165  0.3559  0.4259
 4829SOL    HW126120   1.311   0.514   1.967 -2.8625 -1.6978 -0.8193
 4829SOL    HW226121   1.416   0.530   1.873 -1.0007  1.4327  1.2795
 4830SOL     OW26122   3.474   0.701   1.668  0.0150  0.0370  0.2445
 4830SOL    HW126123   3.430   0.766   1.722 -3.2617 -0.4274 -1.8378
 4830SOL    HW226124   3.512   0.753   1.597 -3.1214 -0.1959 -1.6107
 4831SOL     OW26125   1.363   2.641  13.921  0.4354  0.5740 -0.0030
 4831SOL    HW126126   1.299   2.571  13.917 -0.8755  1.7258  0.6236
 4831SOL    HW226127   1.447   2.598  13.907 -0.4485 -0.9752 -0.4589
 4832SOL     OW26128   4.525   3.809  13.111 -0.4079 -0.3911  0.2429
 4832SOL    HW126129   4.444   3.858  13.103 -1.7863 -2.6480  0.3189
 4832SOL    HW226130   4.524   3.760  13.029  1.6385 -0.4922  0.2577
 4833SOL     OW26131   2.494   1.929  10.808  0.3950 -0.0905 -0.6551
 4833SOL    HW126132   2.479   1.858  10.745  0.6528 -0.8258  0.1132
 4833SOL    HW226133   2.490   1.886  10.893  0.8125 -0.3554 -0.7720
 4834SOL     OW26134   0.517   4.318   8.378  0.1978 -0.2498  0.0447
 4834SOL    HW126135   0.513   4.310   8.283  0.3440  0.5779 -0.0358
 4834SOL    HW226136   0.603   4.358   8.394  0.2034 -0.4032  0.4060
 4835SOL     OW26137   1.438   1.752   3.872  0.3705 -0.2722  0.2815
 4835SOL    HW126138   1.412   1.827   3.926  1.9945  2.4190 -2.6746
 4835SOL    HW226139   1.398   1.672   3.906  0.0600 -0.0666  0.4001
 4836SOL     OW26140   3.651   3.769  11.677 -0.8910  0.1302 -0.4940
 4836SOL    HW126141   3.714   3.831  11.713 -0.5144 -0.8890  0.6037
 4836SOL    HW226142   3.584   3.782  11.744 -2.4551 -2.4903 -1.5241
 4837SOL     OW26143   0.949   0.850   3.292  0.0133 -0.3007  1.0384
 4837SOL    HW126144   1.000   0.894   3.360  0.6384  0.0647  0.3392
 4837SOL    HW226145   0.893   0.802   3.352  0.3772 -0.1556  1.4902
 4838SOL     OW26146   3.596   0.026  17.613  0.8034 -0.1359 -0.5735
 4838SOL    HW126147   3.635   0.013  17.527  1.2774 -1.0969 -0.2126
 4838SOL    HW226148   3.667   4.739  17.670  0.9407 -3.2769 -2.3891
 4839SOL     OW26149   3.643   1.404   7.529  0.0047 -0.0669  0.0589
 4839SOL    HW126150   3.586   1.436   7.599  0.4356  0.5372  0.1298
 4839SOL    HW226151   3.723   1.451   7.552 -0.3230  1.7144 -2.4719
 4840SOL     OW26152   1.125   0.933   8.043 -0.0970  0.6832 -0.0725
 4840SOL    HW126153   1.163   0.914   7.957 -1.3684 -2.8993  0.1603
 4840SOL    HW226154   1.204   0.981   8.069 -0.0311  0.8224 -0.5250
 4841SOL     OW26155   4.251   4.133   8.072 -0.6142 -0.2782  0.2874
 4841SOL    HW126156   4.249   4.217   8.119 -1.3233 -1.5702  2.6054
 4841SOL    HW226157   4.201   4.081   8.135 -0.9007 -1.5544 -1.0100
 4842SOL     OW26158   1.156   2.911   4.306  0.1866  0.2716  0.4537
 4842SOL    HW126159   1.096   2.962   4.251  1.7068  1.9232  0.3152
 4842SOL    HW226160   1.128   2.822   4.285 -1.2915  0.8303  0.0247
 4843SOL     OW26161   3.523   0.882   7.578  0.1730  0.3219 -0.2628
 4843SOL    HW126162   3.595   0.875   7.641  0.2453 -1.0967 -0.4951
 4843SOL    HW226163   3.531   0.975   7.560  1.5219  0.3986  0.7534
 4844SOL     OW26164   1.412   1.072   2.403  0.3209  0.2845  0.0761
 4844SOL    HW126165   1.403   0.999   2.464  0.1534 -1.1943 -1.7298
 4844SOL    HW226166   1.478   1.038   2.343  0.3364  0.7094 -0.1461
 4845SOL     OW26167   0.500   0.074   3.479 -0.4155  0.0992  0.1406
 4845SOL    HW126168   0.551   4.736   3.480 -0.3393  0.1627  1.6717
 4845SOL    HW226169   0.541   0.117   3.404 -0.4794 -1.8245 -1.0055
 4846SOL     OW26170   4.366   0.617   8.692  0.1604 -0.3359 -0.4638
 4846SOL    HW126171   4.276   0.594   8.713  0.3893 -0.0761  0.8204
 4846SOL    HW226172   4.393   0.664   8.772 -1.1464 -1.7389  0.7945
 4847SOL     OW26173   4.327   4.459  12.059  0.2285 -0.0602  0.0210
 4847SOL    HW126174   4.295   4.514  12.130 -0.7342  1.8461 -1.9165
 4847SOL    HW226175   4.344   4.372  12.097 -0.9968 -0.9859 -1.5417
 4848SOL     OW26176   3.982   2.647   8.925 -0.3391 -0.2618  0.1494
 4848SOL    HW126177   3.969   2.727   8.977 -1.6334 -0.4409  0.1139
 4848SOL    HW226178   3.955   2.580   8.988  0.0242 -0.4703  0.0801
 4849SOL     OW26179   2.619   3.526  13.504 -0.1061  0.5897 -0.0090
 4849SOL    HW126180   2.696   3.503  13.555  0.9042 -0.7307 -2.1191
 4849SOL    HW226181   2.558   3.455  13.526  0.3088 -0.3703 -1.9182
 4850SOL     OW26182   4.294   3.652   3.735  0.5058 -0.0975 -0.1039
 4850SOL    HW126183   4.363   3.687   3.792  0.1941  3.5575 -1.9688
 4850SOL    HW226184   4.342   3.674   3.655 -0.4444 -1.3163 -0.9927
 4851SOL     OW26185   3.280   0.409   4.272  0.2250  0.6176  0.6820
 4851SOL    HW126186   3.266   0.481   4.333  0.5131 -0.8014  2.4359
 4851SOL    HW226187   3.250   0.445   4.188  0.8750  0.5792  0.4302
 4852SOL     OW26188   4.357   4.026   5.239  0.7086  0.4640 -0.3985
 4852SOL    HW126189   4.381   3.963   5.307  0.7146  0.6317 -0.2443
 4852SOL    HW226190   4.273   3.992   5.208  1.6451 -1.3491 -0.9046
 4853SOL     OW26191   3.678   2.105   8.852 -0.3208  0.2473  0.2237
 4853SOL    HW126192   3.723   2.120   8.769  0.7998 -2.8779  0.2802
 4853SOL    HW226193   3.597   2.061   8.824 -0.5063  1.5165 -1.2435
 4854SOL     OW26194   2.005   1.307   7.147 -0.1828 -0.2889 -0.2347
 4854SOL    HW126195   1.973   1.225   7.110  0.2587  0.5052 -2.3706
 4854SOL    HW226196   1.922   1.354   7.153 -0.3492 -0.7644  1.1847
 4855SOL     OW26197   0.114   4.572   7.535  0.1418 -0.0734  0.4395
 4855SOL    HW126198   0.164   4.495   7.505 -0.6956 -0.4385 -0.0092
 4855SOL    HW226199   0.036   4.562   7.481 -0.8194  1.8959  1.4839
 4856SOL     OW26200   1.313   4.470   2.673  0.0795 -0.6995  0.3865
 4856SOL    HW126201   1.265   4.545   2.638  1.0026  0.0768  0.7864
 4856SOL    HW226202   1.349   4.431   2.593  0.4156 -2.3197  1.3304
 4857SOL     OW26203   3.889   3.046   5.373  0.5185 -0.2295  0.3157
 4857SOL    HW126204   3.934   2.962   5.362 -0.5778 -0.6352 -0.9944
 4857SOL    HW226205   3.858   3.041   5.463  0.1652  0.6792  0.2438
 4858SOL     OW26206   0.130   2.530   9.396  0.8478  0.3595 -0.1770
 4858SOL    HW126207   0.075   2.592   9.349  1.1584 -0.5228 -1.6843
 4858SOL    HW226208   0.076   2.452   9.381 -1.2730  1.1655  3.2649
 4859SOL     OW26209   1.001   4.120  16.007 -0.4526 -0.5970 -0.0663
 4859SOL    HW126210   0.921   4.144  15.961  0.3874 -0.3774 -1.4132
 4859SOL    HW226211   1.069   4.168  15.959 -0.7897  0.3510  0.4165
 4860SOL     OW26212   2.110   2.204  13.862  0.2468  0.4190 -0.1486
 4860SOL    HW126213   2.122   2.277  13.802  0.0749  1.2027  0.7654
 4860SOL    HW226214   2.156   2.231  13.941 -1.1238 -1.2372  1.2488
 4861SOL     OW26215   0.669   0.932   4.127  0.7664 -0.1554  0.2842
 4861SOL    HW126216   0.603   0.893   4.070 -0.2371  0.5859  0.9602
 4861SOL    HW226217   0.740   0.961   4.069 -0.2271 -0.4577 -1.0895
 4862SOL     OW26218   2.325   1.995  10.354 -0.3459 -0.1356  0.0152
 4862SOL    HW126219   2.328   2.075  10.302 -0.9879 -0.1965 -0.1141
 4862SOL    HW226220   2.291   2.025  10.438 -1.2704 -0.3430 -0.2880
 4863SOL     OW26221   3.948   0.017   2.222 -0.2763  0.0739 -0.0817
 4863SOL    HW126222   3.899   4.705   2.161 -0.1719 -1.2381  1.0546
 4863SOL    HW226223   3.958   4.706   2.300 -0.7548  1.3039  0.8378
 4864SOL     OW26224   4.385   4.063  13.127  0.7100 -0.6715 -0.4093
 4864SOL    HW126225   4.362   4.156  13.123 -1.8990 -1.3189 -1.0365
 4864SOL    HW226226   4.470   4.066  13.170  0.4186  0.4652  0.0748
 4865SOL     OW26227   2.451   1.944   1.807 -0.0587 -0.5619 -0.1944
 4865SOL    HW126228   2.364   1.923   1.843 -0.3827 -1.5398 -1.5236
 4865SOL    HW226229   2.447   1.909   1.718 -0.6793 -1.3146  0.1265
 4866SOL     OW26230   0.054   2.109   2.343 -0.2374 -0.3233 -0.7291
 4866SOL    HW126231   0.108   2.085   2.268  0.4735 -2.2867  0.4226
 4866SOL    HW226232   4.715   2.069   2.317 -0.3019 -0.2172 -0.6860
 4867SOL     OW26233   0.960   3.759  15.840 -0.5176  0.4964  0.1675
 4867SOL    HW126234   1.040   3.765  15.787 -0.8178 -0.4883 -0.4128
 4867SOL    HW226235   0.962   3.670  15.876  1.5099  0.2858 -0.4210
 4868SOL     OW26236   3.296   1.258   1.811  0.2477 -0.0686  0.4422
 4868SOL    HW126237   3.364   1.191   1.821 -0.8292 -1.0014  1.5170
 4868SOL    HW226238   3.345   1.338   1.829 -0.4044  0.8056 -1.6952
 4869SOL     OW26239   3.064   4.522  10.505 -0.2532  0.2230 -1.0077
 4869SOL    HW126240   3.034   4.490  10.420  1.1885 -0.3108 -1.3142
 4869SOL    HW226241   2.980   4.527  10.550 -0.2768 -1.8138 -0.7886
 4870SOL     OW26242   2.707   0.260   3.834  0.4317 -0.1908 -0.3666
 4870SOL    HW126243   2.643   0.267   3.763 -0.6164  0.8010  0.6789
 4870SOL    HW226244   2.778   0.310   3.794 -1.6572  1.4919 -1.9487
 4871SOL     OW26245   2.014   1.562   3.524  0.0978  0.2536 -0.1810
 4871SOL    HW126246   2.096   1.606   3.502 -0.7156  1.8414 -0.0307
 4871SOL    HW226247   1.951   1.586   3.456 -0.5900 -0.0049  0.3615
 4872SOL     OW26248   3.019   1.757   3.267 -0.1974 -0.1599  0.1376
 4872SOL    HW126249   3.012   1.816   3.342 -1.8446  0.4274 -0.4834
 4872SOL    HW226250   3.108   1.724   3.277 -0.2767 -1.0623 -2.0256
 4873SOL     OW26251   4.039   4.142  10.910  0.6030  0.0669  0.0694
 4873SOL    HW126252   4.117   4.088  10.926  0.7011  0.6587  1.6624
 4873SOL    HW226253   4.076   4.220  10.868 -0.9044  0.5952 -0.2807
 4874SOL     OW26254   2.013   3.288  17.343 -0.0657 -0.0337  0.0207
 4874SOL    HW126255   2.025   3.217  17.406 -1.0062  0.7893  1.1263
 4874SOL    HW226256   2.089   3.342  17.366 -0.0508 -0.1911  0.3421
 4875SOL     OW26257   1.203   1.277   4.985  0.2582 -0.3557 -0.0000
 4875SOL    HW126258   1.135   1.217   4.955 -0.8564 -0.4760  2.7944
 4875SOL    HW226259   1.182   1.362   4.944  0.2489  0.7834  2.3987
 4876SOL     OW26260   2.894   4.043   8.341 -0.1642 -0.3360 -0.5693
 4876SOL    HW126261   2.916   3.989   8.265 -0.1368  0.4437 -1.1248
 4876SOL    HW226262   2.944   4.123   8.326 -1.1691  0.4314  0.1566
 4877SOL     OW26263   2.657   0.593   9.207 -0.9751  0.3056 -0.1247
 4877SOL    HW126264   2.569   0.622   9.184 -0.3644  3.2293  1.3305
 4877SOL    HW226265   2.646   0.565   9.298  0.2773 -2.5371 -0.8217
 4878SOL     OW26266   2.407   0.796   0.117 -0.0626  0.0000 -0.7189
 4878SOL    HW126267   2.343   0.724   0.109  0.6822 -0.6721 -0.6270
 4878SOL    HW226268   2.488   0.754   0.088  0.4433  1.0003 -0.7448
 4879SOL     OW26269   0.749   0.736   3.002 -0.8850 -0.2353  0.2234
 4879SOL    HW126270   0.716   0.819   3.035 -0.9257 -0.5908  1.0647
 4879SOL    HW226271   0.748   0.680   3.079  0.0503  0.2486  0.5908
 4880SOL     OW26272   1.089   2.870   5.940 -0.5527  0.5549 -0.0608
 4880SOL    HW126273   1.010   2.853   5.992 -0.4564 -0.1926 -0.1654
 4880SOL    HW226274   1.152   2.841   6.007 -2.3739  1.1571  1.9253
 4881SOL     OW26275   4.105   1.520   6.671  0.1252 -0.0510  0.8495
 4881SOL    HW126276   4.136   1.430   6.657 -1.0090 -0.2493 -0.4292
 4881SOL    HW226277   4.016   1.510   6.637  0.4473  0.5128 -0.1734
 4882SOL     OW26278   2.914   3.726   5.610 -0.5318 -0.0944 -0.4087
 4882SOL    HW126279   2.898   3.818   5.632  0.2828 -0.3607  1.3277
 4882SOL    HW226280   2.949   3.749   5.525 -1.6444 -3.0146 -1.6319
 4883SOL     OW26281   1.755   1.193   3.616 -0.1932 -0.5517  0.0859
 4883SOL    HW126282   1.686   1.182   3.682  1.2385  1.3920  1.8747
 4883SOL    HW226283   1.715   1.158   3.536  0.1286  1.3684 -0.9051
 4884SOL     OW26284   4.286   2.582   7.201  0.4636  0.4078 -0.1978
 4884SOL    HW126285   4.200   2.615   7.228 -0.1254 -1.1871 -0.1051
 4884SOL    HW226286   4.346   2.645   7.241  0.7215 -0.9159  1.5267
 4885SOL     OW26287   1.359   4.239   5.993 -0.5493 -0.9277  0.1332
 4885SOL    HW126288   1.332   4.195   6.074  2.5035  0.9265  2.1485
 4885SOL    HW226289   1.322   4.327   5.999  0.5596 -0.5858  1.8524
 4886SOL     OW26290   0.191   4.445   1.459  0.0088  0.2275 -0.6897
 4886SOL    HW126291   0.153   4.486   1.537  0.1750 -0.0924 -0.4413
 4886SOL    HW226292   0.257   4.388   1.499 -0.1903  1.3993  1.3310
 4887SOL     OW26293   0.460   3.323  10.916 -0.3466 -0.1229  0.2046
 4887SOL    HW126294   0.397   3.392  10.898 -0.6200 -0.1762  0.9895
 4887SOL    HW226295   0.425   3.255  10.859 -1.5170  0.7431 -0.0999
 4888SOL     OW26296   2.350   2.400  11.274  0.4078  0.0907 -0.1204
 4888SOL    HW126297   2.286   2.463  11.243  0.0420  0.5609  1.6327
 4888SOL    HW226298   2.431   2.450  11.284  0.7429  0.0368 -2.5936
 4889SOL     OW26299   1.883   1.113   6.451 -0.6702  0.0284  0.3846
 4889SOL    HW126300   1.836   1.063   6.385  2.2810 -1.0172 -0.9299
 4889SOL    HW226301   1.956   1.055   6.473 -0.4554 -0.0601 -0.5661
 4890SOL     OW26302   1.098   4.080   2.155 -0.4108 -0.2783 -0.5061
 4890SOL    HW126303   1.020   4.071   2.209 -0.3576  0.4428 -0.3037
 4890SOL    HW226304   1.122   4.173   2.150  0.0777 -0.5718 -3.9545
 4891SOL     OW26305   2.385   1.933  10.080 -0.1360  0.0626  0.1759
 4891SOL    HW126306   2.416   2.024  10.085 -0.1228  0.0793 -0.2051
 4891SOL    HW226307   2.295   1.936  10.113  0.5237  0.7287  1.9569
 4892SOL     OW26308   1.363   1.651  15.996 -0.5858  0.6700 -0.0083
 4892SOL    HW126309   1.291   1.714  15.997  0.2390  1.6123  0.7649
 4892SOL    HW226310   1.323   1.579  15.946 -2.3543  0.7842  1.2138
 4893SOL     OW26311   4.142   2.171   1.621  0.1425 -0.1938 -0.3071
 4893SOL    HW126312   4.093   2.140   1.544 -1.8303 -0.4921  1.0656
 4893SOL    HW226313   4.063   2.201   1.667  0.5152 -3.1991  2.2559
 4894SOL     OW26314   0.009   3.695   2.843  0.0223  0.1719  0.1136
 4894SOL    HW126315   4.687   3.739   2.789  0.1488 -1.1901 -1.1633
 4894SOL    HW226316   4.730   3.603   2.827 -1.6622  0.2108  2.3465
 4895SOL     OW26317   1.008   4.468   3.439  0.1995  0.4653  0.6004
 4895SOL    HW126318   0.959   4.511   3.369 -0.3729 -2.5545 -0.8367
 4895SOL    HW226319   0.944   4.420   3.492  1.6049 -2.8383 -0.7537
 4896SOL     OW26320   2.365   3.143  16.577 -0.4857  0.2860 -0.1182
 4896SOL    HW126321   2.424   3.079  16.539  1.2819  3.0573 -1.9844
 4896SOL    HW226322   2.378   3.214  16.515  6.0075  0.3102  1.3155
 4897SOL     OW26323   1.630   0.462   6.007 -0.0176  0.4655  0.2072
 4897SOL    HW126324   1.609   0.371   5.989  1.2261  0.2264  0.0229
 4897SOL    HW226325   1.560   0.480   6.070 -0.5853  1.4379 -0.7058
 4898SOL     OW26326   4.375   4.154   1.517 -0.1110 -0.7020  0.4494
 4898SOL    HW126327   4.293   4.149   1.467 -0.0836 -0.9153  0.4235
 4898SOL    HW226328   4.344   4.118   1.601 -0.8492 -1.7242 -0.2523
 4899SOL     OW26329   3.970   4.004   6.768  0.1205  0.3436  0.0142
 4899SOL    HW126330   3.938   4.025   6.855  0.6212 -2.3443  0.8457
 4899SOL    HW226331   3.958   3.909   6.762  1.0087  0.1512  1.2781
 4900SOL     OW26332   1.482   3.856   4.806 -0.1406 -0.0443 -0.4545
 4900SOL    HW126333   1.563   3.807   4.793 -0.0756 -0.4910  1.6431
 4900SOL    HW226334   1.485   3.898   4.719 -1.4722 -1.3542 -1.1386
 4901SOL     OW26335   3.338   0.837   2.966  0.3163  0.0728 -0.1077
 4901SOL    HW126336   3.320   0.918   3.013 -1.3818 -1.4687  1.8998
 4901SOL    HW226337   3.369   0.776   3.033  0.5177  0.7383  0.3990
 4902SOL     OW26338   4.085   3.873   7.233  0.2193  0.5980  0.1668
 4902SOL    HW126339   4.086   3.783   7.265  1.2340  0.0892 -1.3001
 4902SOL    HW226340   4.167   3.879   7.184  1.3962 -0.7918  1.9743
 4903SOL     OW26341   1.462   1.894  12.077 -0.0527  0.7351  0.0744
 4903SOL    HW126342   1.535   1.925  12.130  1.0910  2.3216 -2.4695
 4903SOL    HW226343   1.397   1.964  12.089 -0.7212  0.1640 -0.1789
 4904SOL     OW26344   0.155   1.441   7.637 -0.0085  0.6436  0.0879
 4904SOL    HW126345   0.205   1.522   7.647 -0.8881  1.2519 -0.3833
 4904SOL    HW226346   0.070   1.466   7.676  0.0290  0.6630  0.1582
 4905SOL     OW26347   2.057   0.361   4.354 -0.1941 -0.2355  0.2131
 4905SOL    HW126348   2.043   0.356   4.448  2.7098  1.1943  0.7216
 4905SOL    HW226349   2.126   0.295   4.350  0.3404  0.4298 -1.6994
 4906SOL     OW26350   3.909   2.324   2.058 -0.5974  0.4031  0.2652
 4906SOL    HW126351   3.859   2.344   2.137 -1.6485 -2.5272  0.3511
 4906SOL    HW226352   3.849   2.344   1.986 -0.6612 -0.5122  0.0599
 4907SOL     OW26353   2.857   3.207   4.835  0.0106  0.0240 -0.4906
 4907SOL    HW126354   2.898   3.146   4.773  1.2230  0.4587 -0.1279
 4907SOL    HW226355   2.764   3.184   4.828  0.6783 -2.7962 -0.4180
 4908SOL     OW26356   4.459   3.419  17.277  0.0171  0.3612  0.1916
 4908SOL    HW126357   4.516   3.433  17.201 -0.7060  3.2110  0.1765
 4908SOL    HW226358   4.417   3.505  17.283  0.9783  0.9841 -2.1041
 4909SOL     OW26359   3.698   2.770   4.849  0.3252 -0.5726 -0.0616
 4909SOL    HW126360   3.670   2.774   4.941  2.0898 -0.3773  0.4749
 4909SOL    HW226361   3.623   2.719   4.819  0.5408 -1.2312  0.5112
 4910SOL     OW26362   4.531   0.788   5.042 -0.4466 -0.1301  0.0830
 4910SOL    HW126363   4.522   0.861   5.103  1.9408  0.0948  0.1699
 4910SOL    HW226364   4.442   0.754   5.032 -1.1667  1.1969  1.9482
 4911SOL     OW26365   2.905   2.820   6.676  0.4582  0.4201 -0.5218
 4911SOL    HW126366   2.809   2.813   6.673  0.2823  3.1997 -1.8284
 4911SOL    HW226367   2.940   2.744   6.631 -1.6607  0.1508 -1.6870
 4912SOL     OW26368   2.459   0.323  10.153  0.3649 -0.2523 -0.0515
 4912SOL    HW126369   2.420   0.261  10.216  2.2068  0.2428  1.5510
 4912SOL    HW226370   2.377   0.368  10.134  2.1637  2.1742 -1.9065
 4913SOL     OW26371   4.432   1.762   3.562  0.1349  0.0277  0.6239
 4913SOL    HW126372   4.509   1.763   3.504 -0.0358 -0.2088  0.3956
 4913SOL    HW226373   4.372   1.710   3.509 -0.2096  0.3048  0.7438
 4914SOL     OW26374   1.156   3.782   6.558 -0.1867  0.3127  0.2961
 4914SOL    HW126375   1.223   3.716   6.543 -2.4127 -2.0748  0.8613
 4914SOL    HW226376   1.095   3.764   6.486  1.2999  0.6386 -1.0424
 4915SOL     OW26377   4.229   3.880  14.795  0.5984  0.0396  0.1940
 4915SOL    HW126378   4.301   3.922  14.842  1.0221  0.2193 -0.6139
 4915SOL    HW226379   4.185   3.955  14.753 -1.5968 -0.8590  0.8764
 4916SOL     OW26380   3.516   0.729   2.504 -0.2850 -0.3332  0.2107
 4916SOL    HW126381   3.520   0.798   2.571  0.4976  1.5025 -1.7467
 4916SOL    HW226382   3.424   0.738   2.478 -0.0954  2.2729  0.3777
 4917SOL     OW26383   1.991   2.067   1.391  0.0451  0.5877  0.3557
 4917SOL    HW126384   1.973   2.143   1.447  0.0529  0.4080  0.6019
 4917SOL    HW226385   1.913   2.066   1.336  0.9686 -0.2848 -0.9344
 4918SOL     OW26386   1.575   3.970   0.076  0.2516 -0.5406  0.6153
 4918SOL    HW126387   1.587   3.881   0.107 -2.2461 -0.6190  1.3408
 4918SOL    HW226388   1.514   4.008   0.140 -0.4552  1.7259 -1.3940
 4919SOL     OW26389   1.222   2.373  16.038  0.2663 -0.2295 -0.5636
 4919SOL    HW126390   1.282   2.342  15.970 -1.5247 -2.8704 -0.9392
 4919SOL    HW226391   1.271   2.390  16.118  0.2181 -1.5360 -0.2668
 4920SOL     OW26392   1.631   4.099   3.941 -0.4613  0.2037  0.0156
 4920SOL    HW126393   1.686   4.177   3.944 -1.0792  0.5508  2.0545
 4920SOL    HW226394   1.686   4.041   3.995 -2.9492 -2.2798 -0.0809
 4921SOL     OW26395   3.304   0.374  15.672 -0.4209 -0.4344  0.5331
 4921SOL    HW126396   3.362   0.435  15.719  1.9846 -1.8631 -0.6081
 4921SOL    HW226397   3.273   0.319  15.744 -1.6754  1.6045  1.5486
 4922SOL     OW26398   4.713   0.790   6.488 -0.1201 -0.3482 -0.2236
 4922SOL    HW126399   4.731   0.838   6.407  0.5541 -0.1350  0.0556
 4922SOL    HW226400   4.730   0.861   6.550  1.0472 -1.4888  0.7563
 4923SOL     OW26401   1.633   3.449  10.875  0.4628  0.0656  0.3418
 4923SOL    HW126402   1.698   3.516  10.859  0.3860  0.1430  0.3524
 4923SOL    HW226403   1.664   3.376  10.821 -1.1215 -0.1999 -0.2260
 4924SOL     OW26404   4.682   4.592   9.317 -0.1891  0.0710  0.0932
 4924SOL    HW126405   4.589   4.578   9.333 -0.0325  0.4474  1.3395
 4924SOL    HW226406   4.689   4.680   9.280  0.4291 -0.6235 -1.4412
 4925SOL     OW26407   1.704   1.386  13.272 -0.1754 -0.2601  0.2967
 4925SOL    HW126408   1.610   1.396  13.254  0.4485  1.2356 -2.0714
 4925SOL    HW226409   1.725   1.480  13.268 -0.1812 -0.1890  1.8671
 4926SOL     OW26410   2.724   4.566   4.110 -0.1908 -0.4996  0.2855
 4926SOL    HW126411   2.752   4.656   4.094 -0.0181 -0.5159  0.4936
 4926SOL    HW226412   2.646   4.568   4.054  0.5552  0.2946 -0.7197
 4927SOL     OW26413   4.680   4.507   3.101 -0.0777 -0.0540  0.6476
 4927SOL    HW126414   4.638   4.454   3.168 -0.3320  0.0049  0.5339
 4927SOL    HW226415   4.697   4.443   3.032 -0.8835 -0.7302  1.0763
 4928SOL     OW26416   2.321   3.150   1.781  0.0060 -0.3482 -0.1806
 4928SOL    HW126417   2.358   3.154   1.869  1.0294 -3.9520 -0.4574
 4928SOL    HW226418   2.392   3.149   1.717  1.6428  0.9473  1.6224
 4929SOL     OW26419   4.497   3.759   3.322 -0.1242  0.3817 -0.6005
 4929SOL    HW126420   4.410   3.773   3.285 -0.2392 -1.0879 -0.8736
 4929SOL    HW226421   4.558   3.770   3.250  2.3102 -1.1592  1.2414
 4930SOL     OW26422   0.793   4.361   7.932  0.5435 -0.3738 -0.5233
 4930SOL    HW126423   0.785   4.384   7.840  0.2498  0.0373 -0.3956
 4930SOL    HW226424   0.786   4.452   7.962  0.2396 -1.1022  1.6386
 4931SOL     OW26425   3.903   3.063   9.224  0.7199 -0.6115  0.7514
 4931SOL    HW126426   3.895   3.116   9.303 -0.8352  2.2438 -1.3023
 4931SOL    HW226427   3.889   3.131   9.158  0.0598  0.0550  1.5791
 4932SOL     OW26428   2.232   1.585   6.300  0.0571  0.5181  0.1992
 4932SOL    HW126429   2.143   1.551   6.304  0.8574 -1.7284 -0.6630
 4932SOL    HW226430   2.243   1.589   6.395 -1.9950  0.3961  0.4361
 4933SOL     OW26431   1.709   3.233   9.256 -0.6045  0.7161 -0.1113
 4933SOL    HW126432   1.686   3.140   9.255  0.5333  0.4369  0.3057
 4933SOL    HW226433   1.756   3.246   9.174 -0.9101  0.7257 -0.2843
 4934SOL     OW26434   2.612   1.965   0.894 -0.3778  0.1143  0.0621
 4934SOL    HW126435   2.577   1.920   0.817 -0.8809 -0.2631  0.5112
 4934SOL    HW226436   2.552   1.935   0.963  1.2633 -2.1391  0.4911
 4935SOL     OW26437   3.432   2.679   2.340  0.9943 -1.3666 -0.3413
 4935SOL    HW126438   3.358   2.652   2.395  1.6109 -1.8265  0.2706
 4935SOL    HW226439   3.414   2.627   2.263 -1.6636 -0.4799 -0.3082
 4936SOL     OW26440   4.522   3.354   5.424 -0.3819 -0.1099  0.0956
 4936SOL    HW126441   4.433   3.354   5.459 -0.5338 -3.4888 -0.2684
 4936SOL    HW226442   4.566   3.382   5.504  1.8265  2.8799 -2.1751
 4937SOL     OW26443   2.908   2.442   3.681 -0.2156 -0.0138  0.6516
 4937SOL    HW126444   2.885   2.376   3.747  2.7868 -0.9014  0.8205
 4937SOL    HW226445   2.820   2.460   3.647 -0.5964 -3.4657 -0.1880
 4938SOL     OW26446   0.826   1.447   4.327 -0.0073  0.5120  0.4614
 4938SOL    HW126447   0.788   1.419   4.244  3.4729  0.6230 -1.1419
 4938SOL    HW226448   0.875   1.371   4.358 -2.2503 -0.3726  1.8131
 4939SOL     OW26449   3.205   1.161  12.845  0.4037 -0.0432  0.1775
 4939SOL    HW126450   3.238   1.208  12.768  1.9371  0.0455  0.8999
 4939SOL    HW226451   3.229   1.227  12.910 -0.8867  1.8795 -1.2903
 4940SOL     OW26452   1.854   3.234   9.011 -0.4805  0.0258 -0.2641
 4940SOL    HW126453   1.935   3.264   8.968 -0.5896  0.9297  0.1647
 4940SOL    HW226454   1.790   3.206   8.945 -1.2384  0.2288  0.3958
 4941SOL     OW26455   1.655   0.874  13.000 -0.1387  0.3277  0.1609
 4941SOL    HW126456   1.733   0.924  12.978 -1.1047  0.2781 -3.3444
 4941SOL    HW226457   1.691   0.831  13.077  1.3987 -0.6920 -1.1165
 4942SOL     OW26458   3.983   4.059   0.903  0.1564  0.4198  0.0829
 4942SOL    HW126459   4.048   4.067   0.973  0.6363 -2.3954 -0.0044
 4942SOL    HW226460   4.039   4.018   0.836  0.0476  3.0872 -1.6044
 4943SOL     OW26461   0.220   1.840   3.412  0.4024  0.0751 -0.3123
 4943SOL    HW126462   0.211   1.770   3.348  0.3463  0.3334 -0.5847
 4943SOL    HW226463   0.281   1.899   3.369  1.2452 -0.0007  0.7602
 4944SOL     OW26464   2.134   1.189   7.935  0.2469 -0.1017  0.1390
 4944SOL    HW126465   2.174   1.189   7.848 -2.8425  0.8700 -1.2821
 4944SOL    HW226466   2.172   1.114   7.981  0.8381  0.0524 -0.0989
 4945SOL     OW26467   2.658   2.758   7.676  0.1796 -0.6656 -0.1093
 4945SOL    HW126468   2.663   2.724   7.765 -1.2075 -0.9681 -0.1563
 4945SOL    HW226469   2.667   2.680   7.621 -0.8708 -0.6977 -0.2293
 4946SOL     OW26470   3.950   3.260   7.847  0.2470 -0.0234 -0.0555
 4946SOL    HW126471   3.868   3.297   7.814  1.8363  2.5899 -1.0811
 4946SOL    HW226472   4.020   3.323   7.832  1.4240 -0.6556  2.8666
 4947SOL     OW26473   4.257   1.587   3.416  0.2260 -0.1433 -0.6588
 4947SOL    HW126474   4.339   1.539   3.418 -0.3137 -1.0386 -0.2531
 4947SOL    HW226475   4.194   1.518   3.393 -0.8080  0.1557  1.2640
 4948SOL     OW26476   3.384   2.299   6.268 -0.5750  0.3865  0.4422
 4948SOL    HW126477   3.434   2.240   6.325 -2.9926 -0.8011  1.3677
 4948SOL    HW226478   3.399   2.260   6.182 -0.2424 -0.3147  0.8203
 4949SOL     OW26479   1.710   3.354  17.369  0.4269 -0.3976 -0.2527
 4949SOL    HW126480   1.699   3.411  17.293  0.1159  0.6377  0.5628
 4949SOL    HW226481   1.670   3.411  17.435 -1.3821 -1.2135 -0.6294
 4950SOL     OW26482   2.677   0.721  17.263  0.5004  0.3495  0.2332
 4950SOL    HW126483   2.703   0.810  17.237 -4.1351  1.4958 -0.4808
 4950SOL    HW226484   2.584   0.719  17.243  0.5982  1.4556 -0.3179
 4951SOL     OW26485   0.912   1.538   8.856 -0.2874  0.3767 -0.5310
 4951SOL    HW126486   0.932   1.534   8.763  3.3410 -3.2667  0.3711
 4951SOL    HW226487   0.950   1.452   8.877  0.0669  0.6339 -0.1090
 4952SOL     OW26488   1.527   4.111   0.818  0.4618 -0.6809  0.3873
 4952SOL    HW126489   1.459   4.079   0.877 -1.3600 -1.3867 -2.0996
 4952SOL    HW226490   1.607   4.102   0.870  1.3699 -2.2815 -1.2598
 4953SOL     OW26491   2.329   0.137   2.236  0.1109  0.3969 -0.5165
 4953SOL    HW126492   2.316   0.052   2.278 -2.0049  1.0984  0.2972
 4953SOL    HW226493   2.358   0.119   2.147 -2.1712  0.2904 -1.2578
 4954SOL     OW26494   2.487   3.928   7.103 -0.5202  0.1997  0.0775
 4954SOL    HW126495   2.423   3.882   7.049 -1.6747  1.4895  0.3592
 4954SOL    HW226496   2.556   3.867   7.130 -1.6436 -1.7794 -1.5733
 4955SOL     OW26497   2.514   1.863   8.424  0.2371 -0.5887 -0.3414
 4955SOL    HW126498   2.547   1.945   8.459 -0.9955 -0.4067  0.3789
 4955SOL    HW226499   2.571   1.795   8.460  0.2170  0.3678  1.5097
 4956SOL     OW26500   2.672   4.486  13.044  0.0756 -0.0722  0.2048
 4956SOL    HW126501   2.647   4.480  13.136 -0.1989 -0.4597  0.1081
 4956SOL    HW226502   2.740   4.553  13.046  0.4830 -0.6117  3.4893
 4957SOL     OW26503   4.722   1.266   0.448 -0.8800 -0.1387  0.3298
 4957SOL    HW126504   4.637   1.234   0.478 -0.9993 -1.4930 -1.4394
 4957SOL    HW226505   4.703   1.253   0.355  1.1200  1.2014 -0.2664
 4958SOL     OW26506   1.061   4.588   7.511 -0.2805 -0.3434  0.2348
 4958SOL    HW126507   1.116   4.516   7.481  0.2156  0.2521 -0.2845
 4958SOL    HW226508   1.128   4.647   7.544  0.5780 -1.4572  0.4898
 4959SOL     OW26509   0.266   2.812   0.822  0.4065  0.0844  0.0469
 4959SOL    HW126510   0.267   2.905   0.799 -0.3471  0.6503  2.3325
 4959SOL    HW226511   0.320   2.773   0.753  2.6391 -0.8449  2.3332
 4960SOL     OW26512   1.359   2.585   0.040  0.4386 -0.2372  0.1438
 4960SOL    HW126513   1.336   2.673   0.011  0.8175  1.2216  4.2167
 4960SOL    HW226514   1.348   2.541  17.727 -1.3568 -1.7625  1.1699
 4961SOL     OW26515   4.532   4.145   2.272 -0.0515  0.0308  0.0721
 4961SOL    HW126516   4.481   4.214   2.315  2.9135  1.6906  0.9299
 4961SOL    HW226517   4.626   4.163   2.276  0.0757 -0.9988  1.5856
 4962SOL     OW26518   3.194   2.245   2.181 -0.6879  0.2831  0.1037
 4962SOL    HW126519   3.113   2.219   2.139 -0.5333 -1.7686  1.1129
 4962SOL    HW226520   3.226   2.165   2.222 -0.9066  0.5558  0.8163
 4963SOL     OW26521   3.861   2.400   4.188  0.3885  0.1540  0.0239
 4963SOL    HW126522   3.936   2.442   4.147  1.6461 -0.2238  1.9167
 4963SOL    HW226523   3.882   2.309   4.169  1.5253  0.5233 -0.4722
 4964SOL     OW26524   1.982   2.423  11.553 -0.3759 -0.2411 -0.0036
 4964SOL    HW126525   2.032   2.485  11.606  0.4840 -0.1218 -0.9745
 4964SOL    HW226526   2.059   2.379  11.518 -0.0198  1.1739 -0.9905
 4965SOL     OW26527   1.916   3.055   5.797 -0.0579  0.2307 -0.3179
 4965SOL    HW126528   1.969   2.993   5.846  3.8155  3.9629  0.1806
 4965SOL    HW226529   1.849   3.001   5.755 -1.3456 -0.0602  2.1103
 4966SOL     OW26530   3.175   0.920   5.048 -0.1456 -0.6595  0.2546
 4966SOL    HW126531   3.178   0.988   5.115  0.5549  1.9877 -2.4664
 4966SOL    HW226532   3.211   0.965   4.972 -0.7497 -2.8897 -1.3628
 4967SOL     OW26533   0.773   4.010   0.822 -0.1694  0.0295 -0.2162
 4967SOL    HW126534   0.777   3.997   0.727  1.1798  1.3581 -0.3444
 4967SOL    HW226535   0.832   3.945   0.858  0.8643  0.5970 -0.9008
 4968SOL     OW26536   1.045   0.573  10.357 -0.1597  0.1047 -0.8624
 4968SOL    HW126537   1.121   0.615  10.316 -0.4296  0.1633 -1.2968
 4968SOL    HW226538   1.046   0.606  10.447  1.3635 -0.3537 -0.7094
 4969SOL     OW26539   4.441   0.740   7.839  0.2630 -0.0865  0.1737
 4969SOL    HW126540   4.531   0.772   7.845 -0.1257  0.7593  1.4446
 4969SOL    HW226541   4.400   0.771   7.920  0.1924  0.4196 -0.0559
 4970SOL     OW26542   2.579   4.083  14.605 -0.1925  0.5642  0.0051
 4970SOL    HW126543   2.535   4.144  14.546 -1.4772 -0.3562  0.0024
 4970SOL    HW226544   2.613   4.141  14.673  0.8787  0.0442 -0.0721
 4971SOL     OW26545   3.640   2.453   8.302 -0.3914  0.2976  0.3169
 4971SOL    HW126546   3.563   2.420   8.348  0.4204 -1.9335  0.0501
 4971SOL    HW226547   3.679   2.509   8.368 -4.6864  1.1986  2.0929
 4972SOL     OW26548   3.122   0.820   4.277 -0.8224 -0.5044  0.1170
 4972SOL    HW126549   3.091   0.910   4.276 -0.1093 -0.2558  0.4674
 4972SOL    HW226550   3.216   0.831   4.293 -0.6406 -3.8510  1.4037
 4973SOL     OW26551   2.452   2.848  15.484  0.2920  0.1456 -0.5074
 4973SOL    HW126552   2.487   2.785  15.547  1.4881  1.8469  0.5225
 4973SOL    HW226553   2.460   2.801  15.401 -1.0143 -0.3512 -0.3596
 4974SOL     OW26554   3.054   2.133   1.192  0.9674 -0.6844  0.3383
 4974SOL    HW126555   2.968   2.175   1.185  1.4205  0.0674 -0.5860
 4974SOL    HW226556   3.096   2.189   1.128 -0.2508 -0.6700 -0.4576
 4975SOL     OW26557   3.444   2.325   5.760  1.0243 -0.1941  0.2623
 4975SOL    HW126558   3.508   2.255   5.776  2.7585  1.6504  1.2639
 4975SOL    HW226559   3.451   2.336   5.665 -0.0818  2.1598  0.4576
 4976SOL     OW26560   1.039   0.926  11.911  0.3125 -0.8357 -0.2220
 4976SOL    HW126561   1.083   0.929  11.826 -0.0212 -0.4431 -0.3814
 4976SOL    HW226562   1.096   0.982  11.963  1.2394 -1.5249 -0.4926
 4977SOL     OW26563   3.670   4.627   3.815  0.3571 -0.5182 -0.0226
 4977SOL    HW126564   3.669   4.663   3.727 -1.2424  0.3260  0.3352
 4977SOL    HW226565   3.598   4.565   3.802  1.5775 -1.8127 -0.7003
 4978SOL     OW26566   3.209   4.566   8.345  0.2925  0.3969 -0.3730
 4978SOL    HW126567   3.270   4.605   8.283 -1.3086  0.7216 -1.7330
 4978SOL    HW226568   3.197   4.635   8.410 -1.4662 -1.6994  1.5371
 4979SOL     OW26569   0.858   1.413   6.640  0.1885 -0.1225 -0.1113
 4979SOL    HW126570   0.823   1.488   6.592  0.1837 -0.8556 -1.2692
 4979SOL    HW226571   0.842   1.346   6.573  0.1747  0.2840 -0.5150
 4980SOL     OW26572   2.052   0.465   6.352 -0.2278 -0.0262 -0.3983
 4980SOL    HW126573   2.129   0.497   6.306 -1.7662 -0.4043 -3.2366
 4980SOL    HW226574   1.987   0.452   6.284 -0.5348  0.1113 -0.1317
 4981SOL     OW26575   3.408   0.672   3.414  0.4814  0.2001  0.1685
 4981SOL    HW126576   3.444   0.592   3.453  0.2927  1.3218  2.6281
 4981SOL    HW226577   3.389   0.727   3.490  0.0312 -0.6399  0.6667
 4982SOL     OW26578   4.348   1.887   7.493  0.3063  0.6505 -0.7411
 4982SOL    HW126579   4.430   1.861   7.451  0.2375 -0.3301 -0.2772
 4982SOL    HW226580   4.310   1.802   7.515 -1.8571  1.6102 -0.7658
 4983SOL     OW26581   4.352   1.340   7.227 -0.2306 -0.9535  0.5839
 4983SOL    HW126582   4.391   1.303   7.147  1.3727  2.8728 -0.3887
 4983SOL    HW226583   4.397   1.424   7.232 -1.7692 -0.1542  0.6885
 4984SOL     OW26584   2.788   1.593   1.512  0.3851  0.0732  0.6181
 4984SOL    HW126585   2.731   1.554   1.580  2.3053 -2.5442  0.7360
 4984SOL    HW226586   2.840   1.649   1.570  2.6049 -0.3082 -1.0073
 4985SOL     OW26587   2.617   1.047  14.307  0.4236 -0.1015  0.3101
 4985SOL    HW126588   2.681   1.104  14.264  0.7094 -0.4958  0.2151
 4985SOL    HW226589   2.544   1.046  14.244 -0.8894  2.3483  1.7897
 4986SOL     OW26590   2.434   1.375   3.511 -0.0208  0.3397 -0.6450
 4986SOL    HW126591   2.504   1.309   3.513  1.9166  2.4173  1.2101
 4986SOL    HW226592   2.490   1.448   3.540 -0.1228 -0.0042  0.4316
 4987SOL     OW26593   4.682   4.197   4.112 -0.2269 -0.6490  0.2607
 4987SOL    HW126594   4.619   4.131   4.082  1.0125 -0.8722 -1.8815
 4987SOL    HW226595   4.713   4.229   4.027  2.6547 -1.3096  1.0958
 4988SOL     OW26596   4.554   0.300   3.059 -0.2220  0.1841 -0.0084
 4988SOL    HW126597   4.629   0.241   3.055 -2.1445 -2.2467  0.1630
 4988SOL    HW226598   4.494   0.249   3.113 -1.4154  0.5648 -0.9770
 4989SOL     OW26599   1.458   0.907  15.378  0.1993  0.1185 -0.5247
 4989SOL    HW126600   1.478   1.000  15.391  2.2760  0.0436 -3.1898
 4989SOL    HW226601   1.548   0.881  15.359  0.9273  2.3196 -0.1231
 4990SOL     OW26602   1.780   4.564  17.122  0.3514 -0.2245  0.1482
 4990SOL    HW126603   1.764   4.656  17.138 -1.0880 -0.2382 -1.2628
 4990SOL    HW226604   1.787   4.559  17.027  0.8949  1.2073  0.1146
 4991SOL     OW26605   2.320   2.180   8.421 -0.2974  0.0448 -0.3021
 4991SOL    HW126606   2.415   2.184   8.419 -0.3507  0.9919 -1.1544
 4991SOL    HW226607   2.312   2.149   8.511 -1.4858  3.3444  0.7432
 4992SOL     OW26608   2.767   1.484   9.685 -0.1765  0.6755  0.1672
 4992SOL    HW126609   2.848   1.500   9.635 -1.7717  0.8885 -2.3344
 4992SOL    HW226610   2.707   1.553   9.656 -1.9395 -1.0075 -0.1723
 4993SOL     OW26611   4.499   2.719  17.255 -0.1318 -0.0880  0.3165
 4993SOL    HW126612   4.487   2.813  17.250  0.6546 -0.0521 -0.8661
 4993SOL    HW226613   4.572   2.729  17.316  0.1128 -1.7430  0.3221
 4994SOL     OW26614   0.960   2.870  12.305 -0.5212 -0.0395  0.0829
 4994SOL    HW126615   1.048   2.834  12.295 -0.7391 -0.6192  0.2191
 4994SOL    HW226616   0.971   2.961  12.277 -1.6065  1.4371  4.3734
 4995SOL     OW26617   3.717   4.123   6.543 -0.4709  0.4791  0.3016
 4995SOL    HW126618   3.658   4.063   6.497  1.0802  0.1245 -1.2354
 4995SOL    HW226619   3.661   4.133   6.620 -0.5225  0.6116  0.2473
 4996SOL     OW26620   1.226   4.007   1.865  0.1389  0.0219  0.4744
 4996SOL    HW126621   1.253   4.037   1.952  0.1562 -1.8900  1.1266
 4996SOL    HW226622   1.136   3.983   1.890  0.2614  1.8536  2.7297
 4997SOL     OW26623   3.792   3.991   4.306 -0.0232 -0.1490 -0.1847
 4997SOL    HW126624   3.841   4.011   4.226  0.6023  0.5382  0.3670
 4997SOL    HW226625   3.863   3.959   4.362  1.2453 -0.1252 -1.7691
 4998SOL     OW26626   2.744   2.653   7.174  0.9903  0.4024 -0.3514
 4998SOL    HW126627   2.774   2.563   7.185  1.1031  0.0268 -3.6617
 4998SOL    HW226628   2.784   2.676   7.090 -1.0299 -0.8560 -1.6642
 4999SOL     OW26629   2.645   1.344   6.079 -0.4786 -0.1336  0.4104
 4999SOL    HW126630   2.646   1.373   5.988 -0.2010 -0.5759  0.2725
 4999SOL    HW226631   2.710   1.275   6.069 -0.5248 -0.2089  0.6337
 5000SOL     OW26632   3.254   1.701   1.042 -0.0310  0.1877 -0.0891
 5000SOL    HW126633   3.219   1.787   1.018 -1.1609  0.4864  2.5828
 5000SOL    HW226634   3.175   1.646   1.047 -0.7208  1.2568  0.8851
 5001SOL     OW26635   3.063   1.073   4.314 -0.0468 -0.2566  0.1753
 5001SOL    HW126636   3.014   1.074   4.231 -0.8680 -1.5770  0.6415
 5001SOL    HW226637   2.989   1.091   4.372 -0.6134 -2.7141  0.1862
 5002SOL     OW26638   2.332   1.918   2.583 -0.4634  0.2317  0.2065
 5002SOL    HW126639   2.264   1.890   2.522  0.1948 -1.1070  0.0965
 5002SOL    HW226640   2.404   1.858   2.564  0.2607  0.3873  2.4809
 5003SOL     OW26641   3.616   0.098  12.971 -0.6678  0.4058  0.3618
 5003SOL    HW126642   3.695   0.057  13.007  0.6643  2.0968 -0.6256
 5003SOL    HW226643   3.560   0.097  13.049  0.0488  0.0109  0.8759
 5004SOL     OW26644   1.543   2.547  11.819  0.5387 -0.0685 -0.7805
 5004SOL    HW126645   1.538   2.587  11.906 -0.5678 -0.8871 -0.4669
 5004SOL    HW226646   1.618   2.488  11.829 -0.1602 -1.1950 -2.2626
 5005SOL     OW26647   1.402   3.392   1.455 -0.2588 -0.1872  0.3408
 5005SOL    HW126648   1.315   3.373   1.490  0.3254  1.1473  2.5520
 5005SOL    HW226649   1.424   3.313   1.406 -1.3694  1.1847 -2.3241
 5006SOL     OW26650   2.488   3.824   5.765  0.0733 -0.3652  0.3591
 5006SOL    HW126651   2.540   3.903   5.777  0.0392 -0.3864  0.6439
 5006SOL    HW226652   2.547   3.757   5.800  0.3378  0.4185  1.4203
 5007SOL     OW26653   3.692   1.416   9.737  0.1895  0.2188  0.2081
 5007SOL    HW126654   3.770   1.423   9.682  1.2210 -1.0248  1.5015
 5007SOL    HW226655   3.635   1.487   9.710  0.0494  0.5061  1.2546
 5008SOL     OW26656   2.418   0.111  10.422 -0.1064 -0.6242  0.4146
 5008SOL    HW126657   2.476   0.187  10.423 -1.0541  0.1101 -1.6233
 5008SOL    HW226658   2.339   0.152  10.457 -0.4761  0.4122 -1.6675
 5009SOL     OW26659   3.954   2.096   7.929  0.4339 -0.0575 -0.1140
 5009SOL    HW126660   3.990   2.153   7.861  1.9797 -1.0528 -0.1286
 5009SOL    HW226661   4.010   2.019   7.917  2.0389  1.0949 -0.1246
 5010SOL     OW26662   1.225   0.689   6.389 -0.0100 -0.2064  0.1792
 5010SOL    HW126663   1.277   0.730   6.458  1.0789  1.0020 -1.3367
 5010SOL    HW226664   1.166   0.638   6.444  0.6872 -0.6071  0.5501
 5011SOL     OW26665   3.648   2.406  12.773 -0.3515  0.1203  0.3245
 5011SOL    HW126666   3.624   2.388  12.863  0.1269  0.5849  0.5422
 5011SOL    HW226667   3.699   2.328  12.751 -0.9757 -0.1652 -0.1125
 5012SOL     OW26668   4.695   2.854   3.994 -0.2451  0.2377 -0.1395
 5012SOL    HW126669   4.698   2.840   3.899  1.2745 -0.4604  0.0019
 5012SOL    HW226670   0.041   2.827   4.014 -0.3407 -0.0848 -0.1453
 5013SOL     OW26671   1.980   2.345   9.879 -1.0560  0.4327  0.0991
 5013SOL    HW126672   2.053   2.404   9.860  0.0008 -0.7988  0.3311
 5013SOL    HW226673   1.916   2.399   9.832 -1.4368  0.8797  1.1309
 5014SOL     OW26674   2.619   1.863   2.271  0.6542  0.1409 -0.3491
 5014SOL    HW126675   2.710   1.872   2.246  0.8990 -1.5982 -0.0819
 5014SOL    HW226676   2.582   1.944   2.234  2.0671  0.1376 -1.7468
 5015SOL     OW26677   1.668   0.698  10.275  0.3882 -0.3884  0.3720
 5015SOL    HW126678   1.753   0.705  10.230 -0.5074 -0.8156 -1.3943
 5015SOL    HW226679   1.602   0.686  10.207 -1.7539 -0.5804  2.5154
 5016SOL     OW26680   2.561   2.292   0.672 -0.6053 -0.3584  1.0806
 5016SOL    HW126681   2.569   2.303   0.578 -1.5249 -1.7660  0.8260
 5016SOL    HW226682   2.593   2.202   0.678 -1.8705 -0.8290  0.7320
 5017SOL     OW26683   4.230   1.852   3.751  0.4965  0.0398 -0.0488
 5017SOL    HW126684   4.168   1.853   3.679 -0.8532 -0.2560  1.1102
 5017SOL    HW226685   4.296   1.800   3.705  0.8846 -1.3142  2.0148
 5018SOL     OW26686   3.818   3.870   8.006  0.3527  0.9612 -0.5359
 5018SOL    HW126687   3.809   3.779   8.033  0.5892  0.8835 -0.7169
 5018SOL    HW226688   3.828   3.913   8.091  2.8467  1.6123 -1.1654
 5019SOL     OW26689   4.117   3.864   8.164  0.0090  0.0751 -0.1497
 5019SOL    HW126690   4.111   3.769   8.180  1.4280  0.4648  2.6398
 5019SOL    HW226691   4.085   3.898   8.247  0.0215 -0.4367  0.0668
 5020SOL     OW26692   3.987   1.765  12.942  0.0634 -0.1134 -0.0333
 5020SOL    HW126693   4.081   1.759  12.926 -0.1276 -1.2810 -0.7196
 5020SOL    HW226694   3.971   1.763  12.847  2.5289  1.2348 -0.4562
 5021SOL     OW26695   1.432   1.157  13.298  0.2384 -0.3166 -0.2637
 5021SOL    HW126696   1.502   1.126  13.356  0.9149  2.2628  0.3204
 5021SOL    HW226697   1.389   1.078  13.267  1.1337 -1.4749  1.4295
 5022SOL     OW26698   3.907   1.364   2.620  0.1828  0.0046 -0.2729
 5022SOL    HW126699   3.920   1.312   2.699  1.5221  0.3951 -0.2457
 5022SOL    HW226700   3.928   1.298   2.554 -1.2087 -0.5276 -0.1869
 5023SOL     OW26701   2.100   0.385   3.378 -0.3658 -0.1780  0.2885
 5023SOL    HW126702   2.010   0.354   3.367 -0.6619  0.7843 -0.0078
 5023SOL    HW226703   2.099   0.479   3.358 -0.1252 -0.4867 -1.1678
 5024SOL     OW26704   4.359   2.223   5.367  0.2715 -0.9626 -0.5555
 5024SOL    HW126705   4.275   2.196   5.404  0.7942 -1.1193  0.5133
 5024SOL    HW226706   4.410   2.167   5.425 -0.4290  0.0764  1.0442
 5025SOL     OW26707   1.976   1.864   6.341  0.2653  0.2048  0.4760
 5025SOL    HW126708   1.908   1.797   6.338  1.1502 -0.6294 -1.4330
 5025SOL    HW226709   1.968   1.905   6.427  1.4283  0.6701  0.3558
 5026SOL     OW26710   2.870   3.714   9.152 -0.1114  0.6128 -0.2051
 5026SOL    HW126711   2.832   3.741   9.235  4.5851  1.5114  1.6567
 5026SOL    HW226712   2.799   3.677   9.100 -1.2140  1.1654  0.9317
 5027SOL     OW26713   2.575   1.351  13.904 -0.4480 -0.1211  0.0723
 5027SOL    HW126714   2.486   1.373  13.931 -0.7816 -1.5193  0.0861
 5027SOL    HW226715   2.557   1.283  13.840 -2.5236 -2.5572  3.2988
 5028SOL     OW26716   3.279   1.962   3.772 -0.1297 -0.0183  0.0673
 5028SOL    HW126717   3.315   2.009   3.847  0.9031 -1.8280  0.7204
 5028SOL    HW226718   3.310   1.874   3.795  1.3473  0.2788 -0.7738
 5029SOL     OW26719   4.391   3.940   0.299  0.4449 -0.0854  0.3026
 5029SOL    HW126720   4.441   3.897   0.229  1.1009  1.2340 -0.0330
 5029SOL    HW226721   4.444   3.910   0.373  1.5854 -1.5009 -1.0968
 5030SOL     OW26722   1.381   3.518   4.651  0.4004 -0.2829  0.2054
 5030SOL    HW126723   1.376   3.441   4.707  0.2489  0.2874  0.9752
 5030SOL    HW226724   1.389   3.473   4.567  0.5498 -1.8616  1.0735
 5031SOL     OW26725   3.355   0.862  10.448  0.5790  0.3562  0.5093
 5031SOL    HW126726   3.307   0.845  10.367 -0.9280 -2.1169  1.8998
 5031SOL    HW226727   3.440   0.868  10.404  1.5924  1.1852  2.6106
 5032SOL     OW26728   3.924   1.861   8.185 -0.3756  0.1335 -0.4697
 5032SOL    HW126729   3.969   1.923   8.128 -1.0018  2.1888  1.2923
 5032SOL    HW226730   3.836   1.899   8.185 -0.2296  0.4718  0.1156
 5033SOL     OW26731   3.621   0.870   5.118  0.3238 -0.1146  0.2068
 5033SOL    HW126732   3.611   0.941   5.054  1.2549  0.6528  0.9079
 5033SOL    HW226733   3.609   0.798   5.055  1.7749 -0.5493  0.4256
 5034SOL     OW26734   1.019   4.170   3.935 -0.3189 -0.1589 -0.4533
 5034SOL    HW126735   0.947   4.107   3.945 -1.3562  1.0447 -0.2754
 5034SOL    HW226736   1.023   4.181   3.840 -1.9244  1.6185 -0.3173
 5035SOL     OW26737   1.530   3.035   6.904 -0.1028 -0.4893 -0.0104
 5035SOL    HW126738   1.609   3.001   6.864  0.0752 -0.2512  0.1360
 5035SOL    HW226739   1.563   3.104   6.963  0.5301 -0.7850 -0.0251
 5036SOL     OW26740   2.047   1.416   7.559  0.0148  0.9322  0.6045
 5036SOL    HW126741   2.117   1.394   7.621 -0.1429 -1.6750 -0.1739
 5036SOL    HW226742   1.980   1.439   7.624  0.2365 -2.3778  2.0038
 5037SOL     OW26743   3.999   1.265   8.601 -0.1203  0.3400  0.2850
 5037SOL    HW126744   4.087   1.285   8.569 -0.4263  2.6535  0.8997
 5037SOL    HW226745   3.940   1.317   8.546 -1.0551 -0.5833  0.3984
 5038SOL     OW26746   1.399   2.539   2.738  0.3130  0.0646  0.3427
 5038SOL    HW126747   1.313   2.558   2.701 -0.5765 -1.3621  1.6607
 5038SOL    HW226748   1.408   2.447   2.713  1.4810  0.7881 -1.8445
 5039SOL     OW26749   3.987   1.885   8.682 -0.7679  0.1200 -0.0091
 5039SOL    HW126750   3.942   1.803   8.663 -0.6304 -0.2062  1.0993
 5039SOL    HW226751   4.077   1.854   8.685 -0.7197  0.1224 -1.2786
 5040SOL     OW26752   2.004   0.187   9.754 -0.3304  0.1780 -0.1688
 5040SOL    HW126753   1.944   0.209   9.683  0.2226 -0.2518 -0.7690
 5040SOL    HW226754   2.043   0.273   9.768 -1.5253  0.9128 -1.2835
 5041SOL     OW26755   3.000   1.511   9.546 -0.4052  0.0901  0.4773
 5041SOL    HW126756   3.064   1.523   9.616  1.4371 -1.3241 -0.9790
 5041SOL    HW226757   3.007   1.420   9.517 -0.1725  0.4237 -0.5111
 5042SOL     OW26758   4.020   2.270   3.754  0.3503  0.0542  0.1258
 5042SOL    HW126759   4.039   2.264   3.660  1.4903 -1.8289  0.4717
 5042SOL    HW226760   4.067   2.352   3.770 -1.4877  1.3294 -1.0558
 5043SOL     OW26761   2.914   3.951   6.507  0.3031  0.3416 -0.2674
 5043SOL    HW126762   2.989   3.923   6.560 -0.6144 -2.2341 -0.3098
 5043SOL    HW226763   2.870   4.002   6.574  1.6333 -0.0449  0.9053
 5044SOL     OW26764   0.232   3.887  12.387  0.1778  0.0957 -0.3249
 5044SOL    HW126765   0.148   3.846  12.406  0.3955  0.7711  2.0356
 5044SOL    HW226766   0.202   3.958  12.329  1.4430  1.2655  0.4637
 5045SOL     OW26767   3.752   2.061   1.097 -0.0001  0.4116 -0.3093
 5045SOL    HW126768   3.821   2.092   1.155 -0.9205  1.9510 -0.0378
 5045SOL    HW226769   3.804   2.042   1.018 -0.7250  1.7231 -1.1087
 5046SOL     OW26770   4.076   2.584   4.079  0.3500 -0.0581  0.0471
 5046SOL    HW126771   4.130   2.557   4.004 -0.9036 -0.5064 -0.6953
 5046SOL    HW226772   4.035   2.663   4.046  1.9344  1.2309  1.1878
 5047SOL     OW26773   3.261   1.244   2.789 -0.0380 -0.2609 -0.1461
 5047SOL    HW126774   3.325   1.281   2.730  0.1716  3.3530  2.3750
 5047SOL    HW226775   3.181   1.281   2.752 -1.6060 -3.3161  0.1280
 5048SOL     OW26776   2.287   2.484  11.540 -0.1013 -0.4991  0.0121
 5048SOL    HW126777   2.339   2.454  11.466 -0.0444 -0.9059  0.2199
 5048SOL    HW226778   2.333   2.559  11.577  1.9238 -0.2680 -2.9912
 5049SOL     OW26779   4.274   2.009   8.459  0.0758 -0.0534 -0.5032
 5049SOL    HW126780   4.327   1.941   8.501 -0.7518 -0.8492 -0.7494
 5049SOL    HW226781   4.337   2.081   8.462  1.1185 -0.8728 -2.1655
 5050SOL     OW26782   4.087   2.248   2.793 -0.0218 -0.0511  0.3502
 5050SOL    HW126783   4.050   2.325   2.838  0.4964 -0.1414  0.9337
 5050SOL    HW226784   4.089   2.275   2.701 -0.9314 -1.7607 -0.1698
 5051SOL     OW26785   3.272   0.344  11.308 -0.7239 -0.3645  0.5627
 5051SOL    HW126786   3.336   0.297  11.362  0.7940  0.1564 -0.7610
 5051SOL    HW226787   3.209   0.387  11.365 -0.7438 -1.9284  1.6935
 5052SOL     OW26788   0.991   2.687  13.791 -0.2717 -0.0801 -0.0896
 5052SOL    HW126789   0.985   2.617  13.726 -1.1296 -1.9186  1.9508
 5052SOL    HW226790   0.925   2.668  13.858  0.2584 -2.0643 -0.1331
 5053SOL     OW26791   3.008   3.792   6.300 -0.3848  0.4926 -0.2192
 5053SOL    HW126792   2.992   3.875   6.345 -0.0692  0.6390 -0.3828
 5053SOL    HW226793   2.967   3.739   6.368 -2.3156  0.5433 -1.3487
 5054SOL     OW26794   3.394   0.402   1.858 -0.1543  0.3747  0.0928
 5054SOL    HW126795   3.400   0.498   1.858 -1.5166  0.4557 -1.6498
 5054SOL    HW226796   3.315   0.391   1.910 -1.8400  0.0866 -2.5492
 5055SOL     OW26797   3.098   1.268   3.713 -0.0635 -0.1089 -0.2087
 5055SOL    HW126798   3.124   1.230   3.797  4.8437  0.7950 -1.3228
 5055SOL    HW226799   3.022   1.211   3.699 -0.3567 -0.1742  1.6543
 5056SOL     OW26800   0.726   1.297   4.066 -0.4013  0.1522  0.0004
 5056SOL    HW126801   0.683   1.383   4.070 -0.2826  0.1480  1.5383
 5056SOL    HW226802   0.649   1.241   4.065  1.3794 -2.2625 -0.7161
 5057SOL     OW26803   2.910   3.153   1.854  0.1870 -0.1279  0.3756
 5057SOL    HW126804   2.870   3.221   1.908  1.4710  2.7658 -2.3815
 5057SOL    HW226805   2.909   3.198   1.770 -0.0210 -0.2756  0.2998
 5058SOL     OW26806   0.777   0.406   7.470  0.1016 -0.2021  0.5121
 5058SOL    HW126807   0.710   0.469   7.497  1.2336  1.1695  0.0973
 5058SOL    HW226808   0.717   0.335   7.445  2.1403 -0.9623 -2.2355
 5059SOL     OW26809   0.950   3.333   5.255  0.5228 -0.4735 -0.6099
 5059SOL    HW126810   0.914   3.421   5.245 -0.6111 -0.9003 -0.2347
 5059SOL    HW226811   0.934   3.307   5.164 -0.7304  0.2657 -0.6046
 5060SOL     OW26812   4.488   1.234  11.325 -0.3075  0.0809 -0.1522
 5060SOL    HW126813   4.532   1.312  11.358  1.4857 -0.9746 -0.1051
 5060SOL    HW226814   4.500   1.174  11.398  0.1677  0.7854  0.3384
 5061SOL     OW26815   3.224   2.525   3.954  0.2870 -0.3719 -0.3297
 5061SOL    HW126816   3.247   2.536   4.046  0.4799  1.4819 -0.5836
 5061SOL    HW226817   3.314   2.530   3.923  0.2611  1.5949 -0.1274
 5062SOL     OW26818   2.000   1.569  17.456 -0.4837  0.4624 -0.0029
 5062SOL    HW126819   1.918   1.533  17.421  0.1714 -0.4275 -0.6073
 5062SOL    HW226820   2.071   1.512  17.428  0.1962  1.4706 -0.3127
 5063SOL     OW26821   3.522   2.743   1.650  0.3646 -0.1156  0.5278
 5063SOL    HW126822   3.559   2.812   1.704 -1.4078  0.7473  0.6602
 5063SOL    HW226823   3.428   2.763   1.656  0.5449  0.4968  1.2045
 5064SOL     OW26824   3.557   1.274   8.833  0.0931 -0.5756 -0.1047
 5064SOL    HW126825   3.484   1.335   8.845 -0.8799 -1.2923 -2.2810
 5064SOL    HW226826   3.594   1.275   8.921  0.0379 -0.4413 -0.0822
 5065SOL     OW26827   0.773   2.978   8.702 -0.1706 -1.0140  0.1081
 5065SOL    HW126828   0.800   2.887   8.712  0.5208 -0.5880  2.1026
 5065SOL    HW226829   0.697   2.970   8.644 -0.8817 -0.7703  1.0138
 5066SOL     OW26830   1.341   2.147  17.343  0.4186  0.5749 -0.0105
 5066SOL    HW126831   1.305   2.136  17.430 -1.2758  0.4838 -0.7240
 5066SOL    HW226832   1.297   2.229  17.318  0.2435  0.6557  0.5642
 5067SOL     OW26833   3.273   0.614   2.396 -0.0933  0.1495  0.2913
 5067SOL    HW126834   3.224   0.692   2.370 -1.2717 -0.5678  0.3675
 5067SOL    HW226835   3.213   0.550   2.357 -0.9508  1.2589 -0.2080
 5068SOL     OW26836   4.329   3.498   8.224  0.1309 -0.1620  0.0173
 5068SOL    HW126837   4.272   3.429   8.257 -1.4334  0.1290 -2.0870
 5068SOL    HW226838   4.345   3.541   8.308  2.3260  1.0596 -1.0062
 5069SOL     OW26839   1.910   1.168   9.369  0.5284 -0.2041 -0.2313
 5069SOL    HW126840   1.998   1.157   9.405  0.8506  0.0560 -0.9463
 5069SOL    HW226841   1.849   1.151   9.441  2.1052 -0.1466  1.1257
 5070SOL     OW26842   0.568   4.282   3.553  0.2097  0.1721 -0.3774
 5070SOL    HW126843   0.473   4.267   3.551  0.0767  0.9921 -0.1627
 5070SOL    HW226844   0.603   4.222   3.487 -0.0610 -0.0120 -0.3529
 5071SOL     OW26845   2.186   0.770   3.598  0.3509 -0.2986 -0.4858
 5071SOL    HW126846   2.174   0.820   3.517  0.8427 -1.5910 -1.3529
 5071SOL    HW226847   2.164   0.683   3.564  2.6281 -1.2169  0.3775
 5072SOL     OW26848   0.453   4.658   2.587 -0.4086  0.2160 -0.1503
 5072SOL    HW126849   0.361   4.670   2.563 -0.5452 -0.7489 -0.1311
 5072SOL    HW226850   0.483   0.005   2.592  2.1101 -0.6103 -0.1245
 5073SOL     OW26851   3.141   4.695  15.292  0.0928 -0.1777 -0.7167
 5073SOL    HW126852   3.191   4.613  15.290  1.0714  0.3891  0.9244
 5073SOL    HW226853   3.188   0.005  15.355  1.6422 -2.8676  0.4159
 5074SOL     OW26854   2.657   2.250   1.502 -0.3614  0.3242  0.2868
 5074SOL    HW126855   2.751   2.261   1.507 -0.2393 -0.0735 -1.0357
 5074SOL    HW226856   2.632   2.340   1.483  0.8612  0.7346  0.6669
 5075SOL     OW26857   3.033   0.850   7.299 -0.0521  0.4109 -0.4006
 5075SOL    HW126858   3.108   0.908   7.315 -2.1664  2.3631  2.4054
 5075SOL    HW226859   3.080   0.794   7.237  0.1151  1.7185 -1.4649
 5076SOL     OW26860   2.585   0.338   3.436  0.1070  0.1477 -0.3671
 5076SOL    HW126861   2.503   0.368   3.476 -0.5256 -1.1368 -0.7080
 5076SOL    HW226862   2.620   0.282   3.506  0.8966  1.7167  0.4916
 5077SOL     OW26863   1.591   2.781   9.480 -0.0510 -0.3961 -0.2086
 5077SOL    HW126864   1.569   2.720   9.550  0.9433  1.1063  1.4166
 5077SOL    HW226865   1.541   2.858   9.507  4.0872  3.0291 -2.3085
 5078SOL     OW26866   1.940   2.188   7.659 -0.4905 -0.1124  0.4741
 5078SOL    HW126867   2.025   2.145   7.658  1.5104  3.7754 -0.5926
 5078SOL    HW226868   1.960   2.263   7.716 -3.5070  2.1112 -1.4109
 5079SOL     OW26869   3.642   4.702   3.568 -0.5361 -0.0408  0.6342
 5079SOL    HW126870   3.571   4.661   3.518  0.3330  0.5553 -1.0971
 5079SOL    HW226871   3.700   4.736   3.499 -2.4737 -1.2680 -1.6043
 5080SOL     OW26872   3.525   3.362   8.108  0.0125  0.3023 -0.6399
 5080SOL    HW126873   3.566   3.390   8.027  0.5601 -1.8262 -1.1103
 5080SOL    HW226874   3.567   3.407   8.182 -0.8020 -1.5110  0.9301
 5081SOL     OW26875   1.250   0.943   6.295  0.2367  0.3953  0.9606
 5081SOL    HW126876   1.341   0.959   6.319  1.3467 -1.2266 -2.2587
 5081SOL    HW226877   1.245   0.848   6.309 -1.9172  0.3614 -0.0168
 5082SOL     OW26878   3.270   4.689   7.399 -0.3900  0.0633 -0.7089
 5082SOL    HW126879   3.205   4.666   7.465 -1.0043  2.1641 -0.6020
 5082SOL    HW226880   3.341   4.630   7.425  0.7155  2.3945  1.4735
 5083SOL     OW26881   4.291   2.593   3.559  0.6274 -0.1722 -0.5995
 5083SOL    HW126882   4.214   2.549   3.595  0.7227 -0.2510 -0.4928
 5083SOL    HW226883   4.364   2.532   3.572  0.5554 -0.2309 -0.4753
 5084SOL     OW26884   4.009   4.148   1.894  0.5234  0.3380 -0.6440
 5084SOL    HW126885   4.025   4.057   1.870 -1.2254  0.3789 -1.9937
 5084SOL    HW226886   4.025   4.132   1.987 -1.7694  0.4083 -0.2354
 5085SOL     OW26887   3.207   2.545   2.448  0.1736 -0.4691 -0.2702
 5085SOL    HW126888   3.166   2.459   2.445  1.1769 -0.9142 -1.1660
 5085SOL    HW226889   3.134   2.596   2.413  0.9725  0.0227 -1.2332
 5086SOL     OW26890   3.457   4.639   5.347 -0.3405  0.6068  0.6146
 5086SOL    HW126891   3.496   4.721   5.316  1.4243 -0.4555  0.0504
 5086SOL    HW226892   3.466   4.578   5.274 -1.5996  0.5881  0.4783
 5087SOL     OW26893   0.063   2.592   0.841  0.2441 -0.5678  0.0238
 5087SOL    HW126894   0.121   2.542   0.900  1.2824 -0.8929 -1.2765
 5087SOL    HW226895   0.114   2.669   0.819  1.1089 -1.1841 -0.1378
 5088SOL     OW26896   4.694   2.446   8.490 -0.1202  0.2410 -0.0600
 5088SOL    HW126897   4.704   2.411   8.402 -0.9118  0.8533 -0.3935
 5088SOL    HW226898   4.687   2.540   8.474  2.2856  0.3293 -0.6265
 5089SOL     OW26899   0.233   1.036   2.837 -0.0444  0.1360  0.1699
 5089SOL    HW126900   0.233   1.023   2.932 -0.5549 -0.3290  0.1095
 5089SOL    HW226901   0.326   1.022   2.820  0.5343  0.9412  2.5904
 5090SOL     OW26902   3.976   2.621  14.844 -0.2696  0.1405  0.1766
 5090SOL    HW126903   3.884   2.635  14.824 -0.7962 -1.7467  1.2434
 5090SOL    HW226904   3.984   2.527  14.831  2.4409  0.4544 -0.4052
 5091SOL     OW26905   0.209   0.837   8.143 -0.4367  0.1639  0.0830
 5091SOL    HW126906   0.228   0.839   8.049  0.5003 -0.6241  0.2639
 5091SOL    HW226907   0.116   0.812   8.137 -0.3622 -0.1870  0.3718
 5092SOL     OW26908   3.190   3.020   2.098 -0.3211 -0.0482 -0.1623
 5092SOL    HW126909   3.223   2.970   2.173  0.7397 -0.5119 -0.9439
 5092SOL    HW226910   3.229   3.106   2.115 -0.1220 -0.0956 -0.3841
 5093SOL     OW26911   0.639   0.781  12.610 -0.2830  0.1391 -0.1847
 5093SOL    HW126912   0.646   0.861  12.663 -1.6876  0.6616 -0.7890
 5093SOL    HW226913   0.561   0.793  12.556 -0.6151 -2.0431 -0.1632
 5094SOL     OW26914   1.647   1.675   8.533  0.7390 -0.2569 -0.2844
 5094SOL    HW126915   1.660   1.583   8.555  0.3592 -0.0102  0.9657
 5094SOL    HW226916   1.552   1.687   8.529  1.0087  1.8940  0.1579
 5095SOL     OW26917   3.701   4.144   2.444 -0.7323  0.0365  0.3710
 5095SOL    HW126918   3.661   4.060   2.468 -0.6044  0.4086  1.8808
 5095SOL    HW226919   3.624   4.200   2.437 -0.5889  0.2263  0.3183
 5096SOL     OW26920   1.646   1.817  14.975 -0.3108 -0.2172  0.0707
 5096SOL    HW126921   1.673   1.838  15.064 -0.9522 -0.1435  0.2472
 5096SOL    HW226922   1.680   1.892  14.927  0.5232 -1.7767 -1.7878
 5097SOL     OW26923   3.296   3.398  13.951 -0.2963 -0.0262 -0.0364
 5097SOL    HW126924   3.317   3.335  14.021  1.4630  0.9975  0.3644
 5097SOL    HW226925   3.346   3.470  13.990 -1.4530  0.8108 -0.1041
 5098SOL     OW26926   1.670   1.359   2.169 -0.2857  0.0318  0.2583
 5098SOL    HW126927   1.665   1.446   2.130  0.2764 -0.1535 -0.2236
 5098SOL    HW226928   1.669   1.305   2.089 -1.4708  2.5601 -1.4559
 5099SOL     OW26929   1.987   2.246   0.219  0.4051 -0.3150 -0.3036
 5099SOL    HW126930   1.921   2.281   0.279  0.5374 -2.8793  1.3306
 5099SOL    HW226931   1.924   2.218   0.153 -0.6177  0.7354  0.2140
 5100SOL     OW26932   1.623   4.563   0.970  0.3023 -0.2311 -0.4533
 5100SOL    HW126933   1.528   4.569   0.960 -0.0888 -4.9171  0.4469
 5100SOL    HW226934   1.632   4.530   1.059  2.2893 -0.1962 -0.6442
 5101SOL     OW26935   3.858   0.955  16.079 -0.0023  0.4650 -0.5949
 5101SOL    HW126936   3.774   0.996  16.058  0.8130  1.7710 -1.3414
 5101SOL    HW226937   3.900   0.977  15.995  2.8337  0.9250  0.9248
 5102SOL     OW26938   3.193   2.484   6.475  0.0200 -0.0954  0.0087
 5102SOL    HW126939   3.229   2.445   6.395 -2.1350  0.8307 -1.4054
 5102SOL    HW226940   3.270   2.511   6.526 -0.2791  0.1407  0.3291
 5103SOL     OW26941   2.676   3.922   7.486  0.1643  0.6724  0.4247
 5103SOL    HW126942   2.686   4.018   7.485  1.0151  0.5876  1.4780
 5103SOL    HW226943   2.606   3.913   7.550 -0.5437  0.7379 -0.3338
 5104SOL     OW26944   1.718   1.465  17.319 -0.3379 -0.7171  0.5231
 5104SOL    HW126945   1.770   1.462  17.238 -0.3292  2.3807  0.4152
 5104SOL    HW226946   1.632   1.462  17.279  0.1405 -1.9283 -0.4247
 5105SOL     OW26947   0.005   3.417   3.302  0.0346 -0.5747 -0.4827
 5105SOL    HW126948   4.710   3.407   3.389  0.6537 -1.5607 -0.3155
 5105SOL    HW226949   0.088   3.462   3.322 -0.6947  1.6900 -2.5706
 5106SOL     OW26950   0.280   3.708   7.237 -0.0998 -0.4564  0.0527
 5106SOL    HW126951   0.277   3.734   7.145  0.1554  1.4217  0.5708
 5106SOL    HW226952   0.367   3.671   7.251  0.7315  1.4483 -0.1389
 5107SOL     OW26953   2.637   2.470   3.635 -0.7620  0.7284  0.4304
 5107SOL    HW126954   2.594   2.409   3.694 -0.8836  0.2185 -0.1908
 5107SOL    HW226955   2.560   2.490   3.582  1.1255  3.6778 -1.2081
 5108SOL     OW26956   3.111   1.400   6.611 -0.1421  0.3738 -0.1258
 5108SOL    HW126957   3.123   1.491   6.639  0.3252  0.5747 -0.9869
 5108SOL    HW226958   3.034   1.410   6.556  0.0558  1.5299 -0.1925
 5109SOL     OW26959   0.833   2.250   7.728  0.3093  0.1259  0.0155
 5109SOL    HW126960   0.898   2.315   7.755  1.4437 -1.7321  1.6734
 5109SOL    HW226961   0.850   2.184   7.795  0.6869  1.2196  0.9921
 5110SOL     OW26962   2.329   1.311   5.993  0.2611 -0.4477  0.2050
 5110SOL    HW126963   2.315   1.402   6.017  0.4750 -0.5231  0.6019
 5110SOL    HW226964   2.329   1.320   5.897  3.1501  2.1457  0.4572
 5111SOL     OW26965   2.497   2.266   7.366 -0.2906  0.6269  0.3526
 5111SOL    HW126966   2.474   2.330   7.299  1.5969  0.6904 -0.2336
 5111SOL    HW226967   2.492   2.182   7.319 -0.9050  2.1695 -2.3700
 5112SOL     OW26968   3.311   1.473   3.679  0.2859  0.0531 -0.8377
 5112SOL    HW126969   3.269   1.387   3.685 -0.9816  0.6674 -0.7800
 5112SOL    HW226970   3.258   1.534   3.729  2.4868  0.8477  0.5034
 5113SOL     OW26971   4.324   2.758  17.525 -0.2738  0.3914 -0.0412
 5113SOL    HW126972   4.240   2.801  17.540  0.2750  1.2832  0.4437
 5113SOL    HW226973   4.306   2.725  17.437  0.4454 -0.5842  0.1718
 5114SOL     OW26974   1.820   1.628   2.532 -0.2543 -0.2207  0.5808
 5114SOL    HW126975   1.871   1.547   2.534  3.2243  1.8449 -2.5883
 5114SOL    HW226976   1.740   1.580   2.551  0.7382 -2.0323  0.1958
 5115SOL     OW26977   0.034   1.676  12.541 -0.0611 -0.0402  0.0135
 5115SOL    HW126978   4.694   1.633  12.526  0.2471  0.6268 -3.7929
 5115SOL    HW226979   0.056   1.709  12.453  0.6904 -1.3215 -0.2746
 5116SOL     OW26980   3.696   1.915   7.000  0.2430 -0.4796 -0.0670
 5116SOL    HW126981   3.774   1.868   6.968 -0.7807 -2.7019  0.6627
 5116SOL    HW226982   3.699   1.994   6.946 -0.5335 -1.5041 -1.6040
 5117SOL     OW26983   1.335   2.141   4.608  0.4876  0.1076  0.0704
 5117SOL    HW126984   1.289   2.057   4.614  0.6479  0.0401  0.3491
 5117SOL    HW226985   1.297   2.180   4.687 -2.0325  0.2278 -1.1952
 5118SOL     OW26986   3.143   0.967  13.710 -0.5372 -0.3485  0.0309
 5118SOL    HW126987   3.150   0.985  13.803 -2.2773 -0.0584  0.1017
 5118SOL    HW226988   3.106   1.045  13.669  0.3655  1.0490  1.9061
 5119SOL     OW26989   1.405   3.982   8.321 -0.0609 -0.2060  0.0870
 5119SOL    HW126990   1.365   4.069   8.319 -0.7313 -0.4909  0.9676
 5119SOL    HW226991   1.363   3.958   8.238 -0.3347 -0.9841  0.4527
 5120SOL     OW26992   1.779   2.921   2.219  0.5622  0.0850  0.1114
 5120SOL    HW126993   1.718   2.895   2.288  1.0047  1.7677  1.1297
 5120SOL    HW226994   1.824   2.991   2.265 -0.0909  0.2183  0.5453
 5121SOL     OW26995   2.631   1.376   2.811  0.0126 -0.2452 -0.3992
 5121SOL    HW126996   2.650   1.465   2.841  2.1377 -1.2292  1.1534
 5121SOL    HW226997   2.687   1.371   2.733  0.2956 -0.4751 -0.1774
 5122SOL     OW26998   4.678   0.244   6.005  0.0206  0.2927 -0.4681
 5122SOL    HW126999   4.627   0.189   6.065  0.7558  0.5996  0.4470
 5122SOL    HW227000   4.717   0.301   6.072 -0.9457  1.2097 -0.6978
 5123SOL     OW27001   1.883   0.758   4.080  0.0573 -0.4531 -0.1041
 5123SOL    HW127002   1.885   0.737   3.987  0.5673  0.7733 -0.3741
 5123SOL    HW227003   1.953   0.698   4.105 -0.5386 -0.7872  0.7614
 5124SOL     OW27004   2.926   1.984   4.705 -0.3554 -0.1019 -0.2715
 5124SOL    HW127005   2.839   2.001   4.669 -0.8349  1.9316  1.8250
 5124SOL    HW227006   2.914   2.031   4.788  0.8687  0.4107 -0.3821
 5125SOL     OW27007   1.950   3.197   3.130 -0.1922 -0.0845  0.4488
 5125SOL    HW127008   1.993   3.188   3.215  1.8650 -1.5732 -0.7335
 5125SOL    HW227009   1.938   3.102   3.123 -0.6890  0.0036  0.1066
 5126SOL     OW27010   4.641   2.831  17.479  0.5280 -0.2604 -0.7327
 5126SOL    HW127011   4.651   2.820  17.574 -2.9584  3.6943  0.0472
 5126SOL    HW227012   4.608   2.920  17.470  0.2091 -0.0343  2.5420
 5127SOL     OW27013   1.497   1.045   7.820  0.4759  0.3195  0.2844
 5127SOL    HW127014   1.560   1.027   7.890 -0.2002 -1.4579  0.4246
 5127SOL    HW227015   1.423   0.998   7.857  1.6591 -1.8138 -0.0283
 5128SOL     OW27016   1.714   2.356   9.366 -0.1600  0.1006  0.3456
 5128SOL    HW127017   1.762   2.429   9.406 -0.4298  0.4195  0.0853
 5128SOL    HW227018   1.785   2.321   9.311 -0.4883 -0.2929  0.1711
 5129SOL     OW27019   3.310   1.929  13.073 -0.7045  0.4712 -0.3949
 5129SOL    HW127020   3.358   1.864  13.123 -0.2299  0.0345 -1.4100
 5129SOL    HW227021   3.227   1.884  13.056  0.3348 -1.4122 -0.5563
 5130SOL     OW27022   3.833   4.333  10.151 -0.3059  0.3404  0.0712
 5130SOL    HW127023   3.813   4.325  10.058  0.6240  0.3469 -0.1216
 5130SOL    HW227024   3.794   4.417  10.174 -0.5733  0.6805 -1.6875
 5131SOL     OW27025   0.331   2.198   4.526 -0.2469 -0.3371 -0.0202
 5131SOL    HW127026   0.283   2.166   4.602 -0.8911 -2.7842 -1.4706
 5131SOL    HW227027   0.263   2.260   4.500  2.0555  2.5689  0.8142
 5132SOL     OW27028   1.067   4.259   4.394 -0.1850 -0.2732 -0.3407
 5132SOL    HW127029   1.019   4.189   4.438 -1.6045  1.2463  0.5235
 5132SOL    HW227030   1.128   4.286   4.462 -1.5622  1.9710 -0.0167
 5133SOL     OW27031   2.494   2.325  16.939 -0.5392 -0.4582 -0.1628
 5133SOL    HW127032   2.403   2.296  16.941  0.0559 -2.4113 -1.5471
 5133SOL    HW227033   2.513   2.271  16.863 -3.2681  0.5670 -1.5509
 5134SOL     OW27034   0.669   1.391  15.932 -0.3988 -0.1901 -0.2981
 5134SOL    HW127035   0.700   1.309  15.971  0.9282  0.4993  0.0800
 5134SOL    HW227036   0.629   1.428  16.011  1.7552  0.7059  0.3725
 5135SOL     OW27037   2.176   1.894  10.681  0.3724 -0.1530 -0.7054
 5135SOL    HW127038   2.085   1.866  10.672 -1.2683  4.0055  2.5502
 5135SOL    HW227039   2.208   1.821  10.733 -1.0076  0.8701  1.6191
 5136SOL     OW27040   2.919   1.539   3.402 -1.0624  0.3896  0.0666
 5136SOL    HW127041   2.914   1.450   3.366 -0.7925  0.5241 -0.3000
 5136SOL    HW227042   2.951   1.599   3.335 -0.7388 -0.6062 -0.6756
 5137SOL     OW27043   2.794   0.251   0.082 -0.1580  0.3801  0.0625
 5137SOL    HW127044   2.707   0.267   0.045  0.0912  2.0304  0.1979
 5137SOL    HW227045   2.842   0.323   0.043 -0.7310  0.1366 -1.0854
 5138SOL     OW27046   3.694   0.350  10.661  0.0453  0.0777 -0.4610
 5138SOL    HW127047   3.724   0.260  10.645 -0.1627 -0.3828  1.8215
 5138SOL    HW227048   3.700   0.362  10.755 -0.6493  1.0042 -0.5396
 5139SOL     OW27049   3.643   3.947  14.507  0.5782 -0.0951  0.5850
 5139SOL    HW127050   3.639   4.043  14.501  0.5965  0.0117  2.1798
 5139SOL    HW227051   3.697   3.934  14.429  0.3287  1.0104  0.2357
 5140SOL     OW27052   1.265   1.499   6.104 -0.1362 -0.1412  0.5344
 5140SOL    HW127053   1.224   1.418   6.073 -1.3626  1.0236 -0.8904
 5140SOL    HW227054   1.265   1.547   6.021  0.9247 -0.6651  0.2339
 5141SOL     OW27055   1.499   2.235   7.874  0.0972  0.1892 -0.0589
 5141SOL    HW127056   1.592   2.213   7.878  0.5058  1.9310  0.2198
 5141SOL    HW227057   1.518   2.324   7.906  0.0274  0.0173  0.4588
 5142SOL     OW27058   3.397   1.730   9.250  0.4905 -0.3208  1.1706
 5142SOL    HW127059   3.430   1.767   9.169 -0.2839 -0.0728  0.9690
 5142SOL    HW227060   3.377   1.809   9.300 -4.6561  0.6255 -2.3474
 5143SOL     OW27061   4.516   2.431   3.498  0.2987  0.0116  0.1326
 5143SOL    HW127062   4.590   2.458   3.444 -0.0117 -0.9522 -0.7825
 5143SOL    HW227063   4.543   2.455   3.587  0.7164 -0.8313  0.2293
 5144SOL     OW27064   0.624   1.490  16.188 -0.7084  0.1945 -0.3900
 5144SOL    HW127065   0.539   1.533  16.201 -0.6500 -0.0742  0.8720
 5144SOL    HW227066   0.629   1.443  16.271 -0.2946  1.5985  0.3790
 5145SOL     OW27067   1.597   1.000   1.916  0.7991 -0.0663 -0.0231
 5145SOL    HW127068   1.608   0.965   1.827 -0.8402  0.4607 -0.4367
 5145SOL    HW227069   1.645   1.081   1.896 -0.9825  0.7521 -1.0221
 5146SOL     OW27070   4.199   3.307  15.695 -0.1935 -0.3917  0.9308
 5146SOL    HW127071   4.256   3.303  15.619  1.4247 -1.7063  2.2070
 5146SOL    HW227072   4.177   3.215  15.712 -2.2852 -0.0565 -0.0088
 5147SOL     OW27073   2.764   2.760   4.464 -0.4194  0.2797 -0.3234
 5147SOL    HW127074   2.723   2.787   4.382 -0.5688  0.9417 -0.0309
 5147SOL    HW227075   2.812   2.682   4.436 -0.5118 -0.6992  2.2143
 5148SOL     OW27076   3.025   2.130   2.404 -0.3835 -0.5276 -0.0763
 5148SOL    HW127077   3.039   2.211   2.354 -1.7760 -0.2440 -0.0042
 5148SOL    HW227078   2.966   2.165   2.471  0.2413  1.3184 -0.4704
 5149SOL     OW27079   2.126   3.109  16.703  0.0361  0.0610  0.3465
 5149SOL    HW127080   2.079   3.173  16.650  3.1456  2.0128 -0.0498
 5149SOL    HW227081   2.204   3.100  16.647 -0.5195  1.6531 -0.6957
 5150SOL     OW27082   0.499   1.303  14.175  0.1308 -0.3336  0.5271
 5150SOL    HW127083   0.501   1.397  14.157 -1.0944 -0.0815  1.7452
 5150SOL    HW227084   0.418   1.289  14.223  1.0091 -0.5598  1.9455
 5151SOL     OW27085   4.116   2.711  14.204  0.7823  0.2034  0.1049
 5151SOL    HW127086   4.198   2.754  14.229 -0.2162  2.5249 -0.6042
 5151SOL    HW227087   4.127   2.616  14.213 -0.8867 -0.0256 -0.3422
 5152SOL     OW27088   4.406   2.849   9.371  0.3676 -0.2438  0.9807
 5152SOL    HW127089   4.410   2.919   9.436 -2.3287  1.5276 -0.7110
 5152SOL    HW227090   4.491   2.860   9.328  0.1500  1.1363  0.8951
 5153SOL     OW27091   2.461   3.682   9.568 -0.2303 -0.2937 -0.3866
 5153SOL    HW127092   2.480   3.639   9.484  0.1878  0.2681 -0.5770
 5153SOL    HW227093   2.367   3.661   9.572 -0.2167 -0.3239 -0.2374
 5154SOL     OW27094   0.318   4.464   5.268 -0.4694  0.1268 -0.1970
 5154SOL    HW127095   0.344   4.378   5.234  1.2380  0.8972 -0.8565
 5154SOL    HW227096   0.253   4.480   5.200 -1.7933 -1.9288  0.5940
 5155SOL     OW27097   2.418   0.693   2.736  0.5408  0.2345 -0.0480
 5155SOL    HW127098   2.462   0.711   2.819 -1.4291 -1.0571  1.2512
 5155SOL    HW227099   2.488   0.704   2.671  0.1784  2.1218 -0.1190
 5156SOL     OW27100   1.214   4.413   3.276 -0.1461 -0.0002 -0.0028
 5156SOL    HW127101   1.155   4.446   3.208 -2.8981 -2.0764  1.3459
 5156SOL    HW227102   1.164   4.429   3.356 -0.7952 -1.3500 -0.1368
 5157SOL     OW27103   3.530   3.837   0.901  0.0166 -0.1786 -0.1666
 5157SOL    HW127104   3.482   3.875   0.974  3.1702  1.9896  0.7761
 5157SOL    HW227105   3.612   3.886   0.912 -0.2116 -0.8437  4.2477
 5158SOL     OW27106   1.572   2.186  15.698 -0.3264 -0.0731  0.1579
 5158SOL    HW127107   1.661   2.222  15.700  0.0423 -1.0087  0.3037
 5158SOL    HW227108   1.563   2.177  15.603 -1.6287  0.5640  0.2199
 5159SOL     OW27109   2.051   4.351  14.719  0.0539  0.1184  0.2986
 5159SOL    HW127110   2.069   4.345  14.625  1.4282 -1.7150  0.6785
 5159SOL    HW227111   1.995   4.273  14.730  1.1805 -0.4996  1.5630
 5160SOL     OW27112   1.361   1.993   1.134  0.0523 -0.2220 -0.2899
 5160SOL    HW127113   1.387   2.051   1.206  2.4851  0.4193 -1.6622
 5160SOL    HW227114   1.295   1.937   1.174 -1.5776  1.7544 -0.2511
 5161SOL     OW27115   4.590   0.675   3.949 -0.0501 -0.3398 -0.1073
 5161SOL    HW127116   4.681   0.684   3.977 -0.4187  0.8884  0.6825
 5161SOL    HW227117   4.596   0.620   3.870 -0.0561  0.2809 -0.5417
 5162SOL     OW27118   4.063   3.612   2.908 -0.7948  0.8180 -0.3915
 5162SOL    HW127119   4.117   3.549   2.860  0.4474  0.2832  1.7089
 5162SOL    HW227120   3.974   3.584   2.885  0.3589 -1.3240 -2.2578
 5163SOL     OW27121   0.192   2.049   2.132 -0.1996  0.3256  0.4238
 5163SOL    HW127122   0.188   2.007   2.045 -0.8264 -0.5682  0.8774
 5163SOL    HW227123   0.266   2.108   2.117 -0.3269  0.7680  1.5773
 5164SOL     OW27124   4.074   2.094   5.164  0.0996  0.1249 -0.2156
 5164SOL    HW127125   4.147   2.061   5.112  1.5063  3.0884 -0.0766
 5164SOL    HW227126   4.040   2.157   5.100  2.5606 -0.5701 -2.1785
 5165SOL     OW27127   3.236   0.850   2.289  0.4279  0.8864 -0.0954
 5165SOL    HW127128   3.239   0.886   2.377 -1.8146  0.5826  0.1106
 5165SOL    HW227129   3.248   0.925   2.232 -1.8609 -0.1102 -1.8988
 5166SOL     OW27130   2.518   0.601   4.982  0.1910  0.2810  0.1131
 5166SOL    HW127131   2.535   0.555   5.065 -0.3174 -1.3941 -0.7205
 5166SOL    HW227132   2.608   0.611   4.950 -0.2584  1.7854 -0.6907
 5167SOL     OW27133   1.370   4.034  16.100  0.3797  0.6185  0.1767
 5167SOL    HW127134   1.376   4.129  16.092 -2.2885  0.9585  2.3556
 5167SOL    HW227135   1.456   4.010  16.066 -1.3993 -2.6574 -2.0567
 5168SOL     OW27136   4.629   2.621  10.062  0.4347 -0.3231 -0.4358
 5168SOL    HW127137   4.716   2.660  10.055  0.1030  0.7963  1.3860
 5168SOL    HW227138   4.592   2.663   9.984  1.5296  0.5501 -0.4946
 5169SOL     OW27139   4.229   2.039   4.470 -0.7440 -0.5573 -0.0824
 5169SOL    HW127140   4.216   1.965   4.411  2.7817 -2.0947  1.0770
 5169SOL    HW227141   4.251   2.109   4.408 -0.2104 -0.6768 -0.0276
 5170SOL     OW27142   2.102   1.681  11.321  0.4403  0.5572 -0.0688
 5170SOL    HW127143   2.071   1.598  11.357  4.7668 -1.7007 -1.5716
 5170SOL    HW227144   2.031   1.708  11.262  0.8806  0.2331 -0.7447
 5171SOL     OW27145   0.761   2.325   6.372  0.1841  0.3851 -0.7837
 5171SOL    HW127146   0.757   2.261   6.443  0.8083 -0.8706 -1.8753
 5171SOL    HW227147   0.773   2.265   6.298 -0.5983 -1.8109  0.8908
 5172SOL     OW27148   0.753   0.305  12.812 -0.4217  1.2959  0.2356
 5172SOL    HW127149   0.669   0.326  12.854 -1.4814 -0.0276 -1.2338
 5172SOL    HW227150   0.756   0.365  12.738  2.3058  0.5291 -0.2582
 5173SOL     OW27151   3.979   2.536   4.858 -0.2559  0.6287  0.1783
 5173SOL    HW127152   3.951   2.525   4.767 -0.3167  0.6669  0.1930
 5173SOL    HW227153   3.996   2.629   4.869 -2.1631  1.2158 -1.8077
 5174SOL     OW27154   1.805   3.965   2.737 -0.3640 -0.5784  0.0547
 5174SOL    HW127155   1.851   3.924   2.811 -0.7717  0.5490  0.9288
 5174SOL    HW227156   1.777   3.884   2.695  2.2091 -0.9569 -0.9702
 5175SOL     OW27157   2.777   4.388  15.270  0.3869  0.5712 -0.6305
 5175SOL    HW127158   2.697   4.387  15.218  1.2941 -0.7062 -2.0169
 5175SOL    HW227159   2.783   4.481  15.292 -1.4177  0.2213  1.2832
 5176SOL     OW27160   0.547   0.180   2.624  0.9709  0.3496  0.0584
 5176SOL    HW127161   0.550   0.181   2.719 -0.5786  1.6464  0.0996
 5176SOL    HW227162   0.610   0.249   2.604  0.8019  0.1131 -1.3483
 5177SOL     OW27163   3.365   2.452  14.738  0.0429 -0.4500 -0.2569
 5177SOL    HW127164   3.409   2.494  14.812 -0.4987  0.2383 -0.3201
 5177SOL    HW227165   3.343   2.533  14.692  1.4284 -0.0810 -0.2502
 5178SOL     OW27166   2.425   2.034   9.735  0.2556 -0.1982 -0.0786
 5178SOL    HW127167   2.338   2.073   9.726 -0.4444 -2.0988 -1.7660
 5178SOL    HW227168   2.415   1.958   9.678  2.4797  0.0073 -0.7348
 5179SOL     OW27169   0.051   3.330   0.538  0.2155 -0.4236 -0.3121
 5179SOL    HW127170   0.111   3.401   0.513 -0.0012  0.3469  1.3360
 5179SOL    HW227171   0.042   3.346   0.632  1.4766 -0.7587 -0.1301
 5180SOL     OW27172   0.564   0.546  12.762 -0.4211  0.2206 -0.1019
 5180SOL    HW127173   0.567   0.634  12.727  0.1288  0.1488 -0.2298
 5180SOL    HW227174   0.637   0.518  12.706 -0.6715  0.8119 -0.7162
 5181SOL     OW27175   1.094   3.901   5.830  0.4620  0.5056 -0.1758
 5181SOL    HW127176   1.045   3.977   5.863  1.5857  0.4538  1.6270
 5181SOL    HW227177   1.023   3.838   5.820 -0.2277  1.3193 -0.4345
 5182SOL     OW27178   4.638   0.185   7.668 -0.8169  0.4702 -0.4600
 5182SOL    HW127179   4.732   0.182   7.652 -0.7443  2.3245 -0.3197
 5182SOL    HW227180   4.620   0.094   7.695 -0.2574  0.5286  0.0960
 5183SOL     OW27181   1.416   1.317   9.034 -0.6928  0.0723  0.7393
 5183SOL    HW127182   1.457   1.282   8.954 -1.8142  0.9788 -0.2407
 5183SOL    HW227183   1.470   1.394   9.055 -0.6807  0.8044 -1.9383
 5184SOL     OW27184   4.072   0.256   3.974 -0.1327 -0.5599  0.3999
 5184SOL    HW127185   4.059   0.182   4.032 -3.3211  1.4417  2.2397
 5184SOL    HW227186   4.143   0.231   3.915  0.3030  1.3865  0.1008
 5185SOL     OW27187   1.444   0.227   7.491 -0.1225 -0.5901 -0.1406
 5185SOL    HW127188   1.477   0.312   7.461  0.1024 -0.3984  0.6447
 5185SOL    HW227189   1.519   0.171   7.511  1.5754  1.3122 -1.1440
 5186SOL     OW27190   4.314   4.549   3.599 -0.6086 -0.2300 -0.4041
 5186SOL    HW127191   4.261   4.501   3.662 -0.0362  2.1101  1.8644
 5186SOL    HW227192   4.240   4.559   3.540  0.3538  0.0591 -1.5639
 5187SOL     OW27193   1.812   3.741   2.234  0.2157 -0.3844 -0.3082
 5187SOL    HW127194   1.857   3.710   2.155  0.4140  0.7234 -0.6257
 5187SOL    HW227195   1.766   3.663   2.266 -0.6297  0.6366  0.9702
 5188SOL     OW27196   3.557   4.481   9.926  0.2109 -0.0060 -0.1311
 5188SOL    HW127197   3.603   4.548   9.976 -1.4583  0.6900  0.4710
 5188SOL    HW227198   3.546   4.414   9.993 -1.3108 -0.6291 -0.9944
 5189SOL     OW27199   0.201   4.433  14.241  0.3549 -0.5064  0.3424
 5189SOL    HW127200   0.120   4.418  14.289  0.8318  1.4253  1.7363
 5189SOL    HW227201   0.203   4.352  14.189 -2.6240 -0.0523 -0.4243
 5190SOL     OW27202   1.215   2.075  11.799  0.0894  0.5275  0.4418
 5190SOL    HW127203   1.274   2.011  11.760 -0.4200  0.2826  0.0827
 5190SOL    HW227204   1.264   2.153  11.826  1.4408  0.5846 -2.2076
 5191SOL     OW27205   1.091   2.046   0.790  0.1886 -0.1257  0.5557
 5191SOL    HW127206   1.078   2.129   0.745  2.5624 -1.0148 -1.7693
 5191SOL    HW227207   1.176   2.070   0.827  0.7990 -1.5496  0.0892
 5192SOL     OW27208   0.358   3.750   6.953  0.2566 -0.5873 -0.2658
 5192SOL    HW127209   0.450   3.729   6.966  0.6969  0.7880 -1.1843
 5192SOL    HW227210   0.363   3.802   6.872 -1.1758 -0.3272 -0.1820
 5193SOL     OW27211   0.361   1.627  14.750 -0.4779 -0.0565 -0.0239
 5193SOL    HW127212   0.329   1.603  14.663 -1.6539  0.2988  0.3094
 5193SOL    HW227213   0.412   1.703  14.723  0.1035 -0.0306  1.1808
 5194SOL     OW27214   0.722   1.144  14.139  0.5352  0.2412 -0.2032
 5194SOL    HW127215   0.655   1.209  14.162  1.9525  1.4751  0.4597
 5194SOL    HW227216   0.681   1.136  14.053  2.2251  1.4370 -1.1173
 5195SOL     OW27217   3.200   2.654  12.049  0.1892  0.0887  0.4628
 5195SOL    HW127218   3.108   2.659  12.025 -0.3801  1.3142  2.8765
 5195SOL    HW227219   3.237   2.729  12.002 -0.2515  0.9896  1.5408
 5196SOL     OW27220   1.243   0.885   1.657  0.0556  0.1237 -0.3036
 5196SOL    HW127221   1.184   0.936   1.712 -1.9399 -2.1909 -0.2968
 5196SOL    HW227222   1.220   0.797   1.687 -0.1979  0.5394  0.7468
 5197SOL     OW27223   3.980   2.476   2.932 -0.9347 -0.6096 -0.0628
 5197SOL    HW127224   3.911   2.414   2.956 -1.2551  0.2536  1.2456
 5197SOL    HW227225   3.923   2.553   2.927 -0.0284  0.0450 -0.5411
 5198SOL     OW27226   2.596   3.226   0.568  0.1039  0.0747 -0.3412
 5198SOL    HW127227   2.594   3.268   0.482  0.0786 -1.4595 -1.0814
 5198SOL    HW227228   2.690   3.213   0.578  0.0459 -0.6726 -0.7318
 5199SOL     OW27229   0.315   2.171   8.679 -0.1326  0.5538  0.6690
 5199SOL    HW127230   0.367   2.127   8.612 -0.2421 -0.9845  1.5908
 5199SOL    HW227231   0.385   2.182   8.744  1.0880 -2.2487 -0.1496
 5200SOL     OW27232   3.172   3.202  12.564 -0.2791 -0.3155  0.8575
 5200SOL    HW127233   3.099   3.141  12.577 -0.0209 -1.0351 -0.9884
 5200SOL    HW227234   3.226   3.181  12.640 -1.8697 -1.4476  1.6856
 5201SOL     OW27235   4.045   1.756   6.384  0.4344 -0.4352 -0.6361
 5201SOL    HW127236   4.037   1.834   6.439 -1.6406 -2.0267  1.3270
 5201SOL    HW227237   4.023   1.699   6.458 -1.3062 -0.0758 -0.8717
 5202SOL     OW27238   2.318   2.084   4.798  0.0665 -0.0581  0.3784
 5202SOL    HW127239   2.292   1.995   4.822 -0.2196  0.6389  2.6709
 5202SOL    HW227240   2.413   2.077   4.796 -0.1525 -2.1442 -1.5148
 5203SOL     OW27241   0.115   4.128   0.752 -0.1171 -0.4887 -0.3743
 5203SOL    HW127242   0.152   4.093   0.671  0.7962 -2.6802  0.9996
 5203SOL    HW227243   0.189   4.154   0.806 -1.0329  0.1883  0.5520
 5204SOL     OW27244   2.032   4.138   2.939  0.2151  0.2184 -0.4978
 5204SOL    HW127245   1.939   4.155   2.924  0.2675  2.4249  1.8116
 5204SOL    HW227246   2.051   4.168   3.027 -0.2897  1.5688 -0.8379
 5205SOL     OW27247   2.708   0.945   5.639  0.1028  0.0146  0.0333
 5205SOL    HW127248   2.789   0.932   5.589  1.1295  0.3628  1.6028
 5205SOL    HW227249   2.679   1.031   5.609 -2.3888 -0.7001  0.4361
 5206SOL     OW27250   0.426   3.225   7.778 -0.5549  0.1456 -0.7707
 5206SOL    HW127251   0.438   3.306   7.727  2.0486 -1.4107 -2.6820
 5206SOL    HW227252   0.407   3.262   7.864 -1.8506  1.5370 -1.6530
 5207SOL     OW27253   3.968   1.195   5.768  0.2756 -0.0384 -0.3421
 5207SOL    HW127254   4.025   1.247   5.825 -0.4729 -0.7690  1.0461
 5207SOL    HW227255   3.915   1.267   5.733 -0.1461  0.5897  1.6347
 5208SOL     OW27256   0.913   3.893   6.039  0.2132 -0.3851  0.2057
 5208SOL    HW127257   0.862   3.818   6.072 -0.3005  0.3697  1.1315
 5208SOL    HW227258   0.836   3.939   6.005  2.0920  2.1160 -0.6312
 5209SOL     OW27259   0.846   0.166   8.047 -0.0091 -0.7441  0.4385
 5209SOL    HW127260   0.843   0.223   8.124 -4.0925 -0.2772 -0.0454
 5209SOL    HW227261   0.935   0.175   8.012 -0.1591 -0.3364  0.1635
 5210SOL     OW27262   2.182   3.627   8.944 -0.1297  0.1124 -0.2844
 5210SOL    HW127263   2.194   3.689   8.871  0.7110 -0.6377 -0.7820
 5210SOL    HW227264   2.090   3.644   8.961 -0.6928 -1.6545 -1.6053
 5211SOL     OW27265   1.118   4.503  14.371  0.2701  0.0487 -0.0008
 5211SOL    HW127266   1.153   4.568  14.310  0.7866  0.1045  0.3534
 5211SOL    HW227267   1.198   4.451  14.380  0.9952  1.0882 -0.4294
 5212SOL     OW27268   3.014   0.188   8.743 -0.0396 -0.2972 -0.1752
 5212SOL    HW127269   2.955   0.262   8.729 -1.0162 -1.4859 -2.3582
 5212SOL    HW227270   3.035   0.210   8.834  1.0708 -2.2641  0.0347
 5213SOL     OW27271   3.409   1.346   2.973  0.2841 -0.0791  0.2061
 5213SOL    HW127272   3.373   1.350   3.062  0.2088  2.1632  0.0816
 5213SOL    HW227273   3.341   1.299   2.926  1.2789  0.5213 -1.8113
 5214SOL     OW27274   1.897   0.649  11.179  0.1686  0.4455  0.5606
 5214SOL    HW127275   1.843   0.645  11.100  1.6166 -0.6559 -0.3747
 5214SOL    HW227276   1.886   0.567  11.228  0.7296  0.0444  0.0126
 5215SOL     OW27277   1.165   1.866   6.909  0.1895 -0.1762 -0.2663
 5215SOL    HW127278   1.134   1.820   6.987  2.9441 -0.5106  0.6422
 5215SOL    HW227279   1.098   1.841   6.845  1.5833 -0.6353 -1.5529
 5216SOL     OW27280   2.055   0.078   6.226 -0.4155 -0.2254  0.0953
 5216SOL    HW127281   2.048   0.095   6.132 -0.4564  0.7186  0.2672
 5216SOL    HW227282   2.144   0.043   6.231 -0.7334 -1.2925 -1.6775
 5217SOL     OW27283   1.376   4.194   3.127  0.6031 -0.2170  0.1031
 5217SOL    HW127284   1.387   4.253   3.052  0.8670  1.3413  1.3597
 5217SOL    HW227285   1.298   4.230   3.170 -0.4017  0.0177 -1.9004
 5218SOL     OW27286   2.596   1.297   7.678 -0.0203 -0.0632  0.7797
 5218SOL    HW127287   2.663   1.238   7.645  1.2488 -0.2169  3.6605
 5218SOL    HW227288   2.612   1.304   7.772  3.3389  2.2211  0.0507
 5219SOL     OW27289   0.768   2.232  16.397  0.3386  0.1521 -0.2196
 5219SOL    HW127290   0.750   2.266  16.309 -1.2616 -1.2108 -0.4199
 5219SOL    HW227291   0.860   2.207  16.383  0.4661  1.3893 -1.5943
 5220SOL     OW27292   3.133   0.731   6.667 -0.5362 -0.2616 -0.2803
 5220SOL    HW127293   3.162   0.793   6.600 -1.2665  0.0148 -0.3480
 5220SOL    HW227294   3.172   0.746   6.753 -0.2958 -0.4583 -0.3540
 5221SOL     OW27295   3.352   3.726   4.060  0.5659  0.7329 -0.5114
 5221SOL    HW127296   3.375   3.754   4.148  0.8072 -2.2235  0.3693
 5221SOL    HW227297   3.395   3.641   4.061  0.0959  0.4881 -1.0207
 5222SOL     OW27298   3.991   0.622   7.784  0.0840 -0.0535 -0.0189
 5222SOL    HW127299   3.932   0.604   7.857  0.7359 -3.5339 -0.3211
 5222SOL    HW227300   4.066   0.571   7.815  1.5017  0.5326 -2.4717
 5223SOL     OW27301   3.328   2.015  16.005 -0.5719  0.1956  0.1389
 5223SOL    HW127302   3.357   1.934  15.964 -1.7839 -1.0881  1.7939
 5223SOL    HW227303   3.401   2.069  15.975 -0.7919 -0.0937 -0.9020
 5224SOL     OW27304   1.079   0.336  12.888 -0.1450 -0.0941 -0.6358
 5224SOL    HW127305   1.121   0.268  12.835  0.3351  0.6470 -1.1854
 5224SOL    HW227306   0.999   0.288  12.912 -1.0530  1.1051 -1.3142
 5225SOL     OW27307   2.231   1.208   8.430  0.3482  0.2457  0.2182
 5225SOL    HW127308   2.183   1.126   8.419 -0.3489  1.1560 -3.5139
 5225SOL    HW227309   2.221   1.245   8.342  0.2077 -0.5038 -0.0845
 5226SOL     OW27310   4.526   0.084   6.165 -0.2942 -0.0071 -0.3113
 5226SOL    HW127311   4.584   0.084   6.242 -1.3351  0.0470  0.4748
 5226SOL    HW227312   4.469   0.011   6.188 -1.1971  0.7026 -0.2993
 5227SOL     OW27313   4.731   2.350   0.160  0.4439  0.2603  0.5728
 5227SOL    HW127314   4.740   2.373   0.067 -0.1294 -0.5023  0.3319
 5227SOL    HW227315   0.077   2.338   0.191 -0.2688 -0.1565  2.4780
 5228SOL     OW27316   1.231   2.879   8.828 -0.0909 -0.4858 -0.3035
 5228SOL    HW127317   1.238   2.961   8.780  0.0586 -0.5263 -0.3514
 5228SOL    HW227318   1.204   2.911   8.913  1.1336 -1.5962  0.5102
 5229SOL     OW27319   4.230   2.986   5.006  0.3035 -0.6662  0.5177
 5229SOL    HW127320   4.276   2.928   4.944 -0.1055  0.5268 -0.8856
 5229SOL    HW227321   4.269   2.951   5.086 -1.3432 -2.1336  0.6710
 5230SOL     OW27322   0.157   3.222   4.165 -0.3543 -0.7361  0.1231
 5230SOL    HW127323   0.180   3.308   4.199  0.4910 -0.6889 -0.5585
 5230SOL    HW227324   0.081   3.235   4.109 -0.3652 -1.3475 -0.0103
 5231SOL     OW27325   3.165   3.375   6.237  0.3576  0.4864 -0.0235
 5231SOL    HW127326   3.082   3.383   6.190 -0.6128  0.0022  1.6347
 5231SOL    HW227327   3.151   3.289   6.275  1.7302  0.7073  0.9624
 5232SOL     OW27328   1.498   2.381   7.628  0.3759  0.2500 -0.8557
 5232SOL    HW127329   1.577   2.436   7.634  0.0336  0.3446  2.3931
 5232SOL    HW227330   1.515   2.310   7.689  1.1885  1.9320  0.8950
 5233SOL     OW27331   1.897   2.022   3.771 -0.3240 -0.3077 -0.1744
 5233SOL    HW127332   1.866   2.041   3.859  1.3667 -1.1508  0.5955
 5233SOL    HW227333   1.874   1.930   3.766  1.1910 -0.6652 -0.5025
 5234SOL     OW27334   0.013   2.758  17.714 -0.3709 -0.3961  0.5120
 5234SOL    HW127335   0.086   2.697  17.703  0.4984  1.1302 -2.2549
 5234SOL    HW227336   0.057   2.830  17.760  1.2146 -0.9789 -0.1027
 5235SOL     OW27337   1.310   0.833   6.607 -0.0473 -0.5778 -0.3907
 5235SOL    HW127338   1.399   0.852   6.637  0.1724 -0.8423 -0.8782
 5235SOL    HW227339   1.259   0.898   6.655 -0.3311  0.0939 -1.5976
 5236SOL     OW27340   0.959   0.086   9.137  0.7792 -0.5693 -0.2584
 5236SOL    HW127341   0.889   0.148   9.115  1.1509 -0.1077 -0.1319
 5236SOL    HW227342   0.931   0.073   9.228 -2.0141 -0.7035 -1.1301
 5237SOL     OW27343   3.311   4.680  10.024  0.7213 -0.1897  0.0794
 5237SOL    HW127344   3.343   0.023  10.051 -0.9328 -0.2342  2.1643
 5237SOL    HW227345   3.272   4.648  10.106 -1.2230 -0.5920 -1.0303
 5238SOL     OW27346   3.373   3.818   2.448  0.1147  0.8340 -0.4748
 5238SOL    HW127347   3.286   3.822   2.489 -0.1668 -1.9496 -0.7701
 5238SOL    HW227348   3.363   3.872   2.370  1.0612  2.0970  0.2800
 5239SOL     OW27349   3.048   0.487   6.504 -0.6269  0.2553  0.3406
 5239SOL    HW127350   3.075   0.571   6.541 -0.1534  0.4903 -0.5400
 5239SOL    HW227351   2.971   0.455   6.551  0.3103 -0.2399  1.5348
 5240SOL     OW27352   0.190   1.659   2.444 -0.7517  0.3715 -0.0123
 5240SOL    HW127353   0.098   1.681   2.432 -0.9445 -0.3096  0.1908
 5240SOL    HW227354   0.190   1.611   2.528 -0.4154 -0.8534 -0.7102
 5241SOL     OW27355   3.046   0.441   2.405 -0.1945 -0.1502 -0.3203
 5241SOL    HW127356   3.001   0.471   2.483 -0.8607 -2.6173  0.2142
 5241SOL    HW227357   2.971   0.448   2.346  0.4752 -0.3188 -1.2015
 5242SOL     OW27358   2.248   1.219   6.351 -1.1361 -0.0322  0.7904
 5242SOL    HW127359   2.322   1.274   6.325 -0.9442 -0.4269  0.4919
 5242SOL    HW227360   2.251   1.201   6.445  0.7920 -0.8714  0.5786
 5243SOL     OW27361   0.094   0.519   0.484  0.0378  0.7378  0.0599
 5243SOL    HW127362   0.028   0.582   0.514 -0.4183  0.6689 -0.7909
 5243SOL    HW227363   0.038   0.448   0.453 -0.7512  1.3027  0.2050
 5244SOL     OW27364   0.691   3.638  11.709  0.1147 -0.8745  0.4760
 5244SOL    HW127365   0.645   3.555  11.698 -2.6267  0.8188 -0.7347
 5244SOL    HW227366   0.658   3.660  11.797  1.1487 -0.0824  0.6739
 5245SOL     OW27367   0.592   2.149   8.352 -0.1330  0.4404  0.1724
 5245SOL    HW127368   0.530   2.076   8.342 -0.2394  0.4882  0.4720
 5245SOL    HW227369   0.615   2.173   8.262  0.0835  0.2722  0.1828
 5246SOL     OW27370   1.148   3.783   5.374 -0.2226  0.1292 -0.0058
 5246SOL    HW127371   1.056   3.798   5.399  0.1167 -1.7294  2.3342
 5246SOL    HW227372   1.191   3.794   5.459  0.7774 -3.9383 -0.0046
 5247SOL     OW27373   0.180   0.085   3.999 -0.1516 -0.3572 -0.0767
 5247SOL    HW127374   0.184   4.738   3.968 -0.6529  0.4031 -2.3492
 5247SOL    HW227375   0.170   0.130   3.916 -1.2390  0.0428  0.2684
 5248SOL     OW27376   2.307   0.611   5.997  0.1978 -0.2570  0.3344
 5248SOL    HW127377   2.294   0.600   6.091  0.6089 -1.8013  0.2106
 5248SOL    HW227378   2.332   0.519   5.983 -1.7273 -0.0626 -4.4411
 5249SOL     OW27379   0.239   4.193   7.615  0.3410 -0.5887 -0.1887
 5249SOL    HW127380   0.185   4.115   7.627 -1.5452  0.2451 -3.1019
 5249SOL    HW227381   0.266   4.210   7.705 -2.3843  4.6783 -0.3576
 5250SOL     OW27382   0.843   4.527  12.739  0.3420  0.1150 -0.1161
 5250SOL    HW127383   0.938   4.523  12.724  0.6144 -1.8576  2.1900
 5250SOL    HW227384   0.831   4.539  12.834 -0.7259  1.0374 -0.3711
 5251SOL     OW27385   3.752   1.180   7.140  0.0453 -0.3934  0.2159
 5251SOL    HW127386   3.817   1.152   7.204 -1.5049 -0.3895  1.7816
 5251SOL    HW227387   3.678   1.147   7.191 -0.6904  0.9987  0.0425
 5252SOL     OW27388   2.125   4.191  16.118 -0.6174 -0.6618 -0.0563
 5252SOL    HW127389   2.203   4.156  16.159 -1.3915  0.8568  2.6668
 5252SOL    HW227390   2.152   4.209  16.028 -0.5943  0.9210  0.2669
 5253SOL     OW27391   0.930   2.702   7.641 -0.3624 -0.1541 -0.0385
 5253SOL    HW127392   0.842   2.735   7.624 -0.6891  0.6002  3.2244
 5253SOL    HW227393   0.966   2.753   7.568 -0.3464  1.6506  1.2523
 5254SOL     OW27394   0.391   1.752   7.188 -0.7661 -0.9348 -0.4872
 5254SOL    HW127395   0.310   1.791   7.219 -0.1868  0.0613 -0.2168
 5254SOL    HW227396   0.433   1.718   7.267  0.9995  1.8627 -0.1840
 5255SOL     OW27397   4.134   2.563   9.640 -0.5406  0.6319  0.9686
 5255SOL    HW127398   4.128   2.583   9.733  0.6045  0.9922  0.9667
 5255SOL    HW227399   4.226   2.568   9.616 -0.5642 -2.2228  0.3106
 5256SOL     OW27400   3.551   0.702   4.684 -0.0325 -0.1304 -0.1524
 5256SOL    HW127401   3.628   0.673   4.636  1.3986 -1.1956  2.8209
 5256SOL    HW227402   3.485   0.637   4.659 -0.8671  1.0074 -0.9620
 5257SOL     OW27403   4.256   0.287   5.168  0.4933 -0.2413 -0.2001
 5257SOL    HW127404   4.176   0.288   5.115  0.5092  3.2059 -0.1703
 5257SOL    HW227405   4.258   0.373   5.211  1.1522 -0.2027 -0.3102
 5258SOL     OW27406   2.023   1.446   9.487  1.0321 -0.0573  0.1639
 5258SOL    HW127407   2.052   1.355   9.480  0.9382  0.0233 -1.3500
 5258SOL    HW227408   2.044   1.479   9.574  0.5163 -0.8725  0.5946
 5259SOL     OW27409   3.458   1.432  15.725  0.1089  0.2594 -0.1043
 5259SOL    HW127410   3.485   1.523  15.715 -0.7595  0.3749 -1.4022
 5259SOL    HW227411   3.506   1.395  15.651  1.2071  2.2004 -0.3584
 5260SOL     OW27412   3.556   1.998   8.297 -0.5573  0.2915 -0.5121
 5260SOL    HW127413   3.607   2.078   8.281 -0.1156  0.0333 -0.4022
 5260SOL    HW227414   3.532   2.006   8.390  0.4954  4.7864 -0.5996
 5261SOL     OW27415   0.679   2.745   1.949  0.0067  0.0787 -0.4311
 5261SOL    HW127416   0.622   2.748   2.026 -0.5305  2.2748 -0.9206
 5261SOL    HW227417   0.758   2.701   1.980  0.5005  0.4124 -1.2301
 5262SOL     OW27418   3.505   3.478   9.192 -0.3071  0.4665 -0.3037
 5262SOL    HW127419   3.446   3.553   9.191  1.1485  1.6021 -0.9116
 5262SOL    HW227420   3.580   3.520   9.235 -1.7103  3.3532 -0.6695
 5263SOL     OW27421   1.314   3.981  15.101  0.0485 -0.8607 -0.3199
 5263SOL    HW127422   1.285   3.923  15.031  0.6680 -0.6982 -0.7157
 5263SOL    HW227423   1.389   3.927  15.126 -0.1542 -1.2534 -0.5550
 5264SOL     OW27424   3.855   4.015  13.197  0.2039  0.4008 -0.0518
 5264SOL    HW127425   3.803   3.950  13.245 -0.7638  1.4952  0.3904
 5264SOL    HW227426   3.781   4.072  13.177 -0.3795 -0.8188 -1.4261
 5265SOL     OW27427   2.489   3.818   3.426  0.5460 -0.0045 -0.0329
 5265SOL    HW127428   2.577   3.782   3.437  1.0176  1.4886  1.2257
 5265SOL    HW227429   2.432   3.748   3.457  1.8076 -1.4217 -0.9447
 5266SOL     OW27430   1.689   1.285   6.505  0.0703 -0.3254 -0.0532
 5266SOL    HW127431   1.776   1.245   6.498 -1.5071 -3.1251 -3.6634
 5266SOL    HW227432   1.709   1.350   6.572  0.0980 -0.7615  0.3651
 5267SOL     OW27433   3.595   0.538   9.973 -0.4013 -0.5923  0.4553
 5267SOL    HW127434   3.513   0.497   9.946  1.6030 -3.9248 -0.5262
 5267SOL    HW227435   3.642   0.498   9.900 -2.0607 -0.1191 -0.8989
 5268SOL     OW27436   4.184   4.722   0.062 -0.0171 -0.0283 -0.2567
 5268SOL    HW127437   4.266   0.025   0.048  0.2077 -0.0040  1.0738
 5268SOL    HW227438   4.196   4.703   0.155 -0.0869 -0.8904 -0.4322
 5269SOL     OW27439   0.718   2.859   7.265 -0.4253 -0.0643 -0.2569
 5269SOL    HW127440   0.643   2.803   7.284 -0.7916 -0.3082 -2.4451
 5269SOL    HW227441   0.738   2.841   7.173 -0.3805 -0.9632 -0.0656
 5270SOL     OW27442   4.606   1.645  12.064  0.2413 -0.1556  0.0927
 5270SOL    HW127443   4.694   1.623  12.036  0.1891  0.0101 -0.1994
 5270SOL    HW227444   4.576   1.557  12.085  2.6629 -0.6335  1.5847
 5271SOL     OW27445   2.267   2.336   0.106  0.2416  0.5759  0.0420
 5271SOL    HW127446   2.288   2.277   0.033  0.6943 -2.6927  2.8026
 5271SOL    HW227447   2.188   2.293   0.139 -0.1457  1.3361  0.0875
 5272SOL     OW27448   4.673   1.510   9.590  0.1454  0.1662  0.7555
 5272SOL    HW127449   4.689   1.445   9.659  1.3003 -1.6031 -1.1644
 5272SOL    HW227450   4.578   1.505   9.591  0.2826 -3.8499 -3.4833
 5273SOL     OW27451   1.491   2.238   7.366 -0.6463 -0.5722 -0.5085
 5273SOL    HW127452   1.448   2.157   7.391 -0.2436 -0.9865 -1.1689
 5273SOL    HW227453   1.490   2.286   7.449  0.2215  0.4380 -1.0773
 5274SOL     OW27454   4.297   1.342   4.990 -0.1054 -0.5181 -0.0835
 5274SOL    HW127455   4.374   1.374   5.036 -0.1766  1.3901 -1.2783
 5274SOL    HW227456   4.336   1.290   4.919  0.0983 -0.3968 -0.0592
 5275SOL     OW27457   0.046   2.787   3.176 -0.3317  0.0073 -0.1157
 5275SOL    HW127458   0.011   2.843   3.107 -2.0262 -1.4730 -0.4605
 5275SOL    HW227459   0.125   2.827   3.214  1.0571 -3.6508  0.8658
 5276SOL     OW27460   2.640   2.882   4.260 -0.1573 -0.8445  0.1999
 5276SOL    HW127461   2.587   2.950   4.302 -0.9387 -1.4253  0.1446
 5276SOL    HW227462   2.580   2.856   4.190  1.5925 -0.8682 -1.3005
 5277SOL     OW27463   4.048   3.599   8.266 -0.5296 -0.0825 -0.5363
 5277SOL    HW127464   4.046   3.549   8.184 -1.5076  0.2047 -0.6870
 5277SOL    HW227465   4.095   3.536   8.320 -1.2716  0.1252  0.3485
 5278SOL     OW27466   4.074   3.654   4.717  0.3936 -0.5414  0.4788
 5278SOL    HW127467   3.997   3.604   4.747 -0.1300 -0.5493 -0.9112
 5278SOL    HW227468   4.146   3.595   4.739  2.3438  1.2194 -1.2684
 5279SOL     OW27469   1.303   1.525   3.979  0.0879  0.2600 -0.0915
 5279SOL    HW127470   1.347   1.502   4.061 -0.2413 -1.0164 -0.2707
 5279SOL    HW227471   1.211   1.514   4.003 -1.0154  1.0410 -3.8370
 5280SOL     OW27472   0.368   2.816   2.434  0.0695  0.6023 -0.1734
 5280SOL    HW127473   0.436   2.843   2.496  0.7753 -0.2523 -0.5770
 5280SOL    HW227474   0.350   2.900   2.392  1.2023  1.2017  0.5560
 5281SOL     OW27475   2.855   0.470   2.207 -0.3003  0.8489 -0.0040
 5281SOL    HW127476   2.774   0.520   2.204 -0.6546  0.3827  1.6243
 5281SOL    HW227477   2.916   0.541   2.185  3.0772 -1.6670  1.1619
 5282SOL     OW27478   0.017   1.522   0.402 -0.3069 -0.6758  0.3281
 5282SOL    HW127479   0.108   1.541   0.423 -0.8963  1.2957  1.1659
 5282SOL    HW227480   0.018   1.429   0.422  2.0210 -1.0802 -1.7932
 5283SOL     OW27481   4.703   4.510   3.607 -0.2432 -0.1507  0.2277
 5283SOL    HW127482   4.704   4.595   3.650 -1.1639  0.5654 -1.1670
 5283SOL    HW227483   4.686   4.542   3.518  3.4132  0.5756 -0.2283
 5284SOL     OW27484   0.316   3.881  16.953  0.3020  0.2253  0.1350
 5284SOL    HW127485   0.359   3.868  16.869  0.7383  0.2624  0.3539
 5284SOL    HW227486   0.226   3.871  16.921  0.1685  1.2758  0.1745
 5285SOL     OW27487   4.510   1.903  12.901 -0.6314  0.5182 -0.4166
 5285SOL    HW127488   4.530   1.949  12.983  0.7900 -0.8251 -0.0023
 5285SOL    HW227489   4.598   1.878  12.872 -0.5558  0.3588 -0.0500
 5286SOL     OW27490   2.826   0.476   2.894 -0.4374 -0.4798 -0.2506
 5286SOL    HW127491   2.780   0.444   2.972 -0.3479  0.8314  0.3483
 5286SOL    HW227492   2.781   0.410   2.841 -2.0649  0.7130 -0.3501
 5287SOL     OW27493   1.901   2.150   6.990  0.5633  0.2015 -0.0389
 5287SOL    HW127494   1.908   2.191   6.904  1.6836  2.5052  1.1634
 5287SOL    HW227495   1.807   2.135   6.988  0.6179 -0.1485  0.0113
 5288SOL     OW27496   2.608   1.614   0.669  0.1329 -0.0571 -0.1042
 5288SOL    HW127497   2.675   1.620   0.601 -0.1554  3.0177 -0.1204
 5288SOL    HW227498   2.600   1.700   0.710  0.2125 -1.4568  2.8524
 5289SOL     OW27499   4.379   3.969  15.366  0.1865 -0.1744  0.1402
 5289SOL    HW127500   4.323   3.936  15.295  0.9395 -0.1095 -0.4825
 5289SOL    HW227501   4.344   3.934  15.448 -0.9203 -0.9056 -0.6345
 5290SOL     OW27502   3.633   2.106   4.704 -0.2283  0.4794 -0.6368
 5290SOL    HW127503   3.600   2.019   4.681 -1.1303  1.0716 -1.6039
 5290SOL    HW227504   3.724   2.097   4.677  0.3435  1.1194  1.0948
 5291SOL     OW27505   3.194   1.991   4.713  0.1481 -0.1252 -0.3498
 5291SOL    HW127506   3.213   2.058   4.648 -0.4211  2.1907  1.9103
 5291SOL    HW227507   3.099   1.982   4.713  0.1160  0.1101 -2.5537
 5292SOL     OW27508   1.301   3.242   9.160 -0.4116 -0.9115 -0.2737
 5292SOL    HW127509   1.214   3.204   9.152 -0.8871  0.2850 -0.7084
 5292SOL    HW227510   1.356   3.195   9.098 -0.8524  0.0026 -1.3537
 5293SOL     OW27511   3.290   4.374  11.217  0.6938 -0.3757  0.0739
 5293SOL    HW127512   3.355   4.397  11.284 -0.3262  0.1591  0.8720
 5293SOL    HW227513   3.340   4.391  11.137  0.9030 -0.4618  0.1844
 5294SOL     OW27514   4.194   0.398  15.932 -0.0460  0.3995 -0.3469
 5294SOL    HW127515   4.283   0.393  15.969 -0.3429 -4.3067 -0.3017
 5294SOL    HW227516   4.187   0.310  15.893  1.7617 -0.3291  0.9851
 5295SOL     OW27517   1.845   0.081   4.710 -0.1288 -0.4401  0.4081
 5295SOL    HW127518   1.874   0.004   4.759 -1.0138 -1.1231 -0.1487
 5295SOL    HW227519   1.750   0.086   4.723 -0.3700 -0.7251 -1.2785
 5296SOL     OW27520   4.443   3.712  15.517 -0.1175  0.9553 -0.4792
 5296SOL    HW127521   4.368   3.764  15.545  0.4597  0.9541  1.0488
 5296SOL    HW227522   4.488   3.692  15.599  2.1077 -0.2392 -1.9741
 5297SOL     OW27523   2.950   2.539   4.488 -0.4579 -0.5044  0.0113
 5297SOL    HW127524   3.040   2.570   4.497 -0.5574 -0.3120  0.3635
 5297SOL    HW227525   2.925   2.577   4.572 -2.2719 -2.4781  0.3403
 5298SOL     OW27526   4.241   3.428   7.271  0.3186  0.0994 -0.4536
 5298SOL    HW127527   4.226   3.396   7.182  2.9213  0.6483 -1.0837
 5298SOL    HW227528   4.288   3.355   7.312  0.9688  0.1424 -1.1275
 5299SOL     OW27529   1.984   2.834   6.011 -0.3887 -0.7573 -0.4047
 5299SOL    HW127530   2.015   2.815   6.099 -0.2876 -0.2175 -0.3289
 5299SOL    HW227531   1.897   2.793   6.019 -1.2601  1.7050  2.4964
 5300SOL     OW27532   3.887   3.184   6.559  0.0270  0.0865  0.0835
 5300SOL    HW127533   3.846   3.267   6.537  0.2384  0.3274  0.5869
 5300SOL    HW227534   3.829   3.111   6.535 -0.4967  0.0471  1.4709
 5301SOL     OW27535   3.176   1.591   8.215  0.7609  0.0381  0.5279
 5301SOL    HW127536   3.118   1.658   8.179  3.2257  2.1997  0.4989
 5301SOL    HW227537   3.112   1.535   8.258 -0.4894  0.9247 -0.1854
 5302SOL     OW27538   3.268   2.911   2.328  0.0556 -0.0568  0.4031
 5302SOL    HW127539   3.191   2.854   2.326  0.7890 -1.0233 -0.3142
 5302SOL    HW227540   3.342   2.851   2.336  0.3491  0.1102 -0.9133
 5303SOL     OW27541   0.008   4.668   1.817  0.5449 -0.3004 -0.2317
 5303SOL    HW127542   4.699   4.737   1.858 -0.2891 -1.8583  1.3235
 5303SOL    HW227543   4.681   4.641   1.758  0.1324  0.3935 -0.0583
 5304SOL     OW27544   3.012   1.239   0.248 -0.4692  0.5231  0.0726
 5304SOL    HW127545   2.937   1.180   0.240 -1.0221  1.0241  1.5012
 5304SOL    HW227546   3.025   1.268   0.158 -2.0542  0.3188 -0.2255
 5305SOL     OW27547   4.426   3.493  16.618 -0.0636  0.2834 -0.2492
 5305SOL    HW127548   4.408   3.433  16.546 -0.5110  1.4775 -1.1408
 5305SOL    HW227549   4.431   3.571  16.562  0.7602  1.4086  1.3654
 5306SOL     OW27550   3.452   0.210  10.992  0.6626  0.1084 -0.5005
 5306SOL    HW127551   3.439   0.258  10.910 -1.7365 -1.0720 -0.8060
 5306SOL    HW227552   3.361   0.209  11.019  1.1699 -1.4719  1.1453
 5307SOL     OW27553   2.584   3.670  17.023 -0.0630 -0.5150 -0.8123
 5307SOL    HW127554   2.637   3.707  16.952  0.8662 -0.5451 -0.1218
 5307SOL    HW227555   2.646   3.641  17.089 -1.0229  0.5896  0.5615
 5308SOL     OW27556   4.710   1.583   3.683 -0.1511  0.0132  0.3098
 5308SOL    HW127557   4.671   1.663   3.648 -1.1177 -1.1529 -1.2924
 5308SOL    HW227558   4.686   1.516   3.619 -2.5861 -2.4785  3.8314
 5309SOL     OW27559   4.502   3.058   5.345  0.1891  0.3342 -0.1278
 5309SOL    HW127560   4.518   3.144   5.385  0.0923  0.9193 -1.3540
 5309SOL    HW227561   4.469   3.085   5.260 -1.1496 -1.3534 -0.1222
 5310SOL     OW27562   3.248   3.949   8.561  0.0267 -0.5423  0.0705
 5310SOL    HW127563   3.195   4.025   8.538  1.5682  0.3325 -0.5979
 5310SOL    HW227564   3.334   3.986   8.577 -0.5799  0.1048  1.8584
 5311SOL     OW27565   3.566   0.740   8.093  0.0853 -0.1887  0.1639
 5311SOL    HW127566   3.503   0.751   8.164 -0.5170 -0.8743 -0.2565
 5311SOL    HW227567   3.515   0.680   8.039  0.4324  1.1696 -1.6649
 5312SOL     OW27568   4.020   4.638   2.449  0.1239  0.2645  0.3843
 5312SOL    HW127569   4.049   4.607   2.535  0.0678 -1.8222 -0.3408
 5312SOL    HW227570   4.102   4.632   2.399 -0.0235  0.0176  0.1723
 5313SOL     OW27571   0.574   1.333  10.827 -0.6413  0.0910 -0.3409
 5313SOL    HW127572   0.527   1.386  10.893 -0.7509  1.5411 -1.5870
 5313SOL    HW227573   0.569   1.395  10.754 -0.0600  1.0974  0.4688
 5314SOL     OW27574   4.590   3.852   7.734  0.2860 -0.1071 -0.0395
 5314SOL    HW127575   4.512   3.899   7.766  0.4313  0.3512 -0.3541
 5314SOL    HW227576   4.575   3.763   7.765  0.1475 -0.3296 -0.7614
 5315SOL     OW27577   2.933   1.746   6.354  0.2565  0.2898  0.4719
 5315SOL    HW127578   3.012   1.768   6.306 -1.8525  1.9434 -2.2073
 5315SOL    HW227579   2.898   1.835   6.360 -1.9086 -0.4459 -1.3488
 5316SOL     OW27580   4.256   4.505   4.231 -0.6468  0.1958  0.1466
 5316SOL    HW127581   4.187   4.500   4.297  0.6933  2.4134  1.6922
 5316SOL    HW227582   4.200   4.534   4.159  0.0283  0.2023 -0.3803
 5317SOL     OW27583   4.161   1.846  11.759  0.2254 -0.2312  0.1114
 5317SOL    HW127584   4.145   1.835  11.853 -1.7999 -0.1943 -0.2207
 5317SOL    HW227585   4.116   1.929  11.746 -0.7904 -0.8262 -0.1652
 5318SOL     OW27586   3.956   3.152   1.081  0.6768 -0.4443 -0.0242
 5318SOL    HW127587   3.945   3.224   1.143  1.3651 -0.0009 -0.4233
 5318SOL    HW227588   3.981   3.186   0.995 -1.1954 -0.5579 -0.6263
 5319SOL     OW27589   3.794   3.550  11.564 -0.2179  0.0948 -0.0519
 5319SOL    HW127590   3.792   3.595  11.480  1.3512 -1.0219 -0.7004
 5319SOL    HW227591   3.744   3.608  11.621 -1.3808  2.7482 -3.7565
 5320SOL     OW27592   2.390   0.578   0.749  0.2140  0.1483  0.3304
 5320SOL    HW127593   2.342   0.573   0.667 -0.1913  0.4854  0.5464
 5320SOL    HW227594   2.334   0.627   0.809 -0.2721 -1.1693  0.9484
 5321SOL     OW27595   4.622   1.224   8.563 -0.3258  0.1669 -0.2411
 5321SOL    HW127596   4.685   1.295   8.573  0.8323 -0.6638 -1.7463
 5321SOL    HW227597   4.588   1.237   8.474  0.2203  3.2112 -0.0191
 5322SOL     OW27598   4.199   3.603   5.550  0.0036  0.1258 -0.1104
 5322SOL    HW127599   4.149   3.668   5.500 -0.3466  0.3406  0.5218
 5322SOL    HW227600   4.265   3.664   5.584 -1.0846  2.1590 -1.6215
 5323SOL     OW27601   2.743   3.833   3.785 -0.1845 -0.2869  0.2513
 5323SOL    HW127602   2.717   3.769   3.851  2.6636 -2.5773 -0.8182
 5323SOL    HW227603   2.795   3.777   3.728  1.6669 -1.0002  2.6519
 5324SOL     OW27604   3.946   0.955   5.436 -0.3020 -0.2547  0.6835
 5324SOL    HW127605   3.915   0.952   5.527 -0.2544  0.6274  0.7339
 5324SOL    HW227606   4.000   1.034   5.439 -0.1715 -0.2782 -1.4221
 5325SOL     OW27607   4.634   0.250   5.734 -0.5242 -0.2141  0.6521
 5325SOL    HW127608   4.619   0.225   5.825  1.2349 -0.0856  0.9737
 5325SOL    HW227609   4.686   0.329   5.744 -1.5348  0.6934 -1.2878
 5326SOL     OW27610   3.513   2.425   8.913  0.0172 -0.2298 -0.4803
 5326SOL    HW127611   3.518   2.519   8.893 -2.2002 -0.0001  0.0520
 5326SOL    HW227612   3.421   2.419   8.939 -0.0496 -2.8406 -1.3232
 5327SOL     OW27613   0.837   0.140  16.556 -0.0755 -0.6936 -0.1689
 5327SOL    HW127614   0.825   0.166  16.465  2.3669  1.7720  0.2084
 5327SOL    HW227615   0.893   0.210  16.590  0.8810 -1.6111  0.1090
 5328SOL     OW27616   3.543   2.791   6.303  0.6569 -0.1560 -0.5239
 5328SOL    HW127617   3.571   2.804   6.212 -0.8811  0.1155 -0.9568
 5328SOL    HW227618   3.526   2.697   6.311 -3.6411  0.5750 -0.8914
 5329SOL     OW27619   3.874   0.236   9.076 -0.7821 -0.3472  0.1227
 5329SOL    HW127620   3.849   0.328   9.086  1.0018 -0.0051  1.4343
 5329SOL    HW227621   3.808   0.191   9.128 -0.9861  0.0647  0.2201
 5330SOL     OW27622   4.209   2.550   1.553 -0.5814 -0.3939  0.0607
 5330SOL    HW127623   4.262   2.480   1.592 -1.1694 -0.6263  0.4345
 5330SOL    HW227624   4.216   2.531   1.459 -1.0711  0.4125 -0.1385
 5331SOL     OW27625   2.051   0.029   9.249  0.0590  0.0501 -0.5673
 5331SOL    HW127626   2.104   0.033   9.169 -0.3680  1.9303 -0.7625
 5331SOL    HW227627   1.968   0.046   9.204 -0.2643  2.4572  0.8860
 5332SOL     OW27628   2.900   3.994   5.658  0.3240  0.1598  0.2720
 5332SOL    HW127629   2.976   4.001   5.716  0.9040  0.3099 -0.5184
 5332SOL    HW227630   2.829   3.994   5.723 -0.1096 -0.5982 -0.2020
 5333SOL     OW27631   1.405   1.546   6.624  0.0608  0.0009 -0.3408
 5333SOL    HW127632   1.376   1.636   6.610 -1.7654 -0.4045  0.8086
 5333SOL    HW227633   1.357   1.519   6.702  1.8435  1.2275  1.1822
 5334SOL     OW27634   1.692   2.221   3.334 -0.2949  0.2940 -0.2257
 5334SOL    HW127635   1.701   2.219   3.238  0.5162 -2.2063 -0.0943
 5334SOL    HW227636   1.780   2.236   3.368 -0.9024  1.5181  0.8238
 5335SOL     OW27637   3.452   0.525  11.190  0.5731 -0.1330 -0.0375
 5335SOL    HW127638   3.442   0.525  11.095  0.1120 -2.2372  0.0160
 5335SOL    HW227639   3.372   0.479  11.213 -0.1824  1.2331  0.0459
 5336SOL     OW27640   1.660   0.620   2.067  0.6530  0.3138  0.4029
 5336SOL    HW127641   1.640   0.674   1.991 -1.1677 -0.8471  0.0467
 5336SOL    HW227642   1.634   0.530   2.049  3.1566 -0.4178  0.4329
 5337SOL     OW27643   0.348   4.724   1.537  0.1171 -0.3918  0.2736
 5337SOL    HW127644   0.425   0.036   1.547 -0.5152  0.6717 -0.6713
 5337SOL    HW227645   0.332   4.692   1.625  0.8030 -0.6575  0.2957
 5338SOL     OW27646   4.636   3.939  12.812 -0.1889  0.0459  0.4112
 5338SOL    HW127647   4.674   3.857  12.783 -1.3951 -0.0928 -0.7459
 5338SOL    HW227648   4.700   3.977  12.873 -0.1612  0.2818  0.2359
 5339SOL     OW27649   3.580   3.508   5.772  0.1579  0.3394 -0.1809
 5339SOL    HW127650   3.499   3.540   5.733  0.2465 -0.1015 -0.7239
 5339SOL    HW227651   3.530   3.458   5.837  1.2840 -0.5466  0.0007
 5340SOL     OW27652   4.438   3.289   6.194  0.0286  0.1142  0.3686
 5340SOL    HW127653   4.460   3.252   6.108 -1.7139 -1.5801  0.6551
 5340SOL    HW227654   4.343   3.291   6.187  0.0809 -1.7859 -0.9265
 5341SOL     OW27655   1.957   0.748   5.777  0.5302  0.6117 -0.0303
 5341SOL    HW127656   1.905   0.806   5.832 -1.8863 -0.8582 -0.7677
 5341SOL    HW227657   2.044   0.788   5.787  1.1879 -0.2371 -2.2826
 5342SOL     OW27658   2.040   4.716   8.602 -0.4988  0.0983  0.2214
 5342SOL    HW127659   1.978   4.693   8.671 -0.8801  2.1392  0.5759
 5342SOL    HW227660   2.107   4.648   8.606  0.3355  0.9108  0.1364
 5343SOL     OW27661   1.791   2.367  15.271  0.2001 -0.4047 -0.2678
 5343SOL    HW127662   1.816   2.409  15.189 -0.0537 -2.0975 -1.2171
 5343SOL    HW227663   1.837   2.416  15.339  0.1517  0.2957 -0.7466
 5344SOL     OW27664   2.882   3.005   4.185  0.0252 -0.3049 -0.1514
 5344SOL    HW127665   2.802   2.972   4.225  0.3852  0.3744  1.1001
 5344SOL    HW227666   2.903   3.073   4.248 -1.3506  0.2276 -0.2849
 5345SOL     OW27667   4.585   2.034   4.358  0.1627 -0.1389 -0.1832
 5345SOL    HW127668   4.621   2.121   4.378  1.6280 -1.3199  2.4347
 5345SOL    HW227669   4.537   2.057   4.279  2.5668 -1.0280 -1.9120
 5346SOL     OW27670   1.024   4.048  11.731 -0.6528 -0.1565 -0.7803
 5346SOL    HW127671   0.967   4.124  11.724 -1.2668 -0.5796 -0.3853
 5346SOL    HW227672   0.957   3.981  11.721 -1.6934  0.9287 -1.0136
 5347SOL     OW27673   2.653   2.845   8.415  0.3891  0.4137  0.0057
 5347SOL    HW127674   2.565   2.826   8.383 -1.1312  1.1348  3.6908
 5347SOL    HW227675   2.639   2.836   8.509 -0.9000  0.5344 -0.1772
 5348SOL     OW27676   0.763   0.110  11.119  0.4641  0.1661 -0.0593
 5348SOL    HW127677   0.692   0.073  11.066 -0.5676  0.5307  1.0564
 5348SOL    HW227678   0.759   0.057  11.198  0.7809  0.4892  0.1713
 5349SOL     OW27679   1.004   2.960   5.254 -0.7542 -0.4676 -0.4699
 5349SOL    HW127680   0.977   2.976   5.164 -0.6505  1.1800 -0.2073
 5349SOL    HW227681   1.066   2.887   5.242  1.6195  1.6577 -1.1724
 5350SOL     OW27682   4.244   3.552   9.425 -0.4335  0.7119  0.2523
 5350SOL    HW127683   4.248   3.457   9.413  1.4456  0.7287  0.6490
 5350SOL    HW227684   4.150   3.566   9.427 -0.5082  0.1502  0.6448
 5351SOL     OW27685   1.977   2.830   2.938 -0.0886 -0.4592  0.0465
 5351SOL    HW127686   1.962   2.787   3.022 -0.2400 -0.0398  0.2353
 5351SOL    HW227687   1.891   2.863   2.912 -0.9082 -1.8800  0.9476
 5352SOL     OW27688   0.035   2.311   9.037  0.3090  0.5093  0.2969
 5352SOL    HW127689   4.684   2.300   9.027  0.1827  1.4972  0.3275
 5352SOL    HW227690   0.046   2.330   8.944 -1.8811 -2.3788 -0.5457
 5353SOL     OW27691   1.794   2.429   2.748 -0.0135  0.1455  0.2969
 5353SOL    HW127692   1.831   2.404   2.664  1.8029 -0.0241  1.1374
 5353SOL    HW227693   1.797   2.347   2.798  2.2367 -1.1302 -1.9769
 5354SOL     OW27694   2.744   2.785   3.315 -0.5206 -0.1874  0.2933
 5354SOL    HW127695   2.784   2.809   3.399  1.3060  0.8990 -0.8949
 5354SOL    HW227696   2.672   2.730   3.346  0.2611 -1.9633 -1.0375
 5355SOL     OW27697   1.113   1.993   8.709 -0.9548 -0.0684 -0.0282
 5355SOL    HW127698   1.106   2.076   8.662  0.6769  0.9178  1.4777
 5355SOL    HW227699   1.021   1.982   8.733 -0.8661 -0.8459 -0.0433
 5356SOL     OW27700   4.512   4.681   5.811  0.9370 -0.1722 -0.0732
 5356SOL    HW127701   4.580   4.693   5.745  1.6168  1.8257  0.9815
 5356SOL    HW227702   4.502   4.586   5.819  0.8447 -0.1591 -0.0372
 5357SOL     OW27703   2.054   4.476   3.979  0.1993 -0.2931  0.0523
 5357SOL    HW127704   2.013   4.562   3.990  0.4798  0.1268 -2.1034
 5357SOL    HW227705   2.052   4.433   4.064 -0.6814  0.6652  0.5294
 5358SOL     OW27706   1.600   2.271  12.223  0.6526 -0.2125 -0.2188
 5358SOL    HW127707   1.602   2.349  12.279 -0.8905 -1.1263  1.1237
 5358SOL    HW227708   1.621   2.306  12.137 -0.7694  0.0478 -0.4601
 5359SOL     OW27709   1.456   2.712   5.930 -0.1954 -0.0819  0.0314
 5359SOL    HW127710   1.421   2.800   5.918 -0.1640 -0.2814 -1.6028
 5359SOL    HW227711   1.445   2.678   6.019 -0.6814 -1.4957 -0.5695
 5360SOL     OW27712   2.832   3.067   7.477  0.5688  0.0437  0.1266
 5360SOL    HW127713   2.779   2.993   7.506  0.0798  0.6644  0.7940
 5360SOL    HW227714   2.892   3.025   7.415 -2.1041 -2.1013 -0.9707
 5361SOL     OW27715   1.759   2.478   7.590 -0.8828  0.9352  0.2014
 5361SOL    HW127716   1.749   2.486   7.495 -1.0618  1.6246  0.2784
 5361SOL    HW227717   1.851   2.456   7.601 -1.5273 -0.7623  2.2305
 5362SOL     OW27718   0.665   1.502   8.237 -0.5197 -0.1914  0.0206
 5362SOL    HW127719   0.654   1.446   8.160  0.3885  1.9477 -1.6624
 5362SOL    HW227720   0.574   1.525   8.257 -0.2006  1.0596  0.0527
 5363SOL     OW27721   0.937   2.989   3.312 -0.1184  0.2484  0.1943
 5363SOL    HW127722   1.011   3.043   3.286 -0.2332  0.3784  0.1364
 5363SOL    HW227723   0.880   3.060   3.344 -0.2020  1.4783 -2.6836
 5364SOL     OW27724   3.427   3.393  11.235 -0.9672  0.1703  0.6070
 5364SOL    HW127725   3.453   3.306  11.267  0.0847  0.1932 -0.1763
 5364SOL    HW227726   3.381   3.362  11.158  2.8932 -0.5385 -1.4126
 5365SOL     OW27727   2.564   2.508   8.505 -0.2765  0.0748 -0.0619
 5365SOL    HW127728   2.570   2.576   8.572  1.8701 -0.0896 -0.0919
 5365SOL    HW227729   2.468   2.501   8.505 -0.3248  0.8111 -0.2652
 5366SOL     OW27730   3.672   3.125   9.697 -0.0188  0.1941  1.1331
 5366SOL    HW127731   3.613   3.185   9.652 -2.0358 -2.4897  0.1751
 5366SOL    HW227732   3.659   3.042   9.650  1.3335  0.8690 -0.4284
 5367SOL     OW27733   1.650   1.237   2.420  0.3731  0.9801 -0.3513
 5367SOL    HW127734   1.640   1.285   2.339 -0.5508 -1.5483 -1.7443
 5367SOL    HW227735   1.558   1.243   2.445 -0.0491 -0.8851 -1.4540
 5368SOL     OW27736   3.394   2.517   7.235  0.1762  0.0853 -0.0446
 5368SOL    HW127737   3.338   2.554   7.303  0.0937 -1.1470  0.5501
 5368SOL    HW227738   3.464   2.583   7.236  2.1777 -2.0584 -0.0484
 5369SOL     OW27739   4.169   0.885   9.191  0.2906 -0.6056 -0.3175
 5369SOL    HW127740   4.129   0.845   9.114 -0.2536 -0.6032 -0.0379
 5369SOL    HW227741   4.100   0.857   9.252 -2.2699  0.6079 -2.6645
 5370SOL     OW27742   0.023   3.337   6.214 -0.1688 -0.3554  0.8229
 5370SOL    HW127743   4.695   3.324   6.152  2.3732 -0.8627 -2.0136
 5370SOL    HW227744   0.035   3.256   6.263  0.8626 -0.2452  0.7617
 5371SOL     OW27745   2.552   3.501  12.149 -0.1413  0.3031  0.5711
 5371SOL    HW127746   2.510   3.568  12.203 -0.9950  2.1049 -2.3385
 5371SOL    HW227747   2.595   3.459  12.223  0.0955  0.3055  0.4343
 5372SOL     OW27748   2.966   2.084   8.855 -0.4085 -0.1923 -0.3639
 5372SOL    HW127749   2.881   2.042   8.836 -0.9184  0.4380  0.5447
 5372SOL    HW227750   2.978   2.121   8.767  1.0523  1.2605  0.4747
 5373SOL     OW27751   4.467   1.135  14.815  0.0441 -0.2815  0.3239
 5373SOL    HW127752   4.405   1.066  14.789 -2.4098  1.5878  1.3208
 5373SOL    HW227753   4.538   1.116  14.753 -2.2590 -1.3787 -1.9963
 5374SOL     OW27754   2.082   2.253   6.716  0.1129  0.3303  0.7682
 5374SOL    HW127755   2.131   2.302   6.650  0.6008 -1.8224 -0.4815
 5374SOL    HW227756   2.148   2.198   6.756 -2.1077 -2.7885  0.1323
 5375SOL     OW27757   4.116   3.438  12.176 -0.3045 -0.6794 -0.9112
 5375SOL    HW127758   4.196   3.431  12.228 -1.6320  3.3991  1.6603
 5375SOL    HW227759   4.075   3.521  12.199 -0.0226 -0.2845 -1.8450
 5376SOL     OW27760   2.953   2.593   3.268 -0.4740  0.0709  0.0174
 5376SOL    HW127761   2.880   2.655   3.266  0.3132  0.9052 -2.0723
 5376SOL    HW227762   2.905   2.511   3.263  2.0284 -1.6297  3.5597
 5377SOL     OW27763   2.618   2.946   6.829 -0.0808  0.8072  0.7966
 5377SOL    HW127764   2.596   2.871   6.774  1.8527  1.9271 -1.5154
 5377SOL    HW227765   2.536   2.963   6.874 -0.5915  0.3579  0.0366
 5378SOL     OW27766   1.783   2.051   9.394  0.4452  0.0165  0.0129
 5378SOL    HW127767   1.708   2.027   9.447  1.0165 -0.5480  0.5683
 5378SOL    HW227768   1.740   2.087   9.316 -0.2899  1.6828  1.2079
 5379SOL     OW27769   0.746   3.766   7.475 -0.2613 -0.1229  0.2639
 5379SOL    HW127770   0.814   3.833   7.472 -0.5446  0.2267  1.8072
 5379SOL    HW227771   0.737   3.761   7.380  0.8416 -1.2560  0.2119
 5380SOL     OW27772   0.123   1.467   3.050 -0.8168 -0.5633  0.2805
 5380SOL    HW127773   0.137   1.468   2.955 -2.0575 -0.2122  0.0985
 5380SOL    HW227774   0.032   1.497   3.057 -1.1533 -1.1207 -1.6790
 5381SOL     OW27775   2.452   0.844   3.244 -0.2219  0.5272  0.5704
 5381SOL    HW127776   2.490   0.923   3.205  2.3949 -0.7608  0.5194
 5381SOL    HW227777   2.362   0.862   3.269 -0.3085  0.8523  0.0257
 5382SOL     OW27778   4.324   3.580   2.744  0.2828  0.4067 -0.2825
 5382SOL    HW127779   4.369   3.605   2.825 -1.1478 -1.4002  1.0705
 5382SOL    HW227780   4.311   3.670   2.716  0.2820  0.3691 -0.4026
 5383SOL     OW27781   4.598   1.044   9.566  0.2712  0.1007 -0.2241
 5383SOL    HW127782   4.529   1.107   9.547 -0.2665 -0.6170 -0.6152
 5383SOL    HW227783   4.580   0.972   9.506 -0.5040 -0.3401  0.5406
 5384SOL     OW27784   1.926   2.803   3.528 -0.0639 -0.3978 -0.7354
 5384SOL    HW127785   1.955   2.831   3.615  1.9558 -1.3994 -1.0899
 5384SOL    HW227786   1.907   2.711   3.544  1.0880 -0.5355 -0.1473
 5385SOL     OW27787   2.599   3.810   2.536 -0.2546  0.5365  0.3804
 5385SOL    HW127788   2.552   3.757   2.600 -3.3027  1.5374 -1.0090
 5385SOL    HW227789   2.663   3.848   2.596 -1.0981 -1.0995  2.3296
 5386SOL     OW27790   2.660   2.323   7.937 -0.0574 -0.0129  0.1844
 5386SOL    HW127791   2.604   2.247   7.922 -0.8315  0.2809  1.5843
 5386SOL    HW227792   2.604   2.392   7.903  1.4083  1.4637  0.7368
 5387SOL     OW27793   1.883   3.407   2.195  0.3531  0.5311  0.0151
 5387SOL    HW127794   1.801   3.365   2.168  1.0459  0.8515 -2.5931
 5387SOL    HW227795   1.839   3.452   2.267 -0.1767 -1.4700  0.9409
 5388SOL     OW27796   1.079   2.712   6.887  0.2138  0.2680 -0.0258
 5388SOL    HW127797   1.155   2.767   6.910  2.1480 -3.0173  1.5020
 5388SOL    HW227798   1.061   2.669   6.971  0.4481  1.8818  0.8627
 5389SOL     OW27799   1.217   1.933   3.740  0.4231  0.0165  0.6047
 5389SOL    HW127800   1.253   1.943   3.828  0.5713  2.6567  0.2281
 5389SOL    HW227801   1.177   1.847   3.755  1.1301 -0.7238 -1.7176
 5390SOL     OW27802   4.276   0.111   4.254  0.4651 -0.9058 -0.0992
 5390SOL    HW127803   4.195   0.112   4.204  0.8340  2.5324 -0.6830
 5390SOL    HW227804   4.338   0.154   4.194 -0.8534 -0.4611 -1.1357
 5391SOL     OW27805   3.723   3.999   0.963  0.1456 -0.0487 -0.2103
 5391SOL    HW127806   3.736   3.982   1.056 -1.0008  1.6556  0.2605
 5391SOL    HW227807   3.806   4.035   0.932  0.2726  0.6234  0.9166
 5392SOL     OW27808   4.146   2.808  15.363 -0.5929 -0.5618 -0.2058
 5392SOL    HW127809   4.187   2.893  15.374 -2.3741  0.2080  0.5531
 5392SOL    HW227810   4.153   2.782  15.271 -3.5280 -0.0131 -0.5815
 5393SOL     OW27811   0.848   0.143   8.739  0.5815 -0.1048 -0.0042
 5393SOL    HW127812   0.847   0.049   8.758 -0.2535 -0.1310 -0.1802
 5393SOL    HW227813   0.941   0.159   8.756  0.3465 -0.3572  1.4846
 5394SOL     OW27814   1.276   3.220   9.963  0.0128  0.5354  0.6498
 5394SOL    HW127815   1.319   3.287  10.017  0.0689 -0.6636  2.1065
 5394SOL    HW227816   1.305   3.140  10.007 -3.4572 -0.0434  1.8193
 5395SOL     OW27817   0.680   0.798   6.035  0.2527  0.0471  0.3699
 5395SOL    HW127818   0.696   0.746   5.957  1.1926 -0.2990  0.7903
 5395SOL    HW227819   0.737   0.765   6.104 -0.0650 -0.5685  0.3454
 5396SOL     OW27820   2.380   2.554   4.269  0.4568  0.1032 -0.6044
 5396SOL    HW127821   2.391   2.591   4.356 -0.0912  1.7524 -1.2516
 5396SOL    HW227822   2.288   2.525   4.270  0.5481 -0.1933 -0.7160
 5397SOL     OW27823   3.134   1.966   8.029  0.1934  0.3275  0.2095
 5397SOL    HW127824   3.071   1.996   7.964 -1.3957 -3.2929  0.0695
 5397SOL    HW227825   3.144   2.044   8.084  2.2232 -0.7681  1.3891
 5398SOL     OW27826   1.507   1.710   9.007 -0.2201 -0.1317 -0.4135
 5398SOL    HW127827   1.422   1.666   9.021  0.3910 -1.3272 -0.4578
 5398SOL    HW227828   1.574   1.650   9.039  0.3607  0.8630  0.2578
 5399SOL     OW27829   0.414   0.199   7.674  0.4325  0.2954  0.7570
 5399SOL    HW127830   0.438   0.274   7.619 -1.3426 -0.5074 -1.0975
 5399SOL    HW227831   0.503   0.171   7.695  0.2357 -0.8085  0.0911
 5400SOL     OW27832   0.900   4.191   6.747  0.9417 -0.0790 -0.2219
 5400SOL    HW127833   0.849   4.138   6.809 -0.9456 -1.4165 -2.9473
 5400SOL    HW227834   0.944   4.126   6.692  2.1728 -0.5725  1.3101
 5401SOL     OW27835   0.866   1.109   5.447  0.4986  0.4419  0.2469
 5401SOL    HW127836   0.935   1.175   5.447  0.5631  0.3712  1.4217
 5401SOL    HW227837   0.831   1.117   5.535  1.0908  3.9420  0.1739
 5402SOL     OW27838   0.390   2.207  13.247  0.4558  0.2152 -0.2083
 5402SOL    HW127839   0.427   2.136  13.195  1.1738  1.5627 -1.5188
 5402SOL    HW227840   0.466   2.219  13.305  0.8353 -3.2141  0.0158
 5403SOL     OW27841   3.816   0.661   6.396 -0.0852 -0.1663  0.1443
 5403SOL    HW127842   3.816   0.586   6.455 -1.3278  0.6020  1.1310
 5403SOL    HW227843   3.908   0.682   6.381 -0.2611 -0.1626 -0.9525
 5404SOL     OW27844   2.607   2.911   9.475  0.5952  0.2445 -0.1401
 5404SOL    HW127845   2.702   2.903   9.468  0.5955 -0.1961  0.3411
 5404SOL    HW227846   2.589   2.961   9.395 -0.5760  0.2908  0.1533
 5405SOL     OW27847   4.615   3.809   1.170  0.0184 -0.2143 -0.0507
 5405SOL    HW127848   4.679   3.743   1.197  1.7092  0.5896 -2.0983
 5405SOL    HW227849   4.666   3.885   1.143  1.1264 -0.4759  1.3542
 5406SOL     OW27850   2.316   4.474   9.589 -0.7454 -0.3404 -0.1922
 5406SOL    HW127851   2.346   4.522   9.666 -0.3020 -1.0131  0.0507
 5406SOL    HW227852   2.251   4.420   9.635  1.1488 -2.6740 -0.2889
 5407SOL     OW27853   2.837   4.674  15.315 -0.0805  0.0657 -0.3157
 5407SOL    HW127854   2.840   0.006  15.257  3.5697  0.1216 -0.1072
 5407SOL    HW227855   2.929   4.663  15.341  0.1140 -1.0691 -1.4742
 5408SOL     OW27856   0.219   2.507   6.667  0.0228 -0.5054  0.4194
 5408SOL    HW127857   0.259   2.476   6.586 -0.4964 -0.2559  0.0611
 5408SOL    HW227858   0.276   2.463   6.729 -0.8269  0.1081  1.6404
 5409SOL     OW27859   3.192   1.156   9.828 -0.4784  0.5389 -0.6552
 5409SOL    HW127860   3.212   1.146   9.921  0.3598  0.3478 -0.8581
 5409SOL    HW227861   3.251   1.086   9.801 -0.9295 -0.9226  2.0932
 5410SOL     OW27862   0.257   0.708   6.306 -0.5321  0.4893  0.5039
 5410SOL    HW127863   0.322   0.742   6.368  0.6564  1.3780 -1.1871
 5410SOL    HW227864   0.250   0.617   6.333 -2.2304  0.6097  0.4805
 5411SOL     OW27865   1.956   3.955   8.943 -0.5749  0.0512  0.3071
 5411SOL    HW127866   1.940   3.862   8.926  2.8951 -0.4115 -0.5353
 5411SOL    HW227867   1.913   3.962   9.028 -0.2184  5.4516  0.0059
 5412SOL     OW27868   0.569   1.693   8.991  0.2873 -0.1299 -0.3550
 5412SOL    HW127869   0.508   1.622   9.008  0.3474 -0.1200 -0.0961
 5412SOL    HW227870   0.508   1.738   8.933 -0.2862 -0.1552  0.2389
 5413SOL     OW27871   0.711   0.115   4.562  0.2353 -0.1234 -0.2141
 5413SOL    HW127872   0.623   0.078   4.554  0.0689  0.8219 -2.8452
 5413SOL    HW227873   0.690   0.208   4.574  1.7576  0.2231 -0.2609
 5414SOL     OW27874   1.429   0.707  10.147  0.4993  0.1128 -0.1362
 5414SOL    HW127875   1.337   0.710  10.121 -0.1351  1.1063  2.2505
 5414SOL    HW227876   1.415   0.713  10.241 -1.6577  0.1159 -0.4494
 5415SOL     OW27877   2.326   3.414   8.808  0.4154  0.4803  0.1798
 5415SOL    HW127878   2.280   3.333   8.829  0.5970  0.4694  0.5420
 5415SOL    HW227879   2.255   3.477   8.821 -0.5744 -0.5444 -0.3613
 5416SOL     OW27880   4.300   3.980   8.950 -0.2511  0.4003  0.5503
 5416SOL    HW127881   4.319   3.889   8.927 -2.4594 -0.5135  2.3288
 5416SOL    HW227882   4.389   4.013   8.955 -0.9030  2.1794  0.6013
 5417SOL     OW27883   2.655   1.957   3.902  0.0807  0.8677 -0.0168
 5417SOL    HW127884   2.689   1.875   3.937 -0.7590  1.3993  2.0054
 5417SOL    HW227885   2.629   2.006   3.980  0.1430  0.8445  0.0179
 5418SOL     OW27886   2.456   2.188   7.026  0.1359  0.0387  0.2024
 5418SOL    HW127887   2.435   2.280   7.041 -0.5023 -0.0131 -0.3682
 5418SOL    HW227888   2.501   2.204   6.944 -0.2172 -0.2309 -0.0426
 5419SOL     OW27889   0.219   2.649   2.751 -0.5633  0.1586 -0.4769
 5419SOL    HW127890   0.151   2.596   2.709 -0.0964 -0.5451 -0.3316
 5419SOL    HW227891   0.198   2.734   2.712 -2.1963 -0.1504 -0.2961
 5420SOL     OW27892   2.385   2.342  13.739  0.0197  0.0411  0.3452
 5420SOL    HW127893   2.309   2.398  13.752 -0.2178 -0.5185  1.3988
 5420SOL    HW227894   2.426   2.357  13.824  1.0190  3.4903 -0.7520
 5421SOL     OW27895   2.937   0.794   8.793  0.4202 -0.4236 -0.7842
 5421SOL    HW127896   2.877   0.821   8.724 -0.0263 -2.1246 -1.0745
 5421SOL    HW227897   2.878   0.750   8.853  0.9660  0.5433  0.4414
 5422SOL     OW27898   3.579   3.209   6.030 -0.0673 -0.4024  0.5857
 5422SOL    HW127899   3.531   3.157   6.094 -0.0153 -0.0667  0.8964
 5422SOL    HW227900   3.502   3.253   5.994  0.7705  0.2945 -0.3546
 5423SOL     OW27901   1.830   1.439  13.786 -0.1201 -0.1849  0.3304
 5423SOL    HW127902   1.813   1.365  13.844  1.0474  1.4208  2.6773
 5423SOL    HW227903   1.769   1.505  13.819  0.3161  1.1195 -1.4753
 5424SOL     OW27904   1.838   1.168  13.126  0.2117 -0.1485 -1.2064
 5424SOL    HW127905   1.907   1.234  13.122 -0.9097  1.0172 -1.3531
 5424SOL    HW227906   1.795   1.189  13.043 -1.3235  1.4354 -0.0197
 5425SOL     OW27907   0.938   1.145   2.130 -0.2479 -0.1910 -0.7645
 5425SOL    HW127908   0.966   1.236   2.121  0.1133 -0.3003 -0.7257
 5425SOL    HW227909   0.884   1.145   2.209  1.2246 -0.1543  0.2413
 5426SOL     OW27910   0.055   3.444   1.980 -0.1092 -0.5247 -0.1910
 5426SOL    HW127911   0.022   3.511   2.039  1.1705  0.1884 -0.2870
 5426SOL    HW227912   4.742   3.367   1.981 -0.2518 -0.4199 -0.2582
 5427SOL     OW27913   3.693   0.371   7.271 -0.2988  0.2322  0.4406
 5427SOL    HW127914   3.627   0.432   7.304 -0.5667 -0.0922  0.5111
 5427SOL    HW227915   3.733   0.365   7.358  0.6878  0.1896 -0.0231
 5428SOL     OW27916   2.693   4.205   4.199  0.7571  0.2972  0.6901
 5428SOL    HW127917   2.619   4.260   4.171  1.7014  0.4864 -1.4081
 5428SOL    HW227918   2.687   4.132   4.138 -0.4724  0.1591  0.9733
 5429SOL     OW27919   2.367   2.367   2.172 -0.1053  0.7668 -0.2582
 5429SOL    HW127920   2.323   2.282   2.166  2.2503 -0.6073  2.0981
 5429SOL    HW227921   2.358   2.384   2.266  0.1285 -0.4750 -0.0185
 5430SOL     OW27922   2.454   1.374   7.305 -0.0897 -0.4606  0.2712
 5430SOL    HW127923   2.426   1.335   7.222 -2.0767 -2.9187  2.1109
 5430SOL    HW227924   2.430   1.306   7.368  1.0583 -0.9823  0.1446
 5431SOL     OW27925   0.497   0.940   7.538  0.7766 -0.1115 -0.3429
 5431SOL    HW127926   0.534   0.930   7.625  0.2012 -0.9350 -0.1902
 5431SOL    HW227927   0.551   1.002   7.489  1.3629 -0.5677 -0.2831
 5432SOL     OW27928   3.443   4.270   7.686  0.3569  0.2874 -0.4484
 5432SOL    HW127929   3.431   4.263   7.781 -0.7801  1.9936 -0.4665
 5432SOL    HW227930   3.393   4.194   7.655  0.2534  0.6137 -1.0800
 5433SOL     OW27931   4.603   3.876   8.148  0.2651 -0.0364 -0.3405
 5433SOL    HW127932   4.560   3.807   8.097  1.7591 -1.4066  0.2256
 5433SOL    HW227933   4.697   3.869   8.129  0.5303  1.3259  0.5007
 5434SOL     OW27934   3.146   2.028   5.185 -0.2964  0.1218  0.3660
 5434SOL    HW127935   3.171   1.937   5.173 -0.4774 -0.1459  1.9925
 5434SOL    HW227936   3.087   2.020   5.259 -1.0357  0.8771 -0.1463
 5435SOL     OW27937   0.058   2.926   5.664 -0.2387 -0.7675 -0.4210
 5435SOL    HW127938   4.720   2.881   5.640 -1.1575  0.1728  0.9107
 5435SOL    HW227939   0.034   3.018   5.673 -0.9407 -1.0763  0.9467
 5436SOL     OW27940   1.457   0.013   6.829  0.6321 -0.7181  0.7477
 5436SOL    HW127941   1.406   0.090   6.854 -1.6229 -2.7698  2.3048
 5436SOL    HW227942   1.544   0.044   6.856  0.5607 -1.1384  1.4446
 5437SOL     OW27943   0.366   3.721  12.800 -0.0019  0.3070  0.3329
 5437SOL    HW127944   0.349   3.782  12.871 -0.6059  0.7772 -0.2248
 5437SOL    HW227945   0.279   3.695  12.768  0.4091 -1.4512  0.6408
 5438SOL     OW27946   2.020   2.879   9.323 -0.1057  0.0417  0.1624
 5438SOL    HW127947   1.972   2.852   9.402 -0.9724 -1.3070 -0.8137
 5438SOL    HW227948   2.090   2.928   9.365  2.7169 -1.7185 -2.4820
 5439SOL     OW27949   1.573   3.764   7.394  0.0342  0.3621 -0.1659
 5439SOL    HW127950   1.598   3.854   7.413  0.4518 -0.6000  3.7321
 5439SOL    HW227951   1.523   3.768   7.312 -0.8639  1.6086  0.4508
 5440SOL     OW27952   3.541   3.811   1.178  0.3657  0.1528  0.5158
 5440SOL    HW127953   3.597   3.734   1.172 -0.4590 -0.3184 -1.0713
 5440SOL    HW227954   3.608   3.871   1.210 -0.2724  0.1304  1.9176
 5441SOL     OW27955   3.733   2.693   0.578  0.0175  0.1198  1.0194
 5441SOL    HW127956   3.756   2.779   0.544 -1.2582 -0.4682 -1.3958
 5441SOL    HW227957   3.794   2.684   0.651  1.8362  2.5331 -0.2043
 5442SOL     OW27958   3.221   4.062   6.202 -0.2653 -0.0638 -0.2130
 5442SOL    HW127959   3.309   4.085   6.173 -1.1371 -0.7093 -3.3666
 5442SOL    HW227960   3.236   4.038   6.294 -1.4571  1.7569  0.4515
 5443SOL     OW27961   1.190   4.393   0.707  0.2148 -0.0647 -0.2515
 5443SOL    HW127962   1.271   4.351   0.676 -0.0978 -0.5972 -0.3542
 5443SOL    HW227963   1.212   4.475   0.664  1.1709 -0.1328  0.1166
 5444SOL     OW27964   1.972   0.597   5.021 -0.5597 -0.2428  0.4431
 5444SOL    HW127965   1.970   0.629   4.931  0.5645 -1.2385  0.0638
 5444SOL    HW227966   2.030   0.521   5.015  1.3314  1.1423  1.0609
 5445SOL     OW27967   4.023   0.446  15.112  0.0795  0.1891 -0.0675
 5445SOL    HW127968   3.949   0.419  15.166 -0.9504 -0.2587 -1.7273
 5445SOL    HW227969   4.083   0.375  15.133 -1.7946 -1.9984 -2.1321
 5446SOL     OW27970   1.462   1.304  10.659  0.1042 -0.7277 -0.0336
 5446SOL    HW127971   1.396   1.330  10.723  1.0867  1.5579  0.0568
 5446SOL    HW227972   1.510   1.243  10.715  0.0833 -0.7690 -0.0609
 5447SOL     OW27973   4.013   3.719   9.546  0.0510  0.0031 -0.4001
 5447SOL    HW127974   3.954   3.665   9.599 -0.2490  0.4215 -0.3074
 5447SOL    HW227975   4.037   3.787   9.609 -2.0491 -1.4111  1.9346
 5448SOL     OW27976   1.106   2.215   7.651 -0.6162  0.0198  0.2662
 5448SOL    HW127977   1.174   2.201   7.717 -2.2620 -2.5294  1.4219
 5448SOL    HW227978   1.124   2.307   7.633  0.6378  0.1697  2.3991
 5449SOL     OW27979   0.088   1.016  15.664 -0.4848  0.0977  0.1411
 5449SOL    HW127980   0.081   0.996  15.570  0.4991 -0.1900  0.1275
 5449SOL    HW227981   0.025   1.087  15.673 -0.5874  0.1933 -1.3037
 5450SOL     OW27982   0.657   2.546   3.709 -0.2834  0.0462 -0.0476
 5450SOL    HW127983   0.720   2.522   3.642  1.4902  0.5112  1.4538
 5450SOL    HW227984   0.665   2.469   3.765 -0.0924 -1.4752 -2.1539
 5451SOL     OW27985   2.508   1.902   0.662 -0.4744 -0.0890  0.2971
 5451SOL    HW127986   2.556   1.952   0.596  2.0316 -1.2140  1.2757
 5451SOL    HW227987   2.428   1.953   0.648 -0.2214  0.1579 -0.2472
 5452SOL     OW27988   2.793   1.381   1.904 -0.6476  0.2464 -0.1807
 5452SOL    HW127989   2.888   1.389   1.911 -0.8266  0.5449  2.0579
 5452SOL    HW227990   2.784   1.295   1.863 -1.6167  0.3101 -0.1156
 5453SOL     OW27991   0.022   2.158   1.077 -0.0725 -0.2640  0.3898
 5453SOL    HW127992   0.080   2.089   1.047 -0.0147  0.7305 -1.7530
 5453SOL    HW227993   4.720   2.124   1.155 -1.4347  0.3436 -0.1304
 5454SOL     OW27994   0.837   4.269   0.911 -0.6742 -0.0492 -0.3202
 5454SOL    HW127995   0.807   4.179   0.899  1.4529 -1.0459  1.8764
 5454SOL    HW227996   0.824   4.290   1.003  3.3393 -1.7873  0.6594
 5455SOL     OW27997   4.413   1.644   7.833 -0.0040 -0.3666  0.1069
 5455SOL    HW127998   4.416   1.665   7.927 -0.4386 -0.4783  0.1489
 5455SOL    HW227999   4.407   1.549   7.847  0.7558 -0.7667 -2.4582
 5456SOL     OW28000   3.683   0.528   2.812 -0.1485  0.3168 -0.1955
 5456SOL    HW128001   3.710   0.462   2.876 -0.8681  0.9701  0.7698
 5456SOL    HW228002   3.657   0.600   2.869  0.0281 -0.0327  0.3216
 5457SOL     OW28003   4.272   1.655   7.328  0.4243  0.3229 -0.2328
 5457SOL    HW128004   4.202   1.593   7.305  0.2188  0.1456  0.8803
 5457SOL    HW228005   4.333   1.636   7.257  0.3434 -0.2509 -0.1496
 5458SOL     OW28006   1.527   0.012  17.226  0.2922  0.3151  0.7885
 5458SOL    HW128007   1.614   0.036  17.260  0.7191 -1.2027  0.7424
 5458SOL    HW228008   1.467   0.073  17.269  0.7912  1.5120 -0.2034
 5459SOL     OW28009   1.536   2.927   5.341 -0.0775  0.2387  0.0525
 5459SOL    HW128010   1.450   2.958   5.314 -0.1579  0.5667  0.7105
 5459SOL    HW228011   1.527   2.840   5.379  0.8364  0.9030  1.7557
 5460SOL     OW28012   2.363   1.332   4.462  0.2468 -0.1817  0.4778
 5460SOL    HW128013   2.365   1.413   4.411 -1.9640  1.2908  2.6825
 5460SOL    HW228014   2.368   1.261   4.399  1.1101 -0.4364  0.8297
 5461SOL     OW28015   1.779   1.283   4.157 -0.5483  0.1579 -0.8527
 5461SOL    HW128016   1.801   1.306   4.247  1.2297  0.2085 -1.2997
 5461SOL    HW228017   1.737   1.366   4.136 -0.8018  0.4975  1.0100
 5462SOL     OW28018   3.852   4.259  11.087  0.6326  0.5698 -0.2231
 5462SOL    HW128019   3.920   4.213  11.038 -0.2773  0.7817 -1.7012
 5462SOL    HW228020   3.806   4.193  11.139 -0.1104  0.6734 -0.7336
 5463SOL     OW28021   4.053   2.427   0.561 -0.7504 -0.1434  0.3500
 5463SOL    HW128022   4.010   2.377   0.492  2.4302 -2.4286  0.0217
 5463SOL    HW228023   4.131   2.464   0.518 -0.0085  0.2192  1.9867
 5464SOL     OW28024   0.641   0.831  10.938 -0.0075  0.4447 -0.8885
 5464SOL    HW128025   0.654   0.898  11.006  1.7112  0.5865 -1.3401
 5464SOL    HW228026   0.735   0.822  10.919 -0.1162  1.5333 -1.9600
 5465SOL     OW28027   0.989   0.478   6.182 -0.5629 -0.6165 -0.1998
 5465SOL    HW128028   1.040   0.417   6.236 -1.4639 -1.1091  0.1076
 5465SOL    HW228029   1.053   0.533   6.138  0.6121 -2.7209 -1.0957
 5466SOL     OW28030   4.285   0.290   9.181 -0.2216 -0.0753  0.7528
 5466SOL    HW128031   4.322   0.377   9.165 -1.4090  0.2944  0.0182
 5466SOL    HW228032   4.352   0.259   9.242 -1.0486 -3.0313  0.1194
 5467SOL     OW28033   4.306   0.086  14.620  0.2151 -0.1256 -0.2155
 5467SOL    HW128034   4.394   0.121  14.638 -0.1973  0.8236 -0.0808
 5467SOL    HW228035   4.331   0.006  14.575 -1.8279 -0.0743 -1.4092
 5468SOL     OW28036   3.173   1.537   9.224 -0.3124 -0.6427 -0.5033
 5468SOL    HW128037   3.106   1.595   9.261 -1.0584 -0.1907 -2.5724
 5468SOL    HW228038   3.245   1.595   9.247  1.4813 -2.9995 -0.2617
 5469SOL     OW28039   1.758   2.334   8.963 -0.0738  0.1563 -0.1013
 5469SOL    HW128040   1.805   2.272   8.908 -0.1187  2.6527 -2.9249
 5469SOL    HW228041   1.830   2.394   8.983  1.5898 -1.1578 -2.1765
 5470SOL     OW28042   1.066   1.480   5.350  0.3899 -0.2228  0.1559
 5470SOL    HW128043   1.055   1.435   5.266 -0.9093  0.4913 -0.0447
 5470SOL    HW228044   1.043   1.567   5.320  3.3243  0.1919 -0.8421
 5471SOL     OW28045   1.258   2.075  17.580  0.1128 -0.4678  0.4754
 5471SOL    HW128046   1.319   2.115  17.642  2.7316 -2.6312 -0.7246
 5471SOL    HW228047   1.252   1.987  17.617  1.3125 -0.4259  0.7603
 5472SOL     OW28048   2.486   4.366   8.706 -0.3616  0.6823 -0.0974
 5472SOL    HW128049   2.415   4.385   8.767  0.4051  0.9788  0.6965
 5472SOL    HW228050   2.512   4.453   8.677 -1.7334  0.6612 -1.4255
 5473SOL     OW28051   2.549   1.446   2.334 -0.2697  0.6552 -0.0124
 5473SOL    HW128052   2.602   1.463   2.256  0.5920 -0.5743  0.3158
 5473SOL    HW228053   2.515   1.358   2.320  1.3103  0.2216 -1.0103
 5474SOL     OW28054   3.377   3.973   0.678  0.2147 -0.0955  0.9124
 5474SOL    HW128055   3.329   4.033   0.736  0.8957  0.2261  1.1384
 5474SOL    HW228056   3.386   3.902   0.741 -0.6117 -1.2169 -0.2278
 5475SOL     OW28057   1.150   4.467   8.538 -0.4232  1.2906  0.2221
 5475SOL    HW128058   1.220   4.525   8.508 -0.3957  0.7494 -0.7710
 5475SOL    HW228059   1.181   4.448   8.627 -1.4882 -0.1059  0.3025
 5476SOL     OW28060   3.622   2.549  14.508 -0.2863 -0.4255  0.3051
 5476SOL    HW128061   3.536   2.510  14.526 -0.4160 -0.4359 -0.3383
 5476SOL    HW228062   3.603   2.611  14.438 -2.4357 -1.0997  0.2801
 5477SOL     OW28063   3.784   3.195  14.312  0.2215 -0.3474 -0.4897
 5477SOL    HW128064   3.837   3.242  14.376  0.6736 -1.7061  0.1327
 5477SOL    HW228065   3.770   3.259  14.242  0.0048  1.1053  0.8715
 5478SOL     OW28066   3.504   0.178   5.422 -0.1514  0.0819  0.1837
 5478SOL    HW128067   3.594   0.210   5.428 -0.0344 -0.3316  0.6605
 5478SOL    HW228068   3.493   0.125   5.501 -0.0071 -1.3401 -0.7452
 5479SOL     OW28069   4.687   2.869   1.125 -0.2136 -0.1873  0.0659
 5479SOL    HW128070   0.021   2.813   1.135 -0.3478 -0.1964  1.0553
 5479SOL    HW228071   4.636   2.820   1.061 -1.4245 -0.2625  1.0939
 5480SOL     OW28072   1.823   1.631  15.560  0.1553 -0.2560  0.2316
 5480SOL    HW128073   1.906   1.592  15.533  0.4886  0.4273  0.2597
 5480SOL    HW228074   1.801   1.552  15.609  1.6526 -0.0554  1.2463
 5481SOL     OW28075   2.717   2.777   7.945 -0.2433 -0.0992 -0.0040
 5481SOL    HW128076   2.784   2.734   7.999 -0.6060  2.7485  2.6936
 5481SOL    HW228077   2.744   2.869   7.945 -3.2173  0.7603  0.3863
 5482SOL     OW28078   2.622   1.396  14.770  0.4481 -0.0470 -0.0280
 5482SOL    HW128079   2.718   1.399  14.772  0.3636 -0.0116  3.6051
 5482SOL    HW228080   2.601   1.384  14.678  1.8839 -1.0752 -0.2286
 5483SOL     OW28081   1.475   0.209   4.308  0.0559 -0.5192 -0.3107
 5483SOL    HW128082   1.423   0.129   4.301  1.2714 -1.1740 -1.6878
 5483SOL    HW228083   1.415   0.279   4.280 -1.3912 -1.3962  0.5941
 5484SOL     OW28084   4.604   2.116   1.595 -0.8096 -0.2175  0.0236
 5484SOL    HW128085   4.529   2.070   1.558 -0.1872 -0.3263 -1.1240
 5484SOL    HW228086   4.590   2.099   1.688 -1.3835 -1.1099 -0.2298
 5485SOL     OW28087   0.249   0.202  15.781  0.1975 -0.3799 -0.3666
 5485SOL    HW128088   0.278   0.237  15.697 -2.9653  2.4462 -0.2913
 5485SOL    HW228089   0.183   0.271  15.790 -0.3186 -0.4052 -3.8061
 5486SOL     OW28090   0.651   2.590   0.808  0.2674 -0.6883 -0.6018
 5486SOL    HW128091   0.731   2.566   0.855  0.9285 -0.3068 -1.5177
 5486SOL    HW228092   0.595   2.515   0.827 -1.5639  0.6841 -0.5962
 5487SOL     OW28093   1.168   2.388   3.367 -0.0502  0.0404  0.5242
 5487SOL    HW128094   1.142   2.406   3.458 -0.6684 -0.6170  0.4854
 5487SOL    HW228095   1.261   2.369   3.381  0.4538  1.1259 -1.4997
 5488SOL     OW28096   2.560   1.542   7.536 -0.0841 -0.1573  0.2135
 5488SOL    HW128097   2.525   1.498   7.459  2.4105  0.8324 -1.4981
 5488SOL    HW228098   2.575   1.464   7.590 -0.7840 -1.0790 -0.9147
 5489SOL     OW28099   0.287   0.474   7.832 -0.3031 -0.2674 -0.9511
 5489SOL    HW128100   0.334   0.431   7.904 -0.9396  1.8609  0.7132
 5489SOL    HW228101   0.335   0.554   7.811 -0.5693 -0.0956 -0.9050
 5490SOL     OW28102   2.603   2.858   5.099 -0.1546 -0.8062  0.2334
 5490SOL    HW128103   2.576   2.927   5.160 -0.1895  0.9194 -1.7164
 5490SOL    HW228104   2.601   2.905   5.015 -1.6368 -1.0228  0.1363
 5491SOL     OW28105   0.122   2.247  13.242 -0.2558 -0.0624  0.6007
 5491SOL    HW128106   0.092   2.165  13.282 -0.3465 -0.5610 -0.5033
 5491SOL    HW228107   0.216   2.239  13.258 -0.1267  0.3366  0.0501
 5492SOL     OW28108   0.167   0.173   3.443 -0.0467  0.2597 -0.4255
 5492SOL    HW128109   0.091   0.193   3.388  0.0105  3.7188  0.7079
 5492SOL    HW228110   0.201   0.098   3.395 -1.5223 -1.5628  1.3737
 5493SOL     OW28111   1.025   1.423   3.731  0.7257 -0.4266 -0.3869
 5493SOL    HW128112   1.051   1.365   3.803  2.3858  0.3538 -0.3587
 5493SOL    HW228113   0.933   1.445   3.746  1.5691  2.0665  1.2352
 5494SOL     OW28114   0.490   1.588  14.142 -0.4960 -0.7608  0.0712
 5494SOL    HW128115   0.444   1.568  14.061  1.9783  1.6654 -1.9297
 5494SOL    HW228116   0.515   1.680  14.134  0.1608 -0.8505  1.0870
 5495SOL     OW28117   3.808   3.737   6.410  0.2097  0.0298 -0.4110
 5495SOL    HW128118   3.791   3.733   6.316  0.2601 -0.4340 -0.4045
 5495SOL    HW228119   3.727   3.780   6.435 -0.3038 -0.8999 -0.4641
 5496SOL     OW28120   0.020   4.607   3.349  0.9139  0.0040 -0.4096
 5496SOL    HW128121   0.097   4.662   3.335 -0.1865  2.0690  1.5148
 5496SOL    HW228122   4.734   4.585   3.261 -2.5757 -1.4895  1.1552
 5497SOL     OW28123   1.160   2.792  14.559  0.1748  0.1957  0.0020
 5497SOL    HW128124   1.106   2.732  14.611  0.6266  0.0369  0.2922
 5497SOL    HW228125   1.174   2.746  14.476 -2.8394 -2.5825  1.0482
 5498SOL     OW28126   0.906   0.114   3.503  0.5161  0.0252 -0.3777
 5498SOL    HW128127   0.844   0.179   3.535 -0.9189 -1.1438 -0.7559
 5498SOL    HW228128   0.878   0.035   3.548 -1.1758  0.4369 -0.6773
 5499SOL     OW28129   0.630   3.995   0.122 -0.1541 -0.0683  0.1297
 5499SOL    HW128130   0.569   3.924   0.099  0.1456 -0.7679  1.5461
 5499SOL    HW228131   0.702   3.950   0.164  1.0017  1.1014 -0.6097
 5500SOL     OW28132   0.216   4.524  14.552  0.4884  0.0734  0.3670
 5500SOL    HW128133   0.172   4.501  14.470  2.5326  1.3878 -1.1053
 5500SOL    HW228134   0.192   4.451  14.609 -2.7982  0.9459  0.0882
 5501SOL     OW28135   0.012   3.433   0.833 -0.6994 -0.5539  0.1368
 5501SOL    HW128136   4.696   3.498   0.869 -0.1656  1.7135 -3.1697
 5501SOL    HW228137   4.729   3.356   0.884  0.9558 -1.0674  0.2227
 5502SOL     OW28138   0.398   1.072  10.998 -0.1196 -0.7958 -0.3783
 5502SOL    HW128139   0.474   1.019  11.024 -0.0276 -0.0080  0.9574
 5502SOL    HW228140   0.382   1.040  10.909 -2.8301  4.4132 -1.7011
 5503SOL     OW28141   0.240   3.880   2.331 -0.1931 -0.3089 -0.4255
 5503SOL    HW128142   0.264   3.960   2.283  1.5718 -1.2871 -1.1610
 5503SOL    HW228143   0.324   3.863   2.373  0.1167  1.1446 -0.4407
 5504SOL     OW28144   2.247   0.646   9.968  0.3281 -0.0507  0.7445
 5504SOL    HW128145   2.187   0.711  10.005 -0.5062 -1.4141  1.7686
 5504SOL    HW228146   2.313   0.631  10.036  0.6392  0.7312  0.6169
 5505SOL     OW28147   4.029   0.221   4.837 -0.2146 -0.5186 -0.4195
 5505SOL    HW128148   3.952   0.189   4.884  0.6859 -2.8116 -0.4833
 5505SOL    HW228149   4.026   0.316   4.842  0.0075 -0.4810 -1.0600
 5506SOL     OW28150   4.510   0.468   6.316  0.3056  0.3537 -0.8875
 5506SOL    HW128151   4.556   0.458   6.233 -0.2467 -2.1687 -0.8710
 5506SOL    HW228152   4.571   0.423   6.374 -0.9788  0.4265  0.5175
 5507SOL     OW28153   1.412   3.420  12.386  0.2976 -0.4108 -0.5868
 5507SOL    HW128154   1.498   3.388  12.412 -0.9063 -0.5822  3.2231
 5507SOL    HW228155   1.444   3.473  12.313  1.5900  0.3519  0.5189
 5508SOL     OW28156   2.310   0.519   4.794 -0.7244 -0.0564 -0.1617
 5508SOL    HW128157   2.386   0.556   4.840 -0.3579 -0.7874 -0.1711
 5508SOL    HW228158   2.363   0.466   4.734  0.4072  0.6998  0.1610
 5509SOL     OW28159   1.660   3.725   6.070  1.0663 -0.4550  0.1458
 5509SOL    HW128160   1.684   3.637   6.041 -2.0163 -1.2194 -0.0031
 5509SOL    HW228161   1.716   3.777   6.011  0.0101 -1.9540 -2.2021
 5510SOL     OW28162   3.178   4.573   2.633 -0.5453  0.6570 -0.0837
 5510SOL    HW128163   3.126   4.641   2.676  0.2637  1.9900 -1.2131
 5510SOL    HW228164   3.149   4.492   2.674  0.6229 -0.4195 -1.3837
 5511SOL     OW28165   0.336   3.267   0.001  0.2198 -0.6793  0.4114
 5511SOL    HW128166   0.398   3.223   0.059  1.0653 -1.5317 -1.1202
 5511SOL    HW228167   0.351   3.206  17.700  0.6737 -0.3917  0.2629
 5512SOL     OW28168   1.451   3.119   4.496 -0.4883  0.2695 -0.0658
 5512SOL    HW128169   1.366   3.078   4.512  0.0301 -0.3160  1.1797
 5512SOL    HW228170   1.497   3.036   4.482 -0.0985  0.4113  0.3771
 5513SOL     OW28171   2.189   4.425   1.580  0.1236  0.2977 -0.4753
 5513SOL    HW128172   2.217   4.515   1.599  0.0081  0.3567 -0.5855
 5513SOL    HW228173   2.135   4.409   1.658  0.7170  1.0590  0.0955
 5514SOL     OW28174   3.382   4.120   4.871  0.1615 -0.1427 -0.3908
 5514SOL    HW128175   3.350   4.198   4.826  1.5579  0.7193  0.1051
 5514SOL    HW228176   3.474   4.118   4.843 -0.5231 -0.9786 -2.6449
 5515SOL     OW28177   1.677   4.350  12.267 -0.4824 -0.5379  0.4606
 5515SOL    HW128178   1.767   4.333  12.294 -0.7002 -0.3132  1.3345
 5515SOL    HW228179   1.651   4.413  12.334  2.7228  1.0885  0.1459
 5516SOL     OW28180   0.683   2.244   2.922 -0.1818  0.0744  0.1539
 5516SOL    HW128181   0.765   2.196   2.909 -1.2467 -1.9904  1.0932
 5516SOL    HW228182   0.705   2.306   2.991  0.8681  0.2808 -0.3591
 5517SOL     OW28183   4.720   4.249   5.102 -0.3914 -0.2198 -0.4394
 5517SOL    HW128184   4.634   4.267   5.140 -0.4044 -1.0685 -0.0639
 5517SOL    HW228185   0.003   4.182   5.164  2.2703  1.0308 -0.2459
 5518SOL     OW28186   2.187   0.980  17.707  0.4340  0.4904  0.2256
 5518SOL    HW128187   2.234   0.951  17.629  2.1424  0.3933  1.2983
 5518SOL    HW228188   2.252   1.028  17.758  1.2715 -1.4747  0.9681
 5519SOL     OW28189   0.793   2.565  10.900  0.1713  0.2442  0.1336
 5519SOL    HW128190   0.723   2.597  10.843 -0.3451 -1.2441 -0.0629
 5519SOL    HW228191   0.751   2.564  10.986 -2.2018  2.6873 -1.0193
 5520SOL     OW28192   0.601   0.371   4.591  0.0455  0.5642  0.1745
 5520SOL    HW128193   0.643   0.457   4.581  0.4996  0.4552  1.0717
 5520SOL    HW228194   0.511   0.402   4.590  0.6795  2.4440  0.0436
 5521SOL     OW28195   2.940   3.611   6.810  0.3767 -0.2719  0.5631
 5521SOL    HW128196   2.922   3.606   6.904  0.5951 -0.1621  0.6108
 5521SOL    HW228197   3.018   3.559   6.793  0.4217 -0.7455  2.1488
 5522SOL     OW28198   4.470   2.081   4.099 -0.2304 -0.1247 -0.8971
 5522SOL    HW128199   4.425   2.060   4.017 -2.4327 -0.9730  0.5379
 5522SOL    HW228200   4.531   2.152   4.079 -0.1401  0.3566  1.1420
 5523SOL     OW28201   1.748   0.344   8.552  0.4547 -0.0642 -0.0164
 5523SOL    HW128202   1.682   0.301   8.608  1.8222  0.2268  1.8242
 5523SOL    HW228203   1.807   0.270   8.535  1.3288  0.6738 -0.1630
 5524SOL     OW28204   1.536   1.859   1.755  0.1760 -0.1558  0.5208
 5524SOL    HW128205   1.464   1.839   1.815  0.2533 -0.9005  0.3638
 5524SOL    HW228206   1.523   1.792   1.688 -2.3634  1.2690 -0.3593
 5525SOL     OW28207   2.876   0.098   7.224 -0.6965  0.2223 -0.5946
 5525SOL    HW128208   2.889   0.018   7.174  1.1574 -0.2722  0.6423
 5525SOL    HW228209   2.951   0.144   7.185 -1.1584  1.4846  0.0064
 5526SOL     OW28210   3.016   4.695  17.014  0.3389  0.0999  0.3399
 5526SOL    HW128211   2.920   4.694  17.006  0.3730 -1.5475  0.0635
 5526SOL    HW228212   3.036   4.728  16.927  0.6924 -0.4452  0.2098
 5527SOL     OW28213   3.304   0.914   6.321 -0.3563  0.5225  0.3183
 5527SOL    HW128214   3.354   0.916   6.402  2.2549  1.5234 -1.3163
 5527SOL    HW228215   3.231   0.975   6.330 -1.0683 -0.1913 -0.6304
 5528SOL     OW28216   4.374   4.189  10.305 -0.1542  0.2506  0.1656
 5528SOL    HW128217   4.296   4.225  10.346  1.6219 -0.8106  4.4619
 5528SOL    HW228218   4.387   4.247  10.229 -1.7645  0.2883 -0.0775
 5529SOL     OW28219   3.429   3.464   2.342  0.0228 -0.0108 -0.1948
 5529SOL    HW128220   3.494   3.533   2.355  0.7622 -0.9649  1.1874
 5529SOL    HW228221   3.482   3.386   2.330 -1.5037 -0.8832 -1.2066
 5530SOL     OW28222   0.973   0.441   5.281 -0.0850 -0.2242  0.6799
 5530SOL    HW128223   0.901   0.459   5.221  1.6147  1.9037 -0.7621
 5530SOL    HW228224   1.036   0.433   5.209 -0.4155  1.2607  0.2231
 5531SOL     OW28225   0.635   3.036   6.453 -0.1999  0.0006  0.1491
 5531SOL    HW128226   0.726   3.038   6.482 -0.0068  1.6239 -0.5233
 5531SOL    HW228227   0.610   2.944   6.458  0.0745 -0.0421  0.6456
 5532SOL     OW28228   4.180   0.247   7.450  0.2270  0.3945  0.1610
 5532SOL    HW128229   4.120   0.306   7.404 -2.3630 -0.0546  2.9706
 5532SOL    HW228230   4.126   0.168   7.442 -0.9428  1.4591 -2.5452
 5533SOL     OW28231   1.423   1.702   6.951  0.6720 -0.4484 -0.5542
 5533SOL    HW128232   1.478   1.694   6.874 -0.7095 -1.2470 -1.4680
 5533SOL    HW228233   1.425   1.614   6.990  0.4344  0.5181  1.6288
 5534SOL     OW28234   4.233   1.005   6.817  0.5585  0.2310 -0.8865
 5534SOL    HW128235   4.189   0.999   6.902 -2.4560  2.3069 -2.2967
 5534SOL    HW228236   4.275   0.919   6.817  0.4438  0.1710  0.7096
 5535SOL     OW28237   2.751   3.762   4.546  0.4414  0.0135 -0.3159
 5535SOL    HW128238   2.774   3.842   4.500 -1.4607 -0.5079 -2.2128
 5535SOL    HW228239   2.674   3.737   4.495  0.2502  0.0378 -0.0425
 5536SOL     OW28240   4.098   3.186   8.785  0.2149  0.2851 -0.2896
 5536SOL    HW128241   4.111   3.136   8.704 -0.1244  0.5092 -0.4870
 5536SOL    HW228242   4.135   3.125   8.848 -1.6238  0.8898  1.3840
 5537SOL     OW28243   2.342   2.561  10.610 -0.5275 -0.6685 -0.4103
 5537SOL    HW128244   2.315   2.486  10.663  0.8705 -0.7060  0.2503
 5537SOL    HW228245   2.429   2.581  10.646 -1.2086 -0.9233  1.4094
 5538SOL     OW28246   4.017   3.652  14.869 -0.1676 -0.0254  0.1095
 5538SOL    HW128247   4.076   3.709  14.818 -0.5492 -1.5210 -2.0364
 5538SOL    HW228248   4.007   3.576  14.812 -0.1603 -0.0952  0.2028
 5539SOL     OW28249   3.348   3.503   1.604  0.2149  0.8398 -0.1269
 5539SOL    HW128250   3.388   3.478   1.687 -0.9318 -2.2801 -0.5304
 5539SOL    HW228251   3.421   3.501   1.542  0.4608  1.0610  0.1567
 5540SOL     OW28252   3.768   2.102  13.166 -0.6232 -0.4033  0.0149
 5540SOL    HW128253   3.786   2.165  13.096  2.2456 -0.2689  0.8872
 5540SOL    HW228254   3.677   2.118  13.192  0.0066 -1.6117  2.9755
 5541SOL     OW28255   3.135   2.426  12.156 -0.3632  0.1277  0.0241
 5541SOL    HW128256   3.161   2.464  12.240  0.3901  0.1214 -0.2003
 5541SOL    HW228257   3.167   2.495  12.098 -0.0018  0.8254  1.0666
 5542SOL     OW28258   1.587   1.467   2.622 -0.4183  0.7381 -0.3649
 5542SOL    HW128259   1.557   1.478   2.712 -1.2152  3.3083 -0.9204
 5542SOL    HW228260   1.511   1.441   2.571 -1.0759  1.5144  0.2096
 5543SOL     OW28261   3.526   1.522   4.506  0.1094 -0.2117  0.1435
 5543SOL    HW128262   3.597   1.534   4.569 -1.4552  0.5644  1.7677
 5543SOL    HW228263   3.460   1.464   4.545  0.1595 -1.1183 -1.0980
 5544SOL     OW28264   0.851   1.961   8.774 -0.2441  0.1959 -0.2839
 5544SOL    HW128265   0.833   1.898   8.844 -1.0815  0.4086 -0.3056
 5544SOL    HW228266   0.811   2.039   8.813  0.0156  0.7234 -1.0703
 5545SOL     OW28267   2.055   1.591   8.375 -0.0438 -0.3233  0.2069
 5545SOL    HW128268   2.147   1.570   8.393 -0.4412 -0.8901  1.5681
 5545SOL    HW228269   2.038   1.665   8.434 -1.1744 -0.2775 -0.1888
 5546SOL     OW28270   3.165   1.132  16.926  0.1894  0.0120 -0.0512
 5546SOL    HW128271   3.241   1.172  16.884  0.5338  1.1325  1.6481
 5546SOL    HW228272   3.166   1.161  17.017 -0.1492  0.4641 -0.1915
 5547SOL     OW28273   0.068   1.200   9.306  0.1724  0.0515 -0.4877
 5547SOL    HW128274   0.077   1.117   9.259  1.5367 -1.1304  1.8891
 5547SOL    HW228275   4.729   1.236   9.273  0.8107  2.1272  0.2284
 5548SOL     OW28276   3.415   1.660   7.669 -0.1496 -0.0473 -0.6562
 5548SOL    HW128277   3.477   1.723   7.706  0.4261 -1.5548  0.9472
 5548SOL    HW228278   3.332   1.707   7.677  0.3919  0.5268  1.5985
 5549SOL     OW28279   4.071   2.276   9.679 -0.1811  0.2695  0.4286
 5549SOL    HW128280   4.086   2.366   9.651 -1.2948  0.8547  1.6998
 5549SOL    HW228281   4.079   2.285   9.774  1.4101  2.4112  0.0957
 5550SOL     OW28282   2.591   4.676   2.017  0.3642 -0.2852 -0.2376
 5550SOL    HW128283   2.578   4.620   2.094  1.6878  2.1601  1.7549
 5550SOL    HW228284   2.502   4.711   2.008  0.7416 -0.1046 -3.2070
 5551SOL     OW28285   2.421   3.318   9.427  0.0037 -0.5042  0.4571
 5551SOL    HW128286   2.472   3.256   9.478  0.1454  1.0457  2.2352
 5551SOL    HW228287   2.476   3.387   9.390  1.8942 -1.9670  0.5890
 5552SOL     OW28288   2.334   0.310  14.178  0.1795  0.2783 -0.0282
 5552SOL    HW128289   2.247   0.269  14.176  0.0231  0.6109  0.0089
 5552SOL    HW228290   2.368   0.259  14.251  0.0843  0.1990 -0.0386
 5553SOL     OW28291   1.234   0.505   6.071  0.6587 -0.0444  0.8178
 5553SOL    HW128292   1.211   0.573   6.008 -2.8793 -1.8820  0.1167
 5553SOL    HW228293   1.217   0.426   6.019 -4.5183  2.0867 -0.7321
 5554SOL     OW28294   3.423   1.432   4.074  0.3494 -0.1520  0.1037
 5554SOL    HW128295   3.357   1.396   4.133  1.8654 -2.7471  0.2313
 5554SOL    HW228296   3.377   1.510   4.044 -0.2626 -0.2208  0.8649
 5555SOL     OW28297   4.416   2.696   0.672 -0.0071 -0.2577  0.4267
 5555SOL    HW128298   4.453   2.608   0.680  0.9267  0.0041 -1.0425
 5555SOL    HW228299   4.335   2.675   0.626 -0.6658  0.0299  1.4425
 5556SOL     OW28300   1.125   0.903   1.419  0.2520  0.2954 -0.0866
 5556SOL    HW128301   1.093   0.813   1.427  3.1339 -0.8497 -1.5182
 5556SOL    HW228302   1.183   0.909   1.495  0.3038  0.2742 -0.1243
 5557SOL     OW28303   2.583   0.692   7.991  0.4825 -0.0481  0.5344
 5557SOL    HW128304   2.577   0.784   7.963  0.9092 -0.4655 -0.9271
 5557SOL    HW228305   2.665   0.696   8.042  2.6669 -0.5642 -2.9640
 5558SOL     OW28306   4.195   1.130   6.180  0.6614 -0.5540 -0.2835
 5558SOL    HW128307   4.278   1.084   6.166  1.3291 -0.3129  2.8030
 5558SOL    HW228308   4.173   1.166   6.095  2.0294  0.1954 -0.3142
 5559SOL     OW28309   0.008   4.612   9.916 -0.2484 -0.7622 -0.2157
 5559SOL    HW128310   4.731   4.519   9.929  2.1437 -1.2565  0.1621
 5559SOL    HW228311   4.716   4.652   9.995  1.4250  2.0585 -0.8942
 5560SOL     OW28312   2.518   2.794   4.642 -0.2413 -0.6449 -0.2713
 5560SOL    HW128313   2.577   2.774   4.570  1.1023  0.8219  0.4122
 5560SOL    HW228314   2.503   2.707   4.677 -0.3316  0.0178  1.3224
 5561SOL     OW28315   4.171   2.729   9.352 -0.2627  0.3354 -0.2813
 5561SOL    HW128316   4.199   2.645   9.316 -1.1401 -0.2995  0.5263
 5561SOL    HW228317   4.258   2.757   9.381  0.3427 -1.7269 -0.1260
 5562SOL     OW28318   2.549   3.586   9.336 -0.2975 -0.0217  0.3499
 5562SOL    HW128319   2.561   3.595   9.241  1.8483  1.6412  0.7773
 5562SOL    HW228320   2.620   3.642   9.368  0.6404 -1.5735  0.9735
 5563SOL     OW28321   2.269   2.376   1.900  0.5754  0.0580  0.0490
 5563SOL    HW128322   2.334   2.430   1.944 -1.9226  1.4503  2.0297
 5563SOL    HW228323   2.329   2.314   1.857  0.7545 -1.2929  2.2245
 5564SOL     OW28324   1.088   3.247   6.294 -0.1561 -0.2421 -0.2577
 5564SOL    HW128325   1.002   3.208   6.279 -1.1690  2.2481 -0.8346
 5564SOL    HW228326   1.096   3.281   6.206  0.9056  3.0240  1.1139
 5565SOL     OW28327   0.031   4.681   2.201 -0.4193  0.0125 -0.4723
 5565SOL    HW128328   0.008   4.591   2.224  0.4007 -0.4289 -1.4147
 5565SOL    HW228329   0.126   4.678   2.210 -0.6112 -3.7782  0.2085
 5566SOL     OW28330   3.454   2.488   6.553 -0.1125  0.4765  0.1582
 5566SOL    HW128331   3.498   2.472   6.470  1.7193  0.4835  1.1281
 5566SOL    HW228332   3.513   2.556   6.586 -0.8203  0.6296  1.1349
 5567SOL     OW28333   1.408   1.395   5.233 -0.9630  0.5290 -0.2998
 5567SOL    HW128334   1.340   1.438   5.181  0.2224  1.9115 -0.6979
 5567SOL    HW228335   1.494   1.430   5.213 -0.8865  1.9271  2.4583
 5568SOL     OW28336   1.348   2.140   3.674 -0.3937  0.1883  0.1709
 5568SOL    HW128337   1.284   2.197   3.717 -1.1513 -0.6243  0.1190
 5568SOL    HW228338   1.304   2.057   3.693 -1.1103  0.0014 -2.3801
 5569SOL     OW28339   1.639   2.010   2.174 -0.6762 -0.0059  0.5576
 5569SOL    HW128340   1.568   2.066   2.205 -1.2253 -0.4996  0.1848
 5569SOL    HW228341   1.652   1.947   2.246  0.2961  0.0831  0.4494
 5570SOL     OW28342   2.997   0.560   2.702 -0.6372  0.6007 -0.3089
 5570SOL    HW128343   2.955   0.498   2.761 -0.0145  1.0002  0.5658
 5570SOL    HW228344   2.923   0.611   2.669 -0.0417  0.5075 -1.7877
 5571SOL     OW28345   2.187   0.112   2.770 -0.3340 -0.1346 -0.1815
 5571SOL    HW128346   2.226   0.031   2.803  0.4884  0.8105  1.1362
 5571SOL    HW228347   2.107   0.126   2.821  0.0400 -2.1207  0.9461
 5572SOL     OW28348   4.666   3.423   8.730  0.5901 -0.1734  0.0061
 5572SOL    HW128349   4.571   3.410   8.732  0.5399  0.0764 -0.7566
 5572SOL    HW228350   4.673   3.518   8.737 -0.0456 -0.0642 -0.8476
 5573SOL     OW28351   4.545   2.785   3.680 -0.4621  0.0900  0.3710
 5573SOL    HW128352   4.504   2.744   3.604 -2.3288 -2.5515  2.8185
 5573SOL    HW228353   4.488   2.861   3.683 -1.5903 -0.6839 -1.5990
 5574SOL     OW28354   0.922   0.828   5.382  0.0153 -0.0371  0.2824
 5574SOL    HW128355   0.844   0.776   5.401 -0.6110  0.4930 -0.8181
 5574SOL    HW228356   0.905   0.922   5.393  3.2400  0.6761 -1.0061
 5575SOL     OW28357   4.209   1.055  15.772  0.2920 -0.0079 -0.0954
 5575SOL    HW128358   4.288   1.005  15.790  0.5632  0.0198 -1.2148
 5575SOL    HW228359   4.141   0.988  15.781 -0.1968  0.6980  1.3592
 5576SOL     OW28360   0.081   0.003  13.970  0.5186 -0.4204 -0.4532
 5576SOL    HW128361   0.053   0.090  13.941 -0.5799 -0.8504 -0.6423
 5576SOL    HW228362   0.060   4.689  13.897 -2.0901  0.4390 -0.3804
 5577SOL     OW28363   2.249   2.569   7.851 -0.6490  0.9928  0.2705
 5577SOL    HW128364   2.247   2.663   7.834 -2.1335  0.8020 -0.5991
 5577SOL    HW228365   2.325   2.530   7.807 -1.5980 -1.0203  0.4234
 5578SOL     OW28366   3.666   1.459   6.713  0.4382 -0.0151 -0.2269
 5578SOL    HW128367   3.616   1.536   6.741 -1.6071 -1.3241 -0.2215
 5578SOL    HW228368   3.647   1.400   6.786 -0.7490  1.1828  0.4133
 5579SOL     OW28369   0.310   4.340   9.504  0.4548  0.9805  0.2042
 5579SOL    HW128370   0.389   4.370   9.549 -0.5783  1.8290  1.4407
 5579SOL    HW228371   0.251   4.415   9.514 -2.0949 -0.8051 -1.2440
 5580SOL     OW28372   4.529   2.586   9.379  0.2880  0.4768 -0.3641
 5580SOL    HW128373   4.498   2.627   9.298  2.8893  1.2715 -0.9404
 5580SOL    HW228374   4.582   2.654   9.419  1.3841  1.5977 -3.7036
 5581SOL     OW28375   2.030   0.050   5.350 -0.3265  0.0152 -0.1578
 5581SOL    HW128376   2.029   0.145   5.340  1.1236  0.1113  0.6493
 5581SOL    HW228377   2.117   0.031   5.383 -0.3403  0.3826  0.0811
 5582SOL     OW28378   1.964   3.137  14.027 -0.3692  0.2564 -1.0461
 5582SOL    HW128379   1.915   3.055  14.030 -2.6577  1.6397 -0.6035
 5582SOL    HW228380   2.011   3.120  13.945  1.9634  1.1451  0.0981
 5583SOL     OW28381   1.144   0.385   0.035  0.6795  0.0708  0.1239
 5583SOL    HW128382   1.177   0.387   0.125  0.2708 -0.4713  0.2856
 5583SOL    HW228383   1.124   0.293   0.015  1.2789  0.0858 -0.5242
 5584SOL     OW28384   2.956   2.675   7.815 -0.8393 -0.1791 -0.3109
 5584SOL    HW128385   2.907   2.749   7.779  0.3221  0.3468 -0.8222
 5584SOL    HW228386   2.956   2.625   7.733 -1.8219 -0.8950  0.1380
 5585SOL     OW28387   1.754   2.003  15.140  0.0401  0.0467 -0.6316
 5585SOL    HW128388   1.788   2.037  15.058 -0.3368  3.6791  0.7270
 5585SOL    HW228389   1.833   1.963  15.177 -0.2835 -0.4849 -0.5059
 5586SOL     OW28390   0.011   2.041  13.385 -0.3328  0.4081 -0.0418
 5586SOL    HW128391   4.714   2.118  13.423  0.7292  1.3772 -0.8821
 5586SOL    HW228392   4.728   1.976  13.450 -1.1544 -0.5624 -1.3502
 5587SOL     OW28393   3.900   4.268   6.188  0.5275 -0.2410  0.3791
 5587SOL    HW128394   3.839   4.341   6.204  1.3962  0.6022 -0.1665
 5587SOL    HW228395   3.841   4.195   6.171  1.0418  0.0209 -2.5558
 5588SOL     OW28396   0.790   0.500   1.545 -0.2049 -0.4757  0.3071
 5588SOL    HW128397   0.787   0.443   1.467  1.6646 -1.5696  1.0342
 5588SOL    HW228398   0.706   0.545   1.534  0.0170  0.0786  0.9415
 5589SOL     OW28399   3.860   1.018   4.795  0.4856 -0.6173  0.2309
 5589SOL    HW128400   3.870   1.090   4.857 -1.5224 -0.3466  0.2418
 5589SOL    HW228401   3.829   1.063   4.716  0.6416 -0.5321  0.2204
 5590SOL     OW28402   4.546   0.493  10.007 -0.5326 -0.3172  0.0076
 5590SOL    HW128403   4.504   0.577   9.986  0.1478 -0.8984 -3.5508
 5590SOL    HW228404   4.473   0.434   9.990 -0.8809  0.7253 -2.1201
 5591SOL     OW28405   0.478   3.183  13.216  0.2044  0.1880 -0.2279
 5591SOL    HW128406   0.460   3.192  13.310 -0.2232 -0.0048 -0.2924
 5591SOL    HW228407   0.499   3.273  13.192 -0.3448  0.7926  1.6065
 5592SOL     OW28408   3.845   0.700   8.038 -0.2922 -0.4738 -0.0099
 5592SOL    HW128409   3.776   0.753   8.078  1.5952  0.5807  1.8230
 5592SOL    HW228410   3.821   0.613   8.070 -0.9493 -0.9190 -1.6880
 5593SOL     OW28411   4.408   0.267   4.059  0.3999 -0.5960 -0.2510
 5593SOL    HW128412   4.366   0.348   4.031 -1.7612 -1.4984  0.3747
 5593SOL    HW228413   4.489   0.308   4.090  0.4192 -1.5740  1.0050
 5594SOL     OW28414   0.559   3.943   4.297 -0.1504 -0.4720  0.8013
 5594SOL    HW128415   0.500   3.997   4.244  0.7037  0.4195  0.7565
 5594SOL    HW228416   0.533   3.970   4.384  0.5063  0.0896  0.8220
 5595SOL     OW28417   2.459   0.076   6.510  0.2675  0.5784  0.2179
 5595SOL    HW128418   2.448   4.741   6.457  0.9996  1.5524 -1.3772
 5595SOL    HW228419   2.449   0.051   6.602 -0.8734 -1.7140 -0.5128
 5596SOL     OW28420   1.819   3.831   7.241  0.2179  0.6799 -0.2709
 5596SOL    HW128421   1.859   3.873   7.317  1.7843 -1.4865  0.1001
 5596SOL    HW228422   1.741   3.800   7.287  1.3330 -1.2389  0.3075
 5597SOL     OW28423   1.447   0.600   4.424 -0.0196 -0.2034  0.2241
 5597SOL    HW128424   1.465   0.654   4.501 -0.7565 -1.1000  1.0222
 5597SOL    HW228425   1.477   0.517   4.460  3.3044  1.0355  0.2828
 5598SOL     OW28426   4.599   3.554   0.027  0.0125  0.7072  0.0563
 5598SOL    HW128427   4.553   3.505  17.730  3.4811 -0.0775 -1.7536
 5598SOL    HW228428   4.648   3.488   0.076 -0.5925  1.1493  1.2455
 5599SOL     OW28429   4.734   1.090  16.807  0.1403 -0.0182  0.9362
 5599SOL    HW128430   4.681   1.035  16.751  0.4069  0.3812  0.2947
 5599SOL    HW228431   0.012   1.167  16.755  0.8333 -1.5528 -1.0183
 5600SOL     OW28432   0.754   2.254  14.418 -0.0395 -0.2660  0.4998
 5600SOL    HW128433   0.746   2.178  14.360  0.7027 -1.0012  1.3621
 5600SOL    HW228434   0.721   2.323  14.360  2.4539 -0.0177 -0.6398
 5601SOL     OW28435   0.024   1.352   1.907  0.0678 -0.2769  0.1904
 5601SOL    HW128436   0.060   1.380   1.991  0.2366 -0.5402  0.2049
 5601SOL    HW228437   4.711   1.426   1.884 -2.1005 -2.6851 -2.1707
 5602SOL     OW28438   1.711   0.127  13.860  0.0708 -0.6492  0.0215
 5602SOL    HW128439   1.679   0.175  13.783 -0.3509 -2.6225 -1.0333
 5602SOL    HW228440   1.626   0.130  13.905 -1.1901  0.5168 -2.4245
 5603SOL     OW28441   3.991   0.081   0.757  0.7431  0.0925  0.3549
 5603SOL    HW128442   3.972   0.093   0.851 -1.8806  1.3143 -0.3198
 5603SOL    HW228443   3.956   4.736   0.746  1.6351 -0.3189  0.8810
 5604SOL     OW28444   2.741   2.148   5.681  0.0538  0.0948 -0.0609
 5604SOL    HW128445   2.760   2.165   5.773  0.7897 -1.2576  0.0450
 5604SOL    HW228446   2.768   2.056   5.671 -1.2298 -0.1790 -0.9399
 5605SOL     OW28447   2.820   2.354   3.281  0.3643  0.2624  0.2483
 5605SOL    HW128448   2.747   2.310   3.326  1.3343 -0.4257  1.1516
 5605SOL    HW228449   2.883   2.282   3.285  2.5637  2.1537 -0.4579
 5606SOL     OW28450   3.471   2.204   9.280 -0.1299 -0.2091  0.5502
 5606SOL    HW128451   3.565   2.209   9.258 -0.4635  0.8470 -0.6514
 5606SOL    HW228452   3.453   2.296   9.300  0.1764 -0.1451  0.5390
 5607SOL     OW28453   2.662   3.517   1.733  0.0963  0.3209  0.1791
 5607SOL    HW128454   2.730   3.515   1.801 -0.8645 -0.5611  1.1136
 5607SOL    HW228455   2.601   3.574   1.779 -0.4112 -0.6016  0.6487
 5608SOL     OW28456   4.530   4.373   1.945 -0.5856  0.2210 -0.0358
 5608SOL    HW128457   4.466   4.397   1.879 -0.6281 -1.1207 -0.4788
 5608SOL    HW228458   4.490   4.308   2.002 -1.9924 -0.3128 -1.6299
 5609SOL     OW28459   1.156   3.374   3.975 -0.0251 -0.7370 -0.5226
 5609SOL    HW128460   1.238   3.336   4.007 -0.1647 -1.0744 -0.5628
 5609SOL    HW228461   1.097   3.299   3.970 -2.2998  0.9106  2.4052
 5610SOL     OW28462   2.372   2.169   9.401  0.0109  0.4860  0.2741
 5610SOL    HW128463   2.388   2.132   9.314 -1.2677  2.0020 -0.5966
 5610SOL    HW228464   2.319   2.097   9.436  0.8801 -0.1426  0.2941
 5611SOL     OW28465   2.087   3.743  17.051  0.4991  0.1134 -0.0408
 5611SOL    HW128466   2.018   3.679  17.070 -0.6113  1.7893  1.5605
 5611SOL    HW228467   2.050   3.774  16.969  0.5991  2.4046  0.7753
 5612SOL     OW28468   3.322   0.917   7.142  0.0257 -0.2678 -0.1699
 5612SOL    HW128469   3.397   0.886   7.091 -1.7662 -1.8599 -1.8191
 5612SOL    HW228470   3.325   1.012   7.140  0.1203 -0.2669  0.0016
 5613SOL     OW28471   3.607   0.998   0.806 -0.3304  0.5133  0.7735
 5613SOL    HW128472   3.570   0.910   0.808  2.3740 -0.6290 -0.2655
 5613SOL    HW228473   3.689   0.971   0.766 -1.7615 -0.5901 -1.4438
 5614SOL     OW28474   1.743   0.508   7.167  0.5910 -0.8642 -0.0906
 5614SOL    HW128475   1.780   0.501   7.079  0.4455 -0.2944 -0.1978
 5614SOL    HW228476   1.669   0.448   7.158  0.1650 -0.2755 -0.4654
 5615SOL     OW28477   2.815   1.496   0.983 -0.2061  0.0733 -0.0389
 5615SOL    HW128478   2.743   1.513   1.043  0.5203  2.0193  0.2824
 5615SOL    HW228479   2.772   1.458   0.906  0.7373 -0.7853 -0.1506
 5616SOL     OW28480   2.857   2.339   2.890  0.1162  0.4482 -0.1008
 5616SOL    HW128481   2.790   2.272   2.876  0.1610 -0.0754  2.2728
 5616SOL    HW228482   2.902   2.308   2.968  1.3544 -1.2511 -1.4907
 5617SOL     OW28483   0.719   3.190   8.291 -0.5363  0.9816 -0.0558
 5617SOL    HW128484   0.765   3.150   8.364  0.6271 -1.1279 -1.9264
 5617SOL    HW228485   0.656   3.250   8.330 -0.7996 -0.8800  2.3939
 5618SOL     OW28486   0.560   3.570   9.326 -0.5199  0.0146 -0.1197
 5618SOL    HW128487   0.467   3.549   9.318 -0.1725 -0.3489 -3.1272
 5618SOL    HW228488   0.593   3.481   9.308  0.4611  0.2231  0.6200
 5619SOL     OW28489   0.072   2.840   7.583  0.6996 -0.7322  0.0540
 5619SOL    HW128490   0.164   2.854   7.560  1.0766 -1.5558  1.0684
 5619SOL    HW228491   0.023   2.923   7.586 -0.0507 -1.1449 -0.7012
 5620SOL     OW28492   3.076   2.669  10.734  0.0485  0.1356  0.3140
 5620SOL    HW128493   3.170   2.674  10.749 -0.1497  0.7561  1.2936
 5620SOL    HW228494   3.046   2.612  10.805  2.8451  0.4531  1.7494
 5621SOL     OW28495   0.634   3.824   4.710 -0.2664  0.0636 -0.3742
 5621SOL    HW128496   0.727   3.813   4.690 -0.2916 -2.3773  0.8356
 5621SOL    HW228497   0.629   3.902   4.764 -0.9000 -0.5272  0.4208
 5622SOL     OW28498   2.389   4.249   5.414 -0.7929 -0.0449 -0.5542
 5622SOL    HW128499   2.452   4.250   5.487 -1.4862  0.1672  0.0449
 5622SOL    HW228500   2.365   4.157   5.425 -0.3956 -0.0789  0.0524
 5623SOL     OW28501   0.278   0.932  15.880  0.1173  0.9988 -0.3572
 5623SOL    HW128502   0.206   0.991  15.856  1.1050  2.1960 -0.3999
 5623SOL    HW228503   0.355   0.983  15.855  0.9584 -0.3960 -0.5755
 5624SOL     OW28504   0.713   2.633   5.594  0.4335 -0.1330  0.1075
 5624SOL    HW128505   0.668   2.550   5.580 -1.2762  0.5908  1.2871
 5624SOL    HW228506   0.695   2.640   5.688 -0.4572  0.3131 -0.0967
 5625SOL     OW28507   3.236   1.652   6.339  0.1903 -0.6004  0.1178
 5625SOL    HW128508   3.212   1.604   6.260 -0.6187  1.6101 -0.9646
 5625SOL    HW228509   3.217   1.733   6.292  0.2618  0.1733  1.4078
 5626SOL     OW28510   2.603   1.128  13.459  0.9661  0.0165  0.2287
 5626SOL    HW128511   2.622   1.166  13.373 -0.6046  0.2868  0.0034
 5626SOL    HW228512   2.533   1.068  13.434  1.3399  0.1300 -1.0752
 5627SOL     OW28513   2.970   1.316   2.723 -0.4834 -0.0488  0.7113
 5627SOL    HW128514   2.956   1.403   2.687 -2.7090 -1.4506 -1.7683
 5627SOL    HW228515   2.884   1.276   2.716  0.2407 -1.2918 -1.0221
 5628SOL     OW28516   1.170   3.851  16.072  0.0037 -0.1224 -0.0231
 5628SOL    HW128517   1.226   3.929  16.074  0.4055 -0.3849 -0.9157
 5628SOL    HW228518   1.085   3.886  16.097  0.0386 -1.7636  2.3917
 5629SOL     OW28519   2.641   0.693   3.412  0.3818  0.1098 -0.9943
 5629SOL    HW128520   2.623   0.717   3.321 -1.9476  0.7428 -0.3432
 5629SOL    HW228521   2.576   0.752   3.448 -1.3373 -1.6286 -1.2271
 5630SOL     OW28522   4.020   1.914   3.547  0.1689 -0.2053 -0.2499
 5630SOL    HW128523   4.068   1.971   3.487 -0.3436 -0.1283 -0.5893
 5630SOL    HW228524   3.935   1.916   3.503  0.3426  1.1427 -0.5151
 5631SOL     OW28525   2.674   3.622   3.987  0.2752  0.2818 -0.7180
 5631SOL    HW128526   2.630   3.559   4.044  0.7040 -1.2240 -2.0575
 5631SOL    HW228527   2.754   3.574   3.968 -1.2434 -3.4334  2.3227
 5632SOL     OW28528   3.452   0.209   6.518 -0.6728 -0.5968 -0.1302
 5632SOL    HW128529   3.509   0.284   6.502 -0.5629 -0.1215  2.4040
 5632SOL    HW228530   3.414   0.214   6.606 -1.8925  0.9230 -0.7451
 5633SOL     OW28531   1.464   1.652  10.898  0.2117 -0.0770  0.0278
 5633SOL    HW128532   1.438   1.653  10.990 -1.5214 -0.5033 -0.4637
 5633SOL    HW228533   1.388   1.698  10.864  0.5611 -0.4450 -1.2441
 5634SOL     OW28534   4.471   4.095   6.390  0.2446  0.0971 -0.3780
 5634SOL    HW128535   4.382   4.059   6.383  1.2486 -2.9277  2.2863
 5634SOL    HW228536   4.527   4.021   6.370 -0.2938 -0.0398 -1.3678
 5635SOL     OW28537   3.258   1.399   7.252  0.2353 -0.2373 -0.1323
 5635SOL    HW128538   3.222   1.412   7.165  0.3454 -0.3553 -0.1954
 5635SOL    HW228539   3.203   1.443   7.317 -0.0078  0.4105 -0.7801
 5636SOL     OW28540   0.527   4.503   0.991  0.4698  0.3052 -0.1438
 5636SOL    HW128541   0.445   4.543   1.019 -0.0073 -1.1537  0.5697
 5636SOL    HW228542   0.599   4.549   1.034 -0.1585  1.3397 -0.2161
 5637SOL     OW28543   4.143   3.197   6.752  0.2824 -0.5388  0.3175
 5637SOL    HW128544   4.071   3.215   6.692  1.6068  0.6168 -0.9250
 5637SOL    HW228545   4.150   3.102   6.741 -0.5347 -0.4252 -1.1350
 5638SOL     OW28546   2.077   2.663   1.210  0.1690 -0.3109  0.0972
 5638SOL    HW128547   2.090   2.726   1.281 -0.2721 -1.1573  0.9240
 5638SOL    HW228548   2.108   2.586   1.256  1.9018  0.5715  0.3911
 5639SOL     OW28549   0.104   1.198   2.655  0.0982  0.1889 -0.4041
 5639SOL    HW128550   0.173   1.151   2.701 -3.7336 -4.5748  0.5000
 5639SOL    HW228551   0.039   1.128   2.644  0.7554 -0.7763  1.8307
 5640SOL     OW28552   3.659   4.572  16.673  0.6312  0.0540 -0.4567
 5640SOL    HW128553   3.621   4.642  16.726 -0.6314 -2.6489  2.2035
 5640SOL    HW228554   3.746   4.609  16.654  0.5248  1.3695  1.6091
 5641SOL     OW28555   1.978   3.110  13.721 -0.2633  0.0996  0.0715
 5641SOL    HW128556   1.977   3.085  13.629 -1.2601 -0.9684  0.3772
 5641SOL    HW228557   2.073   3.107  13.732 -0.2090  1.3755 -0.0287
 5642SOL     OW28558   0.022   2.409   5.919 -0.1592  0.0513  0.0368
 5642SOL    HW128559   4.739   2.406   5.827  0.7813  1.3885 -0.2752
 5642SOL    HW228560   0.048   2.498   5.940 -3.6945  0.8478  0.9907
 5643SOL     OW28561   4.429   2.566   7.921  0.2102  0.0590  0.5467
 5643SOL    HW128562   4.451   2.647   7.874 -0.4866 -0.9366 -1.5134
 5643SOL    HW228563   4.512   2.544   7.964  2.2244  2.9900 -1.8647
 5644SOL     OW28564   0.202   0.216   6.420  0.8071 -0.0426 -0.6372
 5644SOL    HW128565   0.287   0.208   6.377  0.5732 -1.6770 -0.7704
 5644SOL    HW228566   0.184   0.122   6.420 -0.1017  0.1278 -0.7186
 5645SOL     OW28567   3.607   3.451   3.326 -1.0625 -0.0857 -0.1502
 5645SOL    HW128568   3.638   3.364   3.301 -1.6064 -0.9166  2.0799
 5645SOL    HW228569   3.616   3.446   3.421 -0.3118 -1.0592 -0.2773
 5646SOL     OW28570   0.787   3.478   4.492 -0.4993 -0.2956 -0.1088
 5646SOL    HW128571   0.784   3.573   4.480  3.1631 -0.1292  0.1311
 5646SOL    HW228572   0.828   3.451   4.410 -1.5105  1.0326 -1.0518
 5647SOL     OW28573   1.074   1.611  16.126 -0.4905  0.3090  0.3676
 5647SOL    HW128574   1.001   1.586  16.069 -0.7756  0.2343  0.7672
 5647SOL    HW228575   1.058   1.700  16.158 -0.3835  0.7837 -0.8922
 5648SOL     OW28576   0.633   4.651   0.693 -0.3051  0.0553 -0.5919
 5648SOL    HW128577   0.678   4.587   0.749 -3.1782  0.3744  2.0690
 5648SOL    HW228578   0.650   4.735   0.736 -2.0002 -0.0757  0.3094
 5649SOL     OW28579   4.587   0.444   3.757 -0.2190  0.3510  0.4827
 5649SOL    HW128580   4.675   0.407   3.748 -0.9584 -1.1134 -0.6230
 5649SOL    HW228581   4.542   0.387   3.694  0.6988 -0.8946  0.9553
 5650SOL     OW28582   4.444   3.347   4.936  0.6470 -0.0408  0.6180
 5650SOL    HW128583   4.481   3.283   4.997  2.0070 -0.4377 -0.6517
 5650SOL    HW228584   4.511   3.357   4.870 -1.2769  0.0057 -1.3203
 5651SOL     OW28585   2.511   4.444  10.417 -0.5650 -0.1642 -0.2319
 5651SOL    HW128586   2.517   4.348  10.421  1.4784 -0.0217 -0.0261
 5651SOL    HW228587   2.597   4.464  10.382 -0.8858  1.2555 -0.1859
 5652SOL     OW28588   4.198   1.834   4.276 -0.5844 -0.2701 -0.2303
 5652SOL    HW128589   4.284   1.810   4.240  0.3381 -1.5633  2.7806
 5652SOL    HW228590   4.166   1.746   4.294 -1.8816 -0.2618 -2.6626
 5653SOL     OW28591   4.619   2.346   7.772  0.3283  0.1876  0.8121
 5653SOL    HW128592   4.638   2.380   7.860  1.9887 -0.8320  0.8439
 5653SOL    HW228593   4.680   2.396   7.718 -0.2229 -2.9942 -2.7046
 5654SOL     OW28594   2.588   3.833  14.727 -0.2377  0.3768  0.2187
 5654SOL    HW128595   2.605   3.910  14.673 -1.7360  0.8703  0.4249
 5654SOL    HW228596   2.665   3.810  14.778 -1.1420 -0.6372  1.1213
 5655SOL     OW28597   2.867   3.543   2.900 -0.3926  0.2289 -0.0288
 5655SOL    HW128598   2.960   3.521   2.906 -0.7975 -1.4607  0.1342
 5655SOL    HW228599   2.834   3.473   2.957  0.4887  0.9252  1.3207
 5656SOL     OW28600   4.360   2.771   1.972  0.6298 -0.6714 -0.3006
 5656SOL    HW128601   4.382   2.791   1.881  4.0733 -0.9709  0.4672
 5656SOL    HW228602   4.437   2.722   2.002  0.0697 -0.6918  1.0723
 5657SOL     OW28603   4.136   3.901   0.711  0.2293  0.1371 -0.0791
 5657SOL    HW128604   4.229   3.899   0.735 -0.3389  0.2592  2.1978
 5657SOL    HW228605   4.131   3.896   0.616  0.4667  0.1878 -0.0954
 5658SOL     OW28606   4.661   2.388   5.213 -0.2235  0.4322  0.4799
 5658SOL    HW128607   4.670   2.294   5.196 -0.4964  0.7003 -1.1316
 5658SOL    HW228608   0.008   2.414   5.231  0.0951  1.0246 -1.9903
 5659SOL     OW28609   4.123   1.805   9.660  0.1928  0.1034 -0.4778
 5659SOL    HW128610   4.040   1.774   9.623  0.9920 -1.4121 -1.0159
 5659SOL    HW228611   4.158   1.853   9.585 -0.2838  1.9297  0.4736
 5660SOL     OW28612   1.007   4.180   3.642 -0.2280 -0.0161  0.4135
 5660SOL    HW128613   0.962   4.106   3.601  2.2026 -1.7603  0.9505
 5660SOL    HW228614   0.938   4.246   3.639 -1.0400 -0.8108  2.0543
 5661SOL     OW28615   2.724   0.126   3.520 -0.0895 -0.3763 -0.0937
 5661SOL    HW128616   2.673   0.075   3.583  0.8066 -1.1574 -0.0172
 5661SOL    HW228617   2.762   0.056   3.467  1.8697  1.0114 -0.4968
 5662SOL     OW28618   3.168   1.791   7.170 -0.1860  0.1371 -0.0449
 5662SOL    HW128619   3.237   1.726   7.160 -0.3052  0.0600 -0.3710
 5662SOL    HW228620   3.215   1.869   7.198 -1.2426  0.9587 -0.5416
 5663SOL     OW28621   3.747   4.620   7.970 -0.3323  0.1229  0.4372
 5663SOL    HW128622   3.747   4.695   7.911  2.0060 -1.1590 -1.1849
 5663SOL    HW228623   3.774   4.551   7.909  1.8303  1.8008 -0.5011
 5664SOL     OW28624   1.624   3.079   3.090  0.0305  0.2898 -0.2596
 5664SOL    HW128625   1.654   3.131   3.164 -1.1787  1.1299 -0.3559
 5664SOL    HW228626   1.646   2.988   3.112  1.0311  0.1684 -1.7976
 5665SOL     OW28627   2.418   3.405   3.650  0.2434  0.2624 -0.6626
 5665SOL    HW128628   2.434   3.372   3.562  0.0324 -2.9650  0.5005
 5665SOL    HW228629   2.503   3.403   3.694  1.0200 -0.3185 -2.1848
 5666SOL     OW28630   0.417   1.652   4.348  0.3439 -0.1795  0.0586
 5666SOL    HW128631   0.373   1.628   4.267  0.7111  2.2817 -0.8741
 5666SOL    HW228632   0.505   1.683   4.324 -0.1126  0.1761 -1.1684
 5667SOL     OW28633   3.633   0.097   2.403  0.3369 -0.7583 -0.4477
 5667SOL    HW128634   3.662   0.166   2.344  1.4266 -1.2998 -0.5521
 5667SOL    HW228635   3.540   0.115   2.408  0.3227 -1.5966  2.2551
 5668SOL     OW28636   0.186   3.944   6.480  0.6072 -0.1923  0.2018
 5668SOL    HW128637   0.262   3.889   6.464  0.3063 -0.3028 -0.8468
 5668SOL    HW228638   0.158   3.968   6.392  3.4606  0.1792 -0.6059
 5669SOL     OW28639   3.490   1.525  14.231  0.3047 -0.1030  0.2368
 5669SOL    HW128640   3.485   1.456  14.165  1.4414 -1.0599  1.1642
 5669SOL    HW228641   3.581   1.516  14.259  0.3495 -0.2470  0.0391
 5670SOL     OW28642   3.137   0.669  17.257  0.3266  0.4848  0.1732
 5670SOL    HW128643   3.206   0.609  17.227  0.2556 -1.0618  3.1705
 5670SOL    HW228644   3.102   0.633  17.338  0.5719  0.8996  0.4641
 5671SOL     OW28645   3.193   4.147   9.969 -0.6850  0.0219  0.2845
 5671SOL    HW128646   3.173   4.056   9.948  1.8253 -0.3474 -0.4824
 5671SOL    HW228647   3.286   4.143   9.948 -0.4145 -0.8856  1.6581
 5672SOL     OW28648   0.422   3.642   1.743  0.4073  0.3133 -0.2422
 5672SOL    HW128649   0.415   3.736   1.761 -1.7708  0.3983 -1.5085
 5672SOL    HW228650   0.343   3.613   1.789  0.2247 -1.3236 -1.5915
 5673SOL     OW28651   3.795   2.167   8.638  0.1959  0.4065  0.3077
 5673SOL    HW128652   3.848   2.116   8.577  0.2109  1.1109 -0.2633
 5673SOL    HW228653   3.795   2.257   8.607 -0.2423  0.2049 -0.2803
 5674SOL     OW28654   2.039   1.368   5.181 -0.3674 -0.0814  0.2433
 5674SOL    HW128655   2.048   1.273   5.191  1.9778 -0.0748 -1.7162
 5674SOL    HW228656   2.026   1.400   5.271 -0.0636  3.5961 -1.0068
 5675SOL     OW28657   2.146   3.419   4.106 -0.1339  0.3575 -0.5751
 5675SOL    HW128658   2.053   3.422   4.127  0.3185  1.6286  1.2768
 5675SOL    HW228659   2.154   3.335   4.063 -0.8996  0.0458 -0.1053
 5676SOL     OW28660   4.003   0.553  11.913 -0.0702  0.6255  0.8231
 5676SOL    HW128661   4.052   0.471  11.906 -2.6814 -1.0686  2.3954
 5676SOL    HW228662   3.921   0.540  11.864 -0.6190  0.3869  1.7957
 5677SOL     OW28663   3.324   0.011   6.146  0.3099  0.0635 -0.1000
 5677SOL    HW128664   3.351   4.669   6.114 -0.4560 -1.0313  2.1270
 5677SOL    HW228665   3.364   0.011   6.234  0.1589  1.9393 -0.0172
 5678SOL     OW28666   0.663   1.864  12.266 -0.2034  0.0363 -0.3445
 5678SOL    HW128667   0.660   1.797  12.198 -1.3873  0.3462 -0.5976
 5678SOL    HW228668   0.736   1.840  12.323  1.4343  0.5331 -2.2439
 5679SOL     OW28669   1.693   0.129   6.845 -0.2170 -0.1472 -0.5359
 5679SOL    HW128670   1.772   0.139   6.898 -0.8030 -1.3460  0.5616
 5679SOL    HW228671   1.686   0.214   6.801  0.6002  0.8270  1.2317
 5680SOL     OW28672   3.832   2.068   3.716  0.7459 -0.1502 -0.0576
 5680SOL    HW128673   3.898   2.132   3.741  1.4351  0.3013 -3.0789
 5680SOL    HW228674   3.881   1.991   3.686  2.0671  0.8245 -0.3695
 5681SOL     OW28675   2.112   3.397   4.491  0.2442  0.3615 -0.9651
 5681SOL    HW128676   2.123   3.480   4.444 -1.2782  0.0915 -1.8095
 5681SOL    HW228677   2.021   3.371   4.500  0.5776 -1.0969 -1.7731
 5682SOL     OW28678   4.454   0.765  17.298 -0.3475 -0.1734  0.0382
 5682SOL    HW128679   4.409   0.841  17.336  0.9770 -0.0331  1.2971
 5682SOL    HW228680   4.441   0.790  17.207 -1.1790 -0.1718  0.1502
 5683SOL     OW28681   2.168   3.579   6.174 -0.5011 -0.0382  0.0927
 5683SOL    HW128682   2.261   3.576   6.197 -0.3940 -1.3739 -0.4990
 5683SOL    HW228683   2.119   3.524   6.235 -0.0696  1.3528  1.6826
 5684SOL     OW28684   0.515   1.226  11.216  0.2017  0.1109  0.1436
 5684SOL    HW128685   0.492   1.187  11.132 -0.0917  0.9783 -0.1837
 5684SOL    HW228686   0.461   1.305  11.220 -0.2526 -0.2840  1.4637
 5685SOL     OW28687   2.068   2.908  16.885  0.4490 -0.5247 -0.6739
 5685SOL    HW128688   2.062   2.966  16.809 -0.5909 -0.9253 -0.9069
 5685SOL    HW228689   2.149   2.939  16.925  1.3592 -1.6852 -1.6212
 5686SOL     OW28690   3.396   2.690  11.554  0.5242  0.6022 -0.2866
 5686SOL    HW128691   3.484   2.677  11.589  0.3010  1.0989  0.4657
 5686SOL    HW228692   3.389   2.785  11.542  0.2779  0.5799 -0.3181
 5687SOL     OW28693   3.312   0.599   5.488  0.2361  0.5798 -0.2242
 5687SOL    HW128694   3.392   0.549   5.504  1.6789  2.7157 -0.7512
 5687SOL    HW228695   3.232   0.559   5.524  1.1936 -0.6785  0.4928
 5688SOL     OW28696   3.686   0.761   9.751  0.1978 -0.3749  0.1758
 5688SOL    HW128697   3.748   0.776   9.680 -0.8458 -0.2656 -0.7009
 5688SOL    HW228698   3.743   0.770   9.828  2.7317 -2.0276 -1.5170
 5689SOL     OW28699   0.954   0.210   4.829 -0.0567 -0.5618  0.5245
 5689SOL    HW128700   1.045   0.239   4.822  0.2403 -1.8743 -0.9973
 5689SOL    HW228701   0.913   0.271   4.769 -2.7101  0.1331  3.0053
 5690SOL     OW28702   2.236   2.976   4.535  0.6116 -0.3239  0.3710
 5690SOL    HW128703   2.229   2.933   4.620 -1.5122  1.0777  0.8925
 5690SOL    HW228704   2.198   3.061   4.557  1.7350  0.5782 -1.1017
 5691SOL     OW28705   2.150   3.061   2.823  1.2273 -0.2569 -0.0024
 5691SOL    HW128706   2.073   3.036   2.772  0.9113 -1.1220  0.8966
 5691SOL    HW228707   2.125   3.017   2.904  1.6922  0.7450  0.6806
 5692SOL     OW28708   0.542   1.640  14.412 -0.4913 -0.2068 -0.2724
 5692SOL    HW128709   0.459   1.686  14.401 -0.5044 -0.2385 -0.3070
 5692SOL    HW228710   0.527   1.597  14.327  0.4546  0.8394 -0.9583
 5693SOL     OW28711   1.090   0.638   4.205 -0.3997  0.0553 -0.1770
 5693SOL    HW128712   1.082   0.610   4.114 -0.1812 -1.3471  0.2357
 5693SOL    HW228713   1.167   0.694   4.198  0.2686 -0.7779  0.5599
 5694SOL     OW28714   2.581   3.864   6.562  0.6605  0.0795  0.2650
 5694SOL    HW128715   2.639   3.937   6.583 -1.7090  1.6190  1.4514
 5694SOL    HW228716   2.498   3.908   6.543  0.1301 -0.0107  2.3271
 5695SOL     OW28717   2.099   4.111   7.386  0.4279 -0.4001 -0.4817
 5695SOL    HW128718   2.175   4.105   7.444  0.3463  0.1324 -0.3102
 5695SOL    HW228719   2.038   4.040   7.408  0.5058 -0.5631 -0.8043
 5696SOL     OW28720   2.650   4.668   6.739 -0.4193 -0.7891 -0.2504
 5696SOL    HW128721   2.682   4.616   6.813 -0.6940 -2.4723 -1.3501
 5696SOL    HW228722   2.573   4.707   6.781 -1.3567 -1.6248 -1.2373
 5697SOL     OW28723   0.424   0.330   8.004  0.0165  0.3281 -0.2913
 5697SOL    HW128724   0.399   0.239   8.023  1.9921  0.2017  1.7302
 5697SOL    HW228725   0.473   0.319   7.922 -0.3163  0.8112 -0.5574
 5698SOL     OW28726   1.883   0.959  11.081  0.0933 -0.4635 -0.4078
 5698SOL    HW128727   1.939   0.883  11.096  0.4535 -0.3432 -1.1836
 5698SOL    HW228728   1.806   0.930  11.129  0.0372 -0.1343 -0.2973
 5699SOL     OW28729   2.604   0.641   1.924 -0.8700 -0.3739 -0.0018
 5699SOL    HW128730   2.525   0.677   1.885  1.2078  4.4980  0.3298
 5699SOL    HW228731   2.654   0.627   1.843  0.0084  1.9610  0.1436
 5700SOL     OW28732   2.417   2.048   0.251  0.1143 -0.3911 -0.0543
 5700SOL    HW128733   2.332   2.040   0.294  0.0234 -3.7077 -0.9030
 5700SOL    HW228734   2.382   2.097   0.176 -3.0724 -1.8939  0.4431
 5701SOL     OW28735   3.739   1.296   9.077 -0.2584  0.0642 -0.2162
 5701SOL    HW128736   3.749   1.262   9.166  0.6048 -1.4091 -0.8787
 5701SOL    HW228737   3.820   1.263   9.037 -0.2568  2.3406 -2.1029
 5702SOL     OW28738   0.412   3.513   7.706  0.2689 -0.5447  0.5706
 5702SOL    HW128739   0.352   3.585   7.728 -1.2243 -1.0805 -1.8003
 5702SOL    HW228740   0.436   3.532   7.616 -1.3323  0.8801  0.4433
 5703SOL     OW28741   0.264   2.266   7.485  0.1965  0.2612 -0.1307
 5703SOL    HW128742   0.249   2.302   7.398  1.3445 -0.7688 -0.7564
 5703SOL    HW228743   0.326   2.201   7.451 -0.0037  0.5879 -1.0998
 5704SOL     OW28744   3.439   2.201   4.052 -0.4596  0.5025 -0.0925
 5704SOL    HW128745   3.514   2.163   4.007 -1.5647 -1.8604  0.0124
 5704SOL    HW228746   3.427   2.271   3.989 -0.4961  1.1252  0.6073
 5705SOL     OW28747   2.963   3.195   2.170 -0.0707  0.0833 -0.0593
 5705SOL    HW128748   3.004   3.237   2.246  0.0023  0.5839 -0.3747
 5705SOL    HW228749   3.030   3.135   2.138 -0.1107  0.4869 -0.8882
 5706SOL     OW28750   2.387   1.861   3.646  0.3897 -0.4496 -0.3960
 5706SOL    HW128751   2.479   1.878   3.624  0.5112 -0.1668  0.3174
 5706SOL    HW228752   2.361   1.946   3.681  2.8582  0.6334 -1.1583
 5707SOL     OW28753   2.188   4.512  11.856  0.1603 -0.1294 -0.0032
 5707SOL    HW128754   2.100   4.541  11.878  0.0261 -1.0624  0.7160
 5707SOL    HW228755   2.229   4.538  11.939 -2.0632  1.4425  0.6081
 5708SOL     OW28756   0.567   0.481   7.061  0.0860  0.5535 -0.3462
 5708SOL    HW128757   0.607   0.553   7.111  1.0665 -0.1767 -0.0719
 5708SOL    HW228758   0.480   0.475   7.100 -2.2586  2.7876 -5.2254
 5709SOL     OW28759   0.345   0.458   3.769  0.4346  0.0014 -0.4911
 5709SOL    HW128760   0.355   0.441   3.675  1.7510 -0.6284 -0.2464
 5709SOL    HW228761   0.415   0.403   3.805  1.0233  1.7912  1.1079
 5710SOL     OW28762   1.729   0.065   0.962  0.1247 -0.4225  0.7788
 5710SOL    HW128763   1.693   4.722   0.946 -2.1879  1.4428 -3.9029
 5710SOL    HW228764   1.818   0.038   0.937 -0.5664 -0.8649 -1.1602
 5711SOL     OW28765   3.545   0.629  13.009 -0.0920 -0.1449 -0.3129
 5711SOL    HW128766   3.524   0.557  13.068  1.6813 -1.1120 -0.8532
 5711SOL    HW228767   3.463   0.621  12.962  0.0186 -0.3769 -0.4639
 5712SOL     OW28768   4.556   0.009  12.573  0.5287  0.4180 -0.1956
 5712SOL    HW128769   4.651   0.014  12.559  0.2771  0.1789 -1.9021
 5712SOL    HW228770   4.510   0.013  12.490  0.1536 -1.6525 -0.0917
 5713SOL     OW28771   2.696   3.551   5.686 -0.3201  0.2294 -0.4356
 5713SOL    HW128772   2.767   3.612   5.669  1.7492 -2.0218  0.0162
 5713SOL    HW228773   2.753   3.475   5.668  0.2550  0.6888 -0.5449
 5714SOL     OW28774   1.630   2.487  15.914  0.0274  0.1648  0.0066
 5714SOL    HW128775   1.610   2.458  15.825 -1.3595  1.5793 -0.1410
 5714SOL    HW228776   1.679   2.411  15.946  0.7943  0.6045 -0.1275
 5715SOL     OW28777   3.604   4.406  11.105  0.5906  0.2034 -0.2591
 5715SOL    HW128778   3.680   4.351  11.123 -1.5110 -1.8547  2.2535
 5715SOL    HW228779   3.558   4.346  11.046 -0.9814  2.9381 -1.7808
 5716SOL     OW28780   0.828   3.129   4.376  0.1266 -0.1363  0.0095
 5716SOL    HW128781   0.780   3.152   4.456  3.3098 -0.9308  2.1710
 5716SOL    HW228782   0.802   3.199   4.317  1.2733  0.6243  0.3907
 5717SOL     OW28783   3.030   1.046   2.495  0.0895  0.0529  0.6431
 5717SOL    HW128784   2.981   1.036   2.576 -0.0447 -0.3826  0.5112
 5717SOL    HW228785   3.118   1.013   2.516  0.4734 -0.2735 -1.4342
 5718SOL     OW28786   2.701   3.823   4.791 -0.1812 -0.1825  0.1276
 5718SOL    HW128787   2.725   3.807   4.700 -0.2353 -1.4084  0.3258
 5718SOL    HW228788   2.615   3.783   4.806  0.2376 -0.6854  1.2094
 5719SOL     OW28789   0.931   1.027   0.616 -0.5423  0.0232 -0.0935
 5719SOL    HW128790   0.999   1.074   0.568  0.2349 -2.4325 -1.3963
 5719SOL    HW228791   0.859   1.041   0.554 -0.7279  0.1946  0.1609
 5720SOL     OW28792   2.101   0.792   7.091  0.3129  0.1755  0.1553
 5720SOL    HW128793   2.072   0.739   7.166  0.3529 -0.9728 -0.6388
 5720SOL    HW228794   2.026   0.785   7.031  0.3011 -1.8107  0.3869
 5721SOL     OW28795   3.438   3.328  17.185 -0.2793 -0.1627  0.1826
 5721SOL    HW128796   3.475   3.374  17.260  0.8824 -0.2578 -0.3247
 5721SOL    HW228797   3.362   3.282  17.221 -0.4364 -0.0376  0.0096
 5722SOL     OW28798   2.577   1.049   3.167  0.1688 -0.1409 -0.5404
 5722SOL    HW128799   2.654   1.028   3.218  0.5192 -0.0563 -1.0325
 5722SOL    HW228800   2.598   1.135   3.130 -0.7043  0.5916  0.6571
 5723SOL     OW28801   4.355   2.244   3.409  0.2006 -0.1397 -0.0494
 5723SOL    HW128802   4.404   2.320   3.442  1.2423 -0.9423  0.2698
 5723SOL    HW228803   4.266   2.275   3.421  0.4363  0.3927  0.2980
 5724SOL     OW28804   1.276   1.122  14.615  0.1925 -0.1409  0.2508
 5724SOL    HW128805   1.285   1.210  14.653 -0.3168 -0.2984  0.7343
 5724SOL    HW228806   1.183   1.122  14.595  0.3160  0.1750 -0.3305
 5725SOL     OW28807   1.752   4.724   9.179  1.0209 -0.4222 -0.4785
 5725SOL    HW128808   1.794   4.640   9.199 -3.6940 -2.6061  0.2777
 5725SOL    HW228809   1.671   4.719   9.231  1.5659  3.5142  0.7144
 5726SOL     OW28810   0.765   0.354   0.276  0.0965  0.4322 -0.1929
 5726SOL    HW128811   0.789   0.437   0.237 -0.5897  1.2857  1.1776
 5726SOL    HW228812   0.827   0.356   0.348  0.9293  0.6445 -0.9234
 5727SOL     OW28813   3.884   4.176   5.408 -0.2862  0.1601  0.0773
 5727SOL    HW128814   3.793   4.203   5.398  0.1886  2.2674  1.5682
 5727SOL    HW228815   3.906   4.198   5.498 -2.2596 -1.1604  0.8792
 5728SOL     OW28816   3.397   3.285   9.863 -0.2494  0.3179 -0.4236
 5728SOL    HW128817   3.404   3.368   9.816 -2.2020 -0.3814 -1.9476
 5728SOL    HW228818   3.424   3.233   9.787  2.1501  0.8187  0.0644
 5729SOL     OW28819   0.577   0.303  12.404 -0.1463 -0.0040  0.3712
 5729SOL    HW128820   0.498   0.301  12.349 -1.0418 -0.3614  1.6662
 5729SOL    HW228821   0.590   0.213  12.434 -1.1856 -0.3632 -0.2589
 5730SOL     OW28822   1.316   2.617   3.526  0.4776  0.2015 -0.4836
 5730SOL    HW128823   1.243   2.562   3.555  1.4571 -0.3707  0.8841
 5730SOL    HW228824   1.280   2.706   3.535 -1.1376 -0.6013  1.0157
 5731SOL     OW28825   2.747   3.053   3.208  0.2003 -0.0435 -0.5630
 5731SOL    HW128826   2.725   2.967   3.242  1.2691  0.5691  1.6525
 5731SOL    HW228827   2.690   3.073   3.133  0.0609 -0.4500 -0.5646
 5732SOL     OW28828   2.588   0.873   4.860  0.2952  0.1436 -0.3218
 5732SOL    HW128829   2.631   0.797   4.821 -1.9649 -1.7819  0.9678
 5732SOL    HW228830   2.504   0.827   4.867 -0.2878  0.7410 -3.1701
 5733SOL     OW28831   1.554   1.239   7.155 -0.4273  0.0842  0.4323
 5733SOL    HW128832   1.580   1.154   7.118  1.2312  1.3774 -1.3638
 5733SOL    HW228833   1.483   1.210   7.212 -0.3247  0.4914  0.7652
 5734SOL     OW28834   3.301   3.032   9.632 -0.2899 -0.2000 -0.3325
 5734SOL    HW128835   3.250   2.994   9.703 -0.5126 -0.7396 -0.7894
 5734SOL    HW228836   3.369   2.964   9.629 -0.5279 -0.5106  1.2523
 5735SOL     OW28837   3.960   2.607  14.549 -0.0126  0.6760 -0.4142
 5735SOL    HW128838   4.049   2.570  14.547 -2.1272 -4.5390  2.4117
 5735SOL    HW228839   3.911   2.535  14.509  3.1565 -1.2527 -0.8383
 5736SOL     OW28840   3.525   4.336   5.468  0.0441 -0.1446  0.0887
 5736SOL    HW128841   3.478   4.373   5.393 -2.0327 -1.0223  0.9723
 5736SOL    HW228842   3.472   4.357   5.545  0.8286 -1.5925  1.0293
 5737SOL     OW28843   2.944   4.201   0.061  0.1561  0.1516  0.4081
 5737SOL    HW128844   2.849   4.217   0.060  0.0913 -0.2692 -0.8635
 5737SOL    HW228845   2.942   4.116   0.015  0.9147  0.7975 -0.8002
 5738SOL     OW28846   4.661   1.231   7.899  0.3334  0.1483 -0.1133
 5738SOL    HW128847   4.598   1.172   7.941  0.6833 -0.2793 -0.1795
 5738SOL    HW228848   4.707   1.165   7.846 -1.1187 -1.9099  1.2057
 5739SOL     OW28849   0.893   2.609   9.150  0.7531  0.1937 -0.0482
 5739SOL    HW128850   0.845   2.687   9.176 -1.2838 -0.9692 -0.2529
 5739SOL    HW228851   0.977   2.645   9.178  0.1554  1.7559 -0.2577
 5740SOL     OW28852   3.049   2.921  15.789  0.9140 -0.4195  0.0575
 5740SOL    HW128853   2.997   2.847  15.758  0.2937 -0.7897  1.9842
 5740SOL    HW228854   3.075   2.960  15.705  1.1169 -0.5947  0.0357
 5741SOL     OW28855   2.145   3.324   2.229 -0.0657  0.3305 -0.0832
 5741SOL    HW128856   2.065   3.374   2.211 -1.2410 -1.1594  0.9473
 5741SOL    HW228857   2.141   3.257   2.161  0.6214  1.4480 -1.2183
 5742SOL     OW28858   2.828   0.176  15.197 -0.4679 -0.0475 -0.2648
 5742SOL    HW128859   2.803   0.256  15.244 -1.0373  1.3300 -2.9071
 5742SOL    HW228860   2.787   0.181  15.111 -1.3997  3.0171  0.3620
 5743SOL     OW28861   3.405   4.678   8.207 -0.0491  0.5759 -0.0545
 5743SOL    HW128862   3.441   4.600   8.166  1.2182  1.4165 -0.5550
 5743SOL    HW228863   3.467   4.744   8.174  2.0821 -1.1610  0.5307
 5744SOL     OW28864   4.615   0.810   9.432 -0.5935  1.0561 -0.8825
 5744SOL    HW128865   4.702   0.786   9.463 -0.4357 -0.8306 -2.7408
 5744SOL    HW228866   4.571   0.725   9.435  1.4753  0.0157  0.0009
 5745SOL     OW28867   0.800   0.668  12.437  0.1446  0.6442  0.1618
 5745SOL    HW128868   0.864   0.715  12.384 -0.2502  0.7203 -0.2513
 5745SOL    HW228869   0.754   0.733  12.490 -0.9930 -0.5864  0.6970
 5746SOL     OW28870   3.942   3.337   5.863  1.0312  0.2981 -0.1246
 5746SOL    HW128871   3.897   3.324   5.780  0.2170  0.1344  0.3354
 5746SOL    HW228872   4.006   3.266   5.862 -0.1300 -0.8027  1.7388
 5747SOL     OW28873   1.252   1.957  15.926 -0.1635 -0.0046 -0.3445
 5747SOL    HW128874   1.200   2.036  15.914 -0.4448 -0.2298 -0.6186
 5747SOL    HW228875   1.340   1.994  15.928 -0.4647  0.7958 -1.8982
 5748SOL     OW28876   2.352   1.859   9.520  0.1266  0.2195  0.1669
 5748SOL    HW128877   2.406   1.849   9.441  0.6879  0.6431  0.4985
 5748SOL    HW228878   2.312   1.772   9.524  0.9026 -0.1187  0.6575
 5749SOL     OW28879   3.019   2.204   3.067 -0.3891  0.0399 -0.1404
 5749SOL    HW128880   3.034   2.210   3.161 -0.3813  1.9058 -0.2692
 5749SOL    HW228881   3.106   2.229   3.037 -0.8910  0.4850 -1.2472
 5750SOL     OW28882   3.220   3.785   6.076 -0.2550  0.1748 -0.2022
 5750SOL    HW128883   3.271   3.863   6.054  0.5915 -0.4821 -0.5670
 5750SOL    HW228884   3.175   3.806   6.158  3.1672  1.9539  1.2225
 5751SOL     OW28885   1.221   4.084  13.550 -0.5158  0.0414  0.3853
 5751SOL    HW128886   1.217   4.119  13.461  2.5014  1.7195  0.8873
 5751SOL    HW228887   1.126   4.080  13.557 -0.6798 -0.5932 -2.1251
 5752SOL     OW28888   3.486   2.606   5.807  0.3092 -0.1804 -0.0914
 5752SOL    HW128889   3.437   2.544   5.862  1.6227 -0.7366  0.4497
 5752SOL    HW228890   3.445   2.593   5.721 -0.3768  1.4577 -0.0099
 5753SOL     OW28891   0.026   1.245   5.269  0.3609 -0.3931  0.0666
 5753SOL    HW128892   4.708   1.192   5.217 -0.1832 -1.7448  2.1015
 5753SOL    HW228893   0.005   1.198   5.349  1.3844 -1.1409 -0.0965
 5754SOL     OW28894   0.349   2.077   6.094  0.8047 -0.5610 -0.0765
 5754SOL    HW128895   0.341   2.172   6.080 -2.1154 -0.7857  0.0439
 5754SOL    HW228896   0.259   2.050   6.075  0.8549 -2.0376  1.7389
 5755SOL     OW28897   0.730   4.429   7.395 -0.4544  0.5657 -0.1097
 5755SOL    HW128898   0.745   4.522   7.380 -1.6422  0.9132  0.9450
 5755SOL    HW228899   0.748   4.416   7.488  1.3536  1.9116 -0.2753
 5756SOL     OW28900   2.863   2.798   2.598  0.5448 -0.3413  0.4934
 5756SOL    HW128901   2.870   2.845   2.515 -0.6118  0.5001  0.8802
 5756SOL    HW228902   2.782   2.836   2.631  1.7947  0.2999  2.8234
 5757SOL     OW28903   1.501   3.201   2.414 -0.3080 -0.4625  0.3613
 5757SOL    HW128904   1.487   3.115   2.374  0.5535 -0.0579 -0.8297
 5757SOL    HW228905   1.586   3.231   2.382 -0.9422  0.6162 -0.3228
 5758SOL     OW28906   2.189   4.589   4.272  0.1735 -0.6748  0.5701
 5758SOL    HW128907   2.123   4.653   4.297  0.5021  0.6459 -1.9722
 5758SOL    HW228908   2.138   4.512   4.247 -0.6111  0.2386 -0.6110
 5759SOL     OW28909   2.296   2.488   8.456  0.0758  0.1221 -1.0344
 5759SOL    HW128910   2.254   2.412   8.416  1.8619 -1.9789  1.0769
 5759SOL    HW228911   2.222   2.537   8.493  0.1392  0.2440 -1.0677
 5760SOL     OW28912   2.049   1.460   5.650  0.2006 -0.3379 -0.1470
 5760SOL    HW128913   2.004   1.381   5.619  0.2393  0.1714 -1.4939
 5760SOL    HW228914   2.011   1.528   5.596  3.3551 -1.0906 -3.2825
 5761SOL     OW28915   4.567   0.720  12.411 -0.3578 -0.7125 -0.0872
 5761SOL    HW128916   4.520   0.715  12.495  1.7375 -0.2572  1.1041
 5761SOL    HW228917   4.648   0.682  12.446  0.1813 -0.7006 -1.3400
 5762SOL     OW28918   1.037   1.120  14.543  0.2452 -0.0265  0.0241
 5762SOL    HW128919   1.003   1.159  14.624 -1.4216 -1.3600 -0.0470
 5762SOL    HW228920   0.958   1.116  14.489 -0.7907  0.2878  1.5006
 5763SOL     OW28921   0.289   4.658   1.814 -0.0497 -0.0222 -0.1719
 5763SOL    HW128922   0.195   4.652   1.830 -0.0013  0.8550  0.4472
 5763SOL    HW228923   0.317   4.733   1.867 -1.6977  0.5235 -0.0724
 5764SOL     OW28924   1.630   1.497   9.065 -0.0298 -0.4178  0.2592
 5764SOL    HW128925   1.660   1.433   9.000  2.9395 -1.1782  2.4108
 5764SOL    HW228926   1.719   1.505   9.099  0.7534  0.5836 -1.9989
 5765SOL     OW28927   2.185   3.538  12.103  0.4603 -0.2637 -0.0441
 5765SOL    HW128928   2.108   3.482  12.095 -2.3640  3.5254  0.5895
 5765SOL    HW228929   2.246   3.492  12.045  0.6055  1.6527 -1.4061
 5766SOL     OW28930   3.335   2.343   9.565  0.2377 -1.4639  0.1408
 5766SOL    HW128931   3.363   2.392   9.642 -1.1303  1.2103 -1.0124
 5766SOL    HW228932   3.383   2.389   9.496  2.5914 -2.6856  0.9727
 5767SOL     OW28933   1.900   4.555   8.277 -0.0782 -0.5531  0.8616
 5767SOL    HW128934   1.917   4.645   8.304  1.6476  0.0167 -2.1367
 5767SOL    HW228935   1.809   4.558   8.246  0.3981  0.1181 -0.4716
 5768SOL     OW28936   4.203   0.362   8.911  0.1814  0.5753  0.3997
 5768SOL    HW128937   4.144   0.360   8.986  0.0646  2.0078  0.3597
 5768SOL    HW228938   4.174   0.448   8.880  0.8101  0.8888  0.6652
 5769SOL     OW28939   0.547   0.383   6.566 -0.1854  0.6069  0.7662
 5769SOL    HW128940   0.537   0.341   6.481 -0.7122  0.2933  0.9778
 5769SOL    HW228941   0.521   0.308   6.621 -1.6367 -1.0437 -2.1865
 5770SOL     OW28942   1.671   0.676   5.560 -0.5096 -0.3680  0.2544
 5770SOL    HW128943   1.640   0.666   5.650  1.9775 -0.5197  1.0830
 5770SOL    HW228944   1.678   0.770   5.542 -1.5357 -0.0745  1.3787
 5771SOL     OW28945   0.705   3.241   0.471 -0.8480  0.6042  0.5874
 5771SOL    HW128946   0.654   3.160   0.464  0.8148 -0.4665  0.9877
 5771SOL    HW228947   0.638   3.299   0.506 -1.3381 -0.1887  0.9720
 5772SOL     OW28948   4.238   2.177   4.203 -0.0130  0.3545 -0.0028
 5772SOL    HW128949   4.313   2.120   4.186 -2.2611 -1.9546 -2.1546
 5772SOL    HW228950   4.181   2.142   4.134  1.2143  0.5050 -1.0972
 5773SOL     OW28951   1.298   1.008  10.822  0.1973 -0.3410 -0.1856
 5773SOL    HW128952   1.327   1.090  10.862  0.6406 -1.0383  0.9439
 5773SOL    HW228953   1.366   0.947  10.852 -0.9222 -2.7618 -2.5949
 5774SOL     OW28954   4.150   1.223  11.452  0.0156  0.5751 -0.1582
 5774SOL    HW128955   4.183   1.311  11.470 -1.7616  1.1376  0.3060
 5774SOL    HW228956   4.190   1.178  11.526 -0.0651  0.1249 -0.3854
 5775SOL     OW28957   2.844   0.638   9.818  0.0094  0.1088  0.5900
 5775SOL    HW128958   2.818   0.687   9.896  1.1405 -1.8125  2.1643
 5775SOL    HW228959   2.918   0.692   9.790 -0.6849  1.5969  1.5660
 5776SOL     OW28960   1.053   1.302   7.594  0.1091 -0.6492 -0.0323
 5776SOL    HW128961   1.146   1.312   7.576 -0.4820  0.9717 -2.2531
 5776SOL    HW228962   1.020   1.250   7.521 -0.6197 -0.8016  0.4058
 5777SOL     OW28963   2.016   1.196   7.387  0.4806  0.5854  0.3457
 5777SOL    HW128964   2.005   1.241   7.303  0.5510 -0.0424  0.0011
 5777SOL    HW228965   1.998   1.272   7.442  0.7490  1.3034 -0.5511
 5778SOL     OW28966   4.588   0.218   4.613 -0.1141  0.1628 -0.0982
 5778SOL    HW128967   4.527   0.265   4.670 -1.0908  1.0561 -1.9081
 5778SOL    HW228968   4.526   0.175   4.554 -0.6530  0.1993  0.4438
 5779SOL     OW28969   1.250   2.069  16.253 -0.3536 -0.2328 -0.4838
 5779SOL    HW128970   1.307   2.139  16.286 -0.9318  0.1010 -0.1889
 5779SOL    HW228971   1.294   2.057  16.169  0.8595 -0.2904  0.1592
 5780SOL     OW28972   0.946   4.416  13.716 -0.3013  0.2763  0.0723
 5780SOL    HW128973   0.956   4.425  13.811 -0.1935  1.3995 -0.0407
 5780SOL    HW228974   1.025   4.457  13.682 -0.7421 -0.5253 -1.8938
 5781SOL     OW28975   0.239   3.412   2.694  0.0690 -0.1034  0.2512
 5781SOL    HW128976   0.179   3.457   2.635 -0.8591 -0.9290  0.5533
 5781SOL    HW228977   0.320   3.439   2.650 -1.1119  1.1742 -1.1090
 5782SOL     OW28978   4.316   3.267   3.123 -0.2233  0.2003  0.1193
 5782SOL    HW128979   4.285   3.353   3.153 -0.9547  1.2698 -3.6952
 5782SOL    HW228980   4.265   3.205   3.174  1.6849 -0.2792  1.4440
 5783SOL     OW28981   4.742   1.445   4.648 -0.1738 -0.0728 -0.3765
 5783SOL    HW128982   0.054   1.488   4.712  2.3372 -2.2617 -1.0870
 5783SOL    HW228983   0.019   1.496   4.570 -1.5033 -1.3055 -1.5667
 5784SOL     OW28984   2.957   2.284  11.696  0.3875  0.2532  0.1464
 5784SOL    HW128985   3.047   2.318  11.702  0.7117 -0.9583  2.2035
 5784SOL    HW228986   2.916   2.339  11.630  1.9819  1.1301 -0.1330
 5785SOL     OW28987   3.305   2.443   5.945 -0.4245  0.2461 -0.0575
 5785SOL    HW128988   3.227   2.392   5.924 -1.5434  2.2725 -0.7624
 5785SOL    HW228989   3.372   2.402   5.890  1.6463  0.1839  2.5170
 5786SOL     OW28990   1.673   2.306  17.429 -0.4990  0.0253 -0.3719
 5786SOL    HW128991   1.583   2.335  17.416  0.2257  1.6726 -1.7107
 5786SOL    HW228992   1.690   2.339  17.518 -0.8802  0.0697 -0.3172
 5787SOL     OW28993   3.903   0.812  16.824  0.2092 -0.2925  0.2916
 5787SOL    HW128994   3.817   0.828  16.864  0.7900  1.3148  0.9011
 5787SOL    HW228995   3.891   0.732  16.773  1.3060 -0.5471  0.4469
 5788SOL     OW28996   4.696   4.560   0.399 -0.1625 -0.1434  0.2783
 5788SOL    HW128997   0.011   4.525   0.466  0.0578  0.0351  0.1805
 5788SOL    HW228998   4.642   4.485   0.374  0.9229 -1.0031  0.4730
 5789SOL     OW28999   4.562   4.462  14.627 -0.3547  0.1215  0.1921
 5789SOL    HW129000   4.519   4.382  14.658  0.4752 -1.8102 -3.5524
 5789SOL    HW229001   4.483   4.499  14.588 -1.5248 -2.0388  0.5185
 5790SOL     OW29002   1.056   1.867  16.247  0.1438 -0.1193 -0.6903
 5790SOL    HW129003   1.117   1.940  16.259  0.6640 -1.0586  2.4056
 5790SOL    HW229004   1.079   1.810  16.320 -1.4573 -0.0265 -0.1091
 5791SOL     OW29005   1.213   1.428   6.766 -0.2888  0.2932  0.3728
 5791SOL    HW129006   1.255   1.351   6.803  0.0802  0.3088 -0.0062
 5791SOL    HW229007   1.148   1.450   6.832  0.9843  1.2378  1.3179
 5792SOL     OW29008   3.415   1.967   8.025  0.2202  0.1531  0.0418
 5792SOL    HW129009   3.426   1.955   8.119  0.7416  2.1429  0.2373
 5792SOL    HW229010   3.321   1.951   8.017  0.4563  0.2323 -2.7386
 5793SOL     OW29011   2.048   2.384   2.068  0.4492 -0.1958  0.0219
 5793SOL    HW129012   2.130   2.379   2.019 -0.1963  1.0647 -1.1827
 5793SOL    HW229013   1.988   2.310   2.061 -0.1716  0.6263 -3.4936
 5794SOL     OW29014   2.164   0.372   7.956  0.3738  0.2028  0.6768
 5794SOL    HW129015   2.169   0.433   7.882 -2.0421 -1.1612 -0.5913
 5794SOL    HW229016   2.258   0.358   7.964  0.1144 -2.6502 -1.2677
 5795SOL     OW29017   0.335   2.251  15.315 -0.4021  0.1098 -0.3605
 5795SOL    HW129018   0.381   2.189  15.373  1.1418  0.4812 -1.2016
 5795SOL    HW229019   0.403   2.257  15.248  0.9428 -1.3644  0.8579
 5796SOL     OW29020   2.109   0.452   9.821  0.6956  0.3304 -0.1225
 5796SOL    HW129021   2.141   0.503   9.894 -0.9962 -1.0247  1.5693
 5796SOL    HW229022   2.150   0.496   9.746  0.6771  2.0613  0.8949
 5797SOL     OW29023   1.489   3.022   7.215 -0.2317  0.6586  0.4475
 5797SOL    HW129024   1.554   3.088   7.240 -0.3649  0.8859  0.1868
 5797SOL    HW229025   1.488   2.964   7.291  0.8089  1.0265  0.7466
 5798SOL     OW29026   2.145   0.943  13.626 -0.5528 -0.6413  0.4288
 5798SOL    HW129027   2.072   0.992  13.587 -0.6248  1.0393  2.6522
 5798SOL    HW229028   2.108   0.858  13.646 -0.5785 -0.4781  1.0661
 5799SOL     OW29029   2.392   1.084   4.946  0.0430  0.1296  0.5721
 5799SOL    HW129030   2.347   1.084   4.861  1.3134 -1.5246 -0.1108
 5799SOL    HW229031   2.417   0.992   4.954  2.2590  0.4918 -2.1736
 5800SOL     OW29032   1.752   2.969   7.381 -0.1493 -0.1891 -0.3637
 5800SOL    HW129033   1.811   2.895   7.391  0.2286  0.2571  0.6878
 5800SOL    HW229034   1.674   2.936   7.425  1.0479 -1.0869  1.0847
 5801SOL     OW29035   3.539   0.460   3.516  0.0391  0.0503  0.2254
 5801SOL    HW129036   3.515   0.407   3.593  0.2834 -0.2818  0.0714
 5801SOL    HW229037   3.559   0.392   3.452  1.2521 -0.2527  0.9220
 5802SOL     OW29038   3.076   1.761   2.379  0.3538  0.1506 -0.0361
 5802SOL    HW129039   3.164   1.744   2.412 -0.3040 -1.4693  0.8756
 5802SOL    HW229040   3.029   1.679   2.363  1.3961  0.4929 -4.7662
 5803SOL     OW29041   1.918   0.448   3.737  0.4071  0.1141 -0.3532
 5803SOL    HW129042   1.878   0.495   3.809  0.1919 -0.3287 -0.1868
 5803SOL    HW229043   1.896   0.503   3.662 -0.9882 -2.3252 -1.7488
 5804SOL     OW29044   1.795   1.394   0.975 -0.2314  0.0263 -0.1174
 5804SOL    HW129045   1.744   1.332   1.026  1.3852 -1.8037 -0.7085
 5804SOL    HW229046   1.859   1.337   0.932 -0.3277 -1.5182  1.7901
 5805SOL     OW29047   0.290   3.552   9.283  0.2326 -0.9338  0.5128
 5805SOL    HW129048   0.204   3.557   9.242  0.8956  0.6255 -0.6694
 5805SOL    HW229049   0.289   3.642   9.315 -0.3866 -1.8708  3.1487
 5806SOL     OW29050   4.695   0.669  16.961  0.1232 -0.2290 -0.0445
 5806SOL    HW129051   4.644   0.750  16.966 -0.4577 -0.6060  0.3165
 5806SOL    HW229052   0.007   0.678  16.884 -1.2628 -0.5844 -1.0863
 5807SOL     OW29053   0.328   4.046   4.202 -0.6196 -0.0997  0.6447
 5807SOL    HW129054   0.350   4.129   4.161 -0.6185 -0.6124 -0.3943
 5807SOL    HW229055   0.247   4.064   4.249 -0.1721  0.6465  1.1213
 5808SOL     OW29056   2.782   3.651   6.400  0.2658  0.0722  0.2980
 5808SOL    HW129057   2.726   3.709   6.450 -0.6415 -2.2020  1.9330
 5808SOL    HW229058   2.818   3.587   6.461  2.6425  0.9576 -0.1545
 5809SOL     OW29059   4.552   1.159   5.686 -0.1396 -0.2471  0.2841
 5809SOL    HW129060   4.464   1.137   5.716 -0.2667  0.0571  0.1341
 5809SOL    HW229061   4.561   1.245   5.727  1.8030  0.3036 -1.3029
 5810SOL     OW29062   2.322   4.655   2.585  0.0318 -0.0545  0.5503
 5810SOL    HW129063   2.278   4.740   2.592  3.1461  1.4921  1.4232
 5810SOL    HW229064   2.254   4.606   2.630 -0.3157  0.1804  0.2818
 5811SOL     OW29065   1.238   2.676  15.094  0.2960  0.1864  0.4082
 5811SOL    HW129066   1.306   2.726  15.049  1.5985  0.6426  2.9180
 5811SOL    HW229067   1.157   2.728  15.087 -2.5956 -4.0420  2.3321
 5812SOL     OW29068   0.753   1.635   6.440  0.4114  0.4165 -0.1302
 5812SOL    HW129069   0.735   1.569   6.373  1.9144  1.8455 -1.9442
 5812SOL    HW229070   0.823   1.685   6.398  1.5138 -0.8168  0.2749
 5813SOL     OW29071   0.764   1.311  17.180  0.0461  0.4202  0.1691
 5813SOL    HW129072   0.713   1.325  17.259 -1.2645 -1.5347 -0.3110
 5813SOL    HW229073   0.844   1.284  17.226  0.0105 -0.0626 -0.0468
 5814SOL     OW29074   2.867   1.139   4.518 -0.1717  0.1932  0.7499
 5814SOL    HW129075   2.829   1.125   4.605  0.1891 -0.8288  0.7395
 5814SOL    HW229076   2.811   1.082   4.465 -1.3018 -0.1079  2.2529
 5815SOL     OW29077   4.428   3.176   5.702 -0.1017 -0.1748 -0.0829
 5815SOL    HW129078   4.375   3.220   5.635  1.0488 -0.5795 -1.2722
 5815SOL    HW229079   4.360   3.141   5.759 -0.8166  0.4031 -0.5780
 5816SOL     OW29080   1.116   3.692   9.417 -0.5185  0.4155  0.1569
 5816SOL    HW129081   1.044   3.704   9.356  0.6698 -2.4800 -1.7946
 5816SOL    HW229082   1.157   3.618   9.375 -0.8666 -0.8435  2.0256
 5817SOL     OW29083   2.983   4.378   4.976  0.2424  0.8308 -0.2117
 5817SOL    HW129084   2.971   4.336   4.891 -1.8112  1.0490 -0.0214
 5817SOL    HW229085   2.909   4.338   5.023 -0.5484  1.3464 -1.0238
 5818SOL     OW29086   1.269   3.978   7.372  0.3874  0.2947 -0.1593
 5818SOL    HW129087   1.278   3.922   7.449  0.6826  1.7818  0.8874
 5818SOL    HW229088   1.283   3.913   7.303 -0.2681 -0.4942  0.4450
 5819SOL     OW29089   1.549   3.533  15.591  0.1412 -0.3338  0.7702
 5819SOL    HW129090   1.633   3.500  15.624 -0.1404 -0.7804  1.0510
 5819SOL    HW229091   1.496   3.512  15.668 -1.0578  2.6609  0.7363
 5820SOL     OW29092   2.098   1.424  10.155 -0.3068 -0.4238 -0.2862
 5820SOL    HW129093   2.026   1.487  10.158 -0.9152 -1.1771  0.8053
 5820SOL    HW229094   2.163   1.480  10.113 -0.5054  1.7185  2.2160
 5821SOL     OW29095   0.547   0.175   1.551  0.4818 -0.3713  0.0920
 5821SOL    HW129096   0.521   0.222   1.630 -0.7301  0.9188 -1.0574
 5821SOL    HW229097   0.590   0.244   1.500 -1.1109  1.2479  0.9433
 5822SOL     OW29098   3.318   1.483  17.680 -0.2194  0.0847 -0.7561
 5822SOL    HW129099   3.363   1.457  17.760 -2.1971  0.3312  0.4339
 5822SOL    HW229100   3.329   1.405  17.626  0.3921  0.6738 -1.5055
 5823SOL     OW29101   4.714   3.080   3.164 -0.6039 -0.3645  0.1034
 5823SOL    HW129102   4.739   3.171   3.177 -1.3280 -0.3640  1.4610
 5823SOL    HW229103   0.033   3.033   3.219 -2.1032 -2.0129  0.4093
 5824SOL     OW29104   0.272   0.816   0.621  0.3039  0.0178 -0.5164
 5824SOL    HW129105   0.321   0.847   0.545 -1.0454 -1.1673 -1.8560
 5824SOL    HW229106   0.250   0.898   0.665  0.5366  0.9503 -2.1555
 5825SOL     OW29107   3.705   2.771   3.088 -0.3847 -0.4516 -0.0742
 5825SOL    HW129108   3.775   2.769   3.154 -0.8354  1.5414  0.4751
 5825SOL    HW229109   3.758   2.744   3.013  0.2939  1.1981 -0.2096
 5826SOL     OW29110   2.984   4.408   6.047  0.2440 -0.3125  0.3506
 5826SOL    HW129111   2.969   4.323   6.088 -2.2336  0.1290  0.3371
 5826SOL    HW229112   2.976   4.466   6.123  0.3164  0.4779 -0.2515
 5827SOL     OW29113   1.341   2.769   2.445 -0.1770 -0.2306  0.3302
 5827SOL    HW129114   1.328   2.707   2.374 -0.7068  1.2651 -0.8708
 5827SOL    HW229115   1.335   2.709   2.519  2.3811  0.0036  0.7364
 5828SOL     OW29116   1.787   2.750  13.317  0.2291  0.4764  0.3146
 5828SOL    HW129117   1.834   2.755  13.234  0.3350 -1.6145  0.2456
 5828SOL    HW229118   1.707   2.791  13.286 -0.1115  0.6592  1.4281
 5829SOL     OW29119   2.258   1.779   7.676  0.4995 -0.4569  0.2680
 5829SOL    HW129120   2.241   1.756   7.585 -0.8410  0.5932  0.2428
 5829SOL    HW229121   2.173   1.757   7.714 -0.6979  0.1182 -2.0503
 5830SOL     OW29122   3.561   1.247   3.229 -0.0671  0.0821  0.5092
 5830SOL    HW129123   3.510   1.210   3.302  0.3355 -1.1453  0.1658
 5830SOL    HW229124   3.527   1.336   3.229  0.3232  0.2307 -1.2585
 5831SOL     OW29125   3.541   1.193   8.395 -0.5623 -0.0515 -0.8352
 5831SOL    HW129126   3.593   1.145   8.331 -0.3091 -0.4809 -0.3028
 5831SOL    HW229127   3.523   1.267   8.337 -0.8567  0.1368 -0.5102
 5832SOL     OW29128   2.834   1.785   5.957 -0.2997  0.2454 -0.3299
 5832SOL    HW129129   2.871   1.703   5.926 -0.2051  0.8419 -1.8072
 5832SOL    HW229130   2.914   1.832   5.978 -0.9747  1.0981  0.3346
 5833SOL     OW29131   3.913   0.924   1.123 -0.2369  0.3267 -0.5705
 5833SOL    HW129132   3.897   0.876   1.041  1.2034  1.5435 -1.5650
 5833SOL    HW229133   3.829   0.966   1.134 -0.9232 -1.0466 -0.5395
 5834SOL     OW29134   3.532   4.067   7.423 -0.7137 -0.2210 -0.6451
 5834SOL    HW129135   3.461   4.050   7.484  0.3874 -0.3366  0.6052
 5834SOL    HW229136   3.556   4.158   7.441  0.9059 -0.7197 -0.2526
 5835SOL     OW29137   1.764   3.246  15.898 -1.0403  0.6724 -0.2241
 5835SOL    HW129138   1.779   3.275  15.988  3.6942  0.2010 -0.8921
 5835SOL    HW229139   1.669   3.234  15.893 -1.2610  2.4762 -0.3456
 5836SOL     OW29140   3.953   0.473   4.965  0.2930 -0.2609  0.6683
 5836SOL    HW129141   3.965   0.564   4.937  0.5748 -0.0343  1.5296
 5836SOL    HW229142   3.984   0.485   5.055 -2.0201  1.9692  1.1658
 5837SOL     OW29143   2.298   0.970   8.059  0.3327 -0.3250 -0.4232
 5837SOL    HW129144   2.393   0.966   8.054  0.5062 -2.2719  4.4547
 5837SOL    HW229145   2.292   1.016   8.142  2.0336  0.6574 -0.8576
 5838SOL     OW29146   3.091   3.706   2.162  0.1382  0.3048  0.0336
 5838SOL    HW129147   3.047   3.685   2.244  0.1039 -0.0891 -0.0847
 5838SOL    HW229148   3.128   3.790   2.186  0.6601  0.4470 -1.2702
 5839SOL     OW29149   1.106   0.685   3.863  0.7420 -0.2873 -0.1757
 5839SOL    HW129150   1.020   0.723   3.845  0.8046  0.0855  0.3247
 5839SOL    HW229151   1.107   0.614   3.799 -0.5717 -0.1389 -0.3621
 5840SOL     OW29152   4.738   1.553  17.062  0.1684 -0.2212  0.2371
 5840SOL    HW129153   4.680   1.629  17.065  0.0369 -0.4008  2.1619
 5840SOL    HW229154   0.031   1.554  16.974  0.1780 -3.2315  0.1958
 5841SOL     OW29155   4.663   1.910   1.206 -0.8190 -0.2036 -0.1986
 5841SOL    HW129156   4.591   1.944   1.152 -1.7006 -0.3621  0.8712
 5841SOL    HW229157   4.635   1.821   1.226  1.0941 -0.6691  0.4164
 5842SOL     OW29158   1.296   4.477  15.256 -0.5463 -0.0904 -0.0044
 5842SOL    HW129159   1.334   4.390  15.242 -1.0026  0.2222 -3.0662
 5842SOL    HW229160   1.205   4.458  15.279 -0.6344  0.5428  0.1750
 5843SOL     OW29161   0.809   3.875  11.614  0.2837 -0.8165 -0.8401
 5843SOL    HW129162   0.841   3.861  11.525 -0.5650 -0.7461 -1.1640
 5843SOL    HW229163   0.757   3.796  11.630 -0.2714 -0.4820 -0.9718
 5844SOL     OW29164   2.093   0.623   5.513  0.1187  0.3579  0.0491
 5844SOL    HW129165   2.163   0.575   5.557  0.9905  1.0058 -0.6214
 5844SOL    HW229166   2.023   0.608   5.576  0.9356  1.4824  1.2325
 5845SOL     OW29167   1.768   2.828   7.727 -0.0672 -0.6696  0.7846
 5845SOL    HW129168   1.831   2.837   7.655 -1.7346 -2.2241 -0.8845
 5845SOL    HW229169   1.797   2.743   7.762 -3.2389 -2.1560 -0.1861
 5846SOL     OW29170   1.320   4.661   8.489  0.0310 -0.3144 -0.4629
 5846SOL    HW129171   1.280   4.742   8.519 -0.5453 -0.0912 -1.8405
 5846SOL    HW229172   1.398   4.672   8.543 -0.4689 -1.6806  0.5272
 5847SOL     OW29173   0.976   0.766  12.254  0.0947  0.1134 -0.5673
 5847SOL    HW129174   0.912   0.814  12.200 -0.8519 -1.5963 -0.9837
 5847SOL    HW229175   1.048   0.827  12.239 -0.6990  1.3839  0.7700
 5848SOL     OW29176   4.526   3.581   7.881 -0.4288 -0.0446 -0.3597
 5848SOL    HW129177   4.438   3.580   7.919  0.4099  0.8818  1.6443
 5848SOL    HW229178   4.579   3.571   7.961 -1.1700 -1.3300 -0.0322
 5849SOL     OW29179   1.039   2.344  14.940  0.1135 -0.3347 -0.3541
 5849SOL    HW129180   1.091   2.382  15.012 -0.7723 -0.8427  0.5589
 5849SOL    HW229181   1.104   2.300  14.886  0.7311  0.2268 -0.0653
 5850SOL     OW29182   1.710   2.687   4.612 -0.2380  0.2626 -0.2655
 5850SOL    HW129183   1.725   2.612   4.669  1.0394  0.6587 -0.0835
 5850SOL    HW229184   1.752   2.756   4.664 -0.0806  0.7649 -1.0531
 5851SOL     OW29185   0.221   0.916   7.235  0.2993 -0.2797 -0.1604
 5851SOL    HW129186   0.218   0.903   7.329 -0.8062  2.9983  0.2702
 5851SOL    HW229187   0.165   0.847   7.200  0.1406 -0.4723  0.4717
 5852SOL     OW29188   1.411   2.151   8.491 -0.2737 -0.3590  0.2050
 5852SOL    HW129189   1.368   2.118   8.411 -0.4829 -1.9921  0.9776
 5852SOL    HW229190   1.331   2.181   8.535  0.6214  0.4772  1.2343
 5853SOL     OW29191   4.343   4.486   3.902 -0.4757  0.2070 -0.0461
 5853SOL    HW129192   4.432   4.503   3.931 -0.0473 -0.3031 -1.0509
 5853SOL    HW229193   4.350   4.401   3.859 -2.4033 -1.2475  2.5498
 5854SOL     OW29194   3.572   4.298   2.044 -0.0917 -0.1985 -0.1613
 5854SOL    HW129195   3.605   4.283   1.956  1.3549  0.0525  0.3383
 5854SOL    HW229196   3.658   4.312   2.084 -0.5038 -1.6177  1.2334
 5855SOL     OW29197   1.020   2.590  16.951 -0.0549  0.5896 -0.7712
 5855SOL    HW129198   0.963   2.632  16.887  0.7537  0.1421 -1.7948
 5855SOL    HW229199   0.962   2.576  17.025  1.7860  1.7552  0.8974
 5856SOL     OW29200   4.089   1.480   9.047  0.8514  0.8136  0.1670
 5856SOL    HW129201   4.045   1.408   9.002  1.9028 -0.4143  1.1111
 5856SOL    HW229202   4.112   1.540   8.975  1.2894 -0.6249 -0.8868
 5857SOL     OW29203   3.956   1.722   2.001 -0.1246  0.0682  0.0580
 5857SOL    HW129204   3.995   1.637   1.978 -0.3267  0.0403 -0.1832
 5857SOL    HW229205   3.979   1.719   2.094 -0.0785 -1.6582 -0.0099
 5858SOL     OW29206   0.846   3.186   6.132 -0.1976  0.1778  0.2551
 5858SOL    HW129207   0.792   3.107   6.136 -0.7157  0.4907 -0.6403
 5858SOL    HW229208   0.857   3.200   6.038  0.3046  0.7037  0.3912
 5859SOL     OW29209   3.095   0.807   1.235 -0.7856  0.0988 -0.3419
 5859SOL    HW129210   3.161   0.762   1.184  0.7402 -0.4086  2.0781
 5859SOL    HW229211   3.148   0.829   1.312 -3.1615  0.7014  1.1335
 5860SOL     OW29212   0.635   3.379   6.588  0.2252  0.1151  0.0562
 5860SOL    HW129213   0.675   3.352   6.506  0.0300  1.5740 -0.5232
 5860SOL    HW229214   0.545   3.347   6.578 -0.6391  2.2464  1.0138
 5861SOL     OW29215   3.417   2.488  15.834  0.3421  0.1645  0.2133
 5861SOL    HW129216   3.426   2.569  15.784 -0.9359  0.0500 -0.1972
 5861SOL    HW229217   3.441   2.512  15.924 -1.6567  1.8526  0.3070
 5862SOL     OW29218   2.689   0.338   4.723 -0.1931 -0.4808 -0.7483
 5862SOL    HW129219   2.599   0.351   4.692 -0.8255  0.6591  1.4665
 5862SOL    HW229220   2.696   0.247   4.697 -1.6090  0.0751 -3.0654
 5863SOL     OW29221   0.976   2.720   3.368  0.3279 -0.1481  0.4479
 5863SOL    HW129222   1.038   2.682   3.306 -1.9254 -0.3821 -1.6859
 5863SOL    HW229223   0.974   2.810   3.333 -0.9862 -0.1404  0.5211
 5864SOL     OW29224   2.236   0.705   5.271 -0.0985  0.3270 -0.6882
 5864SOL    HW129225   2.182   0.682   5.347 -0.2546  0.1553 -0.8503
 5864SOL    HW229226   2.202   0.792   5.250  0.3842  0.5531 -0.5216
 5865SOL     OW29227   4.604   0.055   6.635  0.0483 -0.4434  0.3219
 5865SOL    HW129228   4.518   0.014   6.625 -0.9023  1.3263  1.1810
 5865SOL    HW229229   4.598   0.140   6.592  0.5361 -0.7172 -0.2916
 5866SOL     OW29230   0.422   0.998   8.500 -0.0039  0.4446 -0.5229
 5866SOL    HW129231   0.407   1.023   8.591  0.1481  2.1911 -0.9741
 5866SOL    HW229232   0.449   1.084   8.468  2.9018  0.0060  0.7411
 5867SOL     OW29233   2.202   3.905   9.281 -0.5324  0.8625 -0.3836
 5867SOL    HW129234   2.235   3.915   9.370 -1.2060 -0.4905  0.0064
 5867SOL    HW229235   2.221   3.988   9.237  0.5469  1.0730  0.4885
 5868SOL     OW29236   1.814   4.474   0.744 -0.3517  0.6365  0.2815
 5868SOL    HW129237   1.812   4.470   0.840 -0.3042 -0.4817  0.2386
 5868SOL    HW229238   1.759   4.550   0.730 -1.4729 -0.5401 -1.6220
 5869SOL     OW29239   3.463   2.300   4.605  0.1534 -0.2773  0.3960
 5869SOL    HW129240   3.540   2.259   4.645  2.0824  1.5811 -1.4445
 5869SOL    HW229241   3.501   2.319   4.520  1.2897  0.5885  1.1084
 5870SOL     OW29242   4.632   0.958   0.204 -0.1110  0.1860 -0.0951
 5870SOL    HW129243   4.722   0.925   0.195 -0.9313 -2.4885  1.2766
 5870SOL    HW229244   4.585   0.884   0.165 -1.2769 -0.3794  2.4073
 5871SOL     OW29245   4.442   1.555   5.697  0.5047 -0.0192  0.3120
 5871SOL    HW129246   4.495   1.551   5.617 -0.0170 -0.2580 -0.0175
 5871SOL    HW229247   4.374   1.618   5.678  0.2683 -0.4866 -0.3886
 5872SOL     OW29248   0.054   0.287   0.721 -0.1305 -0.9689  0.5559
 5872SOL    HW129249   0.006   0.267   0.641 -1.6046  0.9234  0.9615
 5872SOL    HW229250   0.143   0.268   0.692 -0.5810 -1.2387 -0.6455
 5873SOL     OW29251   0.063   2.454   7.034  0.2249  0.1659  0.2731
 5873SOL    HW129252   0.021   2.438   6.949  0.6558  0.2322  0.0494
 5873SOL    HW229253   0.029   2.542   7.050 -1.2870  0.0454 -2.2132
 5874SOL     OW29254   2.927   2.231   1.481  0.1362 -0.0579  0.3598
 5874SOL    HW129255   2.971   2.298   1.430  0.9593 -1.6482 -1.0418
 5874SOL    HW229256   2.995   2.163   1.490 -0.3104 -0.8979 -2.7163
 5875SOL     OW29257   2.149   4.346   6.603 -0.6478 -0.7508  0.0499
 5875SOL    HW129258   2.178   4.269   6.652 -0.8666 -0.4604  0.6380
 5875SOL    HW229259   2.236   4.367   6.567 -0.7635  0.9775  0.7684
 5876SOL     OW29260   0.323   4.448   0.664  0.7334  0.5213  0.6455
 5876SOL    HW129261   0.361   4.472   0.749  0.0633  0.3177  1.0011
 5876SOL    HW229262   0.372   4.509   0.609  0.8514 -0.3659 -0.2384
 5877SOL     OW29263   2.052   1.804   6.669  0.0359 -0.6716  0.5098
 5877SOL    HW129264   2.012   1.736   6.724 -1.6744  0.8824  1.1742
 5877SOL    HW229265   2.057   1.873   6.735 -0.4548  0.2587 -0.4284
 5878SOL     OW29266   0.403   4.193   5.169  1.1266 -0.1510  0.1429
 5878SOL    HW129267   0.389   4.193   5.074 -1.4935 -0.9649  0.5084
 5878SOL    HW229268   0.490   4.154   5.165  0.9933 -0.3962 -0.5276
 5879SOL     OW29269   0.907   3.822   2.017  0.5422 -0.1501 -0.1761
 5879SOL    HW129270   0.856   3.850   2.093 -1.4542 -1.3046 -1.0581
 5879SOL    HW229271   0.984   3.803   2.071 -2.3235 -2.3891  3.2165
 5880SOL     OW29272   0.721   0.497   3.200  0.2975  1.1200 -0.2556
 5880SOL    HW129273   0.766   0.420   3.166  1.0620  2.3049 -1.9555
 5880SOL    HW229274   0.798   0.542   3.235 -1.3478  1.6171  2.7554
 5881SOL     OW29275   1.637   0.251   9.344 -0.3548 -0.4221 -0.5032
 5881SOL    HW129276   1.581   0.175   9.329 -0.3445 -0.4047 -0.6339
 5881SOL    HW229277   1.712   0.215   9.391  2.5374  1.5795 -3.5513
 5882SOL     OW29278   4.321   0.786   8.132  0.1719  0.5768 -0.1193
 5882SOL    HW129279   4.404   0.761   8.174 -1.3300  0.9787  3.0250
 5882SOL    HW229280   4.261   0.749   8.196 -0.0860  0.7841 -0.2410
 5883SOL     OW29281   4.514   2.136   9.236  0.0708  0.3803  0.1015
 5883SOL    HW129282   4.487   2.102   9.150  0.4041  0.2325  0.0576
 5883SOL    HW229283   4.594   2.084   9.248  0.1613  0.8506  1.5540
 5884SOL     OW29284   2.240   1.458   3.331 -0.0857 -0.1240 -0.4407
 5884SOL    HW129285   2.218   1.548   3.355 -0.9182 -0.1346 -1.1756
 5884SOL    HW229286   2.324   1.465   3.377 -0.1510 -2.8065  0.1295
 5885SOL     OW29287   2.800   1.248   5.310 -0.7131 -0.2128  0.4644
 5885SOL    HW129288   2.741   1.232   5.384  0.3922 -1.3458  1.0942
 5885SOL    HW229289   2.780   1.171   5.257  1.7553 -0.2820 -0.3640
 5886SOL     OW29290   2.526   2.507   6.041 -0.3086 -0.0282 -0.1086
 5886SOL    HW129291   2.494   2.430   6.090 -0.0388 -1.8296 -2.7862
 5886SOL    HW229292   2.546   2.559   6.119 -1.4688  0.5070 -0.1674
 5887SOL     OW29293   4.202   1.850   1.876  0.3888  0.9025  0.0581
 5887SOL    HW129294   4.185   1.785   1.807 -0.0536  0.2276  0.7983
 5887SOL    HW229295   4.118   1.892   1.891  0.1630  1.6451 -3.1947
 5888SOL     OW29296   0.964   2.462   4.462  0.0567 -1.2736 -0.0120
 5888SOL    HW129297   1.053   2.492   4.481 -0.4900  1.0502 -1.2194
 5888SOL    HW229298   0.906   2.538   4.465 -0.4329 -1.6649  0.3975
 5889SOL     OW29299   4.546   2.127   7.620  0.2105 -0.3366 -0.1891
 5889SOL    HW129300   4.558   2.050   7.675  0.9003  1.0498  1.6410
 5889SOL    HW229301   4.573   2.194   7.683  0.7819 -0.3688 -0.4065
 5890SOL     OW29302   2.537   3.142   5.549 -0.2810 -0.1728  0.4765
 5890SOL    HW129303   2.513   3.230   5.577 -2.5859 -0.4310 -0.6703
 5890SOL    HW229304   2.632   3.146   5.554 -0.2629  0.2994 -0.2133
 5891SOL     OW29305   2.703   3.180   6.719  0.1509  0.3381 -0.1713
 5891SOL    HW129306   2.676   3.109   6.778 -0.6494  0.0990 -0.8141
 5891SOL    HW229307   2.643   3.172   6.645  0.2148  0.4492 -0.2345
 5892SOL     OW29308   3.168   1.122   6.418 -0.1275  0.2403  0.2742
 5892SOL    HW129309   3.251   1.149   6.378 -0.4045 -1.4514 -1.4528
 5892SOL    HW229310   3.119   1.203   6.408 -2.0175 -0.9266  0.1152
 5893SOL     OW29311   3.115   2.212   6.336 -0.2880  0.4706 -0.0295
 5893SOL    HW129312   3.086   2.224   6.426  2.7696  0.0006  0.9987
 5893SOL    HW229313   3.209   2.226   6.339  0.3404 -3.3647 -2.1386
 5894SOL     OW29314   3.257   2.641   2.864  0.4591  0.0327 -0.3881
 5894SOL    HW129315   3.259   2.708   2.796 -0.0206  1.4691  1.0075
 5894SOL    HW229316   3.235   2.690   2.944  1.7593 -0.9025  0.5467
 5895SOL     OW29317   1.653   0.754   8.211  0.2207  0.1123 -0.1907
 5895SOL    HW129318   1.718   0.684   8.206  0.7997  0.4987  2.1901
 5895SOL    HW229319   1.580   0.698   8.238  0.1065 -0.2799 -1.2998
 5896SOL     OW29320   4.368   3.680   4.413  0.5312 -0.3212 -0.4393
 5896SOL    HW129321   4.451   3.694   4.369  1.1401 -1.7364  0.2593
 5896SOL    HW229322   4.300   3.680   4.345 -0.2027 -0.4584  0.2962
 5897SOL     OW29323   3.515   3.765   4.898  0.2339 -0.0406 -0.7197
 5897SOL    HW129324   3.426   3.731   4.912  0.1361 -0.5118 -2.4839
 5897SOL    HW229325   3.541   3.789   4.987  0.6481  0.1930 -0.9062
 5898SOL     OW29326   2.851   2.141   1.808  0.1428  0.4366  0.3867
 5898SOL    HW129327   2.797   2.219   1.800 -0.7323 -0.1772  0.2813
 5898SOL    HW229328   2.908   2.163   1.735 -1.4676 -0.3514 -1.1220
 5899SOL     OW29329   3.503   1.915  17.298 -0.7027 -0.0777  0.1042
 5899SOL    HW129330   3.445   1.889  17.226 -1.0264 -0.1266  0.3841
 5899SOL    HW229331   3.450   1.990  17.326  0.6581  0.5861  0.8471
 5900SOL     OW29332   2.285   0.698   7.418  0.0487 -0.1188 -0.2045
 5900SOL    HW129333   2.223   0.626   7.431  1.1826 -1.1317 -0.3310
 5900SOL    HW229334   2.364   0.656   7.382 -0.0783 -0.0988 -0.5052
 5901SOL     OW29335   2.757   3.500   6.177  0.5248  1.2348 -0.0606
 5901SOL    HW129336   2.764   3.551   6.258  0.5759  1.2020 -0.0447
 5901SOL    HW229337   2.826   3.539   6.124  0.7009  1.1844  0.1303
 5902SOL     OW29338   1.829   3.497   6.612  0.4648 -0.2283 -0.5223
 5902SOL    HW129339   1.854   3.587   6.590 -2.0303  0.9092  1.3225
 5902SOL    HW229340   1.767   3.492   6.539 -1.2718 -0.6367  0.9804
 5903SOL     OW29341   1.155   3.637   2.755 -0.0427 -0.6336  0.3091
 5903SOL    HW129342   1.089   3.606   2.817 -1.4382  0.5871 -0.5822
 5903SOL    HW229343   1.228   3.597   2.803  0.1341 -0.2194  0.3854
 5904SOL     OW29344   0.733   4.067   1.758 -0.5341  0.4687  0.0896
 5904SOL    HW129345   0.806   4.095   1.814 -1.3181  2.0295  0.3267
 5904SOL    HW229346   0.740   3.972   1.771  1.0452  0.3949 -1.2778
 5905SOL     OW29347   3.895   1.355   4.697  0.1671 -0.0265  0.9142
 5905SOL    HW129348   3.969   1.405   4.663 -0.4927 -0.1174 -0.6294
 5905SOL    HW229349   3.941   1.314   4.770 -0.4152 -1.9172  0.2184
 5906SOL     OW29350   0.432   3.487  10.161 -0.3351  0.0102 -0.3593
 5906SOL    HW129351   0.439   3.548  10.088 -0.4204 -0.2584 -0.5936
 5906SOL    HW229352   0.360   3.531  10.207  0.0178 -0.6837  0.8721
 5907SOL     OW29353   3.206   0.107   9.573  0.2837  0.0710  0.3257
 5907SOL    HW129354   3.167   0.021   9.555  1.2033 -0.4372  0.7343
 5907SOL    HW229355   3.183   0.165   9.501  0.0573  0.6373  0.8585
 5908SOL     OW29356   3.667   2.137  14.454  0.1471 -1.1150  0.0706
 5908SOL    HW129357   3.612   2.176  14.521 -1.1246 -2.6584 -0.0723
 5908SOL    HW229358   3.667   2.043  14.474  1.9545 -0.6433  2.2916
 5909SOL     OW29359   3.054   2.464   9.690 -0.7021 -0.0835  0.1590
 5909SOL    HW129360   3.128   2.504   9.644 -0.2561 -2.2004 -0.9700
 5909SOL    HW229361   3.001   2.441   9.613  0.3802 -0.9833 -0.3167
 5910SOL     OW29362   1.542   1.467   6.110  0.0269 -0.0511  0.4219
 5910SOL    HW129363   1.560   1.466   6.204  0.9698  0.3755  0.2494
 5910SOL    HW229364   1.448   1.481   6.101  0.1483 -1.5859 -3.5193
 5911SOL     OW29365   1.281   2.946   8.039 -0.3784  0.4272  0.3067
 5911SOL    HW129366   1.305   3.011   7.974 -1.6311 -0.9248 -1.5351
 5911SOL    HW229367   1.206   2.993   8.075 -0.9529  0.0155 -0.3391
 5912SOL     OW29368   4.451   2.299   9.787 -0.1114 -0.2216 -0.0869
 5912SOL    HW129369   4.400   2.320   9.709 -0.2561  1.0408  0.3421
 5912SOL    HW229370   4.405   2.352   9.853  1.8694  0.9126  0.3707
 5913SOL     OW29371   1.523   1.508   5.567 -0.1692 -0.2433  0.3371
 5913SOL    HW129372   1.563   1.462   5.493  0.2280  2.3103 -1.0237
 5913SOL    HW229373   1.592   1.569   5.594  0.7995 -0.2708 -2.1323
 5914SOL     OW29374   3.501   0.730  11.959 -0.1690  0.2897  0.1516
 5914SOL    HW129375   3.519   0.749  12.051 -0.1664 -2.1690  0.6526
 5914SOL    HW229376   3.434   0.662  11.971 -1.5998  1.2346 -2.3817
 5915SOL     OW29377   4.155   0.364   1.103  0.0385 -0.7360  0.0582
 5915SOL    HW129378   4.134   0.271   1.108  1.3660 -1.0234  0.0754
 5915SOL    HW229379   4.250   0.363   1.111  0.1374 -1.1162 -1.2581
 5916SOL     OW29380   0.965   3.236  10.018  0.4504  0.6771  0.6110
 5916SOL    HW129381   0.955   3.264  10.109 -3.2014  0.8349  0.1446
 5916SOL    HW229382   1.056   3.208  10.007  0.2382  0.3655 -0.3682
 5917SOL     OW29383   1.354   0.282   3.009 -0.3498  0.3758  0.2420
 5917SOL    HW129384   1.428   0.306   2.952 -1.3258 -0.5033 -1.3848
 5917SOL    HW229385   1.389   0.255   3.094  1.4460 -1.1032 -0.9648
 5918SOL     OW29386   3.688   1.417   2.326 -1.1793 -0.0375  0.3440
 5918SOL    HW129387   3.695   1.333   2.371 -0.0832 -0.4867 -0.6778
 5918SOL    HW229388   3.642   1.394   2.246  0.2740 -1.6311 -0.0304
 5919SOL     OW29389   0.059   1.336  16.677  0.6121  0.1316  0.5259
 5919SOL    HW129390   0.053   1.413  16.734 -3.4763  2.3411 -2.7597
 5919SOL    HW229391   4.729   1.354  16.617  1.9342 -1.9981 -1.7293
 5920SOL     OW29392   3.605   0.862  10.335 -0.0291  0.4656  0.5938
 5920SOL    HW129393   3.575   0.824  10.253  0.1023 -0.2718  0.8796
 5920SOL    HW229394   3.653   0.788  10.373 -1.1924 -0.9065 -0.5853
 5921SOL     OW29395   2.892   2.790   7.376 -0.3752 -0.2429 -0.1498
 5921SOL    HW129396   2.924   2.866   7.327  0.0302  0.0320  0.5355
 5921SOL    HW229397   2.836   2.749   7.310 -1.9685  1.7159 -0.0097
 5922SOL     OW29398   1.045   4.654   0.930 -0.4558  0.0593 -0.1476
 5922SOL    HW129399   1.056   4.609   1.013  0.7759  0.2455 -0.2033
 5922SOL    HW229400   1.006   4.736   0.961 -1.5612 -0.7824  0.6726
 5923SOL     OW29401   0.906   3.441  10.650 -0.4003  0.0703 -0.3449
 5923SOL    HW129402   1.001   3.441  10.663 -0.1646 -0.4630 -2.0176
 5923SOL    HW229403   0.888   3.535  10.655 -0.5071 -0.0039  0.6253
 5924SOL     OW29404   0.224   3.580   0.610  0.0852  0.1744  0.1435
 5924SOL    HW129405   0.239   3.673   0.593  0.0861  0.0102 -0.7791
 5924SOL    HW229406   0.176   3.596   0.691  0.3040  1.7855 -0.0352
 5925SOL     OW29407   4.519   3.411  11.256 -0.3117 -0.3188 -0.1009
 5925SOL    HW129408   4.472   3.330  11.236 -0.6586  0.0312 -0.7285
 5925SOL    HW229409   4.609   3.379  11.253  0.5076  1.8515  1.3377
 5926SOL     OW29410   4.708   2.959  13.970 -0.3986  0.0313 -0.5738
 5926SOL    HW129411   0.025   2.946  14.043 -1.1434  1.2754  0.2702
 5926SOL    HW229412   0.005   2.892  13.915 -0.1443 -1.3718  1.3046
 5927SOL     OW29413   0.140   2.239  12.407  0.1992  0.4594 -0.2310
 5927SOL    HW129414   0.194   2.248  12.329  0.3669 -0.3191 -0.2080
 5927SOL    HW229415   0.083   2.315  12.397 -0.1205  0.7193  3.4684
 5928SOL     OW29416   0.500   1.704   6.494 -0.1331  0.2664 -0.1287
 5928SOL    HW129417   0.588   1.692   6.459  0.5110  1.0280  1.2168
 5928SOL    HW229418   0.447   1.707   6.414 -1.4071  1.7546  0.7418
 5929SOL     OW29419   3.312   3.158   2.485  0.2451 -0.1858 -0.3857
 5929SOL    HW129420   3.405   3.169   2.468  0.6484  1.0926  2.7609
 5929SOL    HW229421   3.296   3.070   2.449  0.9760 -0.5827  0.2745
 5930SOL     OW29422   2.705   0.269   7.364  0.3274 -0.1786  0.1301
 5930SOL    HW129423   2.660   0.224   7.293 -1.7539  1.0705  0.6344
 5930SOL    HW229424   2.796   0.259   7.336  0.2755  0.0111 -0.1078
 5931SOL     OW29425   2.736   1.743   4.047 -0.1969 -0.4549 -0.3073
 5931SOL    HW129426   2.808   1.787   4.093  0.3074 -0.8614 -0.7145
 5931SOL    HW229427   2.754   1.651   4.066 -1.2942 -0.7453 -0.6689
 5932SOL     OW29428   4.677   2.792   9.510  0.4498 -0.9723 -0.2288
 5932SOL    HW129429   4.735   2.754   9.576 -1.0028 -1.1015  0.9606
 5932SOL    HW229430   4.633   2.860   9.562  0.2117 -2.2149  1.1864
 5933SOL     OW29431   2.621   0.291   8.160  0.1285  1.0919  0.4235
 5933SOL    HW129432   2.693   0.236   8.131 -2.6715 -0.2191 -3.9414
 5933SOL    HW229433   2.666   0.376   8.160  0.0360  1.1373 -2.4214
 5934SOL     OW29434   0.448   0.343   9.121 -0.4967  0.5215 -0.0340
 5934SOL    HW129435   0.443   0.328   9.027 -0.1587  0.1414  0.0071
 5934SOL    HW229436   0.483   0.258   9.149 -1.2808 -0.4185 -1.9382
 5935SOL     OW29437   0.036   3.899  15.262 -0.7107 -0.2144  0.4442
 5935SOL    HW129438   0.126   3.875  15.283 -0.6168  0.6711  1.0695
 5935SOL    HW229439   0.031   3.993  15.246 -0.9504 -0.7742 -2.7912
 5936SOL     OW29440   4.669   3.234   0.982  0.3425 -0.0700 -0.0443
 5936SOL    HW129441   4.574   3.241   0.993  0.7265  2.2520  1.7158
 5936SOL    HW229442   4.682   3.188   1.065  0.7724  1.0913  0.5335
 5937SOL     OW29443   4.422   0.641   2.871  0.4006 -0.1696 -0.2423
 5937SOL    HW129444   4.443   0.715   2.927 -0.0149  1.3559 -2.1360
 5937SOL    HW229445   4.366   0.588   2.928 -0.5526 -1.5016 -2.4161
 5938SOL     OW29446   3.454   1.101  17.334  0.1743 -0.3509 -0.4586
 5938SOL    HW129447   3.481   1.022  17.381  0.3773  0.1909  0.3380
 5938SOL    HW229448   3.534   1.113  17.282  1.3051 -2.4240  0.8113
 5939SOL     OW29449   3.067   4.206   9.648  0.2804 -0.1978  0.2777
 5939SOL    HW129450   3.119   4.140   9.695 -0.4222 -0.0228  1.2914
 5939SOL    HW229451   3.071   4.281   9.707 -3.1793 -0.6836  1.0749
 5940SOL     OW29452   1.991   4.379   5.131 -0.5424 -0.3705  0.1861
 5940SOL    HW129453   2.010   4.394   5.224 -3.7420  2.2383  0.4173
 5940SOL    HW229454   2.015   4.467   5.103  0.0606  0.0214  1.9231
 5941SOL     OW29455   3.260   1.883   2.690  0.6077  0.0956  0.1330
 5941SOL    HW129456   3.181   1.937   2.691 -0.2974 -1.1989 -0.4253
 5941SOL    HW229457   3.321   1.940   2.644  1.4715 -0.6662  0.3291
 5942SOL     OW29458   3.946   1.223   2.379 -0.2191 -0.7874  0.0614
 5942SOL    HW129459   3.928   1.152   2.318  0.8944 -0.6374 -0.4525
 5942SOL    HW229460   4.024   1.271   2.351 -0.4366 -0.1737  0.5103
 5943SOL     OW29461   0.837   1.215   6.826  0.2257 -0.1823 -0.0505
 5943SOL    HW129462   0.741   1.210   6.825  0.1360  1.2467  0.7711
 5943SOL    HW229463   0.860   1.282   6.761 -0.7411 -0.3614 -0.5914
 5944SOL     OW29464   1.074   2.487  16.641  0.4129 -0.2464  0.2283
 5944SOL    HW129465   1.091   2.416  16.579  1.2651  0.5743 -0.4608
 5944SOL    HW229466   1.052   2.556  16.578 -1.2942 -0.9625  0.0314
 5945SOL     OW29467   4.120   3.837   3.062  0.2004 -0.1733  0.7412
 5945SOL    HW129468   4.102   3.760   3.007 -0.6406  1.2728 -1.0032
 5945SOL    HW229469   4.215   3.830   3.066  0.2027 -0.3591  0.3033
 5946SOL     OW29470   1.365   4.057   2.678 -0.0940 -0.2491  0.6034
 5946SOL    HW129471   1.425   4.041   2.750  0.5218 -1.6788 -0.2366
 5946SOL    HW229472   1.423   4.116   2.630 -1.0477  0.4945  0.3467
 5947SOL     OW29473   1.742   1.142   9.127  0.1661  0.1342  0.1601
 5947SOL    HW129474   1.817   1.149   9.186  1.4909  0.6031 -1.5423
 5947SOL    HW229475   1.777   1.165   9.040  1.5397  1.4922  1.0747
 5948SOL     OW29476   3.357   4.666   8.991  0.9160 -0.1452 -0.3576
 5948SOL    HW129477   3.305   4.737   9.029  3.2793 -0.5072  3.5709
 5948SOL    HW229478   3.303   4.653   8.912  0.1328 -0.6966  0.2663
 5949SOL     OW29479   0.537   3.135   8.607  0.1605  0.7811 -0.9335
 5949SOL    HW129480   0.448   3.144   8.574  0.2082  2.4018 -0.6468
 5949SOL    HW229481   0.540   3.040   8.609  0.1405  0.7677 -1.6211
 5950SOL     OW29482   3.339   0.170   3.786  0.0729 -0.0545 -0.1700
 5950SOL    HW129483   3.273   0.101   3.778 -1.9446  1.7675  0.7551
 5950SOL    HW229484   3.336   0.181   3.881 -1.0049 -0.0863 -0.1969
 5951SOL     OW29485   1.142   2.263   3.823  0.2727 -0.2652 -0.0623
 5951SOL    HW129486   1.055   2.227   3.809  1.4477 -3.2686  0.4429
 5951SOL    HW229487   1.146   2.246   3.917 -0.0864 -1.1526 -0.2091
 5952SOL     OW29488   4.694   2.070   1.957 -0.9278  0.9183  0.1660
 5952SOL    HW129489   0.002   2.150   1.946 -2.0255  1.5257 -0.6388
 5952SOL    HW229490   0.022   2.008   1.945 -1.2212  0.3229  1.4805
 5953SOL     OW29491   0.094   4.066   7.244  0.1579 -0.2838 -0.1654
 5953SOL    HW129492   0.133   4.100   7.163  2.4274  1.5497  1.6784
 5953SOL    HW229493   0.096   3.973   7.222  2.6338 -0.7027  1.7834
 5954SOL     OW29494   3.838   2.574   9.652 -0.0331 -0.5240  0.5772
 5954SOL    HW129495   3.773   2.549   9.718 -3.1658  1.3988 -1.7750
 5954SOL    HW229496   3.919   2.604   9.694  0.5191  0.9402 -1.5718
 5955SOL     OW29497   0.589   2.558   5.284  0.1023 -0.5404  0.1181
 5955SOL    HW129498   0.515   2.582   5.339 -0.5777  0.5531 -1.2696
 5955SOL    HW229499   0.616   2.645   5.256  0.5415 -1.2757 -1.7696
 5956SOL     OW29500   2.358   3.403   5.174 -0.4692  0.0672  0.3563
 5956SOL    HW129501   2.264   3.399   5.189 -1.0475  1.6869 -2.8722
 5956SOL    HW229502   2.356   3.462   5.099 -3.4925  1.3302  1.4370
 5957SOL     OW29503   3.770   0.453   6.907  0.2339  0.0176  0.4296
 5957SOL    HW129504   3.688   0.411   6.935  0.1356  1.0631  1.6924
 5957SOL    HW229505   3.810   0.473   6.992  3.4805  0.5501 -1.2232
 5958SOL     OW29506   0.903   0.122  12.553  0.7443  0.0574 -0.0499
 5958SOL    HW129507   0.811   0.126  12.527  0.3205 -1.9771  1.1667
 5958SOL    HW229508   0.944   0.196  12.509  1.1114  0.2965  0.6992
 5959SOL     OW29509   1.370   2.401   7.188 -0.3067 -0.2697  0.3271
 5959SOL    HW129510   1.417   2.346   7.250  2.3627  1.8321  0.1850
 5959SOL    HW229511   1.408   2.368   7.107 -1.6494 -2.0888  0.4410
 5960SOL     OW29512   0.981   4.247  11.258 -0.0905 -0.7268  0.0026
 5960SOL    HW129513   1.049   4.303  11.297  0.1779 -0.3017 -1.0806
 5960SOL    HW229514   0.933   4.193  11.321  0.3698  0.3377  1.2622
 5961SOL     OW29515   4.057   0.606   5.181 -0.0387  0.0144 -0.0797
 5961SOL    HW129516   4.134   0.632   5.231 -0.5752 -1.2832  1.4253
 5961SOL    HW229517   3.990   0.667   5.212 -0.1253 -0.6790  1.1352
 5962SOL     OW29518   1.448   1.086   2.966  0.4801 -0.1244  0.3896
 5962SOL    HW129519   1.404   1.003   2.945 -0.0497  0.3196 -0.2518
 5962SOL    HW229520   1.529   1.054   3.007  0.3101 -0.0498  0.7809
 5963SOL     OW29521   0.850   2.695  16.049 -0.0064 -0.3679  0.4752
 5963SOL    HW129522   0.778   2.757  16.065  0.0459 -0.3937  0.8148
 5963SOL    HW229523   0.824   2.651  15.968  4.0739  0.0425 -1.0640
 5964SOL     OW29524   0.805   2.730  12.015  0.0597  0.3662 -0.2032
 5964SOL    HW129525   0.781   2.641  11.991 -2.1904  0.9009  0.0382
 5964SOL    HW229526   0.893   2.722  12.051 -0.7053 -1.3103  1.2899
 5965SOL     OW29527   4.053   4.705   9.430 -0.0599 -0.3071  0.1533
 5965SOL    HW129528   4.063   0.023   9.358 -0.7360 -0.1726  0.1822
 5965SOL    HW229529   4.000   0.017   9.487  2.2378 -0.6338  2.6230
 5966SOL     OW29530   1.075   4.629   2.099  0.2862  0.3394 -0.1022
 5966SOL    HW129531   0.980   4.624   2.115  0.2568 -3.0571 -1.5168
 5966SOL    HW229532   1.076   4.674   2.015 -1.1808 -0.3991 -0.5110
 5967SOL     OW29533   1.311   3.866   0.214  0.1213 -0.3293  0.0539
 5967SOL    HW129534   1.263   3.829   0.288  2.2471 -0.8997  1.1594
 5967SOL    HW229535   1.328   3.953   0.249 -1.3945  0.7183 -1.8445
 5968SOL     OW29536   3.570   0.901   3.296 -0.0156  0.1058  0.3858
 5968SOL    HW129537   3.607   0.959   3.363 -2.2014  0.3693  1.3551
 5968SOL    HW229538   3.530   0.828   3.344 -0.7039  0.2288 -0.0098
 5969SOL     OW29539   1.282   0.199   9.399 -0.6105  0.6605 -0.4283
 5969SOL    HW129540   1.193   0.188   9.434 -0.0320  0.4435  0.9826
 5969SOL    HW229541   1.290   0.127   9.336  2.0740  2.4206 -2.0946
 5970SOL     OW29542   3.561   0.781  10.055 -0.7261  0.1577 -0.0971
 5970SOL    HW129543   3.618   0.837  10.002  0.7758  0.6080  1.9802
 5970SOL    HW229544   3.579   0.693  10.022 -2.0938  0.7520 -2.4300
 5971SOL     OW29545   4.289   3.203  12.031  0.6366 -0.0812 -0.6033
 5971SOL    HW129546   4.300   3.109  12.047  0.8334 -0.1144 -0.9294
 5971SOL    HW229547   4.234   3.207  11.953  1.0701 -1.6545 -0.9852
 5972SOL     OW29548   0.119   0.270   7.452 -0.3764  0.4088 -0.1004
 5972SOL    HW129549   0.134   0.219   7.532 -1.2332  1.0265  0.4625
 5972SOL    HW229550   0.086   0.195   7.403  2.3628 -0.6089 -0.4106
 5973SOL     OW29551   3.403   0.424   2.890  0.3081  0.0549 -0.4452
 5973SOL    HW129552   3.387   0.468   2.807 -0.4892  0.5645 -0.0244
 5973SOL    HW229553   3.320   0.455   2.928  0.7971 -1.8532  2.1652
 5974SOL     OW29554   1.796   0.194   5.794  1.0912  0.4393 -0.1995
 5974SOL    HW129555   1.703   0.211   5.809  1.5270  0.9143  1.9989
 5974SOL    HW229556   1.817   0.133   5.864  0.2246 -0.0499 -0.3636
 5975SOL     OW29557   0.718   1.780   8.115 -0.1930 -0.7549  0.1534
 5975SOL    HW129558   0.664   1.731   8.178  0.3773 -1.3592  0.1685
 5975SOL    HW229559   0.804   1.791   8.157 -0.1192  0.0391 -0.1963
 5976SOL     OW29560   2.169   1.654  10.048 -1.0644  0.3962  0.2597
 5976SOL    HW129561   2.099   1.691   9.994 -1.2971  0.7623  0.8129
 5976SOL    HW229562   2.216   1.729  10.085  1.5375 -0.3898 -1.4856
 5977SOL     OW29563   1.047   0.585   4.490  0.2538 -0.2849 -0.1566
 5977SOL    HW129564   1.092   0.664   4.519  1.2866 -0.8632 -0.1656
 5977SOL    HW229565   1.056   0.587   4.395  1.3283 -1.8756 -0.0956
 5978SOL     OW29566   4.163   1.435   2.777 -0.2011 -0.1517 -0.0291
 5978SOL    HW129567   4.184   1.400   2.690 -1.9635 -0.7582 -0.2023
 5978SOL    HW229568   4.239   1.487   2.803 -0.0122 -0.6526  0.4107
 5979SOL     OW29569   0.080   0.357   3.844  0.7728 -0.4700 -0.0769
 5979SOL    HW129570   0.054   0.417   3.914 -0.0062 -2.7112  1.5489
 5979SOL    HW229571   0.171   0.383   3.831  0.0611  1.9959 -0.0706
 5980SOL     OW29572   4.683   2.438  12.389 -0.1430  0.1286 -0.0148
 5980SOL    HW129573   4.715   2.510  12.444  2.4171 -1.0461  0.0333
 5980SOL    HW229574   4.703   2.461  12.299  1.8023 -0.0751  0.3679
 5981SOL     OW29575   0.282   2.542   0.494  0.3060 -0.0411  0.2971
 5981SOL    HW129576   0.284   2.463   0.440 -2.1118 -0.2103  0.4473
 5981SOL    HW229577   0.221   2.590   0.438  0.7911 -0.3448 -0.4885
 5982SOL     OW29578   2.450   4.084   3.359 -0.2862  0.0422 -0.0362
 5982SOL    HW129579   2.468   3.992   3.374  0.5092 -0.1353 -2.0088
 5982SOL    HW229580   2.445   4.095   3.263  0.0616  1.9407  0.1534
 5983SOL     OW29581   1.552   1.067   6.057 -0.1132 -0.1350 -0.3605
 5983SOL    HW129582   1.539   1.056   6.151 -1.8190  0.1295 -0.5681
 5983SOL    HW229583   1.521   1.156   6.041 -3.6254 -1.1673  0.7259
 5984SOL     OW29584   3.361   2.494   2.669 -0.2109  0.1716  0.5784
 5984SOL    HW129585   3.307   2.500   2.591 -0.8325  2.0720  1.1516
 5984SOL    HW229586   3.312   2.543   2.735 -1.3111 -1.0110  0.6300
 5985SOL     OW29587   0.438   4.459   1.284  0.3679 -0.6364 -0.8542
 5985SOL    HW129588   0.502   4.474   1.353  1.1419 -2.8199 -1.0681
 5985SOL    HW229589   0.366   4.517   1.307  0.6641 -1.6504  2.6407
 5986SOL     OW29590   1.048   1.105   2.838 -0.5313  0.0357 -0.0833
 5986SOL    HW129591   1.038   1.074   2.928 -2.2375 -0.5240 -0.4730
 5986SOL    HW229592   1.083   1.029   2.792  2.7913  2.0225 -0.8572
 5987SOL     OW29593   1.177   0.024  16.700 -0.1313  0.1999  0.3768
 5987SOL    HW129594   1.115   0.034  16.773  0.5841  1.9221  0.7663
 5987SOL    HW229595   1.252   0.056  16.750  0.0728 -1.1146  0.8992
 5988SOL     OW29596   3.175   1.064   3.932 -0.2487  0.4890  0.1213
 5988SOL    HW129597   3.145   0.973   3.925  1.1557 -0.0374  0.8425
 5988SOL    HW229598   3.235   1.056   4.007  0.4332  1.3237 -0.3356
 5989SOL     OW29599   3.743   3.480   4.138 -0.0250  0.1017 -0.2051
 5989SOL    HW129600   3.748   3.545   4.208  1.5114 -1.4251  1.1164
 5989SOL    HW229601   3.801   3.520   4.073  1.8141 -0.6079  0.9784
 5990SOL     OW29602   2.023   0.012   4.509 -0.5547  0.2873  1.0195
 5990SOL    HW129603   2.046   4.671   4.548  2.5850 -0.8145 -3.2101
 5990SOL    HW229604   1.929   0.013   4.529 -0.6321 -3.2721  0.7975
 5991SOL     OW29605   1.496   3.821  14.196  0.1643  0.3258 -0.6168
 5991SOL    HW129606   1.565   3.756  14.180 -0.2251  0.0190 -1.0640
 5991SOL    HW229607   1.521   3.876  14.121 -4.3321  0.5791 -1.9110
 5992SOL     OW29608   3.295   1.711   3.302 -0.4569  0.1644 -0.0501
 5992SOL    HW129609   3.306   1.745   3.391  0.6221 -1.1955  0.3403
 5992SOL    HW229610   3.323   1.789   3.253  0.6703 -1.1705 -1.5345
 5993SOL     OW29611   3.198   2.825   1.327 -0.8475  0.1474 -0.6485
 5993SOL    HW129612   3.197   2.807   1.421  0.7046  2.9323 -0.0912
 5993SOL    HW229613   3.211   2.919   1.325  1.8903 -0.1945  0.8351
 5994SOL     OW29614   0.899   3.617   0.124 -0.5780 -0.3531  0.2878
 5994SOL    HW129615   0.921   3.639   0.215 -1.4012  2.8100 -0.2683
 5994SOL    HW229616   0.835   3.549   0.145 -0.3280 -0.5824  0.3066
 5995SOL     OW29617   4.570   2.557   5.023  0.2590  0.1791 -0.3595
 5995SOL    HW129618   4.610   2.491   5.079 -1.2319 -0.0799  0.3798
 5995SOL    HW229619   4.479   2.536   5.043 -0.3517  1.9677 -1.2894
 5996SOL     OW29620   3.296   1.909   1.469  0.0026  0.2881  0.0767
 5996SOL    HW129621   3.363   1.935   1.532  1.0441 -2.1558 -0.0288
 5996SOL    HW229622   3.313   1.816   1.454  2.6938  0.5867  1.3609
 5997SOL     OW29623   1.272   1.629   9.143  0.0126 -0.2254 -0.1396
 5997SOL    HW129624   1.200   1.568   9.157 -0.4818 -0.1455 -2.3080
 5997SOL    HW229625   1.252   1.704   9.198 -0.4779  0.1828 -0.8790
 5998SOL     OW29626   3.258   3.061   3.301 -0.7341  0.1866 -0.1287
 5998SOL    HW129627   3.171   3.034   3.271  0.7100  0.4280 -4.5597
 5998SOL    HW229628   3.269   3.141   3.250 -0.4030  0.9316  1.1210
 5999SOL     OW29629   3.576   2.177   6.423 -0.0609 -0.0187 -0.7753
 5999SOL    HW129630   3.670   2.195   6.412  0.0670 -0.0958  0.1744
 5999SOL    HW229631   3.574   2.168   6.518 -0.6800 -2.8328 -1.0594
 6000SOL     OW29632   2.498   2.666  11.740  0.2663 -0.0506 -0.3829
 6000SOL    HW129633   2.546   2.584  11.757 -0.5326 -0.2853  0.7212
 6000SOL    HW229634   2.566   2.720  11.700  0.2089 -1.1174 -1.9276
 6001SOL     OW29635   4.129   3.766   3.932 -0.2766 -0.4268  0.1625
 6001SOL    HW129636   4.158   3.751   3.842  0.1703  1.6538 -0.0384
 6001SOL    HW229637   4.171   3.851   3.934  0.9360 -0.9928 -1.1570
 6002SOL     OW29638   1.209   0.191  12.712  0.2783 -0.1045 -0.2303
 6002SOL    HW129639   1.187   0.117  12.655 -1.2318  0.9869 -1.0637
 6002SOL    HW229640   1.282   0.231  12.665 -0.0807 -0.0902 -0.7838
 6003SOL     OW29641   3.425   2.451   5.011 -0.7839  0.3111  0.4091
 6003SOL    HW129642   3.514   2.416   5.011 -1.2856 -0.9836  0.5975
 6003SOL    HW229643   3.402   2.441   4.919 -2.1993  0.6835  0.7102
 6004SOL     OW29644   0.483   3.374   6.910 -0.0970  0.7265  0.0571
 6004SOL    HW129645   0.498   3.279   6.911  1.3575  0.9605  0.8925
 6004SOL    HW229646   0.449   3.380   6.821 -1.5746  1.2797  0.6612
 6005SOL     OW29647   2.303   1.178   3.009 -0.1050  0.5878 -0.7281
 6005SOL    HW129648   2.230   1.238   2.998  0.4036  1.4415  0.4673
 6005SOL    HW229649   2.343   1.196   2.924  1.9680  2.4014  0.6404
 6006SOL     OW29650   2.283   0.158   8.269 -0.2668  0.6538 -0.2595
 6006SOL    HW129651   2.305   0.196   8.354 -0.5456  1.6739 -0.6425
 6006SOL    HW229652   2.322   0.228   8.217  2.8478 -0.3169  0.7534
 6007SOL     OW29653   1.867   2.973   4.395 -0.4494  0.1710  0.2482
 6007SOL    HW129654   1.839   2.885   4.368  1.0406  0.1284 -1.1838
 6007SOL    HW229655   1.898   2.950   4.482  0.1284  1.1999  0.3022
 6008SOL     OW29656   4.545   1.042   7.627  0.0983  0.1222 -0.1360
 6008SOL    HW129657   4.632   1.041   7.667  0.4246 -1.8902 -0.9072
 6008SOL    HW229658   4.569   1.023   7.537 -0.3583 -0.1134 -0.2098
 6009SOL     OW29659   2.047   0.741  14.217  0.3567  0.9887 -0.2591
 6009SOL    HW129660   2.125   0.770  14.264  0.0627 -0.0430  0.8382
 6009SOL    HW229661   2.030   0.670  14.278  0.7444 -1.4425 -2.9803
 6010SOL     OW29662   2.325   4.038   7.532 -0.1381  0.5691 -0.2552
 6010SOL    HW129663   2.336   4.027   7.626 -4.8199 -3.4858 -0.1402
 6010SOL    HW229664   2.398   4.095   7.511  0.3139 -0.1348 -0.6105
 6011SOL     OW29665   4.210   2.451  14.507 -0.2878  0.7192 -0.1978
 6011SOL    HW129666   4.294   2.405  14.509 -0.3063  0.6470 -1.1501
 6011SOL    HW229667   4.197   2.459  14.412 -1.0315 -0.6780 -0.2147
 6012SOL     OW29668   4.614   1.642   8.800  0.2950 -0.2524 -0.3890
 6012SOL    HW129669   4.611   1.735   8.823  1.6025 -0.0483 -0.9850
 6012SOL    HW229670   4.700   1.621   8.837 -0.6930  1.0096  2.5942
 6013SOL     OW29671   3.994   1.933   6.624 -0.1926 -0.8091  0.1114
 6013SOL    HW129672   4.027   2.020   6.648  2.6168 -1.7798 -0.2296
 6013SOL    HW229673   3.972   1.890   6.706  0.9393  0.0201  0.8531
 6014SOL     OW29674   3.767   3.337   2.119  0.7818 -0.3705  0.2334
 6014SOL    HW129675   3.792   3.408   2.059 -0.7528  2.4138  2.9094
 6014SOL    HW229676   3.813   3.375   2.194  1.3395 -0.1563 -0.2120
 6015SOL     OW29677   3.136   3.287   7.277  0.0167 -0.2705 -0.1245
 6015SOL    HW129678   3.143   3.309   7.370  1.1197 -2.9447  0.4363
 6015SOL    HW229679   3.204   3.336   7.231  2.1084 -3.3652 -0.3417
 6016SOL     OW29680   3.547   3.833   9.714 -0.1661 -0.3610 -0.2410
 6016SOL    HW129681   3.529   3.913   9.664  0.7626  0.0183  0.0317
 6016SOL    HW229682   3.602   3.878   9.777 -0.4447 -1.2857  0.6654
 6017SOL     OW29683   3.993   3.173   4.428 -0.1380 -0.6654 -0.5946
 6017SOL    HW129684   4.043   3.176   4.346  1.1003  0.7392  0.2112
 6017SOL    HW229685   3.919   3.117   4.403 -2.0538  1.4039  0.4793
 6018SOL     OW29686   1.245   3.184   7.372  0.2382 -0.6146  0.3742
 6018SOL    HW129687   1.226   3.203   7.280  1.3642 -1.2721  0.0011
 6018SOL    HW229688   1.324   3.131   7.363 -0.2886 -0.7168 -3.7163
 6019SOL     OW29689   4.092   0.551   8.708 -0.2700  1.0070 -0.4246
 6019SOL    HW129690   4.074   0.500   8.629 -1.5070  2.3198 -0.9963
 6019SOL    HW229691   4.035   0.628   8.702 -1.6072 -0.0552 -1.4679
 6020SOL     OW29692   4.261   4.642   1.126 -0.5867 -0.1217  0.2027
 6020SOL    HW129693   4.213   4.616   1.048  0.6636  0.0633 -0.6158
 6020SOL    HW229694   4.216   4.724   1.150 -0.9600 -0.2003 -0.2342
 6021SOL     OW29695   2.132   1.562   2.484 -0.0834 -0.2943  0.4671
 6021SOL    HW129696   2.131   1.535   2.576  0.2688  0.8901  0.8306
 6021SOL    HW229697   2.111   1.484   2.433  0.8530 -0.3975  0.2450
 6022SOL     OW29698   0.276   0.231   2.692  0.7841  0.1306 -0.0502
 6022SOL    HW129699   0.249   0.232   2.600 -0.2454 -2.7119  0.1999
 6022SOL    HW229700   0.371   0.242   2.689  0.5665  2.3062  1.0217
 6023SOL     OW29701   1.561   4.693   5.673  0.4367 -0.2950 -0.0846
 6023SOL    HW129702   1.611   4.638   5.732 -0.4142  0.3833  1.2577
 6023SOL    HW229703   1.531   0.018   5.732 -1.6717 -1.4965  0.2345
 6024SOL     OW29704   0.758   1.223   5.681 -0.0605 -0.4342  0.4069
 6024SOL    HW129705   0.706   1.157   5.727  1.5670 -1.4207  0.8389
 6024SOL    HW229706   0.686   1.268   5.636  0.2758  1.7454  2.0645
 6025SOL     OW29707   4.057   0.612  12.180  0.1987 -0.8502  0.6766
 6025SOL    HW129708   4.054   0.559  12.100 -1.0871  2.8027 -1.7230
 6025SOL    HW229709   3.977   0.662  12.167  0.4981  0.0133  2.1529
 6026SOL     OW29710   2.119   4.041  13.963  0.0885 -0.1787  0.2762
 6026SOL    HW129711   2.129   4.123  14.012  2.5525  0.4112 -1.1756
 6026SOL    HW229712   2.193   3.985  13.988  1.2222 -0.1565 -3.0008
 6027SOL     OW29713   1.165   2.941  16.077 -0.1071  0.1673  0.4100
 6027SOL    HW129714   1.181   2.874  16.011 -0.4579  2.7759 -2.2791
 6027SOL    HW229715   1.190   2.882  16.149  0.6522 -0.4343 -0.3495
 6028SOL     OW29716   2.120   3.119   1.466  0.3745 -0.0069 -0.2156
 6028SOL    HW129717   2.180   3.191   1.487  2.6473 -1.4871 -1.5956
 6028SOL    HW229718   2.038   3.160   1.440  0.6927 -0.7115 -2.3179
 6029SOL     OW29719   2.508   4.595   3.948 -0.2712 -0.5138 -0.0816
 6029SOL    HW129720   2.515   4.553   3.863  0.7417  2.6581 -1.5609
 6029SOL    HW229721   2.477   4.679   3.915 -2.6111 -0.8291  1.2913
 6030SOL     OW29722   3.773   3.900  13.435  0.1061  0.9246  0.2936
 6030SOL    HW129723   3.750   3.808  13.448  1.6403  0.4527 -0.3492
 6030SOL    HW229724   3.699   3.948  13.474 -0.0481  1.1802 -0.3146
 6031SOL     OW29725   0.294   2.078   8.396  0.5231 -0.2015  0.4938
 6031SOL    HW129726   0.241   2.066   8.318  0.5928  5.1194 -0.4024
 6031SOL    HW229727   0.356   2.005   8.391  0.9816  0.1652  0.8600
 6032SOL     OW29728   2.847   3.678  13.396 -0.0427  0.5982  0.0754
 6032SOL    HW129729   2.805   3.744  13.341 -0.4039  0.1327 -0.2122
 6032SOL    HW229730   2.771   3.622  13.416  1.3098 -0.8503  1.1730
 6033SOL     OW29731   4.033   4.042   3.534 -0.4467  0.2396  0.3352
 6033SOL    HW129732   3.980   4.072   3.460  1.0234  1.4968 -0.2218
 6033SOL    HW229733   3.965   4.018   3.597 -0.4264 -1.7019 -0.4011
 6034SOL     OW29734   4.115   1.176   3.602 -0.2111  0.2255 -0.3390
 6034SOL    HW129735   4.038   1.179   3.659 -0.9847 -1.1308 -1.3071
 6034SOL    HW229736   4.110   1.264   3.564 -1.3443  0.2325 -0.1812
 6035SOL     OW29737   4.503   0.862  17.045  0.1474  0.6700  0.1020
 6035SOL    HW129738   4.453   0.882  16.966 -1.3664  0.3189  0.9839
 6035SOL    HW229739   4.557   0.941  17.056  2.1449 -0.4498 -1.5558
 6036SOL     OW29740   2.931   4.716  16.763 -0.8522  0.2513 -0.2354
 6036SOL    HW129741   2.956   4.623  16.768 -1.2179  0.1140 -0.8556
 6036SOL    HW229742   2.963   0.013  16.682 -0.8953 -0.6556 -0.7136
 6037SOL     OW29743   1.622   4.519   7.986 -1.0237 -0.7348 -0.0260
 6037SOL    HW129744   1.704   4.470   7.978 -0.0875  0.6204  1.0947
 6037SOL    HW229745   1.613   4.528   8.081 -0.5636 -0.7331  0.0171
 6038SOL     OW29746   2.336   0.158   5.022  0.0329  0.0634 -0.4273
 6038SOL    HW129747   2.260   0.101   5.009 -0.6388  1.0350 -0.7351
 6038SOL    HW229748   2.375   0.136   4.937 -0.3322  0.7766 -0.7791
 6039SOL     OW29749   0.895   0.751   6.218 -0.0545 -0.0045  0.1158
 6039SOL    HW129750   0.920   0.659   6.217 -2.5214 -0.6406 -1.8429
 6039SOL    HW229751   0.953   0.790   6.284 -1.7436  0.5942  1.2555
 6040SOL     OW29752   2.329   4.160   3.891 -0.2786  0.5492  0.2927
 6040SOL    HW129753   2.234   4.153   3.889 -0.2683  0.7296 -1.0426
 6040SOL    HW229754   2.347   4.176   3.798 -3.9761  0.6613 -0.4068
 6041SOL     OW29755   3.681   2.742   2.397  0.3497 -0.1076 -0.2556
 6041SOL    HW129756   3.595   2.698   2.403  0.1617  0.5192  1.6562
 6041SOL    HW229757   3.705   2.715   2.308  3.1637  2.6797 -0.3357
 6042SOL     OW29758   1.402   1.859   8.083  0.1478  0.0656  0.0621
 6042SOL    HW129759   1.412   1.816   7.998 -1.2842 -1.1526  0.5167
 6042SOL    HW229760   1.481   1.909   8.104  0.3875 -0.1078 -0.4126
 6043SOL     OW29761   3.228   0.961  14.261  0.2803  0.1107 -0.5572
 6043SOL    HW129762   3.170   0.933  14.332 -1.0829 -0.0746 -1.7497
 6043SOL    HW229763   3.260   1.045  14.296  0.6471 -0.6028  0.8423
 6044SOL     OW29764   0.861   3.251  10.438  0.0214  0.3664 -0.0593
 6044SOL    HW129765   0.768   3.235  10.451 -0.4326  1.6153 -1.7468
 6044SOL    HW229766   0.881   3.318  10.503 -0.7916  2.4387 -1.9385
 6045SOL     OW29767   1.989   3.239   5.397  0.1515 -0.1926 -0.8429
 6045SOL    HW129768   2.063   3.252   5.457  0.5546 -0.7459 -1.2227
 6045SOL    HW229769   1.988   3.146   5.375  0.3288 -0.9942  2.4241
 6046SOL     OW29770   4.373   1.174  14.007 -0.0091 -0.0588 -0.1857
 6046SOL    HW129771   4.279   1.156  14.004  0.0896 -0.7705  1.1510
 6046SOL    HW229772   4.415   1.119  13.941 -0.5959 -1.9359  1.0086
 6047SOL     OW29773   1.342   1.458   9.497 -0.3212  0.0474  0.4261
 6047SOL    HW129774   1.374   1.395   9.432 -3.2587 -0.8986 -0.1115
 6047SOL    HW229775   1.327   1.538   9.447  0.1245  0.5560  1.1149
 6048SOL     OW29776   2.964   1.011   9.920  0.1566  0.0519  0.1580
 6048SOL    HW129777   2.929   1.031  10.007  1.3063 -0.7593  0.7923
 6048SOL    HW229778   3.029   1.081   9.916  0.9460 -0.7420 -0.8763
 6049SOL     OW29779   4.719   4.244  10.721 -0.4023 -0.4721  0.0878
 6049SOL    HW129780   0.029   4.216  10.796  1.0776  1.8726 -0.0895
 6049SOL    HW229781   4.673   4.320  10.757 -1.7371 -1.3933  0.3557
 6050SOL     OW29782   1.193   2.302   6.784 -0.7487 -0.0650  0.3530
 6050SOL    HW129783   1.123   2.271   6.728 -0.6690 -0.6638  0.5882
 6050SOL    HW229784   1.175   2.244   6.859  0.7252 -0.2392  0.5747
 6051SOL     OW29785   3.949   0.027   4.455  0.2924  0.2415  0.5848
 6051SOL    HW129786   4.018   0.056   4.515  1.3573  0.5847 -0.8237
 6051SOL    HW229787   3.912   0.108   4.421  0.4917 -0.9460 -2.4684
 6052SOL     OW29788   2.194   1.861   7.129  0.4390  0.0753 -0.4423
 6052SOL    HW129789   2.200   1.778   7.177 -0.4830  0.1203 -0.2581
 6052SOL    HW229790   2.203   1.912   7.209  0.7526 -0.4783 -0.1196
 6053SOL     OW29791   3.992   4.411   8.473 -0.3485 -0.2137  0.0909
 6053SOL    HW129792   3.950   4.493   8.498  0.1247  0.1427 -0.2840
 6053SOL    HW229793   4.075   4.448   8.443  0.5289 -0.6263  1.9985
 6054SOL     OW29794   1.223   0.133   2.351  0.2122 -0.0952 -0.0873
 6054SOL    HW129795   1.290   0.161   2.289  1.0855 -0.2223  0.8011
 6054SOL    HW229796   1.196   0.216   2.391 -0.2965 -0.3173  0.0323
 6055SOL     OW29797   2.472   0.100   1.690  0.2272  0.4126  0.0324
 6055SOL    HW129798   2.449   0.072   1.602 -0.3443  0.1033  0.2825
 6055SOL    HW229799   2.567   0.086   1.689  0.2913  0.6564  1.8822
 6056SOL     OW29800   1.646   0.210   7.222 -0.2663  0.4054  0.4435
 6056SOL    HW129801   1.596   0.176   7.296 -0.8710 -1.8102 -0.9826
 6056SOL    HW229802   1.581   0.241   7.159 -0.1457  1.0424  0.6300
 6057SOL     OW29803   1.307   0.262   6.887  0.6554 -0.1061  0.9689
 6057SOL    HW129804   1.251   0.304   6.821 -0.5801  0.8824  2.6730
 6057SOL    HW229805   1.237   0.232   6.945 -0.6863  0.2540 -0.4500
 6058SOL     OW29806   0.311   4.489   6.922 -0.0201 -0.3902  0.3937
 6058SOL    HW129807   0.334   4.517   7.010  1.4259 -2.9186  0.8362
 6058SOL    HW229808   0.285   4.400   6.946  1.1093 -0.7919  0.1085
 6059SOL     OW29809   0.549   1.594   3.220  0.1097 -0.1592 -0.2664
 6059SOL    HW129810   0.598   1.677   3.218  1.3914 -0.9078 -0.3369
 6059SOL    HW229811   0.617   1.538   3.183 -0.0537 -1.5203  1.5295
 6060SOL     OW29812   3.468   2.278  10.144 -0.3469  0.0035 -0.2407
 6060SOL    HW129813   3.412   2.351  10.119  0.6470  0.8258 -0.0750
 6060SOL    HW229814   3.477   2.297  10.237 -0.8812  0.0724 -0.2046
 6061SOL     OW29815   3.888   4.320  17.393  0.0656  0.1269 -0.2004
 6061SOL    HW129816   3.896   4.412  17.369  0.1447  0.4076  0.9068
 6061SOL    HW229817   3.909   4.320  17.487 -3.1677 -0.2060  0.5238
 6062SOL     OW29818   2.885   0.868   5.108  0.2257  0.4440 -0.0707
 6062SOL    HW129819   2.907   0.776   5.095 -0.4622 -0.0056  1.9048
 6062SOL    HW229820   2.957   0.919   5.071 -0.6374  0.8357 -1.1882
 6063SOL     OW29821   0.418   4.213   1.164  0.1030  0.5501 -0.3324
 6063SOL    HW129822   0.456   4.300   1.175  1.3333  0.0168 -0.3992
 6063SOL    HW229823   0.422   4.174   1.251 -2.3219  2.0163  0.4388
 6064SOL     OW29824   0.510   3.419  11.630  0.3015  0.1741  0.3620
 6064SOL    HW129825   0.550   3.336  11.657  1.7309  0.4885 -0.7790
 6064SOL    HW229826   0.519   3.423  11.535 -1.9786 -1.6119  0.0699
 6065SOL     OW29827   2.424   4.629  10.582 -0.1461  0.0665  0.2065
 6065SOL    HW129828   2.425   4.688  10.507 -2.1036 -1.7552 -1.2518
 6065SOL    HW229829   2.433   4.543  10.540  2.1038  0.3880 -0.0020
 6066SOL     OW29830   0.872   1.614   5.656 -0.1054  0.7085 -0.1128
 6066SOL    HW129831   0.915   1.698   5.666 -2.1743  1.9385 -1.4357
 6066SOL    HW229832   0.937   1.551   5.688 -0.9532  0.1200  0.4638
 6067SOL     OW29833   1.986   2.527   2.290  0.3349 -0.6070  0.3214
 6067SOL    HW129834   2.006   2.465   2.221 -1.1986 -0.2979 -0.3916
 6067SOL    HW229835   2.076   2.544   2.317  0.2106  0.3942  0.1067
 6068SOL     OW29836   4.623   4.145  13.257 -0.3729  0.0871  0.4053
 6068SOL    HW129837   4.559   4.216  13.247  0.2411  0.7954  1.5900
 6068SOL    HW229838   4.628   4.120  13.349 -3.6235  0.3804  0.6863
 6069SOL     OW29839   3.920   1.665   8.405 -0.0509 -0.6441 -0.3392
 6069SOL    HW129840   3.887   1.691   8.491 -1.5047  2.0259 -1.7065
 6069SOL    HW229841   3.902   1.737   8.345  0.5288 -0.1547  0.0835
 6070SOL     OW29842   0.106   3.459   0.195  0.1170  0.4191 -0.1193
 6070SOL    HW129843   0.088   3.551   0.211  1.5148  0.4607  1.1998
 6070SOL    HW229844   0.200   3.453   0.179 -0.2771 -0.0580 -2.3276
 6071SOL     OW29845   0.077   2.448   7.632  0.2945  0.1377  0.1420
 6071SOL    HW129846   0.049   2.470   7.542 -1.5512  1.8938  1.1186
 6071SOL    HW229847   0.128   2.371   7.611  0.1658 -0.3938  1.7768
 6072SOL     OW29848   0.693   3.112   7.415  0.2650 -0.0948  0.1296
 6072SOL    HW129849   0.649   3.137   7.333 -2.3824 -1.6140  1.0778
 6072SOL    HW229850   0.651   3.027   7.424 -2.3804  1.0667 -1.1457
 6073SOL     OW29851   0.791   4.415  11.113  0.3349 -0.4422 -0.6324
 6073SOL    HW129852   0.854   4.365  11.164  0.6967 -0.6597 -1.2842
 6073SOL    HW229853   0.712   4.399  11.164  0.8104 -0.1615  0.1956
 6074SOL     OW29854   0.361   3.827  14.597 -0.2849  0.4559  0.1571
 6074SOL    HW129855   0.382   3.812  14.690  0.4935 -0.9663 -0.2311
 6074SOL    HW229856   0.269   3.801  14.594  0.5288 -2.6646  1.1069
 6075SOL     OW29857   1.729   3.482   2.411 -0.3107  0.1667  0.3335
 6075SOL    HW129858   1.728   3.452   2.502 -1.4261  1.6097  0.7937
 6075SOL    HW229859   1.645   3.529   2.403 -1.0409 -1.1267  0.4212
 6076SOL     OW29860   1.192   1.675   2.879  0.1098 -0.4526 -0.6430
 6076SOL    HW129861   1.098   1.669   2.860 -0.3825  1.6994  1.0949
 6076SOL    HW229862   1.232   1.640   2.799  1.0912  2.6643 -1.5210
 6077SOL     OW29863   0.365   4.713   4.164  0.0634  0.0462  0.2048
 6077SOL    HW129864   0.448   4.692   4.120  0.4830  0.6191  0.7203
 6077SOL    HW229865   0.312   0.014   4.098  0.5898 -0.2572 -0.4286
 6078SOL     OW29866   3.562   1.691   3.662  0.1118 -0.7253 -0.6796
 6078SOL    HW129867   3.528   1.740   3.588 -0.0753 -0.1020 -0.1855
 6078SOL    HW229868   3.567   1.603   3.627  1.3791 -0.7720 -0.3802
 6079SOL     OW29869   0.713   3.318   6.337 -0.3317 -0.4195  0.3964
 6079SOL    HW129870   0.752   3.275   6.261  0.2093 -2.7008  1.9931
 6079SOL    HW229871   0.621   3.319   6.311  0.0487  1.2084 -0.9595
 6080SOL     OW29872   3.823   0.380   3.864  0.2187  0.1660  0.1477
 6080SOL    HW129873   3.757   0.343   3.923 -0.5374  0.6468 -0.3956
 6080SOL    HW229874   3.899   0.336   3.902  0.6049 -0.3243 -1.2024
 6081SOL     OW29875   3.204   2.132   5.680 -0.0019 -0.3782 -0.1104
 6081SOL    HW129876   3.202   2.197   5.610 -0.4509  0.1661  0.4061
 6081SOL    HW229877   3.147   2.168   5.748 -0.3248 -2.1067  0.5404
 6082SOL     OW29878   4.000   2.349  15.014  0.1573 -0.0332 -0.0676
 6082SOL    HW129879   4.087   2.366  15.051 -1.7698  2.4057  3.3683
 6082SOL    HW229880   3.953   2.394  15.084  0.0023 -2.0432  1.1225
 6083SOL     OW29881   3.570   0.349   8.896 -0.6991 -0.4803  0.2605
 6083SOL    HW129882   3.560   0.261   8.860 -2.6916 -0.7158  1.3578
 6083SOL    HW229883   3.635   0.380   8.833 -4.4156  2.9253 -1.9172
 6084SOL     OW29884   2.764   0.440   7.788  0.1517  0.2523  0.0680
 6084SOL    HW129885   2.766   0.446   7.884  0.3917 -4.1644  0.3446
 6084SOL    HW229886   2.850   0.476   7.767  0.0679  1.2821  1.4682
 6085SOL     OW29887   0.699   2.459   8.423 -0.8119 -0.1217  0.5090
 6085SOL    HW129888   0.654   2.377   8.403  1.5821 -1.8018  2.0123
 6085SOL    HW229889   0.640   2.488   8.493 -0.7557 -0.2566  0.6135
 6086SOL     OW29890   0.524   3.332   1.894  0.5527  0.2210  0.0811
 6086SOL    HW129891   0.479   3.384   1.961 -0.6020  1.0906 -1.3835
 6086SOL    HW229892   0.478   3.249   1.886  1.2063 -0.0343 -1.0565
 6087SOL     OW29893   0.826   3.638   7.702 -0.5200  0.2395 -0.0696
 6087SOL    HW129894   0.767   3.564   7.713  0.7583 -0.6917  0.4257
 6087SOL    HW229895   0.790   3.675   7.621 -0.8729 -0.1682 -0.0961
 6088SOL     OW29896   2.244   0.140   4.402 -0.1052  0.6657 -0.1954
 6088SOL    HW129897   2.161   0.112   4.441  1.0829 -0.3235  1.6328
 6088SOL    HW229898   2.282   0.054   4.421  2.3980  1.0499 -3.5026
 6089SOL     OW29899   2.178   0.677   0.899 -0.1836 -0.0724  0.6498
 6089SOL    HW129900   2.091   0.712   0.876  0.3051 -1.5182 -3.4323
 6089SOL    HW229901   2.229   0.743   0.945  1.6055 -3.1666  3.0984
 6090SOL     OW29902   3.369   3.475   7.622  0.2307  0.6519 -0.7904
 6090SOL    HW129903   3.424   3.397   7.618 -0.5692  0.0780 -0.6704
 6090SOL    HW229904   3.286   3.449   7.582 -0.3099  1.8411 -0.4463
 6091SOL     OW29905   0.208   4.319   5.484 -0.3127  0.3619 -0.4628
 6091SOL    HW129906   0.253   4.353   5.407 -1.6332  0.8884 -0.9971
 6091SOL    HW229907   0.197   4.402   5.530  4.5263  0.0544  1.2816
 6092SOL     OW29908   3.103   4.127   5.328 -0.0960 -0.1115  0.7928
 6092SOL    HW129909   3.156   4.199   5.361  0.7298 -1.3290  2.0706
 6092SOL    HW229910   3.132   4.122   5.236 -0.2919 -0.7064  0.7614
 6093SOL     OW29911   3.271   0.492   2.655 -0.2424  0.0399  0.4747
 6093SOL    HW129912   3.178   0.510   2.671 -0.8167 -2.4469  0.0448
 6093SOL    HW229913   3.292   0.520   2.566 -0.1550  3.4930  1.5903
 6094SOL     OW29914   4.146   2.963   1.796  0.8958 -0.4587 -0.3013
 6094SOL    HW129915   4.071   2.912   1.764 -1.0497  1.6588  0.8833
 6094SOL    HW229916   4.218   2.901   1.784  1.3785 -0.6041  3.5900
 6095SOL     OW29917   3.186   1.318   3.433 -0.0864  0.3910 -0.3996
 6095SOL    HW129918   3.105   1.319   3.383 -0.4206  1.0458  0.1485
 6095SOL    HW229919   3.159   1.338   3.523 -0.7419  0.0215 -0.5180
 6096SOL     OW29920   0.050   3.735   0.824 -0.1529  0.2913  0.0798
 6096SOL    HW129921   0.021   3.781   0.745  2.8368  0.5568 -0.8800
 6096SOL    HW229922   4.712   3.717   0.870  0.5804 -1.2393  0.7686
 6097SOL     OW29923   4.306   2.716   6.781  0.3582 -0.3944 -0.1174
 6097SOL    HW129924   4.265   2.677   6.703  1.3998 -0.5752 -0.5708
 6097SOL    HW229925   4.398   2.702   6.758  0.3311 -0.3726 -0.2435
 6098SOL     OW29926   3.954   3.067  12.077  0.1225  0.0284 -0.6943
 6098SOL    HW129927   3.998   3.104  12.001  1.1073  1.7678  0.7311
 6098SOL    HW229928   3.959   3.146  12.130 -1.9651  0.7121 -1.5265
 6099SOL     OW29929   3.638   0.982   1.144  0.1536  0.0767  0.0808
 6099SOL    HW129930   3.569   0.928   1.182  0.7986  1.0877  2.7446
 6099SOL    HW229931   3.587   1.061   1.126 -1.1860 -0.8881 -0.3403
 6100SOL     OW29932   4.397   4.691   7.138 -0.3885 -0.3008 -0.0325
 6100SOL    HW129933   4.384   4.596   7.143  0.1152 -0.3051  1.1443
 6100SOL    HW229934   4.402   4.726   7.227  0.6887  0.2938 -0.3338
 6101SOL     OW29935   2.814   3.946   8.092 -0.1367 -0.6755 -0.1110
 6101SOL    HW129936   2.805   3.886   8.018 -1.8205 -0.6251  0.0549
 6101SOL    HW229937   2.884   4.006   8.065 -1.7815  1.3461  0.1103
 6102SOL     OW29938   2.975   3.573  16.135  0.0702 -0.0837  0.3099
 6102SOL    HW129939   3.035   3.499  16.124 -1.1179 -0.8205 -1.2318
 6102SOL    HW229940   2.927   3.528  16.205 -2.6015  2.7733  0.3344
 6103SOL     OW29941   3.570   3.780   3.649 -0.2791  0.3850 -0.3698
 6103SOL    HW129942   3.632   3.728   3.700 -1.0197 -1.0491 -0.9357
 6103SOL    HW229943   3.585   3.872   3.668 -0.5178  0.2606  0.4278
 6104SOL     OW29944   4.278   3.912   5.891  0.1098  0.2068  0.4021
 6104SOL    HW129945   4.216   3.898   5.819  0.2097 -3.0209  0.9297
 6104SOL    HW229946   4.218   3.929   5.964  0.6445 -3.7958  1.7605
 6105SOL     OW29947   0.861   1.701  12.884 -0.0923  0.0506 -0.1229
 6105SOL    HW129948   0.897   1.780  12.925 -0.3144  1.4770 -2.6582
 6105SOL    HW229949   0.939   1.645  12.892  0.5418  0.9502  0.0799
 6106SOL     OW29950   2.000   2.079   6.500  0.2436 -0.2397  0.4533
 6106SOL    HW129951   2.021   2.094   6.592  1.0649 -0.5130  0.3095
 6106SOL    HW229952   1.954   2.160   6.479  1.2888  0.7400  2.0003
 6107SOL     OW29953   3.363   2.133   4.907 -0.4747  0.0079 -0.0969
 6107SOL    HW129954   3.401   2.139   4.820 -3.3251  0.7659 -1.3076
 6107SOL    HW229955   3.272   2.111   4.888 -0.4889  0.5395 -0.6313
 6108SOL     OW29956   3.980   1.294  11.857  0.0629 -0.0454 -0.2443
 6108SOL    HW129957   3.998   1.388  11.852 -0.1500 -0.0334 -0.7943
 6108SOL    HW229958   4.005   1.264  11.769  0.0214 -2.6453  0.6298
 6109SOL     OW29959   0.187   1.267  10.989 -0.2083 -0.6424 -0.0108
 6109SOL    HW129960   0.214   1.295  10.902  2.2208  2.2253  1.6378
 6109SOL    HW229961   0.272   1.235  11.020  0.4339  0.1906 -0.9104
 6110SOL     OW29962   1.116   2.849   2.172  0.2835 -0.5226 -0.3697
 6110SOL    HW129963   1.126   2.769   2.225 -0.8451 -0.8800 -0.7093
 6110SOL    HW229964   1.021   2.856   2.180  0.2513 -1.2937 -0.0071
 6111SOL     OW29965   4.451   2.959   9.983  0.0925 -0.3479 -0.2573
 6111SOL    HW129966   4.451   2.985  10.075  0.6982  0.8569 -0.6001
 6111SOL    HW229967   4.492   3.038   9.948 -1.2634  0.6195  0.3319
 6112SOL     OW29968   0.449   2.917  14.367 -0.0035  0.1817 -0.7112
 6112SOL    HW129969   0.399   2.835  14.366  1.3549 -0.6602  0.3990
 6112SOL    HW229970   0.483   2.922  14.278 -1.1589  1.1016 -1.0988
 6113SOL     OW29971   1.887   3.904   5.433  0.4382  0.3394  0.1610
 6113SOL    HW129972   1.800   3.886   5.398  0.5279 -1.1317  0.7046
 6113SOL    HW229973   1.923   3.816   5.445 -2.7351 -1.3671 -3.0701
 6114SOL     OW29974   3.540   2.608  12.637  0.3825 -0.1732  0.3721
 6114SOL    HW129975   3.613   2.608  12.575 -0.8837  0.0232 -1.1134
 6114SOL    HW229976   3.581   2.542  12.694  2.7859 -0.6302 -1.8548
 6115SOL     OW29977   3.965   0.895   8.413  0.1253 -0.0977  0.2477
 6115SOL    HW129978   4.026   0.929   8.479  0.7910  0.4999 -0.6684
 6115SOL    HW229979   4.032   0.851   8.361 -0.6957 -1.4131  0.3142
 6116SOL     OW29980   0.498   3.181   6.037 -0.0235 -0.0289  0.5479
 6116SOL    HW129981   0.416   3.174   5.990 -0.6659 -1.1121  1.8238
 6116SOL    HW229982   0.546   3.110   5.995  0.4631  1.6737 -1.7612
 6117SOL     OW29983   0.075   3.804   2.556 -0.2609  0.3661  0.0361
 6117SOL    HW129984   4.725   3.825   2.545 -0.8254 -1.6673  1.0354
 6117SOL    HW229985   0.122   3.835   2.479 -1.7997 -0.4606 -1.2453
 6118SOL     OW29986   0.717   3.462  15.173  0.1683 -0.3366 -0.2151
 6118SOL    HW129987   0.626   3.445  15.146  0.1922  0.8234 -0.9947
 6118SOL    HW229988   0.718   3.519  15.250  0.3294 -1.3253  0.5266
 6119SOL     OW29989   2.282   3.407   7.549  0.3192  0.5413  0.5793
 6119SOL    HW129990   2.226   3.467   7.598  2.6188  1.4556  2.0967
 6119SOL    HW229991   2.324   3.361   7.622  0.0224 -0.3263  0.1953
 6120SOL     OW29992   2.862   4.555   5.684 -0.2104  0.1002 -0.3942
 6120SOL    HW129993   2.842   4.536   5.592 -0.9904  0.6069 -0.3244
 6120SOL    HW229994   2.926   4.626   5.686  0.4248 -0.4306 -1.5263
 6121SOL     OW29995   1.083   4.054  12.177 -0.2009 -0.2829  0.6002
 6121SOL    HW129996   1.047   4.005  12.103 -1.1363  1.1294  0.1256
 6121SOL    HW229997   1.028   4.019  12.248  2.1585 -0.7130  2.2111
 6122SOL     OW29998   2.782   1.992   3.238 -0.1201  0.7254  0.0895
 6122SOL    HW129999   2.757   2.015   3.328  0.7734 -0.2773  0.5972
 6122SOL    HW230000   2.699   2.006   3.192 -0.7674  1.6917  1.5521
 6123SOL     OW30001   1.882   4.027  10.029 -0.9430  0.4410  0.6296
 6123SOL    HW130002   1.950   4.088  10.058  1.0200  0.0769 -3.1944
 6123SOL    HW230003   1.804   4.080  10.012  0.1204  1.9448  0.3180
 6124SOL     OW30004   2.546   0.411   9.898 -0.0581 -0.2104  0.3344
 6124SOL    HW130005   2.532   0.357   9.975 -0.6508  0.5919  0.7798
 6124SOL    HW230006   2.595   0.481   9.941 -1.0574  0.4100  0.4588
 6125SOL     OW30007   0.221   3.851   1.259 -0.1442  0.0368 -0.3220
 6125SOL    HW130008   0.173   3.768   1.258  0.5262 -0.3654  2.8142
 6125SOL    HW230009   0.263   3.849   1.173 -2.8161 -0.3221 -1.6272
 6126SOL     OW30010   4.187   3.094   8.531  0.0200  0.0006  0.3796
 6126SOL    HW130011   4.151   3.130   8.450 -1.9561  2.3340  2.2776
 6126SOL    HW230012   4.192   3.005   8.496  0.5240  0.1024  0.1907
 6127SOL     OW30013   3.049   3.013   5.522  0.2225 -0.6809  0.2843
 6127SOL    HW130014   3.089   2.952   5.461 -1.4593 -1.6636  0.1742
 6127SOL    HW230015   2.962   3.017   5.483  0.6419  0.0359 -0.5792
 6128SOL     OW30016   2.079   3.124   8.284 -0.3872  0.3007  0.0014
 6128SOL    HW130017   1.989   3.132   8.313 -0.2488  1.3821  0.1595
 6128SOL    HW230018   2.084   3.029   8.281 -0.1747  0.3613 -1.8494
 6129SOL     OW30019   0.390   4.302   4.114  0.1052 -0.4434 -0.4280
 6129SOL    HW130020   0.348   4.387   4.101  0.7476 -0.0804 -0.1272
 6129SOL    HW230021   0.422   4.287   4.026  1.8941 -0.4851  0.2338
 6130SOL     OW30022   3.524   2.582   5.345  0.0450  0.3424  0.5194
 6130SOL    HW130023   3.608   2.537   5.345 -0.8827 -1.4246 -1.0213
 6130SOL    HW230024   3.533   2.633   5.264 -0.1831 -1.8551 -0.8824
 6131SOL     OW30025   2.420   1.026  14.127 -0.4040  0.1045 -0.6312
 6131SOL    HW130026   2.385   1.045  14.040 -1.1115 -4.6340 -1.3713
 6131SOL    HW230027   2.393   0.936  14.143 -2.0256  1.2674  3.1651
 6132SOL     OW30028   4.159   4.198   9.085  0.1607 -0.4538 -0.2068
 6132SOL    HW130029   4.214   4.127   9.052 -1.9709 -1.4693 -1.6221
 6132SOL    HW230030   4.077   4.155   9.111  0.2961  0.7168  2.1700
 6133SOL     OW30031   1.202   1.299   0.780  0.6697  0.0932  0.4262
 6133SOL    HW130032   1.266   1.357   0.739  0.3681 -1.3320 -2.0602
 6133SOL    HW230033   1.250   1.268   0.857  0.4826 -0.3257  0.3735
 6134SOL     OW30034   2.702   3.775   7.234 -0.2313  0.1147 -0.1762
 6134SOL    HW130035   2.655   3.699   7.269  0.1340  0.7904  1.7885
 6134SOL    HW230036   2.687   3.837   7.305 -1.1667  0.2871 -0.5223
 6135SOL     OW30037   2.581   0.911   7.168 -0.4008  0.2990 -0.4915
 6135SOL    HW130038   2.611   0.820   7.170 -2.1387 -0.2502  0.6313
 6135SOL    HW230039   2.658   0.965   7.151  0.8621 -1.7527 -1.3457
 6136SOL     OW30040   2.979   2.576   2.895 -0.3748 -0.0474  0.1624
 6136SOL    HW130041   3.063   2.565   2.941  0.4461  0.6975 -1.1652
 6136SOL    HW230042   2.921   2.506   2.925 -0.5582  0.2845  0.5950
 6137SOL     OW30043   3.642   1.747   8.287  0.3772  0.7965  0.6405
 6137SOL    HW130044   3.579   1.687   8.327  0.7066  0.8894  1.3073
 6137SOL    HW230045   3.599   1.832   8.285  0.3731  0.8083  1.2422
 6138SOL     OW30046   3.081   2.088  15.031  0.3965 -0.3747 -0.1761
 6138SOL    HW130047   3.006   2.107  15.088 -0.4871 -1.9284 -0.7991
 6138SOL    HW230048   3.105   2.178  15.010 -0.2292 -0.2442 -0.3454
 6139SOL     OW30049   2.891   2.593   4.745  0.3885 -0.3635  0.2653
 6139SOL    HW130050   2.905   2.660   4.812  1.3187  0.0165 -0.3113
 6139SOL    HW230051   2.884   2.514   4.799 -2.2777 -0.5915 -0.4302
 6140SOL     OW30052   1.659   1.071   8.458 -0.1904  0.6966  0.2324
 6140SOL    HW130053   1.712   1.006   8.412 -1.0025 -1.0281  1.7506
 6140SOL    HW230054   1.712   1.150   8.444  0.4197  0.3405  0.5237
 6141SOL     OW30055   2.811   2.121   7.239 -0.2058 -0.0082 -0.7625
 6141SOL    HW130056   2.889   2.100   7.188  0.0415 -0.8038 -0.0591
 6141SOL    HW230057   2.819   2.216   7.246  0.4045 -0.2941  2.5606
 6142SOL     OW30058   2.958   2.159   4.973 -0.0277  0.2123  0.0886
 6142SOL    HW130059   2.934   2.068   4.989  0.9190 -0.2968 -1.4054
 6142SOL    HW230060   3.053   2.144   4.978 -0.1879 -0.5434  0.8649
 6143SOL     OW30061   4.161   4.407  17.118  0.0992  0.0468 -0.1998
 6143SOL    HW130062   4.201   4.373  17.038 -1.1394 -0.0900 -0.7620
 6143SOL    HW230063   4.100   4.333  17.129 -0.3821  0.2392 -1.5167
 6144SOL     OW30064   0.800   1.665   3.884 -0.1338 -0.3061  0.5632
 6144SOL    HW130065   0.749   1.589   3.857 -2.8628  1.6073  0.2798
 6144SOL    HW230066   0.802   1.714   3.801  1.3671  0.2972  0.9591
 6145SOL     OW30067   1.470   4.093  16.617 -0.2480  0.4153  0.0028
 6145SOL    HW130068   1.548   4.127  16.661  0.3552 -0.1583 -0.6201
 6145SOL    HW230069   1.423   4.044  16.685 -1.1451 -0.4139 -1.2086
 6146SOL     OW30070   1.228   4.070   1.398 -0.5183 -0.3068 -0.3525
 6146SOL    HW130071   1.248   4.164   1.406 -2.6367 -0.0253  1.5376
 6146SOL    HW230072   1.262   4.031   1.479  0.4986 -1.1325 -1.1736
 6147SOL     OW30073   0.071   0.349   4.427 -0.2972 -0.1978 -0.4116
 6147SOL    HW130074   0.014   0.297   4.484 -1.2357  3.3001  1.8752
 6147SOL    HW230075   0.089   0.281   4.363  0.3841  1.2534 -1.7693
 6148SOL     OW30076   4.477   2.762   5.926 -0.1594  0.1774 -0.1383
 6148SOL    HW130077   4.456   2.823   5.997  1.1418 -1.0109  1.2731
 6148SOL    HW230078   4.461   2.806   5.843 -0.8070 -3.9690 -2.1958
 6149SOL     OW30079   0.901   2.546  10.525  0.0393 -0.1096  0.1578
 6149SOL    HW130080   0.946   2.484  10.582 -0.7717 -0.6767  0.1754
 6149SOL    HW230081   0.965   2.562  10.455 -0.4229 -0.0082 -0.2438
 6150SOL     OW30082   3.536   0.508  12.666 -0.2698 -0.3684 -0.0912
 6150SOL    HW130083   3.578   0.469  12.742  2.7068 -1.3982 -2.2722
 6150SOL    HW230084   3.446   0.511  12.699  0.3254  0.5779  1.4543
 6151SOL     OW30085   0.966   2.361   1.694  0.2299 -0.3566  0.1232
 6151SOL    HW130086   1.060   2.343   1.686 -0.1886 -2.4136 -0.1389
 6151SOL    HW230087   0.968   2.453   1.668  1.5164  0.5908  3.6609
 6152SOL     OW30088   1.826   0.486   5.818  0.0928  0.2187  0.0980
 6152SOL    HW130089   1.762   0.476   5.889 -0.5838 -1.3267 -0.7572
 6152SOL    HW230090   1.851   0.575   5.844  0.2486  0.3088 -0.3714
 6153SOL     OW30091   3.221   4.349   4.186 -0.3129  0.4630  0.0935
 6153SOL    HW130092   3.132   4.316   4.183 -0.1715  0.0238  0.6411
 6153SOL    HW230093   3.274   4.273   4.163 -0.2368  0.6766 -0.4350
 6154SOL     OW30094   0.061   3.859   7.058 -0.2420  0.2724  0.5636
 6154SOL    HW130095   0.079   3.786   6.999 -2.1717 -0.3996  0.8155
 6154SOL    HW230096   4.734   3.902   7.008  1.6580  0.7818 -1.7000
 6155SOL     OW30097   0.997   2.944   1.560  0.5418 -0.1294 -0.9715
 6155SOL    HW130098   0.932   2.992   1.510 -0.4079  1.0184  1.3856
 6155SOL    HW230099   0.960   2.951   1.648 -0.1232  1.4203 -1.3766
 6156SOL     OW30100   4.638   0.892   4.814 -0.1128  0.1068  0.7403
 6156SOL    HW130101   4.711   0.945   4.847  1.7530 -1.8337 -0.3116
 6156SOL    HW230102   4.616   0.851   4.897  0.6985 -2.9968 -0.6025
 6157SOL     OW30103   4.610   2.080  15.286 -0.1132  0.0856  0.2462
 6157SOL    HW130104   4.698   2.100  15.255  0.1487  0.4901  1.2305
 6157SOL    HW230105   4.608   1.986  15.301  0.3656  0.2343  1.2631
 6158SOL     OW30106   2.773   0.191   2.923 -0.0243  0.0178  0.0989
 6158SOL    HW130107   2.857   0.183   2.879 -1.0215  0.2468 -1.8450
 6158SOL    HW230108   2.714   0.189   2.847 -0.4717  0.6527  0.4293
 6159SOL     OW30109   0.496   1.451   3.443 -0.2783 -0.0758 -0.2391
 6159SOL    HW130110   0.497   1.475   3.351  0.5426 -2.0209 -0.7331
 6159SOL    HW230111   0.576   1.398   3.437  0.3787  0.9157 -0.2560
 6160SOL     OW30112   4.734   1.819  12.777  0.5751  0.5870 -0.6440
 6160SOL    HW130113   4.738   1.891  12.713 -2.3081  1.1641 -0.2081
 6160SOL    HW230114   0.037   1.750  12.730  0.9655 -1.3994  2.6292
 6161SOL     OW30115   2.504   3.173  11.603 -0.0113  0.0198 -0.1776
 6161SOL    HW130116   2.526   3.265  11.587  1.6387 -0.4309 -0.4412
 6161SOL    HW230117   2.493   3.179  11.698  0.8719 -2.1519  0.0555
 6162SOL     OW30118   3.116   0.696  16.250  0.0382  1.0006 -0.1088
 6162SOL    HW130119   3.189   0.679  16.191  0.1346 -0.4524  0.4164
 6162SOL    HW230120   3.062   0.751  16.194  1.3989  0.9777 -1.4347
 6163SOL     OW30121   0.786   1.333  15.217  0.2368 -0.3005 -0.0987
 6163SOL    HW130122   0.878   1.339  15.242  0.6557  0.2359 -1.7665
 6163SOL    HW230123   0.763   1.418  15.254 -0.5884 -0.9802  0.9485
 6164SOL     OW30124   1.607   2.105   5.440 -0.0219  0.0640  0.2257
 6164SOL    HW130125   1.665   2.064   5.504  0.1779  0.4428  0.2870
 6164SOL    HW230126   1.542   2.037   5.423 -0.2303  0.2738  0.1812
 6165SOL     OW30127   2.627   4.707   5.489  0.8290  0.1226  0.1877
 6165SOL    HW130128   2.682   0.039   5.468  0.1208  0.9812  1.3817
 6165SOL    HW230129   2.582   4.675   5.411 -0.3354  1.6142  0.2323
 6166SOL     OW30130   0.048   1.024   7.756  0.1928  0.2117  0.3843
 6166SOL    HW130131   0.080   0.934   7.764  1.2703  0.7730  2.5209
 6166SOL    HW230132   0.126   1.079   7.752  0.1627  0.2541  0.3851
 6167SOL     OW30133   1.617   0.012   6.421  0.4094 -0.0322  0.0228
 6167SOL    HW130134   1.700   4.732   6.461  0.0506  3.8143  3.0394
 6167SOL    HW230135   1.596   4.677   6.372 -1.5721 -0.0653  0.8929
 6168SOL     OW30136   1.418   1.500   4.232 -0.3171 -0.0737  0.4156
 6168SOL    HW130137   1.508   1.519   4.205 -0.7808 -0.1544 -1.2026
 6168SOL    HW230138   1.409   1.541   4.318  1.4118  4.6955 -1.6788
 6169SOL     OW30139   2.036   2.849   2.114 -0.1219 -0.4248  0.1666
 6169SOL    HW130140   1.991   2.776   2.071 -2.7473  0.8991  0.6832
 6169SOL    HW230141   1.963   2.885   2.164 -0.6402  0.2405 -1.0824
 6170SOL     OW30142   3.767   2.814   3.749 -0.5700 -0.6205 -0.3708
 6170SOL    HW130143   3.860   2.822   3.727 -0.3217 -0.8032  0.6081
 6170SOL    HW230144   3.739   2.784   3.663  1.4818 -2.3739 -0.4256
 6171SOL     OW30145   1.195   0.479   5.099  0.4372 -0.4714 -0.2559
 6171SOL    HW130146   1.225   0.522   5.179  1.7800 -0.7691 -0.5999
 6171SOL    HW230147   1.272   0.493   5.045  0.9065  1.9441  1.0362
 6172SOL     OW30148   0.821   3.234   2.433  0.6215 -0.1037 -0.7712
 6172SOL    HW130149   0.794   3.282   2.511 -1.6555 -2.0597 -0.3834
 6172SOL    HW230150   0.870   3.159   2.468  0.4889 -0.1112 -0.6057
 6173SOL     OW30151   1.017   0.566   2.739  0.3561 -0.8937 -0.3580
 6173SOL    HW130152   1.076   0.495   2.765  1.0726  0.0043  0.4475
 6173SOL    HW230153   1.038   0.579   2.647  0.8476  0.0465 -0.1116
 6174SOL     OW30154   0.535   0.157   7.120  0.2461  0.0423 -0.5137
 6174SOL    HW130155   0.507   0.199   7.037  1.0849  0.3596 -0.6315
 6174SOL    HW230156   0.526   0.064   7.102  1.3615 -0.5375  2.0498
 6175SOL     OW30157   0.796   1.603   7.899  0.1371  0.7594 -0.5798
 6175SOL    HW130158   0.701   1.598   7.891  0.2109 -0.0232 -1.0018
 6175SOL    HW230159   0.801   1.646   7.984 -2.8754 -1.4352  0.6791
 6176SOL     OW30160   4.292   0.285   1.406 -0.1740  0.0049 -0.9460
 6176SOL    HW130161   4.263   0.205   1.362 -0.7418 -0.8495  1.0129
 6176SOL    HW230162   4.364   0.251   1.459 -1.8884  0.6360  1.7600
 6177SOL     OW30163   4.012   1.303   6.912  0.1355  0.3297  0.1437
 6177SOL    HW130164   4.051   1.380   6.953 -1.0376 -0.4317  2.6963
 6177SOL    HW230165   4.051   1.305   6.825  1.1212  0.3825  0.5855
 6178SOL     OW30166   1.154   0.361   2.489  0.0699  0.6619  0.6773
 6178SOL    HW130167   1.246   0.389   2.481 -0.4772  1.9340 -1.3643
 6178SOL    HW230168   1.112   0.447   2.486 -1.1813 -0.0018 -1.1306
 6179SOL     OW30169   4.146   1.320  14.608 -0.0345 -0.6003 -0.0359
 6179SOL    HW130170   4.197   1.349  14.533  0.1184  0.7571  0.5973
 6179SOL    HW230171   4.208   1.321  14.681 -3.1108  0.4741  2.5626
 6180SOL     OW30172   3.293   3.817  16.951 -0.1362 -0.2629 -0.9028
 6180SOL    HW130173   3.345   3.828  16.872  0.8003  0.8945 -0.1308
 6180SOL    HW230174   3.352   3.840  17.023 -1.9661  2.6290 -0.3104
 6181SOL     OW30175   1.119   2.202   8.537  0.1790  0.5817  0.0435
 6181SOL    HW130176   1.114   2.284   8.586 -1.4868 -0.5081  1.7300
 6181SOL    HW230177   1.038   2.207   8.486 -2.5438 -1.5603  4.1610
 6182SOL     OW30178   3.253   1.718   1.798 -0.3328  0.0920  0.2773
 6182SOL    HW130179   3.187   1.787   1.805 -1.0068 -0.5943  0.6617
 6182SOL    HW230180   3.223   1.667   1.723 -2.4919  1.2875  0.3440
 6183SOL     OW30181   0.557   4.329   2.482  0.0170 -0.4000  0.0107
 6183SOL    HW130182   0.572   4.236   2.501  1.3437 -0.5592 -1.8340
 6183SOL    HW230183   0.552   4.364   2.571 -0.6510  1.5082 -0.7862
 6184SOL     OW30184   1.946   1.154   9.703  0.6758 -0.1044 -0.2050
 6184SOL    HW130185   1.986   1.239   9.722  0.8185 -0.6080  1.6559
 6184SOL    HW230186   1.897   1.138   9.783 -1.3794 -0.8278 -1.5991
 6185SOL     OW30187   0.824   4.600   3.279 -0.3738 -0.2070 -0.0839
 6185SOL    HW130188   0.787   4.688   3.286 -1.0039 -0.5837  1.4756
 6185SOL    HW230189   0.744   4.560   3.315 -1.1253  0.4212 -1.0421
 6186SOL     OW30190   1.411   3.842   6.072  0.1920 -0.4593 -0.0886
 6186SOL    HW130191   1.360   3.774   6.027 -1.8110  0.4712  0.7569
 6186SOL    HW230192   1.499   3.806   6.059  0.6903  0.5998  0.3553
 6187SOL     OW30193   1.377   0.825  12.128  0.6133  0.5375  0.0831
 6187SOL    HW130194   1.400   0.910  12.092 -1.0824  0.5681 -0.9261
 6187SOL    HW230195   1.301   0.842  12.185 -1.5794 -0.2324 -2.5942
 6188SOL     OW30196   0.601   0.701   1.793  0.1219  0.0309 -0.5565
 6188SOL    HW130197   0.591   0.732   1.883 -1.0052  2.8441 -1.6657
 6188SOL    HW230198   0.542   0.759   1.747 -1.7185 -0.9902  0.4860
 6189SOL     OW30199   4.279   2.550   0.436  0.0739 -0.0592  0.1342
 6189SOL    HW130200   4.368   2.535   0.405 -0.3904  0.2587 -1.3740
 6189SOL    HW230201   4.260   2.636   0.399  0.4097  1.2042  2.9445
 6190SOL     OW30202   0.527   2.566   1.134 -0.0612 -0.3090  0.5844
 6190SOL    HW130203   0.618   2.572   1.165 -0.3806  1.4622  1.2125
 6190SOL    HW230204   0.520   2.645   1.080  2.1320  0.9028  2.0562
 6191SOL     OW30205   2.960   0.553   3.929 -0.7645  0.6111 -0.0739
 6191SOL    HW130206   2.887   0.496   3.955  0.5241  0.0219  2.2742
 6191SOL    HW230207   2.916   0.620   3.876 -1.5850  1.0292  1.1325
 6192SOL     OW30208   3.308   0.249   5.238  0.0522 -0.2446 -0.0551
 6192SOL    HW130209   3.319   0.162   5.199  1.9189 -0.1515  0.2668
 6192SOL    HW230210   3.378   0.241   5.303  2.1535  1.1151 -2.1527
 6193SOL     OW30211   2.145   2.002   5.144 -0.2740  0.4964  0.0724
 6193SOL    HW130212   2.158   2.097   5.142  5.1164 -0.2679 -0.4124
 6193SOL    HW230213   2.053   2.015   5.168  0.0479  1.7278  0.6313
 6194SOL     OW30214   0.003   4.548   8.287  0.0071  0.1394 -0.0109
 6194SOL    HW130215   0.075   4.609   8.303  0.1642  0.1603 -0.8154
 6194SOL    HW230216   4.711   4.525   8.373 -0.0955  3.2796  0.7617
 6195SOL     OW30217   0.452   3.936   2.019 -0.5447 -0.9447  0.8970
 6195SOL    HW130218   0.393   3.896   1.955 -0.8729  1.2365 -0.1685
 6195SOL    HW230219   0.532   3.886   2.003  0.9897  1.7474  0.1286
 6196SOL     OW30220   1.284   0.943   1.213 -0.0259  0.4019 -0.5766
 6196SOL    HW130221   1.222   0.924   1.284  0.2397  0.1737 -0.4094
 6196SOL    HW230222   1.257   0.874   1.152  1.8657  0.3265 -1.3258
 6197SOL     OW30223   1.389   3.069   3.322  0.5621  0.0190 -0.1856
 6197SOL    HW130224   1.426   2.991   3.365 -0.6566 -1.1570 -1.3063
 6197SOL    HW230225   1.388   3.117   3.405 -1.6575 -0.6674  0.1681
 6198SOL     OW30226   0.212   1.555   3.828 -0.4633 -0.6276 -0.3752
 6198SOL    HW130227   0.154   1.606   3.771 -4.0786 -1.8341  2.2521
 6198SOL    HW230228   0.184   1.472   3.790  0.8678 -1.3107  0.1297
 6199SOL     OW30229   1.350   4.246   4.335 -0.0022 -0.3860  0.2684
 6199SOL    HW130230   1.390   4.160   4.346  0.4324 -0.3700 -1.2640
 6199SOL    HW230231   1.274   4.219   4.283 -1.3057  1.1491  1.3901
 6200SOL     OW30232   4.422   4.153   4.410 -0.1961  0.2467  0.4774
 6200SOL    HW130233   4.460   4.079   4.457  3.5781  1.3776 -0.8594
 6200SOL    HW230234   4.492   4.217   4.413  0.1066 -0.0376 -0.3544
 6201SOL     OW30235   0.775   0.487   1.849  0.6758 -0.8146 -0.1652
 6201SOL    HW130236   0.757   0.578   1.829  0.6425 -1.1446 -1.6598
 6201SOL    HW230237   0.705   0.456   1.790  0.5592 -0.1576 -0.3639
 6202SOL     OW30238   4.135   3.557   5.940  0.3316  0.2283  0.8094
 6202SOL    HW130239   4.091   3.496   5.880 -0.8485  1.7558  0.1378
 6202SOL    HW230240   4.071   3.626   5.955 -0.5464 -0.7073  1.3697
 6203SOL     OW30241   1.767   2.243  13.836  0.0132 -0.3976  0.3277
 6203SOL    HW130242   1.743   2.187  13.909  0.8425 -1.0488  0.1039
 6203SOL    HW230243   1.862   2.235  13.845 -0.1609 -1.8233  0.8827
 6204SOL     OW30244   2.751   1.541   6.299  0.0732 -0.5704 -0.7878
 6204SOL    HW130245   2.816   1.611   6.292  1.5827 -1.7922  1.0335
 6204SOL    HW230246   2.668   1.589   6.306  0.5077  0.1604 -0.6106
 6205SOL     OW30247   3.154   3.547   2.474 -0.7561  0.1308  0.0245
 6205SOL    HW130248   3.203   3.568   2.553  0.7429 -1.0583 -0.5834
 6205SOL    HW230249   3.226   3.536   2.411 -1.7628  0.6644 -1.2164
 6206SOL     OW30250   1.693   3.142   8.313 -0.7035 -0.0773 -0.0873
 6206SOL    HW130251   1.619   3.202   8.308 -1.5064 -1.0621 -0.1696
 6206SOL    HW230252   1.761   3.197   8.350 -1.9476  1.2107  0.2618
 6207SOL     OW30253   0.356   1.450   2.325  0.5467  0.6112 -0.2490
 6207SOL    HW130254   0.280   1.396   2.348 -0.5569  0.8064 -3.4166
 6207SOL    HW230255   0.322   1.536   2.349 -2.2721 -0.6376  0.2184
 6208SOL     OW30256   0.016   3.595   1.276  0.0212  0.0727 -0.1679
 6208SOL    HW130257   0.074   3.548   1.216 -0.9139 -1.9660  0.5149
 6208SOL    HW230258   4.699   3.521   1.286  1.3083 -1.2097 -1.8764
 6209SOL     OW30259   2.571   2.625   2.818 -0.0681 -0.0618  0.0905
 6209SOL    HW130260   2.615   2.665   2.892 -2.0884  0.6502  0.9011
 6209SOL    HW230261   2.575   2.703   2.763 -1.4905 -0.3274 -0.4069
 6210SOL     OW30262   0.775   1.824   2.462  0.0175 -0.0379 -0.3840
 6210SOL    HW130263   0.786   1.757   2.529  1.3327 -0.5903 -1.1697
 6210SOL    HW230264   0.698   1.872   2.493 -0.6784 -1.9661  0.8869
 6211SOL     OW30265   1.217   3.186   2.035  0.0657 -0.0799 -0.2830
 6211SOL    HW130266   1.131   3.213   2.066  0.2371 -0.9809  0.9812
 6211SOL    HW230267   1.194   3.105   1.988  0.1427 -0.6966  0.7608
 6212SOL     OW30268   1.947   0.763   3.802  0.2668 -0.0548 -0.0738
 6212SOL    HW130269   1.934   0.857   3.808  0.1057 -0.0627 -0.3435
 6212SOL    HW230270   2.007   0.749   3.729 -1.6964  0.3500 -1.7508
 6213SOL     OW30271   3.810   1.396   8.446 -0.3867  0.7344 -0.3165
 6213SOL    HW130272   3.716   1.411   8.454 -0.4659  1.2144 -2.0759
 6213SOL    HW230273   3.849   1.470   8.401 -0.2447 -0.1809 -1.6877
 6214SOL     OW30274   1.319   1.183   1.896  0.3904 -0.2173  0.1665
 6214SOL    HW130275   1.322   1.164   1.802  0.7994 -0.0471  0.1442
 6214SOL    HW230276   1.411   1.194   1.921 -0.5019  2.5006  2.3083
 6215SOL     OW30277   2.509   0.866   7.725  0.1988  0.0772 -0.2976
 6215SOL    HW130278   2.501   0.884   7.631  0.9891 -0.5969 -0.4881
 6215SOL    HW230279   2.486   0.775   7.742  2.9194 -1.1600 -3.2736
 6216SOL     OW30280   0.554   2.779   7.870 -0.1022 -0.0002 -0.0019
 6216SOL    HW130281   0.565   2.873   7.884  0.9418 -0.0191 -0.7220
 6216SOL    HW230282   0.459   2.772   7.862 -0.2699  0.1189  1.8402
 6217SOL     OW30283   0.682   2.488  11.749  0.0405 -0.3528  0.2071
 6217SOL    HW130284   0.699   2.397  11.724  0.3983 -0.5321  1.1086
 6217SOL    HW230285   0.702   2.472  11.841  0.3819 -0.0618  0.1843
 6218SOL     OW30286   4.269   1.795  12.903 -0.1187 -0.3445  0.2198
 6218SOL    HW130287   4.272   1.782  12.808 -1.5334  0.6287  0.0420
 6218SOL    HW230288   4.351   1.843  12.916  1.4207 -3.4154  1.9565
 6219SOL     OW30289   2.349   3.993  16.135  0.4521  0.2287 -0.0905
 6219SOL    HW130290   2.323   3.906  16.165  1.7589  0.1913  0.9074
 6219SOL    HW230291   2.337   3.972  16.042  0.6522 -1.2468  0.2057
 6220SOL     OW30292   4.095   1.858   7.904  0.0527  1.3890  0.2807
 6220SOL    HW130293   4.139   1.825   7.826  1.4467 -0.5140  1.8669
 6220SOL    HW230294   4.079   1.778   7.954 -1.5217 -0.4575 -3.1714
 6221SOL     OW30295   3.128   4.296  13.717  0.2338 -0.1464 -0.1966
 6221SOL    HW130296   3.146   4.389  13.702 -2.5581 -0.0448 -2.9733
 6221SOL    HW230297   3.132   4.261  13.629 -0.0516  0.3946 -0.4237
 6222SOL     OW30298   1.441   0.884   2.606  0.5039  0.2353 -0.2201
 6222SOL    HW130299   1.526   0.843   2.592 -1.1591 -3.4028  0.2653
 6222SOL    HW230300   1.390   0.810   2.640  2.0736 -0.8400 -0.2004
 6223SOL     OW30301   0.266   4.501   8.870 -0.2889 -0.0171  0.1305
 6223SOL    HW130302   0.216   4.573   8.909  0.2366  0.9807 -1.0573
 6223SOL    HW230303   0.194   4.471   8.814  0.8676 -2.8213  0.1748
 6224SOL     OW30304   1.809   0.497   4.557 -0.5871  0.2178 -0.8573
 6224SOL    HW130305   1.753   0.473   4.483  0.8767 -1.9632 -1.2528
 6224SOL    HW230306   1.873   0.427   4.555  0.6348  1.2804  0.8617
 6225SOL     OW30307   2.960   2.100   3.952 -0.5622 -0.7316 -0.3105
 6225SOL    HW130308   2.945   2.174   3.894 -0.5895 -0.1048  0.5088
 6225SOL    HW230309   2.908   2.027   3.917 -1.4704 -1.5318  2.7186
 6226SOL     OW30310   3.937   3.740   3.528 -0.0802 -0.3100 -0.0532
 6226SOL    HW130311   3.879   3.751   3.453 -0.4641  0.9683  0.4305
 6226SOL    HW230312   4.005   3.806   3.512 -0.0465 -0.3398 -0.0303
 6227SOL     OW30313   1.615   0.089  10.764 -0.1190 -0.4125  0.0005
 6227SOL    HW130314   1.617   0.172  10.715  0.5512 -1.0144 -0.9794
 6227SOL    HW230315   1.560   0.030  10.713 -0.7938 -0.6757  1.0201
 6228SOL     OW30316   3.334   2.861   6.722  0.2910 -0.0235 -0.3855
 6228SOL    HW130317   3.346   2.956   6.726  2.7630 -0.3618  0.1275
 6228SOL    HW230318   3.273   2.856   6.649  0.9739  2.6283 -1.1414
 6229SOL     OW30319   2.631   3.063  15.267  0.0741 -0.1395 -0.7032
 6229SOL    HW130320   2.588   3.145  15.292 -0.6399 -1.6132  2.9383
 6229SOL    HW230321   2.582   2.991  15.308  0.5649  1.1037  2.1098
 6230SOL     OW30322   4.092   2.204   7.686 -0.1686 -0.1030 -0.4337
 6230SOL    HW130323   4.094   2.299   7.673 -1.7380 -0.4240 -2.8380
 6230SOL    HW230324   4.178   2.199   7.729 -0.9014 -0.0134  1.0547
 6231SOL     OW30325   3.284   0.842   0.698  0.5296  0.3353  0.3492
 6231SOL    HW130326   3.365   0.823   0.651 -0.3486 -0.8032 -0.7043
 6231SOL    HW230327   3.322   0.890   0.772  0.4234 -0.3675  0.8644
 6232SOL     OW30328   2.290   0.020   5.432  0.3326 -0.0470  0.5203
 6232SOL    HW130329   2.311   4.671   5.445 -1.6107 -0.7347 -1.3121
 6232SOL    HW230330   2.356   0.029   5.363 -2.0567 -1.7128 -2.0001
 6233SOL     OW30331   4.171   3.109   9.321 -0.5073  0.2590  0.1743
 6233SOL    HW130332   4.247   3.113   9.262 -0.2314 -1.3798  0.4222
 6233SOL    HW230333   4.114   3.050   9.273  0.5007  0.2335 -1.0000
 6234SOL     OW30334   3.263   2.715   9.232 -0.3467 -0.6832 -0.0820
 6234SOL    HW130335   3.221   2.742   9.151 -1.2192 -0.8959  0.2997
 6234SOL    HW230336   3.312   2.792   9.262  1.0616 -1.2439 -0.9131
 6235SOL     OW30337   2.993   4.416   7.061  0.0001 -0.1562  0.3450
 6235SOL    HW130338   3.062   4.483   7.062  1.4497 -1.6199 -1.8039
 6235SOL    HW230339   3.023   4.355   7.127 -1.4942 -1.2842 -0.0179
 6236SOL     OW30340   0.961   2.787   8.483  0.0985  0.6682 -0.2478
 6236SOL    HW130341   1.045   2.745   8.468  0.4215  0.5715  1.8545
 6236SOL    HW230342   0.945   2.769   8.576 -0.3451  1.2957 -0.1985
 6237SOL     OW30343   3.659   2.953   6.513  0.2026  0.0656  0.2939
 6237SOL    HW130344   3.632   2.891   6.445  0.5959 -1.5010  1.5667
 6237SOL    HW230345   3.739   2.907   6.538  1.3041  1.2702 -1.0876
 6238SOL     OW30346   1.096   2.308   5.149  0.1185  0.5269  0.0999
 6238SOL    HW130347   1.118   2.380   5.208  1.3624 -0.0454  0.3394
 6238SOL    HW230348   1.000   2.303   5.144  0.1805 -0.2958 -0.4181
 6239SOL     OW30349   1.536   0.713   7.292 -0.0359 -0.5793 -0.5326
 6239SOL    HW130350   1.496   0.637   7.250  0.6334 -2.2657  1.9144
 6239SOL    HW230351   1.626   0.705   7.259  0.2715  0.4651  0.0661
 6240SOL     OW30352   0.250   0.445   1.921 -0.1163  0.3493 -0.1941
 6240SOL    HW130353   0.197   0.366   1.913  3.4275 -2.2208  1.6027
 6240SOL    HW230354   0.244   0.473   1.829  0.5355 -1.0827 -0.6698
 6241SOL     OW30355   1.642   1.020   3.444 -0.5623  0.3702  0.2718
 6241SOL    HW130356   1.635   0.936   3.398 -0.8577  0.9008 -0.6437
 6241SOL    HW230357   1.579   1.066   3.389 -1.2405 -2.0279 -0.9540
 6242SOL     OW30358   2.295   1.256   7.104 -0.3453  0.1503 -0.5479
 6242SOL    HW130359   2.312   1.163   7.122  1.7897  0.3375 -1.4785
 6242SOL    HW230360   2.202   1.268   7.121 -0.0003  2.3053 -0.1515
 6243SOL     OW30361   2.747   3.884  13.242 -0.2967  0.3012 -0.1013
 6243SOL    HW130362   2.665   3.835  13.242 -0.6923  0.9521 -1.4734
 6243SOL    HW230363   2.717   3.958  13.294  0.0623 -1.0634  2.0250
 6244SOL     OW30364   1.640   4.550   5.878 -0.1915  0.2772  0.5271
 6244SOL    HW130365   1.581   4.592   5.940  0.3187 -0.3614  1.4418
 6244SOL    HW230366   1.708   4.526   5.941  2.0441  1.7739 -1.3182
 6245SOL     OW30367   0.594   2.648   6.230  0.9308 -0.0598  0.2093
 6245SOL    HW130368   0.564   2.589   6.161 -1.3941 -0.1927  1.3148
 6245SOL    HW230369   0.686   2.623   6.238  0.5835 -0.2044  3.9497
 6246SOL     OW30370   3.763   3.245   2.545  0.3288 -0.5094 -0.3855
 6246SOL    HW130371   3.789   3.162   2.586 -0.3211  1.1575  3.2896
 6246SOL    HW230372   3.848   3.289   2.540  0.4186 -0.3929  2.3150
 6247SOL     OW30373   1.050   1.752   5.198  0.2219 -0.1199 -0.2048
 6247SOL    HW130374   1.134   1.796   5.215 -0.9643  2.3466 -0.7020
 6247SOL    HW230375   1.062   1.726   5.107  1.2249  0.2233 -0.1691
 6248SOL     OW30376   4.202   0.523   5.995  0.3337 -0.3345  0.5032
 6248SOL    HW130377   4.170   0.447   6.042 -0.5363 -0.9195 -1.0548
 6248SOL    HW230378   4.294   0.533   6.021  0.5489 -1.4723  0.1626
 6249SOL     OW30379   4.104   0.819   7.647  0.0202 -0.1922 -0.6191
 6249SOL    HW130380   4.132   0.768   7.571  1.7307 -1.3080  0.7740
 6249SOL    HW230381   4.080   0.749   7.708  0.7371  0.2849  0.2079
 6250SOL     OW30382   0.340   1.423  11.203  0.0936  0.2470 -0.6868
 6250SOL    HW130383   0.245   1.433  11.211  0.3099 -0.1138  2.3016
 6250SOL    HW230384   0.358   1.478  11.279  2.2493 -0.5267 -0.6210
 6251SOL     OW30385   3.823   1.869   4.066 -0.0406  0.0255 -0.0113
 6251SOL    HW130386   3.828   1.839   3.976  0.0311  1.3908 -0.4645
 6251SOL    HW230387   3.850   1.789   4.110 -0.8239  0.1347  0.6780
 6252SOL     OW30388   3.537   1.398   4.903  0.3791 -0.4092  0.4027
 6252SOL    HW130389   3.478   1.468   4.875  0.3899  0.1616  1.8175
 6252SOL    HW230390   3.600   1.454   4.949 -1.8115  0.7555  1.9571
 6253SOL     OW30391   1.661   0.817   6.521  0.2590 -0.2951  0.5644
 6253SOL    HW130392   1.652   0.724   6.500 -0.3197 -0.2400  0.5831
 6253SOL    HW230393   1.728   0.847   6.459  1.2285 -1.1087  1.2221
 6254SOL     OW30394   1.772   2.650   4.092 -0.0026 -0.1778  0.2353
 6254SOL    HW130395   1.750   2.635   4.000  1.0626  0.3862 -0.1163
 6254SOL    HW230396   1.744   2.740   4.107 -2.8113 -1.2064  1.0735
 6255SOL     OW30397   3.259   1.155   9.450  0.0402 -0.4825 -0.2580
 6255SOL    HW130398   3.315   1.229   9.476  0.9035 -0.1926 -2.8461
 6255SOL    HW230399   3.312   1.085   9.486 -0.4498  0.3949  2.1398
 6256SOL     OW30400   3.176   0.081   7.874 -0.4441 -0.5517 -0.6100
 6256SOL    HW130401   3.161   4.730   7.865  1.6416 -1.1287  2.1526
 6256SOL    HW230402   3.270   0.075   7.887 -0.4405  0.5129 -0.1297
 6257SOL     OW30403   3.145   4.336   7.639 -0.5397 -0.3783  0.1247
 6257SOL    HW130404   3.135   4.243   7.620  1.4987 -0.1230 -2.2748
 6257SOL    HW230405   3.090   4.377   7.572  0.3347  0.0043 -0.3640
 6258SOL     OW30406   2.592   1.692   9.672 -0.5596  0.0489 -0.7561
 6258SOL    HW130407   2.594   1.731   9.759 -0.0653  1.3240 -1.3482
 6258SOL    HW230408   2.518   1.632   9.682 -1.3179  1.0431 -0.4281
 6259SOL     OW30409   0.336   0.732   5.017  0.2509  0.3569  0.4407
 6259SOL    HW130410   0.284   0.697   4.945 -2.4822  2.1557  1.5476
 6259SOL    HW230411   0.282   0.698   5.088 -0.5454 -2.8793 -1.7054
 6260SOL     OW30412   0.813   3.389   3.544 -0.0828  0.2349  0.0433
 6260SOL    HW130413   0.812   3.466   3.602  1.9256  0.6374 -0.4611
 6260SOL    HW230414   0.904   3.385   3.516  0.0609  0.9847  0.3973
 6261SOL     OW30415   0.116   0.986   4.073  0.3923 -0.5087  0.1017
 6261SOL    HW130416   0.183   1.044   4.110 -1.6753  1.8901  0.0612
 6261SOL    HW230417   0.138   0.909   4.125  0.7733  0.0515  0.7740
 6262SOL     OW30418   0.483   3.239  16.802 -0.1304 -0.3763 -0.2916
 6262SOL    HW130419   0.472   3.219  16.709  0.0004 -0.2460 -0.3365
 6262SOL    HW230420   0.423   3.314  16.808  0.5453  0.0779  0.8582
 6263SOL     OW30421   1.707   2.197   4.358  0.3521  0.4319 -0.1391
 6263SOL    HW130422   1.650   2.210   4.433  0.1931  1.4560 -0.4382
 6263SOL    HW230423   1.725   2.104   4.368  1.0138  0.5437 -0.2772
 6264SOL     OW30424   4.190   1.888   6.064 -0.2053 -0.0466 -0.0341
 6264SOL    HW130425   4.196   1.794   6.079  0.5349  0.1871  1.1022
 6264SOL    HW230426   4.097   1.912   6.060 -0.3465 -0.2666  1.7279
 6265SOL     OW30427   4.365   2.252   5.085  0.4879 -0.0512 -0.2345
 6265SOL    HW130428   4.354   2.282   5.175  5.2870 -0.3639  0.4585
 6265SOL    HW230429   4.454   2.218   5.096 -0.3332 -1.7174  1.2895
 6266SOL     OW30430   0.003   4.179   0.266  0.1209  0.1797  0.2476
 6266SOL    HW130431   0.031   4.109   0.325  0.3817  1.7928  2.0762
 6266SOL    HW230432   4.658   4.185   0.303 -1.5681 -3.7893 -3.1794
 6267SOL     OW30433   0.235   4.567   1.001  0.0345  0.2009 -0.1150
 6267SOL    HW130434   0.162   4.598   0.947  1.9601  1.4180 -2.0179
 6267SOL    HW230435   0.281   4.650   1.018 -0.4068  0.8579 -2.0507
 6268SOL     OW30436   2.950   1.200   4.991  0.0971 -0.2648 -0.1146
 6268SOL    HW130437   2.887   1.137   4.956  0.7955 -0.5040 -0.9201
 6268SOL    HW230438   2.888   1.251   5.044 -0.9574  0.2074 -1.8044
 6269SOL     OW30439   4.619   0.340  12.315 -0.1419  0.0917 -0.7203
 6269SOL    HW130440   4.651   0.299  12.235 -0.8587  1.1069 -1.5386
 6269SOL    HW230441   4.688   0.323  12.379 -0.2542  1.3018 -0.2747
 6270SOL     OW30442   4.003   3.268  10.528 -0.1282  0.1806 -0.3257
 6270SOL    HW130443   3.918   3.312  10.525 -0.1150  0.1528 -1.1904
 6270SOL    HW230444   4.060   3.344  10.517  1.3780 -0.9862 -0.4589
 6271SOL     OW30445   2.626   3.120   2.978  0.0997 -0.1763  0.1772
 6271SOL    HW130446   2.648   3.031   2.949  1.3849  0.5168 -1.0185
 6271SOL    HW230447   2.552   3.148   2.925 -0.4034  1.8554  1.9828
 6272SOL     OW30448   3.790   4.057   3.321 -0.2949  0.0507 -0.2889
 6272SOL    HW130449   3.754   4.139   3.287  0.4018  0.3223 -0.3781
 6272SOL    HW230450   3.848   4.035   3.247 -2.3478 -0.8741 -1.6214
 6273SOL     OW30451   2.678   0.566   8.523 -0.3617  0.1715  0.2924
 6273SOL    HW130452   2.729   0.509   8.465 -1.0319 -0.9598  0.8228
 6273SOL    HW230453   2.586   0.545   8.511 -0.4249  0.1056  0.9308
 6274SOL     OW30454   0.808   4.232   4.972 -0.0933  0.1795  0.3815
 6274SOL    HW130455   0.844   4.234   4.884 -0.2469 -3.7499  0.2554
 6274SOL    HW230456   0.857   4.308   5.006 -0.3758  1.8849 -2.9749
 6275SOL     OW30457   0.842   2.578   6.249  0.3375 -0.2482 -0.1861
 6275SOL    HW130458   0.844   2.484   6.231 -0.6362 -0.1899 -0.5749
 6275SOL    HW230459   0.900   2.575   6.325 -0.5923  0.1162  0.5333
 6276SOL     OW30460   0.129   2.117   2.727  0.4675  0.2722 -0.2899
 6276SOL    HW130461   0.062   2.057   2.695 -0.9244  0.8551  1.5458
 6276SOL    HW230462   0.202   2.104   2.666 -1.7615 -1.2260 -2.6027
 6277SOL     OW30463   4.515   0.300   1.604  0.3565  0.3875 -0.4606
 6277SOL    HW130464   4.460   0.320   1.681 -0.0044 -0.2030 -0.5642
 6277SOL    HW230465   4.512   0.205   1.595  2.3029  0.3262 -0.2586
 6278SOL     OW30466   1.930   0.816   0.808  0.4837 -0.3846 -0.3580
 6278SOL    HW130467   1.955   0.902   0.774  1.8514 -0.2191  1.0709
 6278SOL    HW230468   1.853   0.799   0.753 -1.3242  0.9609  1.7376
 6279SOL     OW30469   2.840   4.590  10.640 -0.2368  0.1067 -0.4875
 6279SOL    HW130470   2.904   4.619  10.706 -1.8300  0.0913  1.0795
 6279SOL    HW230471   2.760   4.634  10.671  0.3295 -0.5454  1.9057
 6280SOL     OW30472   4.511   0.244   5.117  0.5202  0.9150 -0.3513
 6280SOL    HW130473   4.508   0.298   5.038  2.3069  2.5490  0.7034
 6280SOL    HW230474   4.421   0.253   5.149  0.6720  2.2106 -0.2801
 6281SOL     OW30475   0.900   2.942  11.805 -0.4414 -0.2856 -0.0857
 6281SOL    HW130476   0.855   2.860  11.782 -0.1853 -0.9103  1.6820
 6281SOL    HW230477   0.884   2.945  11.899  0.3351  1.3121 -0.0093
 6282SOL     OW30478   1.954   4.167   9.435  0.1356 -0.5054  0.2983
 6282SOL    HW130479   1.899   4.147   9.511  2.8727 -0.9853  2.1518
 6282SOL    HW230480   1.952   4.262   9.440  0.1777 -0.5015  0.2453
 6283SOL     OW30481   2.943   3.037  16.895  0.1549 -0.3880  0.5119
 6283SOL    HW130482   2.901   3.027  16.810 -2.9908 -0.2578  2.0629
 6283SOL    HW230483   3.002   2.962  16.904  1.0368  0.3526  0.9025
 6284SOL     OW30484   2.907   0.115   8.388 -0.4208  0.0120  0.4768
 6284SOL    HW130485   2.962   0.118   8.310 -1.5596 -1.1448 -0.3838
 6284SOL    HW230486   2.866   0.201   8.392 -1.3972 -0.2933 -3.0002
 6285SOL     OW30487   2.422   0.134   1.952  0.6019 -0.3303 -0.5372
 6285SOL    HW130488   2.382   0.220   1.967  0.4703 -0.8329  2.1454
 6285SOL    HW230489   2.455   0.145   1.863 -0.4089 -0.9558 -0.9948
 6286SOL     OW30490   2.017   1.165   4.752 -0.9914 -0.4845  0.4137
 6286SOL    HW130491   1.922   1.154   4.750 -0.6950 -3.3309  1.8724
 6286SOL    HW230492   2.050   1.075   4.744 -1.0050 -0.4841  0.3504
 6287SOL     OW30493   0.475   4.400  11.397 -0.2765  0.1322 -0.0707
 6287SOL    HW130494   0.469   4.307  11.418  0.8215 -0.1908 -1.2025
 6287SOL    HW230495   0.473   4.403  11.301 -0.2566  1.5511 -0.0371
 6288SOL     OW30496   1.210   1.424   6.370  0.9268 -0.3410 -0.4793
 6288SOL    HW130497   1.227   1.337   6.335  0.0244 -0.2007 -1.2470
 6288SOL    HW230498   1.244   1.476   6.297 -1.7580 -0.5158 -1.8440
 6289SOL     OW30499   0.493   0.279  15.038 -0.5802  0.2127 -0.2525
 6289SOL    HW130500   0.430   0.219  14.999  1.1057 -1.4942 -0.3643
 6289SOL    HW230501   0.498   0.318  14.951 -2.5929  1.3895  0.1701
 6290SOL     OW30502   2.325   3.167   3.112  0.1764 -0.4146 -0.3414
 6290SOL    HW130503   2.298   3.249   3.070 -4.7696 -1.0554  1.6126
 6290SOL    HW230504   2.417   3.192   3.121 -0.3943  1.8893 -0.9315
 6291SOL     OW30505   0.727   0.174   5.975  0.1014 -0.2324 -0.3721
 6291SOL    HW130506   0.700   0.158   5.885  0.1254 -1.4144 -0.1706
 6291SOL    HW230507   0.817   0.202   5.958  0.3232  0.2964  1.6623
 6292SOL     OW30508   2.157   2.531  15.721  0.2086  0.1293  0.1335
 6292SOL    HW130509   2.135   2.623  15.736 -1.4559 -0.2423 -0.1434
 6292SOL    HW230510   2.210   2.535  15.641  3.6441  0.3745  2.3954
 6293SOL     OW30511   1.525   4.314  14.524  0.4443 -0.4256  0.4139
 6293SOL    HW130512   1.573   4.375  14.468  1.0331 -1.6252 -0.3745
 6293SOL    HW230513   1.586   4.243  14.545 -0.6247 -1.5317 -0.2565
 6294SOL     OW30514   3.572   0.758  16.035 -0.4314 -0.0090  0.1812
 6294SOL    HW130515   3.653   0.714  16.057 -0.2429 -0.1733 -0.8691
 6294SOL    HW230516   3.608   0.845  16.055 -1.4625  0.9047 -1.8820
 6295SOL     OW30517   4.062   4.377   3.655 -0.3402  0.1464 -0.2486
 6295SOL    HW130518   3.982   4.417   3.621 -1.3406 -0.5716  1.2428
 6295SOL    HW230519   4.078   4.312   3.586 -0.1980 -1.9198  1.7089
 6296SOL     OW30520   1.262   1.865   5.656  0.0567  0.0594 -0.5103
 6296SOL    HW130521   1.305   1.950   5.644 -0.2802  0.6626  2.7337
 6296SOL    HW230522   1.299   1.818   5.581 -1.2304  0.8716 -1.6611
 6297SOL     OW30523   2.763   3.475   2.265 -0.1451  0.2357  0.3159
 6297SOL    HW130524   2.842   3.529   2.272  1.1876 -1.6177 -0.2636
 6297SOL    HW230525   2.787   3.404   2.324 -1.8073  0.1016  0.8256
 6298SOL     OW30526   2.467   2.261   6.170  0.4046  0.1324  0.2509
 6298SOL    HW130527   2.522   2.196   6.213  0.9796  0.8242  0.5702
 6298SOL    HW230528   2.404   2.274   6.241  0.7007 -1.0943  0.7320
 6299SOL     OW30529   0.932   3.706  10.535  0.2366 -0.5924  0.6055
 6299SOL    HW130530   0.839   3.697  10.512  0.4846 -1.2955 -0.1334
 6299SOL    HW230531   0.964   3.784  10.489 -1.5060 -1.1722 -1.5942
 6300SOL     OW30532   0.732   3.611   6.362 -0.6226 -0.4721 -0.0626
 6300SOL    HW130533   0.728   3.515   6.370 -1.0159 -0.2929  1.8472
 6300SOL    HW230534   0.715   3.632   6.453 -3.2775 -0.5769 -0.5346
 6301SOL     OW30535   3.633   4.461  17.469  0.3596 -0.2044  0.4048
 6301SOL    HW130536   3.677   4.429  17.548 -1.2005 -1.8327  0.6138
 6301SOL    HW230537   3.704   4.498  17.416  2.3559 -2.0691  1.7654
 6302SOL     OW30538   0.058   3.463   2.445  0.2429 -0.4133  0.2861
 6302SOL    HW130539   0.104   3.534   2.400  1.8919 -2.6557 -1.5231
 6302SOL    HW230540   0.061   3.388   2.386 -0.5163 -0.8270  0.7767
 6303SOL     OW30541   2.126   4.220   3.191 -0.0002  0.1102  0.6607
 6303SOL    HW130542   2.165   4.189   3.273 -0.8410 -0.9269  0.6721
 6303SOL    HW230543   2.198   4.269   3.152  1.0667  0.3019  2.9326
 6304SOL     OW30544   1.922   1.411  15.934  0.0481 -0.0934  0.4942
 6304SOL    HW130545   1.990   1.345  15.921 -0.4823 -0.1556 -1.9552
 6304SOL    HW230546   1.873   1.413  15.851  0.2201  0.6629  0.4109
 6305SOL     OW30547   3.971   3.363   3.570 -0.4360  0.6165 -0.0119
 6305SOL    HW130548   3.900   3.329   3.625  0.7470  1.4040  1.9731
 6305SOL    HW230549   4.020   3.285   3.544 -1.5532  0.4452 -1.6091
 6306SOL     OW30550   3.791   4.363  17.649  0.2646 -0.4977 -0.6159
 6306SOL    HW130551   3.754   4.285  17.692 -3.2792  0.5685 -1.7213
 6306SOL    HW230552   3.810   4.426  17.718  1.9820 -1.7028 -0.0053
 6307SOL     OW30553   1.485   2.296   4.950  0.4353  0.4515 -0.4150
 6307SOL    HW130554   1.505   2.306   5.043  1.4990 -0.5221 -0.5285
 6307SOL    HW230555   1.478   2.389   4.931  1.6588  0.4243 -1.0050
 6308SOL     OW30556   2.910   0.904   1.413 -0.3132 -0.1141 -0.3621
 6308SOL    HW130557   2.839   0.943   1.364 -0.2122  0.3275 -0.1571
 6308SOL    HW230558   2.967   0.867   1.346  1.8825  0.9733  0.9032
 6309SOL     OW30559   1.803   4.683  11.493 -0.7059 -0.0846  0.0835
 6309SOL    HW130560   1.794   4.680  11.398  0.3384 -0.6764 -0.0041
 6309SOL    HW230561   1.858   4.605  11.503 -0.4958  0.1666  0.9678
 6310SOL     OW30562   0.733   0.781   3.481  0.1318 -0.2917 -0.0450
 6310SOL    HW130563   0.664   0.725   3.445  0.5218 -1.4486  0.9908
 6310SOL    HW230564   0.700   0.807   3.567  0.5455 -0.5126  0.1805
 6311SOL     OW30565   0.809   1.789   3.586 -0.0263  0.2382  0.3436
 6311SOL    HW130566   0.823   1.849   3.513 -0.6166  1.2259  1.0420
 6311SOL    HW230567   0.840   1.709   3.545  1.7807  0.0313  2.0969
 6312SOL     OW30568   3.111   3.677   9.660  0.4317 -0.0497  0.0805
 6312SOL    HW130569   3.018   3.658   9.669  1.0455 -2.0698  2.0302
 6312SOL    HW230570   3.155   3.599   9.695  1.2032  0.5858  0.5460
 6313SOL     OW30571   4.559   4.279   8.623 -0.1694 -0.1414 -0.3114
 6313SOL    HW130572   4.587   4.364   8.655 -2.1734  0.4330 -0.1130
 6313SOL    HW230573   4.520   4.231   8.696 -0.5042 -0.6852 -0.8509
 6314SOL     OW30574   4.547   1.061   1.820 -0.1040  0.2011  0.2200
 6314SOL    HW130575   4.498   1.124   1.872 -0.8928  0.1865 -0.5149
 6314SOL    HW230576   4.631   1.053   1.866  1.5477 -0.0141 -2.8128
 6315SOL     OW30577   4.151   4.314  10.431  0.2898  0.0254 -0.0516
 6315SOL    HW130578   4.188   4.401  10.446  0.6982 -0.0678 -0.5190
 6315SOL    HW230579   4.058   4.333  10.437  0.7241  2.7075 -2.1035
 6316SOL     OW30580   3.184   4.634   7.136 -0.3535  0.3906  0.4034
 6316SOL    HW130581   3.205   4.712   7.085  0.7427 -1.2971 -1.7340
 6316SOL    HW230582   3.233   4.659   7.214  2.0721  1.8547 -1.6047
 6317SOL     OW30583   3.348   3.537   5.593  0.2249  0.3161 -0.2716
 6317SOL    HW130584   3.259   3.541   5.628 -0.1430 -0.7632 -1.0669
 6317SOL    HW230585   3.353   3.468   5.527 -3.4791  1.7064 -2.0385
 6318SOL     OW30586   2.791   3.120   5.956  0.2963 -0.4960 -0.4676
 6318SOL    HW130587   2.790   3.096   6.049  1.1132  0.7596 -0.1359
 6318SOL    HW230588   2.737   3.046   5.927  1.3823 -1.5382  0.1820
 6319SOL     OW30589   1.968   4.686  15.001  0.0553 -0.3930  0.0360
 6319SOL    HW130590   1.874   4.683  14.982 -0.1716 -1.0132  1.2751
 6319SOL    HW230591   1.985   0.031  14.970 -1.3447  0.1635  0.8297
 6320SOL     OW30592   4.665   4.620   6.371 -0.3107  0.3483  0.0165
 6320SOL    HW130593   4.593   4.629   6.433 -0.5402 -0.4577 -0.1302
 6320SOL    HW230594   4.690   4.527   6.374  0.3472  0.6244  2.6998
 6321SOL     OW30595   3.399   1.510   8.905  0.0944 -0.1055  0.0111
 6321SOL    HW130596   3.336   1.463   8.849 -0.3158  0.5916 -0.1107
 6321SOL    HW230597   3.335   1.572   8.941  0.9211  1.6766 -1.5732
 6322SOL     OW30598   3.140   3.028   9.269 -0.7215  0.4906 -0.1369
 6322SOL    HW130599   3.234   3.018   9.285 -0.4022  2.1539 -0.8773
 6322SOL    HW230600   3.136   2.993   9.180 -2.9191 -1.8891  0.8961
 6323SOL     OW30601   3.810   0.687  16.139 -0.2267  0.2466 -0.1413
 6323SOL    HW130602   3.806   0.692  16.234 -0.1425  1.5109 -0.1972
 6323SOL    HW230603   3.832   0.776  16.110 -0.3234  0.1503 -0.5201
 6324SOL     OW30604   4.095   1.192   5.456  0.6130 -0.7654  0.1288
 6324SOL    HW130605   4.138   1.220   5.375  0.0085  0.1840  0.1287
 6324SOL    HW230606   4.058   1.276   5.485 -0.3574 -1.6760  1.5212
 6325SOL     OW30607   1.695   0.384   7.756  0.5804  0.1533 -0.0906
 6325SOL    HW130608   1.650   0.316   7.806 -0.4739  0.3788 -0.7230
 6325SOL    HW230609   1.786   0.375   7.785  0.4420  0.4414  0.4317
 6326SOL     OW30610   3.509   0.258  17.753  0.2349 -0.1262  0.2790
 6326SOL    HW130611   3.453   0.207   0.041 -1.7517 -0.1355 -1.5906
 6326SOL    HW230612   3.543   0.183  17.705 -1.8345 -1.0679  0.2851
 6327SOL     OW30613   3.624   2.757  16.457 -0.0129  0.0281  0.2409
 6327SOL    HW130614   3.704   2.735  16.410  0.4737 -0.3213  1.2380
 6327SOL    HW230615   3.626   2.687  16.522  0.8034 -0.2626 -0.1059
 6328SOL     OW30616   2.089   4.382   9.701  0.3217 -0.0634  0.1496
 6328SOL    HW130617   2.025   4.417   9.763  1.0601  0.6659  0.5001
 6328SOL    HW230618   2.024   4.355   9.636 -0.5229 -1.5508  1.6216
 6329SOL     OW30619   2.487   2.466   7.765  0.5018  0.6224  0.4118
 6329SOL    HW130620   2.538   2.491   7.688  1.0132  0.1361  0.5960
 6329SOL    HW230621   2.468   2.375   7.740  1.1462  0.4534  0.5381
 6330SOL     OW30622   1.405   3.657   7.859  0.6343  0.2938  0.1182
 6330SOL    HW130623   1.462   3.605   7.804 -1.0415  0.1083 -1.4492
 6330SOL    HW230624   1.327   3.659   7.803  1.0846  0.4476 -0.5098
 6331SOL     OW30625   3.852   3.554   2.603 -0.1815 -0.4694  0.4887
 6331SOL    HW130626   3.794   3.531   2.675  0.8834 -1.1799  1.1285
 6331SOL    HW230627   3.931   3.506   2.629 -0.9518 -1.6114  0.6693
 6332SOL     OW30628   2.238   3.583   5.560 -0.3288  0.1491  0.0414
 6332SOL    HW130629   2.181   3.644   5.513 -1.6356 -1.0955  0.0072
 6332SOL    HW230630   2.224   3.603   5.653  0.1467  1.7444 -0.2257
 6333SOL     OW30631   0.375   1.685   4.046  0.3236 -0.3496 -0.0965
 6333SOL    HW130632   0.363   1.779   4.031  0.4440 -0.3832 -0.3910
 6333SOL    HW230633   0.322   1.644   3.978  0.3815  1.1177 -1.0269
 6334SOL     OW30634   0.919   4.608  12.490  0.3661  0.1260  0.2241
 6334SOL    HW130635   0.907   4.699  12.517 -0.1856  0.4347 -1.0247
 6334SOL    HW230636   0.853   4.564  12.543  1.1811 -0.7566  0.4892
 6335SOL     OW30637   4.651   0.284   6.484 -0.2739  0.3902 -0.0782
 6335SOL    HW130638   0.002   0.269   6.478 -0.3661 -1.2879  3.3561
 6335SOL    HW230639   4.651   0.364   6.537 -0.1259  1.4782 -1.6947
 6336SOL     OW30640   1.800   3.513   8.578 -0.1159 -0.6394 -0.5056
 6336SOL    HW130641   1.748   3.484   8.653  1.2409 -1.9315 -0.0441
 6336SOL    HW230642   1.736   3.563   8.528 -1.1785 -1.8007 -0.3051
 6337SOL     OW30643   1.589   4.091   2.831 -0.8218 -0.5562  0.3133
 6337SOL    HW130644   1.657   4.041   2.786 -0.6546  0.9198 -1.0804
 6337SOL    HW230645   1.620   4.082   2.921  2.2528  1.2842 -0.5434
 6338SOL     OW30646   2.665   1.909   2.925  0.0119 -0.1066  0.9093
 6338SOL    HW130647   2.754   1.918   2.960  0.2705  0.0198  0.2129
 6338SOL    HW230648   2.611   1.930   3.001 -2.1460  0.1754 -0.6993
 6339SOL     OW30649   0.469   1.097   3.967 -0.0779 -0.0182  0.6241
 6339SOL    HW130650   0.467   1.002   3.965  0.2161 -0.0131 -0.0514
 6339SOL    HW230651   0.414   1.115   4.042 -0.1450  1.2309  0.2752
 6340SOL     OW30652   4.187   3.662   4.200 -0.1025 -0.3852  0.1502
 6340SOL    HW130653   4.149   3.578   4.226 -0.3582 -0.0654  0.8226
 6340SOL    HW230654   4.174   3.660   4.105  1.1169 -1.1715 -0.0000
 6341SOL     OW30655   1.449   2.061   2.977 -0.8883  0.4322  0.0017
 6341SOL    HW130656   1.485   1.988   3.028 -0.1832  0.4076 -0.5364
 6341SOL    HW230657   1.475   2.016   2.896 -0.7740  0.6722 -0.0940
 6342SOL     OW30658   1.616   3.015   8.562  0.2723  0.0152 -0.6158
 6342SOL    HW130659   1.655   3.068   8.493 -1.4989  2.6874  0.3933
 6342SOL    HW230660   1.647   2.926   8.546  1.9166  0.0281  2.5357
 6343SOL     OW30661   4.379   4.605   6.240 -0.0355 -0.1704 -0.7861
 6343SOL    HW130662   4.301   4.641   6.285  0.4277  1.5298 -1.3424
 6343SOL    HW230663   4.365   4.511   6.243  1.0735 -0.3358 -0.8465
 6344SOL     OW30664   3.156   2.430  15.920  0.3192  0.1278  0.4447
 6344SOL    HW130665   3.234   2.463  15.875  1.2538 -0.3187  1.7432
 6344SOL    HW230666   3.177   2.441  16.013 -1.3223 -0.1905  0.8430
 6345SOL     OW30667   3.137   1.904   6.236 -0.0901 -0.0616  0.0614
 6345SOL    HW130668   3.117   1.957   6.159 -1.3641 -3.1529 -1.7442
 6345SOL    HW230669   3.207   1.955   6.277 -2.2429  1.3160  1.9886
 6346SOL     OW30670   2.024   2.020  15.505  0.3094  0.0298 -0.0647
 6346SOL    HW130671   2.009   2.001  15.598 -2.8437 -1.1550 -0.8226
 6346SOL    HW230672   1.936   2.038  15.473  0.1299 -0.8867 -0.0739
 6347SOL     OW30673   1.503   0.263  16.224  0.0456 -0.3197 -0.0213
 6347SOL    HW130674   1.579   0.247  16.279  0.2696 -0.1050 -0.2658
 6347SOL    HW230675   1.543   0.253  16.137  0.2066 -0.6213  0.0897
 6348SOL     OW30676   2.142   4.701   4.949  0.1054  0.4687  0.6338
 6348SOL    HW130677   2.047   4.712   4.954 -0.1230 -1.5556  0.4628
 6348SOL    HW230678   2.154   4.608   4.932  2.3139  0.6568  1.2202
 6349SOL     OW30679   0.053   3.319  11.304  0.8026  0.5282  0.3725
 6349SOL    HW130680   0.058   3.224  11.291  1.2479  0.6466 -0.3290
 6349SOL    HW230681   0.051   3.315  11.400  3.0404 -0.7290  0.3654
 6350SOL     OW30682   3.525   1.608   9.640  0.3218  0.0212 -0.6257
 6350SOL    HW130683   3.561   1.687   9.600  1.2696  0.6474  1.4668
 6350SOL    HW230684   3.450   1.643   9.687 -0.0821 -4.0333  1.6869
 6351SOL     OW30685   4.112   2.418   8.500 -0.0328  0.0431 -0.1343
 6351SOL    HW130686   4.038   2.465   8.539  0.2577 -0.4235  0.9801
 6351SOL    HW230687   4.077   2.328   8.498  0.2588 -0.1211  1.9130
 6352SOL     OW30688   3.716   4.630  10.073 -0.5089  0.5126  0.4650
 6352SOL    HW130689   3.761   4.628  10.157  0.2023  1.8547  0.1266
 6352SOL    HW230690   3.747   4.713  10.037  0.7831 -0.1518  0.0444
 6353SOL     OW30691   0.392   2.929   6.167 -0.9792  0.5073 -0.0492
 6353SOL    HW130692   0.463   2.987   6.139  2.1495 -1.8779  2.8838
 6353SOL    HW230693   0.399   2.857   6.105 -1.6842  0.0429  0.4064
 6354SOL     OW30694   2.082   2.438   2.977 -0.3620 -0.2763  0.3660
 6354SOL    HW130695   2.153   2.463   2.918 -0.3384  0.2722  0.6299
 6354SOL    HW230696   2.079   2.343   2.965  2.4102 -0.4230  0.8374
 6355SOL     OW30697   2.628   0.026   8.425 -0.0482  0.0001 -0.1951
 6355SOL    HW130698   2.720   0.050   8.410  0.6387 -1.7222  1.3266
 6355SOL    HW230699   2.645   4.701   8.489 -1.2578 -1.0146 -0.9801
 6356SOL     OW30700   1.149   1.556   3.529  0.2952  0.1069 -0.5452
 6356SOL    HW130701   1.088   1.498   3.576  1.4365 -0.4907  0.1810
 6356SOL    HW230702   1.200   1.588   3.603 -0.8857 -2.7304  1.5404
 6357SOL     OW30703   1.266   3.183   4.866 -0.6068  0.2230  0.0331
 6357SOL    HW130704   1.277   3.272   4.899 -0.5021 -0.5733  2.1119
 6357SOL    HW230705   1.187   3.211   4.820  0.4050 -0.2229 -2.0196
 6358SOL     OW30706   3.329   2.806  15.007 -0.1950 -0.0463  0.0619
 6358SOL    HW130707   3.379   2.768  14.935  1.8332 -0.2164  1.5788
 6358SOL    HW230708   3.402   2.828  15.065  0.0767  3.6500 -1.6780
 6359SOL     OW30709   2.142   0.748  11.084  0.5842  0.1747 -0.6971
 6359SOL    HW130710   2.064   0.719  11.131  1.0300  0.3493  0.1595
 6359SOL    HW230711   2.209   0.700  11.133  1.2994  0.0111 -1.8432
 6360SOL     OW30712   4.350   0.175   3.181  0.1211 -0.3663 -0.2394
 6360SOL    HW130713   4.293   0.116   3.133  0.5348 -0.3124 -0.8017
 6360SOL    HW230714   4.297   0.205   3.255  1.1398  0.1682  0.2900
 6361SOL     OW30715   3.200   4.655   9.778 -0.0518  0.6084 -0.3943
 6361SOL    HW130716   3.248   4.654   9.861 -1.5767  0.9527  0.4982
 6361SOL    HW230717   3.240   4.576   9.742  1.0405 -0.1167  2.4059
 6362SOL     OW30718   1.024   0.326  10.197  0.2141  0.2547 -0.6834
 6362SOL    HW130719   1.018   0.388  10.270 -1.6803 -0.1213 -0.5003
 6362SOL    HW230720   1.020   0.239  10.237 -0.8382  0.8782  0.6185
 6363SOL     OW30721   2.601   2.323   0.927 -0.4391 -0.3275  0.1296
 6363SOL    HW130722   2.583   2.327   0.833  0.3171 -0.1296 -0.0030
 6363SOL    HW230723   2.659   2.399   0.935 -0.6881 -0.2928  1.5869
 6364SOL     OW30724   3.283   4.374  16.038  0.0198 -0.2539 -1.1759
 6364SOL    HW130725   3.230   4.400  16.113 -1.1368 -0.5002 -1.9165
 6364SOL    HW230726   3.338   4.451  16.025 -0.6692  0.3415 -0.5489
 6365SOL     OW30727   2.860   2.706  10.527 -0.1991  0.1696 -0.1276
 6365SOL    HW130728   2.892   2.701  10.617  0.5641  1.0261 -0.3612
 6365SOL    HW230729   2.932   2.671  10.475  0.3045  1.5967 -0.4017
 6366SOL     OW30730   0.526   3.027  14.089 -0.0686 -0.6737  0.0922
 6366SOL    HW130731   0.457   3.092  14.098 -0.7026 -1.0736 -1.7882
 6366SOL    HW230732   0.597   3.090  14.075 -1.9376  1.4884  0.4877
 6367SOL     OW30733   0.300   1.923   3.929  0.8557  0.1025  0.2076
 6367SOL    HW130734   0.359   1.996   3.912 -0.3890  0.7330 -1.3957
 6367SOL    HW230735   0.259   1.911   3.843  0.2787 -1.8104  0.7476
 6368SOL     OW30736   2.156   2.224   5.875 -0.6521 -0.0263 -0.1968
 6368SOL    HW130737   2.248   2.244   5.860 -0.6831  0.7033  0.6519
 6368SOL    HW230738   2.135   2.274   5.953  1.0080  0.6746 -0.2030
 6369SOL     OW30739   3.144   1.555   7.423 -0.5430  0.1794 -1.0229
 6369SOL    HW130740   3.160   1.646   7.398  0.2992  0.1866 -0.4255
 6369SOL    HW230741   3.052   1.562   7.449  0.3488  2.3199  1.4974
 6370SOL     OW30742   4.462   4.529   1.314 -0.2424  0.1580 -0.1917
 6370SOL    HW130743   4.435   4.599   1.254  1.2359 -0.2316 -1.3028
 6370SOL    HW230744   4.554   4.518   1.292 -0.1202 -0.4934  0.6856
 6371SOL     OW30745   1.752   1.332   8.349  0.1297  0.0946  0.2078
 6371SOL    HW130746   1.790   1.363   8.432  0.2041  0.5580  0.0012
 6371SOL    HW230747   1.803   1.388   8.291 -0.5283 -0.9168 -1.3641
 6372SOL     OW30748   0.864   2.329   6.815 -0.1492 -0.0181  0.7368
 6372SOL    HW130749   0.928   2.291   6.754 -1.8172 -0.4508 -0.7240
 6372SOL    HW230750   0.906   2.309   6.899  0.6033  0.1652  0.4063
 6373SOL     OW30751   0.154   3.878   8.176 -0.0860  0.6819  0.2402
 6373SOL    HW130752   0.245   3.853   8.166 -0.1964 -0.8810  3.1272
 6373SOL    HW230753   0.166   3.973   8.168 -1.2566  0.7703 -0.5178
 6374SOL     OW30754   4.283   0.855  16.865  0.2125 -0.7152 -0.9992
 6374SOL    HW130755   4.202   0.904  16.852 -0.5190 -1.6895 -0.1414
 6374SOL    HW230756   4.237   0.792  16.922  0.6746  0.1636  0.3567
 6375SOL     OW30757   4.063   4.183   0.074  0.1277 -0.5009  0.5446
 6375SOL    HW130758   4.120   4.162   0.148  0.4878  0.3156  0.4958
 6375SOL    HW230759   4.047   4.277   0.077 -1.6526 -0.7985  0.3023
 6376SOL     OW30760   0.558   3.668  13.018 -0.5017 -0.5193  0.7864
 6376SOL    HW130761   0.569   3.759  12.989 -1.7498  0.1270  2.3666
 6376SOL    HW230762   0.463   3.675  13.010 -0.2947  0.7355 -0.5529
 6377SOL     OW30763   3.684   3.627   6.157  0.0253  0.5528 -0.2603
 6377SOL    HW130764   3.700   3.540   6.119 -0.8945  0.2348  0.1029
 6377SOL    HW230765   3.590   3.617   6.170 -0.6247  2.7128 -3.2552
 6378SOL     OW30766   3.015   4.396  12.425  0.3163  0.1392 -0.3678
 6378SOL    HW130767   2.948   4.338  12.389 -1.6992  2.2389 -0.0283
 6378SOL    HW230768   3.000   4.378  12.517 -1.2822  1.7303 -0.2956
 6379SOL     OW30769   4.567   2.234  16.029  0.4832 -0.4110 -0.1464
 6379SOL    HW130770   4.515   2.270  16.101 -0.8892  1.0886 -1.8619
 6379SOL    HW230771   4.495   2.209  15.971  0.1349 -1.9910  0.9838
 6380SOL     OW30772   4.101   0.860   4.265  0.2033 -0.6073 -0.1585
 6380SOL    HW130773   4.113   0.781   4.317  2.4858 -0.5580 -0.6131
 6380SOL    HW230774   4.014   0.835   4.233 -0.9504 -0.1355  2.6112
 6381SOL     OW30775   0.392   1.719   5.125 -0.1936  0.4114  0.1869
 6381SOL    HW130776   0.412   1.812   5.132 -1.9452  0.7090  1.2074
 6381SOL    HW230777   0.439   1.685   5.202 -1.5717 -1.0201  0.3826
 6382SOL     OW30778   0.215   3.365   7.057 -0.2873 -0.0007  0.5149
 6382SOL    HW130779   0.272   3.345   6.983  0.6082 -1.1781  1.5122
 6382SOL    HW230780   0.274   3.407   7.120 -0.1593  3.2660 -1.7893
 6383SOL     OW30781   3.464   4.167   2.975  0.4843  0.2312 -0.1954
 6383SOL    HW130782   3.512   4.152   2.894 -0.8427 -0.8540 -0.7816
 6383SOL    HW230783   3.424   4.254   2.974  0.3278  0.1378 -1.4160
 6384SOL     OW30784   1.933   0.808   1.094 -0.2714 -0.4218  0.1123
 6384SOL    HW130785   1.928   0.810   0.999  2.7354 -0.0458 -0.0504
 6384SOL    HW230786   1.935   0.715   1.117  0.7736 -0.6175 -0.7900
 6385SOL     OW30787   3.275   2.351   9.872  0.1784  0.1386  0.2224
 6385SOL    HW130788   3.259   2.283   9.937 -0.0412 -0.9627 -0.9879
 6385SOL    HW230789   3.197   2.348   9.817 -0.0465  2.3688  0.4377
 6386SOL     OW30790   2.007   1.547  15.392 -0.1039  0.5374  0.3560
 6386SOL    HW130791   2.044   1.483  15.453 -0.2871 -1.3706 -1.5664
 6386SOL    HW230792   1.961   1.489  15.332 -2.2197 -0.4718  2.9438
 6387SOL     OW30793   0.642   2.495   6.563 -0.1937  0.3067 -0.5015
 6387SOL    HW130794   0.652   2.409   6.603 -0.8797 -0.3779 -1.7832
 6387SOL    HW230795   0.699   2.485   6.487 -0.4762  2.3348 -0.9869
 6388SOL     OW30796   1.583   1.676  13.064  0.5423  0.3617 -0.3103
 6388SOL    HW130797   1.572   1.770  13.046  2.3295  0.7297  0.5104
 6388SOL    HW230798   1.503   1.647  13.109  0.1683  0.8243 -0.6624
 6389SOL     OW30799   1.025   1.132  16.815  0.1502 -0.0732  0.1074
 6389SOL    HW130800   1.088   1.073  16.856 -0.2923 -1.6881 -1.5664
 6389SOL    HW230801   0.999   1.188  16.888 -0.6592 -1.0326  0.5436
 6390SOL     OW30802   4.233   4.585   8.426  0.1625  0.3055 -0.4378
 6390SOL    HW130803   4.225   4.677   8.400 -0.0181  1.3613  3.4110
 6390SOL    HW230804   4.247   4.592   8.520 -1.8935  1.4907 -0.2181
 6391SOL     OW30805   4.029   2.803   5.312 -0.2567 -0.7781 -0.1297
 6391SOL    HW130806   4.053   2.729   5.256  1.5942  1.5628 -2.3707
 6391SOL    HW230807   4.000   2.755   5.390 -0.0001  0.3013  0.6228
 6392SOL     OW30808   2.064   1.331  15.550  0.3375 -0.6919 -0.4344
 6392SOL    HW130809   2.071   1.300  15.640  0.6956 -0.2935 -0.3261
 6392SOL    HW230810   2.064   1.249  15.500  0.1142 -0.9990  0.0621
 6393SOL     OW30811   1.726   0.555   3.901 -0.1163 -0.7621  0.2857
 6393SOL    HW130812   1.636   0.543   3.929  0.1163 -2.2342  0.3788
 6393SOL    HW230813   1.730   0.639   3.855 -0.2549  0.0693  1.7823
 6394SOL     OW30814   3.968   4.343   6.930  0.3132 -0.2642  0.1770
 6394SOL    HW130815   3.957   4.335   6.836  1.4061 -0.6483  0.0701
 6394SOL    HW230816   3.953   4.252   6.956  1.1162 -0.4017  0.1791
 6395SOL     OW30817   1.360   2.023   5.150  0.0119  0.6912  0.7243
 6395SOL    HW130818   1.424   2.093   5.135  0.5330 -0.1491 -0.8659
 6395SOL    HW230819   1.305   2.074   5.210 -0.3777 -0.8407  1.6516
 6396SOL     OW30820   0.867   2.303  10.862  0.0689  0.3142 -0.2466
 6396SOL    HW130821   0.854   2.398  10.871 -2.0451 -0.1591  1.6222
 6396SOL    HW230822   0.923   2.289  10.786  1.0382  2.0909  0.1328
 6397SOL     OW30823   1.370   1.116   8.475  0.3938  0.1175  0.5125
 6397SOL    HW130824   1.466   1.108   8.476  0.4202  0.4383  0.4811
 6397SOL    HW230825   1.345   1.024   8.481 -1.6100  0.7984  2.1718
 6398SOL     OW30826   0.193   0.028   5.128  0.3959  0.0358  0.0086
 6398SOL    HW130827   0.210   0.091   5.058 -1.9780  2.9427  2.0514
 6398SOL    HW230828   0.115   4.732   5.090  0.8408  0.0460 -0.9188
 6399SOL     OW30829   4.682   0.523   6.643  0.2782  0.3763 -0.3418
 6399SOL    HW130830   4.734   0.537   6.722 -0.0273  2.1268 -0.4456
 6399SOL    HW230831   4.687   0.603   6.589 -0.3782 -0.9733 -2.3957
 6400SOL     OW30832   0.006   0.830  10.087 -0.6404 -0.2255  0.2219
 6400SOL    HW130833   0.052   0.882  10.152  0.2066  0.1287 -0.6498
 6400SOL    HW230834   4.663   0.870  10.088 -0.0426  1.0578  0.2738
 6401SOL     OW30835   4.587   3.154   5.981  0.0629 -0.2257  0.5819
 6401SOL    HW130836   4.634   3.152   5.898 -0.2224 -2.7598  0.4704
 6401SOL    HW230837   4.524   3.084   5.968 -0.5948  0.6888 -1.0992
 6402SOL     OW30838   1.552   0.080   5.000 -0.0779 -0.1918  0.4645
 6402SOL    HW130839   1.573   4.734   5.025 -2.4173 -0.7659  0.3902
 6402SOL    HW230840   1.620   0.130   5.045 -0.5363  0.2007  0.7196
 6403SOL     OW30841   1.518   3.060   4.848 -0.0127  0.0950 -0.6027
 6403SOL    HW130842   1.426   3.090   4.848 -0.4156 -1.1456 -1.6650
 6403SOL    HW230843   1.536   3.054   4.941 -2.0376 -0.0445 -0.2077
 6404SOL     OW30844   1.696   4.125  12.644  0.0198  0.4623  0.2915
 6404SOL    HW130845   1.688   4.037  12.682 -2.5960  0.0077 -1.2756
 6404SOL    HW230846   1.687   4.106  12.551 -2.7338 -0.8180  0.8041
 6405SOL     OW30847   3.284   4.541   3.990  0.5708 -0.2949 -0.1475
 6405SOL    HW130848   3.228   4.492   4.050  0.8042 -0.1108  0.2228
 6405SOL    HW230849   3.365   4.491   3.995 -0.8120 -2.3038  1.9255
 6406SOL     OW30850   3.652   3.742  13.139 -0.0364 -0.5189  0.0053
 6406SOL    HW130851   3.631   3.730  13.047 -0.6980 -0.0929  0.1004
 6406SOL    HW230852   3.638   3.836  13.152  2.5717 -0.1747  0.2176
 6407SOL     OW30853   4.303   1.730   3.973 -0.2242 -0.1749 -0.1352
 6407SOL    HW130854   4.241   1.669   3.934  1.1386 -2.9645  2.0613
 6407SOL    HW230855   4.308   1.792   3.900  0.0726  0.0347  0.0602
 6408SOL     OW30856   1.341   4.643   5.201  0.5582 -0.4720  0.5716
 6408SOL    HW130857   1.314   4.714   5.143 -0.6830  0.5801  2.4357
 6408SOL    HW230858   1.366   4.702   5.273  1.4303  0.1751 -0.2494
 6409SOL     OW30859   1.838   2.101   0.474 -0.3175 -0.0033  0.1089
 6409SOL    HW130860   1.780   2.038   0.518  0.3368 -2.2123 -2.2278
 6409SOL    HW230861   1.793   2.186   0.474 -2.2234 -1.0024  0.0620
 6410SOL     OW30862   3.143   3.368   2.984 -0.1427  0.0432  0.1024
 6410SOL    HW130863   3.211   3.358   3.051 -0.3111 -0.8402  0.1448
 6410SOL    HW230864   3.191   3.347   2.903 -2.0953  1.0330 -1.3116
 6411SOL     OW30865   4.464   0.564   3.170 -0.4449 -0.2569  0.0432
 6411SOL    HW130866   4.392   0.618   3.202 -0.6148 -0.1089 -0.5917
 6411SOL    HW230867   4.421   0.491   3.126 -0.1181 -1.1086  1.1206
 6412SOL     OW30868   4.271   1.530   4.313 -0.0045  0.1655 -0.1168
 6412SOL    HW130869   4.303   1.466   4.248  0.4433  0.1132  0.1517
 6412SOL    HW230870   4.354   1.525   4.361  0.7294  1.6061 -1.2358
 6413SOL     OW30871   3.003   0.105   5.092  0.2964  0.2131 -0.4994
 6413SOL    HW130872   2.971   0.152   5.015  0.7142  0.3139 -0.6128
 6413SOL    HW230873   3.084   0.155   5.104  0.3199 -0.2743  1.3082
 6414SOL     OW30874   3.913   0.265   4.344 -0.0848 -0.1831 -0.0121
 6414SOL    HW130875   3.848   0.311   4.397  0.0930  1.1940 -0.9845
 6414SOL    HW230876   3.973   0.335   4.317  0.6794 -1.6008 -1.9998
 6415SOL     OW30877   2.128   4.001   2.331 -0.0330 -0.6152  0.0962
 6415SOL    HW130878   2.036   4.025   2.344 -0.0022 -1.2526  1.5576
 6415SOL    HW230879   2.162   4.033   2.415 -1.4782  0.9609  0.0819
 6416SOL     OW30880   2.222   3.245   5.557 -0.4288 -0.3526  0.3065
 6416SOL    HW130881   2.248   3.268   5.646  1.5646  1.0328 -0.6313
 6416SOL    HW230882   2.254   3.314   5.498  2.7454 -2.3630 -0.3294
 6417SOL     OW30883   3.892   1.244   3.765  0.6196  0.5221  0.4333
 6417SOL    HW130884   3.894   1.312   3.831  1.5130  1.6202 -0.7131
 6417SOL    HW230885   3.801   1.219   3.775  0.8726 -1.1321 -1.3927
 6418SOL     OW30886   2.240   0.295   9.624  0.2681 -0.4564 -0.0891
 6418SOL    HW130887   2.249   0.201   9.643 -1.4337 -0.1994  1.9389
 6418SOL    HW230888   2.271   0.283   9.535 -1.1799 -0.2865 -0.6138
 6419SOL     OW30889   1.822   3.810   3.015 -0.5185 -0.3676 -0.1002
 6419SOL    HW130890   1.767   3.878   3.054 -0.3622 -0.2883 -0.0210
 6419SOL    HW230891   1.907   3.821   3.056 -0.4962 -0.0940 -0.2154
 6420SOL     OW30892   0.575   1.257   3.142 -1.3268 -0.6791  0.3088
 6420SOL    HW130893   0.642   1.324   3.156 -1.4657 -0.4904  0.0680
 6420SOL    HW230894   0.628   1.178   3.143 -1.2669 -0.6418  0.0281
 6421SOL     OW30895   2.324   1.135   9.945 -0.7241 -0.1898 -0.2482
 6421SOL    HW130896   2.264   1.140  10.020  0.7114  2.0668  0.7543
 6421SOL    HW230897   2.334   1.228   9.924  2.4168  0.2199  3.2113
 6422SOL     OW30898   3.035   2.912   1.672  0.1449  0.2962  0.2088
 6422SOL    HW130899   3.095   2.987   1.664  0.7024 -0.2178 -0.3903
 6422SOL    HW230900   3.087   2.854   1.727  1.3958  1.2992  0.0905
 6423SOL     OW30901   0.806   2.248   8.883  0.3790  0.1669 -0.5733
 6423SOL    HW130902   0.901   2.235   8.880  0.2775  0.4671 -4.8333
 6423SOL    HW230903   0.804   2.246   8.979  0.4711  1.6890 -0.5503
 6424SOL     OW30904   4.578   2.950   8.034 -0.2238  0.7665  0.2263
 6424SOL    HW130905   4.557   2.885   7.968  0.7021  0.7834 -0.0824
 6424SOL    HW230906   4.529   3.029   8.010  0.0396  0.6792 -0.6032
 6425SOL     OW30907   4.352   1.692   4.879 -0.0577  0.2937  0.0498
 6425SOL    HW130908   4.430   1.697   4.824  1.2002  0.7577  1.8705
 6425SOL    HW230909   4.384   1.656   4.962 -0.3935  1.1311  0.5380
 6426SOL     OW30910   0.676   4.139   3.358  0.0585  0.2749  0.9245
 6426SOL    HW130911   0.735   4.188   3.301  0.8090 -1.1078  0.4952
 6426SOL    HW230912   0.719   4.053   3.359  0.2566  0.3854  2.1564
 6427SOL     OW30913   1.393   2.444   0.841  0.3139 -0.3306  0.4835
 6427SOL    HW130914   1.434   2.362   0.868  0.0588 -1.2184 -1.8735
 6427SOL    HW230915   1.305   2.437   0.880  0.1836  2.9949  0.7921
 6428SOL     OW30916   1.318   1.149   9.219  0.3301 -0.6581  0.5869
 6428SOL    HW130917   1.395   1.136   9.274  1.6141 -0.6462 -1.2429
 6428SOL    HW230918   1.344   1.216   9.156  2.3822 -0.8849  1.1967
 6429SOL     OW30919   1.704   0.719   7.751  0.0097  0.1334  0.2957
 6429SOL    HW130920   1.632   0.702   7.811  0.7906  2.0837  1.7515
 6429SOL    HW230921   1.728   0.628   7.729 -0.3861 -0.1507  1.0271
 6430SOL     OW30922   4.465   1.582   7.147 -0.2728  0.3950  0.2200
 6430SOL    HW130923   4.460   1.605   7.055 -0.2001  1.7016  0.5320
 6430SOL    HW230924   4.508   1.662   7.180 -0.2371 -0.4089  2.1534
 6431SOL     OW30925   4.426   2.164   6.089 -0.3272 -0.1860 -0.0663
 6431SOL    HW130926   4.395   2.134   6.174  1.9185 -0.8418  0.5273
 6431SOL    HW230927   4.356   2.230   6.080 -1.4879 -1.6472 -1.9012
 6432SOL     OW30928   2.724   2.022  11.603  0.0156  0.1275 -0.0363
 6432SOL    HW130929   2.735   2.008  11.697  0.3734 -4.2411 -0.7200
 6432SOL    HW230930   2.694   2.112  11.604  0.4252  0.2909 -3.6316
 6433SOL     OW30931   3.158   0.859   9.382 -0.2257  0.2179  0.1167
 6433SOL    HW130932   3.218   0.932   9.376  2.8216 -2.2627  0.3669
 6433SOL    HW230933   3.091   0.884   9.318  0.3165  2.5537  0.4636
 6434SOL     OW30934   1.339   2.424   5.679 -0.4352 -0.0865  0.2888
 6434SOL    HW130935   1.297   2.427   5.764 -0.4499  0.4927  0.2639
 6434SOL    HW230936   1.411   2.472   5.720 -0.0159 -1.0642  0.6822
 6435SOL     OW30937   1.362   2.326  11.874  0.5612  0.5402  0.1026
 6435SOL    HW130938   1.428   2.387  11.842 -0.5880  0.9947 -1.4364
 6435SOL    HW230939   1.335   2.367  11.957 -2.9529 -0.2490 -0.6265
 6436SOL     OW30940   2.227   1.257   5.734  0.4338  0.3739 -0.2229
 6436SOL    HW130941   2.289   1.201   5.687  0.2464 -0.8201  0.9540
 6436SOL    HW230942   2.148   1.246   5.681 -0.6868 -0.8274  1.7221
 6437SOL     OW30943   0.225   2.938   3.294  0.5372  0.3754  0.2986
 6437SOL    HW130944   0.225   2.930   3.389 -0.8287  1.1756  0.3639
 6437SOL    HW230945   0.311   2.977   3.281 -0.1493  1.1821 -1.8797
 6438SOL     OW30946   0.953   0.893   4.413 -0.0319 -0.1921  0.3150
 6438SOL    HW130947   1.003   0.874   4.492  2.1018  1.3542 -0.6582
 6438SOL    HW230948   1.019   0.904   4.344 -1.6350 -0.9859 -1.3248
 6439SOL     OW30949   0.415   0.717   6.066 -0.2123  0.6159  0.1136
 6439SOL    HW130950   0.384   0.667   6.142 -0.8023 -1.0921 -1.2674
 6439SOL    HW230951   0.497   0.758   6.095  0.2480 -1.3582  1.5844
 6440SOL     OW30952   3.507   2.559  10.060 -0.1207 -0.8335  0.0409
 6440SOL    HW130953   3.559   2.561  10.141 -0.9849 -0.1892  0.5839
 6440SOL    HW230954   3.454   2.637  10.080  1.6590 -0.2002  2.3349
 6441SOL     OW30955   4.154   3.880   0.421 -0.2829  0.2911  0.2440
 6441SOL    HW130956   4.147   3.787   0.399 -0.6779  1.1015 -3.1433
 6441SOL    HW230957   4.238   3.892   0.376 -1.2258  0.3026 -1.5513
 6442SOL     OW30958   4.548   4.561   8.024 -0.0331 -0.0902  0.5312
 6442SOL    HW130959   4.496   4.623   8.076  1.0607  0.9193  0.4354
 6442SOL    HW230960   4.603   4.520   8.090 -0.7556  0.2339  1.3322
 6443SOL     OW30961   1.832   1.785   7.354 -0.1341  0.2835 -0.0608
 6443SOL    HW130962   1.748   1.810   7.315  0.2399  1.2457 -0.2667
 6443SOL    HW230963   1.826   1.860   7.414  0.2689  0.4337 -0.2068
 6444SOL     OW30964   3.895   1.729   9.553 -0.0307 -0.3937  0.1626
 6444SOL    HW130965   3.844   1.770   9.623  0.7233 -3.5520  2.5516
 6444SOL    HW230966   3.844   1.753   9.476  0.4696  0.4016  0.0790
 6445SOL     OW30967   1.754   1.402   1.561 -0.0097  0.2868 -0.0249
 6445SOL    HW130968   1.842   1.413   1.596  0.2954 -0.7723 -0.4447
 6445SOL    HW230969   1.784   1.371   1.476 -0.2617  1.4609 -0.5267
 6446SOL     OW30970   2.929   3.670   2.377 -0.1457 -0.1867  0.4081
 6446SOL    HW130971   2.878   3.709   2.447  0.8730  1.9864 -0.0773
 6446SOL    HW230972   3.003   3.639   2.429  0.3536  1.4765  0.6643
 6447SOL     OW30973   3.591   0.705   8.922  0.0356  0.1765 -0.5027
 6447SOL    HW130974   3.560   0.616   8.906 -0.9042  0.1778  1.2379
 6447SOL    HW230975   3.612   0.736   8.834  0.7942  0.3060 -0.2727
 6448SOL     OW30976   3.652   4.497   6.898 -0.3283 -0.2623 -0.3039
 6448SOL    HW130977   3.563   4.519   6.926  0.0071  0.1776  0.4244
 6448SOL    HW230978   3.657   4.532   6.809  0.4371  1.2683  0.3488
 6449SOL     OW30979   0.884   1.917   7.274 -0.1849  0.4157  0.3273
 6449SOL    HW130980   0.925   1.971   7.342 -1.4513 -0.8955  2.1264
 6449SOL    HW230981   0.796   1.951   7.261 -0.3149 -0.6959 -1.7217
 6450SOL     OW30982   3.140   4.410  10.029 -0.0455 -0.3797 -0.2962
 6450SOL    HW130983   3.177   4.327   9.999 -0.7874 -0.6546 -0.4460
 6450SOL    HW230984   3.201   4.432  10.099 -0.1654  2.1536 -0.9870
 6451SOL     OW30985   2.767   1.245   6.527  0.5727 -0.1820  0.3213
 6451SOL    HW130986   2.828   1.230   6.455 -2.0843  0.5262 -2.0925
 6451SOL    HW230987   2.692   1.278   6.476  0.7332  0.1121  0.2788
 6452SOL     OW30988   4.551   3.989  11.455 -0.0429  0.0952 -0.7257
 6452SOL    HW130989   4.577   3.897  11.453  1.1373  0.4574 -1.7563
 6452SOL    HW230990   4.590   4.009  11.540  0.9907 -1.4713 -0.8320
 6453SOL     OW30991   1.462   1.599  16.855  0.0443 -0.2264  0.0891
 6453SOL    HW130992   1.473   1.504  16.858  3.9528  0.2110 -0.4437
 6453SOL    HW230993   1.479   1.616  16.947  1.8943 -1.8793  0.0700
 6454SOL     OW30994   0.267   1.260   3.494 -0.0013 -0.0217 -0.0544
 6454SOL    HW130995   0.231   1.271   3.582 -0.4238  0.1948 -0.2561
 6454SOL    HW230996   0.334   1.328   3.496 -1.3838  1.3490 -1.3458
 6455SOL     OW30997   3.239   0.345   9.427 -0.5194 -0.3293 -0.4899
 6455SOL    HW130998   3.275   0.424   9.389 -1.0178  1.7301  3.3068
 6455SOL    HW230999   3.147   0.362   9.407 -0.6657  0.2292  0.6586
 6456SOL     OW31000   2.927   3.904  12.994  0.5189 -0.3610 -0.2053
 6456SOL    HW131001   2.873   3.981  13.011  0.2517 -1.1784  2.5790
 6456SOL    HW231002   2.921   3.872  13.084 -1.0269 -0.5053 -0.3649
 6457SOL     OW31003   2.324   3.097  13.048 -0.1605 -0.4446  0.2263
 6457SOL    HW131004   2.401   3.057  13.088  0.1597  0.8363  0.8657
 6457SOL    HW231005   2.263   3.113  13.120  1.6550  0.9620  1.4218
 6458SOL     OW31006   0.766   0.005   2.783 -0.3080  0.0287  0.0812
 6458SOL    HW131007   0.782   0.097   2.765  0.5137 -0.2018 -0.3678
 6458SOL    HW231008   0.692   4.743   2.844 -0.2814  0.5714  0.1633
 6459SOL     OW31009   2.773   1.558   6.773  0.0507  0.5920 -0.1791
 6459SOL    HW131010   2.824   1.543   6.693  0.0186 -2.7339  0.4214
 6459SOL    HW231011   2.821   1.627   6.819 -2.4316  1.4331  1.1192
 6460SOL     OW31012   3.939   2.585  13.880  0.3602 -0.7537  0.5222
 6460SOL    HW131013   3.863   2.549  13.836  0.8801 -0.7207 -0.3996
 6460SOL    HW231014   3.906   2.671  13.908  1.2540  0.2307 -1.4381
 6461SOL     OW31015   3.042   1.386   3.988 -0.1440 -0.2264 -0.0578
 6461SOL    HW131016   2.960   1.385   3.937  0.1811 -1.6727 -0.5493
 6461SOL    HW231017   3.082   1.467   3.956  1.1870 -1.7583 -2.2478
 6462SOL     OW31018   0.777   0.681   7.872 -0.1981 -0.1742 -0.1057
 6462SOL    HW131019   0.841   0.617   7.840  0.2407  0.3795 -0.3352
 6462SOL    HW231020   0.804   0.692   7.963  1.4614 -2.3319 -0.3182
 6463SOL     OW31021   0.334   2.787   9.329 -0.2200 -0.1177  0.1064
 6463SOL    HW131022   0.344   2.747   9.415 -2.7971  2.3855  1.5648
 6463SOL    HW231023   0.348   2.876   9.362 -1.2515  1.1059 -2.7071
 6464SOL     OW31024   2.004   3.705   1.983  0.7880 -0.0459 -0.0879
 6464SOL    HW131025   1.993   3.635   1.919 -2.2029 -0.2972  0.7089
 6464SOL    HW231026   1.927   3.761   1.972 -1.0956 -2.5213  0.6439
 6465SOL     OW31027   4.097   1.713   2.403 -0.0365 -0.4301  0.0462
 6465SOL    HW131028   4.030   1.698   2.470 -2.3740  0.4061 -2.1007
 6465SOL    HW231029   4.068   1.652   2.335  0.2679 -0.7215  0.1763
 6466SOL     OW31030   2.760   1.117   7.548 -0.4379  0.4289  0.3372
 6466SOL    HW131031   2.805   1.134   7.465  0.4559 -2.6975  0.1782
 6466SOL    HW231032   2.726   1.029   7.535 -0.6177  0.4155  0.9086
 6467SOL     OW31033   1.050   4.638  10.272 -0.3880  0.2471 -0.0249
 6467SOL    HW131034   1.058   4.584  10.350  0.7839 -1.9839 -1.6688
 6467SOL    HW231035   1.098   4.719  10.291  1.1800 -0.8326  0.6027
 6468SOL     OW31036   0.439   2.442   8.192  0.5509 -0.2143  0.0268
 6468SOL    HW131037   0.522   2.396   8.196  1.0646  0.7110  0.0390
 6468SOL    HW231038   0.455   2.536   8.191 -0.3839 -0.0500 -0.3124
 6469SOL     OW31039   2.590   2.037   1.320 -0.3081  0.0802 -0.4106
 6469SOL    HW131040   2.650   2.096   1.273  1.2018 -0.3263  1.0188
 6469SOL    HW231041   2.589   2.070   1.410 -0.9340 -1.0699 -0.0043
 6470SOL     OW31042   2.235   2.740   3.010 -0.3880 -0.2192  0.0539
 6470SOL    HW131043   2.291   2.667   2.985  1.6144  1.5058 -0.4849
 6470SOL    HW231044   2.153   2.730   2.962 -1.3887 -0.4083  1.8077
 6471SOL     OW31045   4.437   0.019   8.164 -0.5139  0.2197  0.1288
 6471SOL    HW131046   4.446   0.114   8.157  0.4587  0.0806 -0.6068
 6471SOL    HW231047   4.466   0.014   8.256  1.6467 -0.7341 -0.5946
 6472SOL     OW31048   3.600   0.783   2.885  0.2238  0.0318 -0.1305
 6472SOL    HW131049   3.510   0.805   2.910 -0.8220 -3.3213 -0.9816
 6472SOL    HW231050   3.641   0.810   2.968  0.1083  0.2154 -0.1333
 6473SOL     OW31051   4.295   4.385   2.472  0.0188  0.5109 -0.1737
 6473SOL    HW131052   4.291   4.460   2.412 -0.5416  0.1544 -0.5811
 6473SOL    HW231053   4.234   4.410   2.541  1.3881 -0.0062  1.2118
 6474SOL     OW31054   3.888   0.216   7.156  0.1533  0.5885  0.3127
 6474SOL    HW131055   3.956   0.276   7.185 -1.3346  2.2023  0.5011
 6474SOL    HW231056   3.803   0.260   7.169  0.9313  2.0443  0.4130
 6475SOL     OW31057   4.161   2.587  11.575 -0.0066  0.4430 -0.2665
 6475SOL    HW131058   4.249   2.622  11.577 -0.4010  1.4415 -0.3979
 6475SOL    HW231059   4.118   2.666  11.609 -0.8424 -0.5061  0.9118
 6476SOL     OW31060   1.909   1.331  15.226 -0.0831 -0.1083  0.3251
 6476SOL    HW131061   1.833   1.273  15.231  1.4674 -2.4719 -3.9045
 6476SOL    HW231062   1.886   1.390  15.155 -0.7930  0.2272  0.8238
 6477SOL     OW31063   3.649   2.568   4.146 -0.3531  0.0151 -0.1220
 6477SOL    HW131064   3.673   2.597   4.058 -0.4127 -1.9425 -0.7995
 6477SOL    HW231065   3.713   2.498   4.158 -1.2647 -0.8450 -0.2713
 6478SOL     OW31066   4.580   2.060   8.673 -0.6194 -0.6844 -0.0575
 6478SOL    HW131067   4.663   2.088   8.636 -1.2007  1.2126  0.1117
 6478SOL    HW231068   4.517   2.094   8.609 -0.0949 -1.0203 -0.7419
 6479SOL     OW31069   1.110   3.291   8.320 -0.0244 -0.5421 -0.1686
 6479SOL    HW131070   1.083   3.324   8.406 -0.9883  1.6277 -1.2962
 6479SOL    HW231071   1.062   3.208   8.320  0.6608 -0.9340  2.6709
 6480SOL     OW31072   1.900   2.690  12.639  0.0080 -0.8728 -0.4146
 6480SOL    HW131073   1.927   2.745  12.713  1.1180 -0.6659 -0.9757
 6480SOL    HW231074   1.928   2.736  12.560  0.1393  0.3853  0.3704
 6481SOL     OW31075   3.660   2.311   4.926  0.2167  0.2891 -0.2508
 6481SOL    HW131076   3.613   2.253   4.867 -0.9041  0.3946  0.5416
 6481SOL    HW231077   3.752   2.289   4.911 -0.0423 -0.8252 -0.1527
 6482SOL     OW31078   2.705   4.143  13.337  0.1307  0.3247  0.6437
 6482SOL    HW131079   2.741   4.164  13.423  0.2790 -3.4238  1.4985
 6482SOL    HW231080   2.658   4.223  13.313  1.9275  0.9606 -0.7335
 6483SOL     OW31081   2.891   1.731   8.986  0.0469  0.1614 -0.1855
 6483SOL    HW131082   2.840   1.684   9.052  0.0080 -1.3368 -1.2935
 6483SOL    HW231083   2.934   1.797   9.040  1.2426 -1.5067  0.9053
 6484SOL     OW31084   0.298   2.890   2.082  0.4637 -0.3951  0.4692
 6484SOL    HW131085   0.259   2.956   2.139 -0.2636 -0.3786 -0.0638
 6484SOL    HW231086   0.219   2.857   2.039  1.1793  3.5579 -3.8903
 6485SOL     OW31087   3.700   1.380  16.812 -0.2806  0.1246 -0.7374
 6485SOL    HW131088   3.668   1.439  16.744 -2.7575 -0.2647  0.0781
 6485SOL    HW231089   3.684   1.434  16.889 -1.9404 -0.4882 -0.6605
 6486SOL     OW31090   3.225   0.263  13.162  0.2958  0.0981  0.2471
 6486SOL    HW131091   3.212   0.233  13.252 -1.5382 -0.6759 -0.2877
 6486SOL    HW231092   3.213   0.188  13.104 -1.3156 -0.0332  0.7618
 6487SOL     OW31093   4.649   3.262   5.216  0.2761  0.7995 -0.5618
 6487SOL    HW131094   4.645   3.341   5.162  1.9074  2.6379  2.0166
 6487SOL    HW231095   4.598   3.295   5.290 -3.2216 -2.5424 -1.5119
 6488SOL     OW31096   2.854   2.180   0.579  0.0468 -0.0724 -0.6325
 6488SOL    HW131097   2.908   2.227   0.515  1.8619 -1.7142 -0.3111
 6488SOL    HW231098   2.850   2.091   0.544  1.0986 -0.6009  0.6000
 6489SOL     OW31099   1.905   1.737   9.912  0.2388  0.2793  0.1193
 6489SOL    HW131100   1.891   1.815   9.859 -0.1070 -0.4206 -0.8260
 6489SOL    HW231101   1.814   1.719   9.937  0.2418  0.7768  0.4688
 6490SOL     OW31102   4.217   0.530  13.626 -0.4855  0.1693 -0.4303
 6490SOL    HW131103   4.204   0.562  13.537 -0.8758 -1.2842 -0.9076
 6490SOL    HW231104   4.126   0.537  13.655 -1.3069 -1.3770 -2.6071
 6491SOL     OW31105   2.459   2.216  11.905  0.1410  0.1474 -0.6844
 6491SOL    HW131106   2.403   2.274  11.853 -3.1808  0.0923  2.7913
 6491SOL    HW231107   2.397   2.156  11.945 -0.1353 -0.7460 -2.4832
 6492SOL     OW31108   3.566   2.736   6.720  0.5612 -0.1859  0.1648
 6492SOL    HW131109   3.483   2.783   6.722 -0.4176 -1.8873  0.0048
 6492SOL    HW231110   3.624   2.808   6.698  0.0802  0.2814  0.4314
 6493SOL     OW31111   1.837   3.455   5.966  0.1616  0.2997  0.0103
 6493SOL    HW131112   1.885   3.411   6.036 -0.1753  1.3888  0.9182
 6493SOL    HW231113   1.898   3.524   5.939  0.9337 -0.4410 -0.1226
 6494SOL     OW31114   1.551   2.297   4.576  0.1987  0.3923  0.2272
 6494SOL    HW131115   1.485   2.231   4.598  0.4641 -0.4945 -1.5770
 6494SOL    HW231116   1.526   2.366   4.637 -0.2661  1.9531 -1.7367
 6495SOL     OW31117   4.424   3.098   4.019  0.2226  0.3214 -0.0107
 6495SOL    HW131118   4.381   3.021   4.056 -2.9418  0.7465 -2.8017
 6495SOL    HW231119   4.351   3.157   4.042  0.2827 -0.5864  2.5780
 6496SOL     OW31120   3.207   4.356   5.408 -0.5167 -0.6523  0.7249
 6496SOL    HW131121   3.244   4.385   5.491 -0.5050 -0.2851  0.5955
 6496SOL    HW231122   3.274   4.390   5.348 -0.0780 -2.1104  0.4005
 6497SOL     OW31123   2.010   2.029   2.296 -0.1391 -0.1041 -0.1216
 6497SOL    HW131124   1.958   2.052   2.373  0.3794  1.3078 -0.1937
 6497SOL    HW231125   2.049   1.945   2.321 -0.0323 -0.2069 -0.6192
 6498SOL     OW31126   2.188   3.234   8.991 -0.2825 -0.0505 -0.0793
 6498SOL    HW131127   2.268   3.201   9.032 -0.3966  1.3346  1.2475
 6498SOL    HW231128   2.135   3.154   8.989 -0.3302 -0.0276  0.2112
 6499SOL     OW31129   1.502   2.264   9.488 -0.4407 -0.1748 -0.4853
 6499SOL    HW131130   1.569   2.307   9.436  1.1002  0.0797  1.7090
 6499SOL    HW231131   1.422   2.314   9.470 -0.2490  0.4470  0.3603
 6500SOL     OW31132   1.255   1.254  15.439 -0.0915  0.0128 -0.2525
 6500SOL    HW131133   1.206   1.335  15.424 -1.7002 -0.8654  0.1836
 6500SOL    HW231134   1.282   1.260  15.530 -3.1442 -1.5416  0.7698
 6501SOL     OW31135   2.189   2.920   1.637  0.3290  0.2181  0.5161
 6501SOL    HW131136   2.232   3.001   1.667  2.0387 -1.3052  2.1969
 6501SOL    HW231137   2.133   2.961   1.571  1.5357  1.4897  0.2851
 6502SOL     OW31138   0.131   2.924   2.694  0.1539 -0.8827 -0.3583
 6502SOL    HW131139   0.090   3.010   2.679 -0.6163 -0.6655  2.9380
 6502SOL    HW231140   0.211   2.965   2.727  0.7436 -1.0913 -1.5462
 6503SOL     OW31141   3.408   4.221   7.168  0.5464  0.1652 -0.4841
 6503SOL    HW131142   3.363   4.267   7.239 -0.5265 -1.2583 -0.2549
 6503SOL    HW231143   3.380   4.133   7.191  1.7920  0.1128  0.8687
 6504SOL     OW31144   3.106   4.222   8.242 -0.0761  0.2935 -0.5668
 6504SOL    HW131145   3.131   4.279   8.169 -0.7291  1.4705  0.1370
 6504SOL    HW231146   3.193   4.195   8.274 -0.1057 -0.0235 -0.7506
 6505SOL     OW31147   4.333   2.277   7.440  0.6640 -0.3533  0.2838
 6505SOL    HW131148   4.384   2.292   7.520  0.2147  0.7290  0.3680
 6505SOL    HW231149   4.291   2.191   7.441 -1.1839  0.5625  0.8015
 6506SOL     OW31150   4.701   1.777   4.473  0.3531  0.2840  0.1159
 6506SOL    HW131151   4.637   1.828   4.422 -0.2755 -0.0364  0.5743
 6506SOL    HW231152   0.036   1.815   4.435 -1.3895  2.3741 -1.4412
 6507SOL     OW31153   2.510   2.339   5.834  0.0357 -0.1492  0.1739
 6507SOL    HW131154   2.523   2.399   5.907 -1.7706 -1.1080  1.2785
 6507SOL    HW231155   2.577   2.276   5.860  2.2703  1.0478 -2.7226
 6508SOL     OW31156   3.222   0.618  10.670  0.0120  0.3686  0.3886
 6508SOL    HW131157   3.275   0.539  10.661 -1.0025 -0.3957  1.2127
 6508SOL    HW231158   3.283   0.684  10.636  0.9535 -1.6987 -1.9890
 6509SOL     OW31159   2.143   3.113   2.058 -0.2848  0.0931  0.1216
 6509SOL    HW131160   2.094   3.171   2.001 -1.0288  0.2503  0.9296
 6509SOL    HW231161   2.076   3.045   2.055 -0.6559  0.5490 -1.9392
 6510SOL     OW31162   4.441   3.263   2.333  0.0114 -0.1894 -0.5052
 6510SOL    HW131163   4.466   3.180   2.372  1.0600 -0.1359 -1.0346
 6510SOL    HW231164   4.410   3.310   2.410 -2.2814 -1.1848 -0.8259
 6511SOL     OW31165   2.201   1.363   3.625  0.1405  0.3930  0.0574
 6511SOL    HW131166   2.283   1.372   3.577 -1.5185  0.2501 -2.7681
 6511SOL    HW231167   2.135   1.416   3.579 -0.6766  0.9226  1.8396
 6512SOL     OW31168   2.307   0.797   4.935  0.5251 -0.2165  0.2525
 6512SOL    HW131169   2.296   0.831   5.024  0.6209 -0.2067  0.2601
 6512SOL    HW231170   2.334   0.707   4.950  1.0308 -0.3169 -1.2246
 6513SOL     OW31171   0.425   1.371   6.074  0.1022 -0.3513 -0.2562
 6513SOL    HW131172   0.422   1.364   5.978 -0.3600 -1.3198 -0.1703
 6513SOL    HW231173   0.453   1.285   6.106  2.4826  0.9209  1.0617
 6514SOL     OW31174   4.141   1.682   1.685  0.0811  0.0386 -0.2216
 6514SOL    HW131175   4.142   1.737   1.606  0.1234 -1.4650 -1.2744
 6514SOL    HW231176   4.047   1.663   1.690  0.4221 -1.3097  1.0087
 6515SOL     OW31177   3.535   1.643   0.975  0.3493  0.0884  0.7116
 6515SOL    HW131178   3.534   1.737   0.957 -1.5299  0.0918  0.8301
 6515SOL    HW231179   3.460   1.609   0.927 -0.6932  1.6104  1.2582
 6516SOL     OW31180   1.746   4.279   7.642 -0.0399  0.1099 -0.0298
 6516SOL    HW131181   1.828   4.327   7.629  0.0321 -0.3338 -1.2041
 6516SOL    HW231182   1.689   4.331   7.585  0.2831 -0.2647 -0.6919
 6517SOL     OW31183   3.266   1.983   2.301  0.8106 -0.0186  0.1532
 6517SOL    HW131184   3.178   1.963   2.334  0.8304 -0.4272 -0.0506
 6517SOL    HW231185   3.309   1.920   2.359 -1.4258  0.9218  2.8529
 6518SOL     OW31186   1.257   3.787   5.620 -0.1316 -0.3536  0.0550
 6518SOL    HW131187   1.311   3.750   5.690  1.2310  2.1485  0.3370
 6518SOL    HW231188   1.199   3.827   5.684 -3.2045  1.0926 -3.6529
 6519SOL     OW31189   1.673   2.671   2.164 -0.1436 -0.0442 -0.1304
 6519SOL    HW131190   1.732   2.743   2.143  0.3268  0.3702  2.6011
 6519SOL    HW231191   1.726   2.634   2.235 -1.8940  1.1760  1.8093
 6520SOL     OW31192   4.078   0.440   3.294  0.1501  0.4558  0.5489
 6520SOL    HW131193   4.118   0.524   3.271  1.6440 -0.3971  0.0247
 6520SOL    HW231194   4.035   0.469   3.375 -0.9035 -2.3147  0.9735
 6521SOL     OW31195   1.833   1.915   3.176  0.5898  0.5025  0.4799
 6521SOL    HW131196   1.883   1.983   3.222 -0.2471 -0.4582  2.7814
 6521SOL    HW231197   1.744   1.946   3.188  0.9904  1.9708 -0.3055
 6522SOL     OW31198   0.192   1.221   5.637  0.0083  0.7824  0.8199
 6522SOL    HW131199   0.158   1.165   5.566 -0.8649  2.5134 -0.1225
 6522SOL    HW231200   0.124   1.220   5.704 -0.5059  0.5347  0.2934
 6523SOL     OW31201   3.442   2.911  14.736  0.3183  0.4854 -0.3074
 6523SOL    HW131202   3.432   3.006  14.741 -1.0381  0.3607 -0.6469
 6523SOL    HW231203   3.528   2.892  14.699 -0.0031  0.8898 -1.2486
 6524SOL     OW31204   4.218   4.619   9.776 -0.0597 -0.0169 -0.0896
 6524SOL    HW131205   4.194   4.711   9.760  1.5765  0.1070 -1.7713
 6524SOL    HW231206   4.240   4.617   9.869  2.3011  0.0743 -0.6409
 6525SOL     OW31207   0.135   2.090   1.496  0.6314 -0.8701 -0.2090
 6525SOL    HW131208   0.048   2.106   1.530  1.4314  1.9761  0.5347
 6525SOL    HW231209   0.196   2.117   1.565 -1.3918  0.7292  0.9327
 6526SOL     OW31210   0.885   0.986   7.589 -0.5340  0.0826  0.0064
 6526SOL    HW131211   0.833   0.907   7.576  0.8229 -0.4967 -1.7722
 6526SOL    HW231212   0.964   0.945   7.624 -1.1256 -2.0474 -1.1537
 6527SOL     OW31213   2.772   1.003   3.325  0.5001  0.1832  0.4238
 6527SOL    HW131214   2.852   1.014   3.273 -0.0900 -0.1916 -0.5653
 6527SOL    HW231215   2.818   0.994   3.409  0.4761 -1.0780  0.3075
 6528SOL     OW31216   1.956   2.186   8.833 -0.2824  0.4250  0.0226
 6528SOL    HW131217   2.052   2.186   8.830 -0.3018 -0.3800 -0.6312
 6528SOL    HW231218   1.931   2.143   8.752  1.7216 -0.7895  0.0586
 6529SOL     OW31219   3.853   3.762   6.682  0.5207 -0.1068 -0.5753
 6529SOL    HW131220   3.921   3.696   6.697  0.7025  0.3726  0.6620
 6529SOL    HW231221   3.858   3.769   6.586 -0.8315  1.5545 -0.5131
 6530SOL     OW31222   0.454   1.244  15.021  0.1718  0.1845  0.1440
 6530SOL    HW131223   0.470   1.231  14.927  1.1342  0.0197  0.3238
 6530SOL    HW231224   0.373   1.194  15.018 -0.1054  0.7353 -1.5031
 6531SOL     OW31225   2.252   4.593   6.873  0.3941 -0.1198  0.0579
 6531SOL    HW131226   2.165   4.613   6.837  1.1054  0.3437 -1.4147
 6531SOL    HW231227   2.270   4.503   6.847  0.0578 -0.1277 -0.1503
 6532SOL     OW31228   2.919   2.601   3.971 -0.1170 -0.1772  0.5282
 6532SOL    HW131229   2.889   2.582   4.060  0.1179 -0.6328  0.5093
 6532SOL    HW231230   3.005   2.561   3.985  0.8658  1.8497  0.1545
 6533SOL     OW31231   2.788   2.702   9.912 -0.3818 -0.5856  0.0349
 6533SOL    HW131232   2.773   2.620   9.865  2.9106  0.3699 -2.6854
 6533SOL    HW231233   2.774   2.765   9.841  2.0690 -2.1823 -1.8595
 6534SOL     OW31234   1.080   3.658   7.697  0.5387  0.4117 -0.0516
 6534SOL    HW131235   0.986   3.644   7.688  0.6155 -0.1295 -0.0117
 6534SOL    HW231236   1.091   3.741   7.651  1.1470 -0.5332 -1.5991
 6535SOL     OW31237   0.453   0.808   3.294  0.1576 -0.0272  0.1818
 6535SOL    HW131238   0.432   0.763   3.376 -1.0686  0.4194  0.1203
 6535SOL    HW231239   0.412   0.892   3.316 -2.9754 -1.6373  0.6172
 6536SOL     OW31240   1.603   1.922   3.730 -0.5179  0.1355  0.2607
 6536SOL    HW131241   1.679   1.864   3.716  1.5229  2.1810  2.7566
 6536SOL    HW231242   1.567   1.858   3.792 -0.7826  0.1302  0.0980
 6537SOL     OW31243   4.552   2.467   8.710 -0.5037  0.7935  0.6743
 6537SOL    HW131244   4.463   2.475   8.675  0.1514 -2.2683 -1.6871
 6537SOL    HW231245   4.597   2.442   8.629 -0.2118  2.5979  0.2643
 6538SOL     OW31246   0.447   3.705  10.942 -0.4056 -0.1710 -0.0515
 6538SOL    HW131247   0.403   3.637  10.994  0.2929 -0.4496  0.1820
 6538SOL    HW231248   0.515   3.747  10.995 -0.4073 -1.2089  0.7867
 6539SOL     OW31249   3.638   2.545  10.310  0.2277 -0.2047 -0.0625
 6539SOL    HW131250   3.711   2.483  10.307 -0.5729 -1.2075  1.0798
 6539SOL    HW231251   3.574   2.489  10.354 -1.0647  0.9629 -0.4598
 6540SOL     OW31252   1.147   0.717  10.076 -0.7142 -0.2046  0.0332
 6540SOL    HW131253   1.071   0.711  10.018 -1.0693 -2.3201  0.7439
 6540SOL    HW231254   1.105   0.781  10.133 -1.1649 -0.6003  0.1353
 6541SOL     OW31255   3.304   2.457   4.737  0.2560  0.2578 -0.5047
 6541SOL    HW131256   3.282   2.512   4.662 -0.5759 -0.6237 -0.9012
 6541SOL    HW231257   3.359   2.390   4.697  2.0197  1.6390 -0.3542
 6542SOL     OW31258   4.072   1.136  14.220 -0.3031  0.2663 -0.3325
 6542SOL    HW131259   4.039   1.222  14.247 -2.2154 -0.4753 -0.3772
 6542SOL    HW231260   4.059   1.142  14.125  0.8108 -2.4422 -0.6431
 6543SOL     OW31261   2.348   3.328  13.564 -0.0627  0.2050  0.2119
 6543SOL    HW131262   2.326   3.410  13.609 -1.3644  0.7851 -1.4831
 6543SOL    HW231263   2.425   3.296  13.612 -0.6937  0.3758  1.3469
 6544SOL     OW31264   0.094   3.050   8.248  0.2960  0.1047 -0.3114
 6544SOL    HW131265   0.122   3.111   8.180 -2.4163  0.7621 -0.8261
 6544SOL    HW231266   0.010   3.018   8.215  0.0814  0.5420 -0.1797
 6545SOL     OW31267   0.291   0.765   2.344  0.0129 -0.0236  0.4210
 6545SOL    HW131268   0.284   0.686   2.397 -0.6292 -0.3764 -0.1917
 6545SOL    HW231269   0.262   0.733   2.259  0.7382 -0.9160  0.5226
 6546SOL     OW31270   0.579   4.474   2.708  0.2333  0.0383 -0.5116
 6546SOL    HW131271   0.532   4.538   2.654  0.9799  0.2491 -0.9131
 6546SOL    HW231272   0.659   4.524   2.720 -0.3037  1.2170 -1.8586
 6547SOL     OW31273   0.047   0.463   5.715 -0.5187  0.7556 -0.1226
 6547SOL    HW131274   4.712   0.513   5.734 -1.4165 -1.2348  1.4277
 6547SOL    HW231275   0.107   0.527   5.754 -1.0098  0.6914  0.7470
 6548SOL     OW31276   3.909   3.082   6.928 -0.5304 -0.4590  0.0707
 6548SOL    HW131277   4.003   3.076   6.946 -0.2722  0.4627 -0.9207
 6548SOL    HW231278   3.884   3.149   6.992  0.1051 -1.6091  1.5327
 6549SOL     OW31279   2.427   2.073   8.684 -0.0740 -0.6544 -0.0404
 6549SOL    HW131280   2.425   2.153   8.735 -0.5232 -0.7343  0.0649
 6549SOL    HW231281   2.516   2.077   8.649 -0.3687 -1.6523 -0.9142
 6550SOL     OW31282   2.043   0.576   4.221  0.2410  0.3443  0.4691
 6550SOL    HW131283   2.098   0.536   4.154  1.8719  0.3039  1.8136
 6550SOL    HW231284   2.047   0.511   4.291 -1.8676 -0.4531 -0.1754
 6551SOL     OW31285   2.500   3.112   1.573 -0.4473 -0.3295 -0.3188
 6551SOL    HW131286   2.578   3.056   1.572 -0.9062 -0.9619 -0.7994
 6551SOL    HW231287   2.453   3.069   1.501  1.1169 -0.5796 -1.2114
 6552SOL     OW31288   0.822   4.460   5.417  0.1474 -0.3160 -0.1201
 6552SOL    HW131289   0.844   4.524   5.350  0.8607  0.9103  1.2816
 6552SOL    HW231290   0.824   4.512   5.497 -0.2483 -0.9513  0.3049
 6553SOL     OW31291   2.885   2.894   9.436  0.2589 -0.2413 -0.9139
 6553SOL    HW131292   2.911   2.956   9.368  1.3407 -0.9955 -1.1839
 6553SOL    HW231293   2.975   2.864   9.450  0.6793  1.0457 -0.7906
 6554SOL     OW31294   1.626   0.969   8.046  0.2488 -0.2913 -0.3608
 6554SOL    HW131295   1.664   0.891   8.086 -1.6598 -1.5860 -1.0637
 6554SOL    HW231296   1.705   1.009   8.010  0.7220 -1.0601 -0.1663
 6555SOL     OW31297   3.515   2.041  12.857 -0.3048  0.6859 -0.2954
 6555SOL    HW131298   3.581   2.046  12.927 -0.8362  1.4061  0.1536
 6555SOL    HW231299   3.449   1.986  12.898 -1.3734  1.4644 -0.9820
 6556SOL     OW31300   0.014   0.938   2.539  0.1720 -0.1745 -0.3604
 6556SOL    HW131301   4.716   0.896   2.463  1.5520 -0.7046 -0.8348
 6556SOL    HW231302   0.009   0.862   2.597 -2.2293  0.3165  0.0301
 6557SOL     OW31303   2.863   3.171   4.450 -0.1727 -0.4959 -0.0362
 6557SOL    HW131304   2.825   3.100   4.503  2.6440 -2.2058 -0.2913
 6557SOL    HW231305   2.931   3.194   4.513  0.9321  2.0874 -2.1943
 6558SOL     OW31306   4.584   3.429  15.744 -0.0877 -0.1036  0.1767
 6558SOL    HW131307   4.632   3.499  15.698 -1.3660  1.3625  1.0641
 6558SOL    HW231308   4.636   3.421  15.824 -1.6010  0.7849  1.2423
 6559SOL     OW31309   4.487   2.936   3.108 -0.2762  0.0153  0.0646
 6559SOL    HW131310   4.552   3.003   3.125  0.1516 -0.4401  0.2291
 6559SOL    HW231311   4.536   2.888   3.041 -1.3969 -0.9134 -0.0994
 6560SOL     OW31312   3.968   2.346   6.939  0.0003  0.0003  0.4814
 6560SOL    HW131313   4.048   2.395   6.958  0.1323  0.0516 -0.2023
 6560SOL    HW231314   3.939   2.412   6.876 -0.8509 -1.2902 -0.4832
 6561SOL     OW31315   0.957   3.754   7.955 -0.0805  0.1429 -0.4837
 6561SOL    HW131316   1.007   3.829   7.924 -0.8613  0.8675  0.0135
 6561SOL    HW231317   0.973   3.700   7.877  2.0874 -2.3447  1.7281
 6562SOL     OW31318   0.281   2.945   6.674  0.2593  0.3442  0.6291
 6562SOL    HW131319   0.369   2.914   6.694  0.6295  0.8726 -0.1485
 6562SOL    HW231320   0.284   2.945   6.578  4.5883  1.0542  0.7674
 6563SOL     OW31321   2.823   1.989   6.418  0.0854 -0.0535 -0.7516
 6563SOL    HW131322   2.872   2.059   6.462 -0.7167 -0.9321  1.5291
 6563SOL    HW231323   2.761   1.974   6.488  2.1359 -2.5387  0.5279
 6564SOL     OW31324   3.688   3.089   4.749  0.3237  0.5862  0.0317
 6564SOL    HW131325   3.609   3.084   4.694 -1.5917  1.7662  2.6627
 6564SOL    HW231326   3.728   3.169   4.716  1.8796 -0.5649 -0.8657
 6565SOL     OW31327   4.212   3.052   5.812 -0.4356 -0.2905  0.0019
 6565SOL    HW131328   4.168   2.988   5.756  0.4205 -1.5999  0.8367
 6565SOL    HW231329   4.155   3.055   5.888  0.5344 -1.3271  0.7596
 6566SOL     OW31330   4.734   2.413  11.124 -0.6952  0.1824  0.4821
 6566SOL    HW131331   4.655   2.359  11.134  0.4045 -1.7225 -1.1909
 6566SOL    HW231332   4.700   2.487  11.074 -1.1221 -0.0814  0.3828
 6567SOL     OW31333   2.779   3.358   0.935 -0.5099  0.0123  0.1278
 6567SOL    HW131334   2.691   3.394   0.948 -0.5664 -0.2457  0.4851
 6567SOL    HW231335   2.825   3.379   1.016 -0.8037  0.0359  0.2889
 6568SOL     OW31336   0.312   1.096   4.869 -0.1295  0.3576  0.1865
 6568SOL    HW131337   0.393   1.145   4.887  0.5279  0.4807 -3.0740
 6568SOL    HW231338   0.269   1.166   4.820  0.0665  1.4257  1.5326
 6569SOL     OW31339   1.922   3.501  17.552  0.5306  0.1755 -0.1038
 6569SOL    HW131340   1.984   3.455  17.609  0.6078 -0.7040 -0.8970
 6569SOL    HW231341   1.886   3.431  17.496 -0.7893 -1.0537  2.3063
 6570SOL     OW31342   4.541   0.840   0.482  0.1803 -0.3358 -0.2421
 6570SOL    HW131343   4.572   0.772   0.541 -2.3791  0.1906  1.7012
 6570SOL    HW231344   4.625   0.877   0.457  0.2216  0.0416  0.4603
 6571SOL     OW31345   2.362   0.163   5.859  0.6936  0.6796  0.3115
 6571SOL    HW131346   2.447   0.205   5.858  0.3159  1.4245 -0.0563
 6571SOL    HW231347   2.326   0.201   5.779  0.8194 -0.5741 -0.3545
 6572SOL     OW31348   4.616   3.242   4.749 -0.2011  0.0535 -0.2745
 6572SOL    HW131349   4.548   3.180   4.726 -1.9772  1.8240  0.1925
 6572SOL    HW231350   4.660   3.263   4.666 -1.2457 -0.0808 -0.8488
 6573SOL     OW31351   1.293   2.505  14.847  0.5145 -0.2320 -0.0665
 6573SOL    HW131352   1.281   2.548  14.932 -0.6966 -3.5226  1.4105
 6573SOL    HW231353   1.354   2.435  14.871 -1.7975 -1.4789  2.1676
 6574SOL     OW31354   0.446   2.247   3.637 -0.6911  0.1655 -0.3324
 6574SOL    HW131355   0.472   2.233   3.728 -0.3075 -0.6815 -0.5661
 6574SOL    HW231356   0.355   2.268   3.657 -0.3972  2.8123 -1.8579
 6575SOL     OW31357   2.830   3.499   4.636 -0.0752 -0.2576  0.1679
 6575SOL    HW131358   2.816   3.590   4.610  1.8658  0.7342  2.5278
 6575SOL    HW231359   2.755   3.463   4.590  1.0182 -2.7747  0.3592
 6576SOL     OW31360   4.200   1.004   7.382  0.4587  0.3824 -0.1779
 6576SOL    HW131361   4.186   0.911   7.404  3.2761  0.0826  0.2618
 6576SOL    HW231362   4.281   0.996   7.333  0.8063 -0.8342  0.5886
 6577SOL     OW31363   3.324   2.740  15.788 -0.1251  0.4531  0.2702
 6577SOL    HW131364   3.236   2.746  15.753  0.4802  1.3284 -1.0841
 6577SOL    HW231365   3.312   2.738  15.883  1.1207 -2.1040  0.3859
 6578SOL     OW31366   2.110   0.951  15.707 -0.6226 -0.6215  0.1651
 6578SOL    HW131367   2.154   0.927  15.788  1.3232  0.7048 -0.5255
 6578SOL    HW231368   2.183   0.989  15.659 -0.8382  0.7440  0.9276
 6579SOL     OW31369   0.581   2.278  15.164 -0.2988 -0.3007  0.3297
 6579SOL    HW131370   0.636   2.254  15.089  1.5932 -0.7344  1.8686
 6579SOL    HW231371   0.631   2.235  15.233  0.2292 -0.1780  0.0240
 6580SOL     OW31372   1.590   1.920  15.779 -0.4306  0.3997 -0.1742
 6580SOL    HW131373   1.603   1.998  15.725 -0.8996  1.2445  0.9388
 6580SOL    HW231374   1.544   1.958  15.854  0.6459 -0.7135  1.0423
 6581SOL     OW31375   0.296   1.344   0.925  0.1822  0.2654  0.6961
 6581SOL    HW131376   0.289   1.420   0.867 -1.8215  0.2529  0.9090
 6581SOL    HW231377   0.366   1.370   0.985 -0.7206  0.7127  1.5543
 6582SOL     OW31378   2.944   2.174  17.539  0.2179 -0.1787  0.3374
 6582SOL    HW131379   3.009   2.114  17.501  0.0017  0.5738 -1.2566
 6582SOL    HW231380   2.951   2.244  17.474  3.7116  0.6382  1.5597
 6583SOL     OW31381   2.603   1.431   5.778 -0.1723  0.0478 -0.2491
 6583SOL    HW131382   2.519   1.473   5.797  0.0960 -0.5603  2.2905
 6583SOL    HW231383   2.633   1.470   5.696  0.8049  0.5409  0.3473
 6584SOL     OW31384   3.421   4.580   9.517 -0.7360 -0.0523 -0.0220
 6584SOL    HW131385   3.399   4.487   9.507 -0.2157 -0.1922  0.1145
 6584SOL    HW231386   3.416   4.595   9.611  0.2222  3.0421 -0.4883
 6585SOL     OW31387   1.871   1.674  11.667 -0.0104 -0.3615  0.4224
 6585SOL    HW131388   1.966   1.685  11.676 -0.0033 -0.7655  0.8432
 6585SOL    HW231389   1.849   1.729  11.592 -0.8782 -1.6637 -0.2723
 6586SOL     OW31390   4.167   4.247   7.801 -0.6685 -0.3519 -0.1983
 6586SOL    HW131391   4.179   4.214   7.890 -1.6895 -0.2509 -0.0223
 6586SOL    HW231392   4.159   4.163   7.755  3.3902 -1.6960  1.5494
 6587SOL     OW31393   2.904   0.327  10.472 -0.1085 -0.1010  0.3186
 6587SOL    HW131394   2.853   0.310  10.393 -0.0182  1.7509 -0.1433
 6587SOL    HW231395   2.948   0.411  10.459 -0.4094 -0.1514 -1.0054
 6588SOL     OW31396   2.431   4.283   8.126  0.1824  0.4124  0.1619
 6588SOL    HW131397   2.390   4.340   8.190 -1.9241 -1.0435  0.1240
 6588SOL    HW231398   2.417   4.197   8.166 -0.9581  0.6337  0.2383
 6589SOL     OW31399   0.191   0.991   5.241 -0.3347 -0.2436  0.2227
 6589SOL    HW131400   0.177   1.085   5.252 -0.8729 -0.3092  0.1152
 6589SOL    HW231401   0.249   0.970   5.314 -1.8002  0.3261  1.5610
 6590SOL     OW31402   1.160   0.913   7.614 -0.2025 -0.5525 -0.9002
 6590SOL    HW131403   1.189   0.977   7.679  1.3127 -1.3955 -0.7434
 6590SOL    HW231404   1.202   0.836   7.655 -1.6605 -0.2624  1.1504
 6591SOL     OW31405   1.771   1.221   2.876  0.1621  0.1015  0.4109
 6591SOL    HW131406   1.734   1.149   2.827  0.7678 -0.1934  0.3908
 6591SOL    HW231407   1.758   1.304   2.830  1.7430  0.2427  0.2169
 6592SOL     OW31408   3.510   3.556  15.260 -0.0647  0.0910  0.0133
 6592SOL    HW131409   3.418   3.570  15.282 -0.1526 -0.8681  0.2593
 6592SOL    HW231410   3.534   3.627  15.201 -1.3384  0.1372 -0.4568
 6593SOL     OW31411   0.280   3.462   2.957 -0.2652  0.4194 -0.2230
 6593SOL    HW131412   0.364   3.499   2.931 -0.2578  1.3585  1.1155
 6593SOL    HW231413   0.252   3.417   2.878 -2.3360  0.0802  0.6854
 6594SOL     OW31414   2.641   1.871  11.847  0.1866  0.6267 -0.3019
 6594SOL    HW131415   2.722   1.822  11.830  0.0707  0.4495 -0.3449
 6594SOL    HW231416   2.626   1.860  11.941 -0.2051 -0.2431 -0.4631
 6595SOL     OW31417   2.026   1.142  15.361  0.5993  0.6543  0.0375
 6595SOL    HW131418   1.979   1.075  15.312  0.9357  0.0647  0.5141
 6595SOL    HW231419   1.987   1.220  15.323  1.1538 -0.4164 -2.6721
 6596SOL     OW31420   2.794   0.593   7.467  0.0001  0.4187  0.0126
 6596SOL    HW131421   2.716   0.602   7.521  0.0602  1.3376 -0.0584
 6596SOL    HW231422   2.865   0.624   7.525  1.1466 -0.8481 -0.7079
 6597SOL     OW31423   1.314   4.368  14.231  0.4986 -0.5813  0.5429
 6597SOL    HW131424   1.402   4.400  14.252 -0.5320  2.6849 -0.2351
 6597SOL    HW231425   1.329   4.379  14.138  1.2382 -0.7881  0.6386
 6598SOL     OW31426   3.875   4.536   3.119 -0.3340  0.5703 -0.2362
 6598SOL    HW131427   3.793   4.584   3.105 -1.2127 -1.3340 -1.6691
 6598SOL    HW231428   3.898   4.511   3.030 -0.3426  1.9828 -0.6290
 6599SOL     OW31429   2.729   1.261  12.632  0.1914 -0.5390  0.1291
 6599SOL    HW131430   2.773   1.176  12.629 -0.5520 -0.9963  1.8664
 6599SOL    HW231431   2.802   1.322  12.641  1.0998 -1.6387  0.2711
 6600SOL     OW31432   1.832   4.453   2.195 -0.3192 -0.4757 -0.4731
 6600SOL    HW131433   1.750   4.471   2.239 -0.1389  4.8763 -2.2807
 6600SOL    HW231434   1.881   4.534   2.181  0.3922 -0.5612  1.5015
 6601SOL     OW31435   3.150   0.616   8.807 -0.3657 -0.5178 -0.2368
 6601SOL    HW131436   3.081   0.679   8.829 -0.0015 -0.3710  0.4950
 6601SOL    HW231437   3.137   0.548   8.873 -1.6781 -2.3010 -2.3273
 6602SOL     OW31438   2.291   3.115   2.521  0.3338  0.3415 -0.3842
 6602SOL    HW131439   2.238   3.195   2.515 -1.6420 -0.8269  1.2915
 6602SOL    HW231440   2.237   3.062   2.462  3.3009 -1.8423 -1.1206
 6603SOL     OW31441   3.515   2.279   7.314 -0.1186  0.2788  0.0310
 6603SOL    HW131442   3.471   2.356   7.278 -1.4937  0.6786  2.5663
 6603SOL    HW231443   3.607   2.289   7.292  0.3673 -0.6625  1.6254
 6604SOL     OW31444   2.223   3.356   1.489 -0.4964 -0.6828  0.4044
 6604SOL    HW131445   2.187   3.402   1.565 -1.8039 -1.0308  0.0027
 6604SOL    HW231446   2.317   3.361   1.503 -0.4224  1.4619 -0.8302
 6605SOL     OW31447   3.308   0.797  14.603 -0.3341 -0.0813 -0.2531
 6605SOL    HW131448   3.375   0.796  14.535 -1.0022  2.0709 -0.9255
 6605SOL    HW231449   3.329   0.718  14.653  0.8085  0.0181 -0.5722
 6606SOL     OW31450   3.465   2.892   3.358  0.1314  0.3628  0.4065
 6606SOL    HW131451   3.413   2.817   3.385  0.9170  0.2610  1.6229
 6606SOL    HW231452   3.389   2.942   3.326 -0.3326 -0.2043  0.6262
 6607SOL     OW31453   4.110   0.274  14.589 -0.2376 -0.5696 -0.2179
 6607SOL    HW131454   4.172   0.201  14.586 -0.3390 -0.6748  0.2147
 6607SOL    HW231455   4.134   0.326  14.513  1.0492 -0.9882 -0.1151
 6608SOL     OW31456   3.347   3.430  13.668 -0.1593 -0.2344 -0.5367
 6608SOL    HW131457   3.337   3.435  13.763  0.6672  1.4530 -0.5336
 6608SOL    HW231458   3.256   3.432  13.640 -0.5695  3.3399  1.0512
 6609SOL     OW31459   3.318   4.146   5.140 -0.1664 -0.4892 -0.5813
 6609SOL    HW131460   3.404   4.124   5.176 -0.9274  0.1826  1.6279
 6609SOL    HW231461   3.332   4.105   5.055  1.7560  0.4917 -0.7340
 6610SOL     OW31462   3.548   0.394   4.338  0.4905 -0.0404  0.2687
 6610SOL    HW131463   3.600   0.316   4.320  0.0884 -0.0895 -0.6911
 6610SOL    HW231464   3.458   0.367   4.322  0.6560 -0.0268 -0.7486
 6611SOL     OW31465   3.308   1.096   2.155  0.2520 -0.2561 -0.1992
 6611SOL    HW131466   3.382   1.130   2.104 -0.2402 -1.1417 -1.4884
 6611SOL    HW231467   3.322   1.137   2.241 -1.4831 -0.0664 -0.0221
 6612SOL     OW31468   3.783   3.882  11.029  0.6656  0.3860  0.4341
 6612SOL    HW131469   3.751   3.935  11.102 -0.6663 -1.2178  1.0134
 6612SOL    HW231470   3.863   3.848  11.070  1.5994  2.0466 -0.0132
 6613SOL     OW31471   4.431   4.443   2.803  0.3842  0.3293  0.3302
 6613SOL    HW131472   4.386   4.478   2.880 -1.1208  1.8319 -1.2323
 6613SOL    HW231473   4.475   4.517   2.761  0.4721 -0.9854 -1.9312
 6614SOL     OW31474   2.540   1.934   5.229  0.1740  0.8446  0.2997
 6614SOL    HW131475   2.460   1.930   5.176  0.6725  0.1639 -0.4084
 6614SOL    HW231476   2.560   2.026   5.243 -2.3339  1.1097  2.0789
 6615SOL     OW31477   4.423   3.931   1.336 -0.3834  0.0671  0.0313
 6615SOL    HW131478   4.478   3.879   1.278 -2.7706 -1.1758 -1.1276
 6615SOL    HW231479   4.464   4.017   1.340 -0.3757  0.0219  0.9397
 6616SOL     OW31480   0.599   2.606   8.642 -0.5064  0.0095  0.1602
 6616SOL    HW131481   0.545   2.566   8.710 -0.8911  1.1337  0.5259
 6616SOL    HW231482   0.684   2.587   8.681  0.9143  1.2008 -2.3695
 6617SOL     OW31483   1.948   0.948  12.970  0.4474 -0.4710  0.0955
 6617SOL    HW131484   1.989   1.022  13.015 -2.3313 -0.4108  2.5369
 6617SOL    HW231485   1.959   0.978  12.880  1.3666  1.9006  0.9965
 6618SOL     OW31486   2.520   0.583   7.305 -0.5040 -0.2787  0.2992
 6618SOL    HW131487   2.514   0.494   7.269 -2.4966  0.0403 -0.1833
 6618SOL    HW231488   2.605   0.624   7.290 -1.4560  0.7383 -2.1868
 6619SOL     OW31489   2.313   4.318   0.071 -0.4020  0.2484 -0.4133
 6619SOL    HW131490   2.274   4.230   0.071  0.3252 -0.0773 -1.5694
 6619SOL    HW231491   2.291   4.347   0.159 -1.8261 -0.5888 -0.4956
 6620SOL     OW31492   1.363   4.704   1.428 -0.4621  0.1518 -0.0038
 6620SOL    HW131493   1.394   4.726   1.339 -2.9582 -2.7163 -1.5559
 6620SOL    HW231494   1.269   4.716   1.412 -0.0263  2.3803 -1.0122
 6621SOL     OW31495   3.495   0.203   8.401  0.4570  0.0852  0.2040
 6621SOL    HW131496   3.445   0.188   8.481 -0.3464  1.4607 -0.0569
 6621SOL    HW231497   3.570   0.241   8.446  0.6519 -0.8508  0.6743
 6622SOL     OW31498   2.897   2.715   1.537 -0.4088 -0.3795  0.0355
 6622SOL    HW131499   2.926   2.643   1.594  1.7878 -0.1936 -0.8371
 6622SOL    HW231500   2.938   2.786   1.587  0.9754 -0.1132 -1.4810
 6623SOL     OW31501   2.180   3.043   9.486  0.0670  0.6740 -0.4453
 6623SOL    HW131502   2.231   2.963   9.497 -1.7338 -0.1886  1.5684
 6623SOL    HW231503   2.234   3.097   9.543  1.2424 -1.2970  0.3294
 6624SOL     OW31504   3.636   0.877   4.041 -0.7190 -0.7439 -0.0902
 6624SOL    HW131505   3.545   0.881   4.070 -1.0574 -1.4482 -1.0338
 6624SOL    HW231506   3.665   0.829   4.119  0.4199 -0.3945 -0.3089
 6625SOL     OW31507   0.063   1.772   8.162  0.3889  0.3925 -0.4004
 6625SOL    HW131508   4.740   1.724   8.113  1.0340 -1.8628  0.9246
 6625SOL    HW231509   0.087   1.838   8.097  0.7760 -0.8409 -1.5060
 6626SOL     OW31510   3.237   3.791   4.530 -0.1186  0.0794  0.3014
 6626SOL    HW131511   3.206   3.833   4.609 -0.2538  0.2378  0.1618
 6626SOL    HW231512   3.282   3.716   4.571 -1.5614  0.0619  1.8450
 6627SOL     OW31513   1.553   3.770   1.578  0.0150 -0.2418 -0.1607
 6627SOL    HW131514   1.508   3.715   1.513 -0.0211 -0.1058 -0.2506
 6627SOL    HW231515   1.532   3.716   1.654 -2.4515 -0.1011 -0.7213
 6628SOL     OW31516   3.246   2.088   4.201  0.0928 -0.5661 -0.2080
 6628SOL    HW131517   3.310   2.026   4.235  0.6955  1.4195  2.3120
 6628SOL    HW231518   3.303   2.137   4.142 -0.5210 -0.3437 -0.6161
 6629SOL     OW31519   4.408   1.407   9.464 -0.5271 -0.2998 -0.1749
 6629SOL    HW131520   4.370   1.474   9.408 -1.3187 -0.3496  0.3007
 6629SOL    HW231521   4.436   1.339   9.403 -1.0724 -0.5357 -0.1594
 6630SOL     OW31522   2.832   1.818   8.520  0.0732  0.3886 -0.1400
 6630SOL    HW131523   2.774   1.742   8.521 -1.5192  1.6047  0.0035
 6630SOL    HW231524   2.829   1.840   8.427  3.3968 -1.0075 -0.5505
 6631SOL     OW31525   4.572   2.125   8.125 -1.3960 -0.2196  0.3487
 6631SOL    HW131526   4.613   2.051   8.170  0.2463 -0.2246 -1.1586
 6631SOL    HW231527   4.523   2.083   8.054  0.2810  0.4895 -1.2173
 6632SOL     OW31528   3.022   1.677   9.787  0.4264  0.0136  0.0337
 6632SOL    HW131529   2.986   1.694   9.700 -1.4429 -0.1734  0.7806
 6632SOL    HW231530   2.963   1.721   9.849  1.8902 -1.2341  2.3271
 6633SOL     OW31531   4.255   0.460   3.956  0.1874 -0.0079 -0.1580
 6633SOL    HW131532   4.182   0.412   3.995  0.4728  0.5495  1.0418
 6633SOL    HW231533   4.271   0.525   4.024 -1.0399  0.2268 -0.0870
 6634SOL     OW31534   2.854   3.813   1.717  0.4041 -0.2944 -0.1449
 6634SOL    HW131535   2.838   3.742   1.779 -0.6109 -1.3038 -1.5511
 6634SOL    HW231536   2.833   3.893   1.766 -4.0318 -1.2894 -0.3824
 6635SOL     OW31537   1.151   2.489   4.160  0.0294  0.1443 -0.5101
 6635SOL    HW131538   1.126   2.397   4.150  2.3234 -0.2603 -2.2638
 6635SOL    HW231539   1.233   2.477   4.208 -0.1318  0.6652 -0.0913
 6636SOL     OW31540   4.103   1.798   3.291 -1.0618 -0.0899 -0.2126
 6636SOL    HW131541   4.157   1.727   3.326 -0.3093  0.3588 -0.4775
 6636SOL    HW231542   4.147   1.874   3.328  0.5137 -0.5234 -1.1848
 6637SOL     OW31543   0.318   1.849  14.049 -0.0266 -0.1522  0.2478
 6637SOL    HW131544   0.376   1.856  13.973  0.0472  0.3530  0.3498
 6637SOL    HW231545   0.382   1.872  14.117 -3.1942  4.4082  1.7422
 6638SOL     OW31546   1.742   1.951   0.255  0.0103  0.4877  0.5560
 6638SOL    HW131547   1.688   1.910   0.323 -0.7947 -2.4996 -1.8680
 6638SOL    HW231548   1.807   2.008   0.297 -0.6525 -0.2876  2.6450
 6639SOL     OW31549   3.196   0.011  15.766 -0.1805  0.4095 -0.3828
 6639SOL    HW131550   3.234   0.004  15.854  0.0187  2.5397 -0.2872
 6639SOL    HW231551   3.115   4.707  15.783  0.3656 -0.8261 -1.2234
 6640SOL     OW31552   2.549   2.008   7.199 -0.3389 -0.4686  0.4695
 6640SOL    HW131553   2.635   2.048   7.187 -1.1039  1.5849  1.9205
 6640SOL    HW231554   2.514   2.045   7.118  0.7413  0.6582  0.5236
 6641SOL     OW31555   1.896   0.458  17.245 -0.3366 -0.2590  0.2449
 6641SOL    HW131556   1.901   0.507  17.328 -0.9672 -0.1110  0.1948
 6641SOL    HW231557   1.939   0.376  17.268  1.8790  0.6493 -0.6997
 6642SOL     OW31558   2.119   0.968   3.022  0.0332  0.1366 -0.0866
 6642SOL    HW131559   2.038   0.995   3.066 -0.7964 -0.9649 -0.9405
 6642SOL    HW231560   2.174   1.040   3.053 -2.2098  1.2790  1.2310
 6643SOL     OW31561   1.418   2.645   6.456 -0.2519 -0.2735  0.2757
 6643SOL    HW131562   1.363   2.613   6.528  1.4120 -0.2490  1.5633
 6643SOL    HW231563   1.425   2.740   6.468 -0.3520 -0.0824 -1.1973
 6644SOL     OW31564   2.938   2.836   2.910 -0.6428 -0.5893  0.0672
 6644SOL    HW131565   2.943   2.747   2.875  0.3888 -1.5323  2.5945
 6644SOL    HW231566   2.853   2.831   2.953  0.5609 -0.6434  2.4400
 6645SOL     OW31567   1.928   4.503   7.650 -0.4769  0.8737  0.3535
 6645SOL    HW131568   1.977   4.561   7.591 -0.3472  0.7508  0.3421
 6645SOL    HW231569   1.951   4.532   7.738  1.7183  2.5640 -0.7786
 6646SOL     OW31570   0.066   2.939   0.448  0.1631 -0.2923 -0.2262
 6646SOL    HW131571   0.017   2.856   0.450 -1.8899  0.9082 -0.5083
 6646SOL    HW231572   0.030   2.965   0.533  2.7227 -0.6247  0.9621
 6647SOL     OW31573   4.163   1.298   5.224 -0.0289 -0.0237 -0.2040
 6647SOL    HW131574   4.202   1.360   5.286  0.7807 -1.0751  0.3294
 6647SOL    HW231575   4.212   1.321   5.145 -1.5345 -1.0067 -1.4259
 6648SOL     OW31576   3.115   0.282   4.666  0.0692  0.2573 -0.0039
 6648SOL    HW131577   3.138   0.204   4.615 -1.9076 -0.6319  0.4857
 6648SOL    HW231578   3.185   0.288   4.731 -1.0100 -0.2635  1.2002
 6649SOL     OW31579   1.833   0.884   8.364 -0.0889 -0.2434 -0.0627
 6649SOL    HW131580   1.838   0.814   8.429 -1.2838 -0.0071  0.2819
 6649SOL    HW231581   1.767   0.855   8.301 -0.2505  2.4862 -1.1421
 6650SOL     OW31582   0.627   3.991   6.577  1.0237  0.6159 -0.0142
 6650SOL    HW131583   0.712   3.984   6.533  1.2672 -0.5170  0.6578
 6650SOL    HW231584   0.609   4.085   6.568 -0.1468  0.2705 -1.3207
 6651SOL     OW31585   3.489   4.174   6.217  0.0826  0.0880  0.1223
 6651SOL    HW131586   3.538   4.161   6.135  0.7135 -1.9789  0.8142
 6651SOL    HW231587   3.478   4.269   6.223 -0.8944  0.0369 -0.8570
 6652SOL     OW31588   4.712   3.291  14.314  0.1094 -0.0613 -0.1692
 6652SOL    HW131589   4.729   3.382  14.292  2.1346  0.2907  2.9227
 6652SOL    HW231590   4.710   3.253  14.226 -0.8801 -1.7784  0.5809
 6653SOL     OW31591   1.336   1.223   9.661 -0.0025  0.0670  0.3378
 6653SOL    HW131592   1.344   1.314   9.633  0.1350  0.1142  0.5297
 6653SOL    HW231593   1.287   1.194   9.585 -1.9912  2.7918  0.5863
 6654SOL     OW31594   1.689   4.305   3.179  0.0177  0.1726  0.1484
 6654SOL    HW131595   1.612   4.341   3.222 -0.2923  0.0493 -0.3051
 6654SOL    HW231596   1.686   4.360   3.101  1.4385 -0.4923 -0.3876
 6655SOL     OW31597   0.035   1.280   5.858 -0.2313 -0.0888  0.6774
 6655SOL    HW131598   4.687   1.304   5.844 -0.3002 -0.8755 -0.2096
 6655SOL    HW231599   0.051   1.302   5.949 -1.0940  0.4376  0.6970
 6656SOL     OW31600   4.045   4.252   4.650  0.4350  0.0165  0.3214
 6656SOL    HW131601   3.963   4.222   4.611  0.3653 -0.1138  0.5643
 6656SOL    HW231602   4.092   4.170   4.668  2.0320  0.7978 -0.3451
 6657SOL     OW31603   1.335   4.150  11.163 -0.3405  0.1371  0.1029
 6657SOL    HW131604   1.331   4.055  11.178 -2.0839 -0.1513 -2.1577
 6657SOL    HW231605   1.427   4.175  11.168 -1.1344  2.8897  0.9447
 6658SOL     OW31606   0.093   4.705   4.415  0.8121 -0.7752  0.0873
 6658SOL    HW131607   0.021   4.663   4.461  1.8439 -2.1602  0.4150
 6658SOL    HW231608   0.169   4.653   4.442  1.1357  0.0076  0.6976
 6659SOL     OW31609   3.852   1.477  15.243  0.2346 -0.0673 -0.1159
 6659SOL    HW131610   3.781   1.419  15.212  0.7622 -0.2525 -0.9760
 6659SOL    HW231611   3.924   1.421  15.271  0.1857 -0.7127 -1.2693
 6660SOL     OW31612   0.135   0.951  11.876 -0.4650 -0.0534 -0.3666
 6660SOL    HW131613   0.099   0.884  11.817 -1.0686  0.3390 -0.4450
 6660SOL    HW231614   0.100   0.912  11.956 -0.4917 -0.4517 -0.5696
 6661SOL     OW31615   0.387   2.545   4.531 -0.5288 -0.1610  0.0550
 6661SOL    HW131616   0.428   2.627   4.504  2.7019 -1.6222  0.5543
 6661SOL    HW231617   0.431   2.529   4.614  0.9068 -0.6980 -0.8038
 6662SOL     OW31618   2.339   1.750   4.517  0.2254  0.1133  0.1096
 6662SOL    HW131619   2.375   1.669   4.482  2.0443  0.7535  0.5103
 6662SOL    HW231620   2.314   1.709   4.600  1.0087 -0.7260 -0.0697
 6663SOL     OW31621   1.513   1.685   2.923 -0.0551  0.8128  0.0881
 6663SOL    HW131622   1.514   1.590   2.927  0.8864  0.8783  1.5235
 6663SOL    HW231623   1.418   1.698   2.921  0.0379  1.0031 -3.3316
 6664SOL     OW31624   1.107   2.969   3.670 -0.4518 -0.8040 -0.0814
 6664SOL    HW131625   1.147   3.027   3.606 -2.3100  1.4568  0.7761
 6664SOL    HW231626   1.076   3.024   3.742  0.0182  0.7952 -1.0994
 6665SOL     OW31627   4.726   0.902   2.267  0.1051  0.5358  0.1934
 6665SOL    HW131628   4.733   0.861   2.181  0.1934 -2.4411  1.6391
 6665SOL    HW231629   0.069   0.938   2.285  0.0799 -0.0727  1.4953
 6666SOL     OW31630   2.825   3.668   3.169 -0.5399  0.0670  1.0187
 6666SOL    HW131631   2.835   3.586   3.218 -2.6490  0.2316  1.7100
 6666SOL    HW231632   2.778   3.636   3.092 -1.4682 -1.3978  2.1894
 6667SOL     OW31633   2.656   0.046   9.083 -0.1639  0.0508 -0.0031
 6667SOL    HW131634   2.735   0.091   9.053  0.0995  0.0758  0.7262
 6667SOL    HW231635   2.645   4.720   9.018 -2.1281 -0.0560  0.4228
 6668SOL     OW31636   3.351   2.077  14.977 -0.8097 -0.3784  0.1431
 6668SOL    HW131637   3.278   2.058  15.035 -0.1992  1.8744  1.6479
 6668SOL    HW231638   3.341   2.166  14.946 -0.4141 -0.9148 -1.5199
 6669SOL     OW31639   0.528   2.330  10.877 -0.1926  0.3015 -0.3487
 6669SOL    HW131640   0.536   2.372  10.963  2.0356 -0.6560 -0.0987
 6669SOL    HW231641   0.510   2.240  10.902  0.5624 -0.2340 -1.7583
 6670SOL     OW31642   0.342   1.517   6.894 -0.4625 -0.0048  0.0224
 6670SOL    HW131643   0.402   1.522   6.969 -2.0109 -1.2656  1.3484
 6670SOL    HW231644   0.297   1.599   6.914 -0.6244  0.8037 -3.7151
 6671SOL     OW31645   0.839   0.590   7.090  0.6498 -0.3272  0.8425
 6671SOL    HW131646   0.835   0.686   7.094  1.1648 -0.3019  0.7546
 6671SOL    HW231647   0.764   0.566   7.035  0.9200  0.0069  0.3247
 6672SOL     OW31648   1.070   3.689  10.767  1.0848 -0.4234 -0.3276
 6672SOL    HW131649   1.118   3.767  10.738  1.6138 -1.4113 -2.1279
 6672SOL    HW231650   1.001   3.682  10.701  2.2205 -1.2474 -1.4173
 6673SOL     OW31651   2.878   1.897   4.998 -0.4143 -0.2644  0.2614
 6673SOL    HW131652   2.914   1.840   5.066 -1.9271  0.7471  1.9029
 6673SOL    HW231653   2.788   1.865   4.997 -0.7768  0.7270  2.6447
 6674SOL     OW31654   4.263   3.630   6.179  0.3046  0.5866 -0.0379
 6674SOL    HW131655   4.257   3.545   6.223  0.1781 -1.0271 -3.1893
 6674SOL    HW231656   4.236   3.606   6.091 -2.6335  0.2807  0.9698
 6675SOL     OW31657   2.103   0.462   2.526 -0.2965  0.8768 -0.1966
 6675SOL    HW131658   2.020   0.460   2.573 -1.2884  3.6426 -1.8584
 6675SOL    HW231659   2.122   0.555   2.535  0.2055  0.7111  0.4295
 6676SOL     OW31660   0.529   0.517   7.489  0.2556  0.3303 -0.2179
 6676SOL    HW131661   0.485   0.443   7.447  0.5741  0.1295 -0.1945
 6676SOL    HW231662   0.451   0.571   7.506 -1.1116 -1.0141 -2.2017
 6677SOL     OW31663   3.652   4.738  10.957 -0.1614  0.5762  0.2595
 6677SOL    HW131664   3.572   0.045  10.972 -0.4888  0.3890 -0.8687
 6677SOL    HW231665   3.664   4.706  11.046 -0.8712 -1.3535 -0.3546
 6678SOL     OW31666   2.918   1.246  11.624  0.0389  0.3188 -0.8276
 6678SOL    HW131667   2.993   1.241  11.683 -0.4918 -1.1665 -0.2880
 6678SOL    HW231668   2.964   1.243  11.540 -1.9482 -0.0594 -1.9084
 6679SOL     OW31669   2.692   1.968   1.960  0.8007 -0.1867 -0.0485
 6679SOL    HW131670   2.603   1.975   1.926 -0.4295  0.9233  3.4004
 6679SOL    HW231671   2.732   2.040   1.911 -3.2913  1.2874 -1.2138
 6680SOL     OW31672   4.231   3.855   2.710  0.1546 -0.6374 -0.3485
 6680SOL    HW131673   4.205   3.938   2.669  0.4574  0.6705  2.0466
 6680SOL    HW231674   4.145   3.814   2.710 -0.0136 -0.2863 -0.9566
 6681SOL     OW31675   4.221   1.637  12.698 -0.1506  0.4176 -0.0335
 6681SOL    HW131676   4.305   1.656  12.654  0.3255 -0.1353  0.6335
 6681SOL    HW231677   4.214   1.543  12.682  2.7317  0.2878 -0.5572
 6682SOL     OW31678   1.362   3.933   1.191 -0.2194  0.3753 -0.7961
 6682SOL    HW131679   1.457   3.922   1.201 -0.3619  0.6920  0.9224
 6682SOL    HW231680   1.346   4.016   1.237  0.7023  0.6123 -0.8949
 6683SOL     OW31681   0.401   1.246   5.819  0.1828 -0.2966 -0.0798
 6683SOL    HW131682   0.390   1.151   5.807 -1.6969 -0.0217 -0.4887
 6683SOL    HW231683   0.328   1.280   5.768  1.4645  2.0810 -0.3016
 6684SOL     OW31684   2.769   3.977  14.115  0.6844 -0.3031 -0.5061
 6684SOL    HW131685   2.720   3.902  14.149  1.4340 -1.5575 -2.1953
 6684SOL    HW231686   2.840   3.934  14.066  2.7886 -0.2899  2.5702
 6685SOL     OW31687   0.524   1.870   6.133 -0.4297 -0.3419 -0.0129
 6685SOL    HW131688   0.468   1.943   6.107 -0.2964  0.3595  1.7010
 6685SOL    HW231689   0.455   1.836   6.188  0.3044 -2.3012 -0.2969
 6686SOL     OW31690   1.331   3.572   6.570  0.5099 -0.5254  0.0620
 6686SOL    HW131691   1.292   3.487   6.546  0.5481 -0.4526 -0.2625
 6686SOL    HW231692   1.378   3.587   6.488  2.1943  1.8437  1.4852
 6687SOL     OW31693   3.570   3.429   2.631 -0.2043 -0.1106  0.2546
 6687SOL    HW131694   3.542   3.363   2.694  2.2527 -1.4368 -0.0496
 6687SOL    HW231695   3.638   3.385   2.579 -2.1383 -2.4899 -0.2844
 6688SOL     OW31696   4.033   3.854   4.379  0.1096 -0.0498 -0.0248
 6688SOL    HW131697   4.087   3.875   4.303  1.7739 -1.3976  0.7810
 6688SOL    HW231698   4.033   3.759   4.361 -0.7715 -0.0587  0.0489
 6689SOL     OW31699   4.183   3.012   9.018  0.1672 -0.5595  0.4200
 6689SOL    HW131700   4.112   2.959   9.054 -0.2827  0.2555  0.7527
 6689SOL    HW231701   4.240   2.946   8.980 -1.4521 -2.2713  0.9407
 6690SOL     OW31702   1.809   2.796   2.590 -0.8552  0.6866 -0.1615
 6690SOL    HW131703   1.764   2.767   2.670 -1.8447 -1.5195 -1.4991
 6690SOL    HW231704   1.795   2.891   2.590  1.2299  1.0034  1.3995
 6691SOL     OW31705   4.363   1.696   0.028  0.1156 -0.3446  0.3159
 6691SOL    HW131706   4.458   1.691   0.017  0.4011  0.3412  2.3682
 6691SOL    HW231707   4.352   1.710  17.706  2.5050  0.5295  0.1491
 6692SOL     OW31708   3.359   2.931  11.445  0.1096 -0.9040 -0.2690
 6692SOL    HW131709   3.378   3.021  11.420  1.1389 -1.0421 -0.0091
 6692SOL    HW231710   3.268   2.934  11.417 -0.3959  0.7820  1.5870
 6693SOL     OW31711   3.333   0.695  16.853 -0.3138 -0.0537  0.5612
 6693SOL    HW131712   3.319   0.629  16.920  0.9840 -0.3296  0.5507
 6693SOL    HW231713   3.254   0.748  16.862  0.3170  0.9131  0.3814
 6694SOL     OW31714   2.872   3.631   7.069  0.1196 -0.3287 -0.0253
 6694SOL    HW131715   2.800   3.683   7.105 -0.6420 -1.0524 -0.5018
 6694SOL    HW231716   2.881   3.552   7.123 -0.0065 -0.5003 -0.2555
 6695SOL     OW31717   1.097   2.303   2.430 -0.3741  0.3451 -0.5783
 6695SOL    HW131718   1.157   2.377   2.429 -0.3066  0.3369  1.5652
 6695SOL    HW231719   1.027   2.339   2.485 -0.9802 -2.6516  0.6519
 6696SOL     OW31720   2.107   4.524   2.668  0.0040  0.6871 -0.2029
 6696SOL    HW131721   2.060   4.579   2.731  0.3389 -0.9711  1.5024
 6696SOL    HW231722   2.058   4.519   2.586 -0.7374  0.7194  0.2458
 6697SOL     OW31723   3.812   0.388   4.556  0.1559  0.0037 -0.1388
 6697SOL    HW131724   3.776   0.405   4.644 -1.3205  1.1502 -0.9653
 6697SOL    HW231725   3.907   0.389   4.571  0.2307 -1.0923 -0.5781
 6698SOL     OW31726   3.032   1.152   5.559  0.1318  0.5085 -0.0555
 6698SOL    HW131727   2.974   1.096   5.508  0.4386 -0.0872  0.2489
 6698SOL    HW231728   3.028   1.098   5.638 -1.2235  1.1882  0.3315
 6699SOL     OW31729   0.936   1.948  14.428  0.2324 -0.1902 -0.1036
 6699SOL    HW131730   0.847   1.915  14.432 -0.5255  1.5946 -2.1878
 6699SOL    HW231731   0.935   2.002  14.349 -0.1316  2.7499  1.9227
 6700SOL     OW31732   1.635   1.681  15.960  0.3021  0.1649 -0.0595
 6700SOL    HW131733   1.542   1.663  15.971  0.5477  0.8370  3.1142
 6700SOL    HW231734   1.640   1.742  15.886  0.4339 -0.6817 -0.7463
 6701SOL     OW31735   4.536   1.472   0.244  0.5355  0.1559 -0.0830
 6701SOL    HW131736   4.593   1.396   0.236  1.1029  0.8197 -2.2769
 6701SOL    HW231737   4.604   1.538   0.258  1.5983 -0.7722 -0.9579
 6702SOL     OW31738   4.432   3.770   4.644 -0.6164 -0.2389 -0.2679
 6702SOL    HW131739   4.394   3.763   4.556 -0.5870  0.6050 -0.3492
 6702SOL    HW231740   4.400   3.688   4.683 -0.2909  0.6254  1.7759
 6703SOL     OW31741   3.736   1.240   5.356 -0.1348  0.3465  0.0962
 6703SOL    HW131742   3.658   1.283   5.390 -0.8026 -0.6174 -0.2241
 6703SOL    HW231743   3.708   1.154   5.388 -0.9743 -0.1105 -1.8810
 6704SOL     OW31744   0.174   4.148   6.290 -0.1223  0.3453 -0.0127
 6704SOL    HW131745   0.141   4.237   6.290 -0.0802  0.3542 -1.1476
 6704SOL    HW231746   0.220   4.136   6.207  1.2350  1.7786  0.5503
 6705SOL     OW31747   1.628   3.800   5.365  0.2388  0.0511 -0.1400
 6705SOL    HW131748   1.545   3.797   5.317  0.2693  1.1376 -0.2507
 6705SOL    HW231749   1.619   3.720   5.417 -1.9721  1.3188  1.3909
 6706SOL     OW31750   1.626   0.328  17.328  0.5546  0.0683 -0.0087
 6706SOL    HW131751   1.701   0.367  17.373  1.5104  0.8151 -2.2271
 6706SOL    HW231752   1.565   0.330  17.402 -1.2151 -0.6994 -1.4398
 6707SOL     OW31753   1.652   3.661   2.849 -0.0378 -0.0051 -0.0835
 6707SOL    HW131754   1.728   3.686   2.901 -1.2856 -0.0422  1.7716
 6707SOL    HW231755   1.585   3.705   2.902 -0.8331  0.3927 -1.4119
 6708SOL     OW31756   3.501   4.189   0.913 -0.1397  0.6200 -0.9887
 6708SOL    HW131757   3.430   4.142   0.956  0.3572  0.4675 -0.3384
 6708SOL    HW231758   3.576   4.139   0.945 -1.3915 -0.8681 -0.3527
 6709SOL     OW31759   4.053   1.752   0.092  0.1330  0.5396 -0.3614
 6709SOL    HW131760   4.137   1.755   0.046  0.8323 -1.6356  0.8024
 6709SOL    HW231761   4.030   1.660   0.079 -0.0318  0.2813  1.7449
 6710SOL     OW31762   0.365   0.884  16.872  0.0486  0.3580 -0.4737
 6710SOL    HW131763   0.431   0.839  16.818 -0.3754  0.2653 -0.9177
 6710SOL    HW231764   0.325   0.814  16.923 -2.2855  2.3576  0.4318
 6711SOL     OW31765   3.490   1.458  16.420  0.8342  0.7882  0.5642
 6711SOL    HW131766   3.477   1.458  16.515 -1.0292 -0.8938  0.3111
 6711SOL    HW231767   3.562   1.397  16.400 -0.4474 -0.7110  0.4946
 6712SOL     OW31768   1.198   3.298   3.058 -0.5001 -0.4105 -0.7253
 6712SOL    HW131769   1.254   3.220   3.067 -0.3439 -0.5335 -2.7175
 6712SOL    HW231770   1.139   3.293   3.133  0.2130  0.8948 -0.0824
 6713SOL     OW31771   1.919   3.587   3.836  0.1404  0.5530  0.4424
 6713SOL    HW131772   1.957   3.532   3.905  1.1578  0.2527 -0.3575
 6713SOL    HW231773   1.900   3.530   3.762  1.0447 -0.1572  0.7486
 6714SOL     OW31774   3.142   0.444   5.305  0.0463  0.2309 -0.5052
 6714SOL    HW131775   3.196   0.374   5.269 -0.2413 -0.3061  0.1176
 6714SOL    HW231776   3.202   0.497   5.358 -0.5295  0.2233  0.1462
 6715SOL     OW31777   1.822   2.016   7.505 -0.7615  0.0945 -0.4007
 6715SOL    HW131778   1.861   2.057   7.582 -1.4046 -0.9598  0.4970
 6715SOL    HW231779   1.844   2.082   7.439 -0.8878 -1.4183 -1.9592
 6716SOL     OW31780   0.216   4.517   9.778  1.1948  0.0167  0.0483
 6716SOL    HW131781   0.171   4.494   9.696  1.8329  0.7124 -0.5051
 6716SOL    HW231782   0.143   4.549   9.830 -1.3284 -3.6230 -1.2758
 6717SOL     OW31783   1.015   1.017   2.463 -0.4330  0.3477 -0.1124
 6717SOL    HW131784   1.059   1.081   2.408  0.6093  1.1201  1.6115
 6717SOL    HW231785   0.942   1.069   2.496 -1.0899 -0.5295 -0.1886
 6718SOL     OW31786   1.493   0.577   4.049  0.6437  0.2580 -0.2220
 6718SOL    HW131787   1.481   0.660   4.004  1.6921  0.0255 -0.9394
 6718SOL    HW231788   1.535   0.600   4.132  3.7841 -2.0818 -1.1746
 6719SOL     OW31789   2.233   2.279   0.411 -0.0927 -0.4677 -0.3554
 6719SOL    HW131790   2.184   2.321   0.340  0.0609  1.7337  0.8250
 6719SOL    HW231791   2.174   2.299   0.483 -0.6611  1.9726 -1.4799
 6720SOL     OW31792   2.980   2.105   2.074  0.2698  0.0759  0.2909
 6720SOL    HW131793   2.926   2.092   1.995  1.0038  2.3280 -0.5704
 6720SOL    HW231794   2.930   2.063   2.145 -0.0552 -0.0772 -0.0242
 6721SOL     OW31795   0.317   1.738  12.813  0.0156 -0.3842 -0.8175
 6721SOL    HW131796   0.399   1.781  12.791  1.4321 -3.4264 -1.5677
 6721SOL    HW231797   0.259   1.814  12.807  0.2033 -0.2005 -0.1743
 6722SOL     OW31798   3.244   2.726   1.703 -0.4823 -0.0833  0.6922
 6722SOL    HW131799   3.246   2.657   1.769 -2.9196 -0.2746  0.5516
 6722SOL    HW231800   3.209   2.682   1.626  1.8628 -0.8913  0.0957
 6723SOL     OW31801   3.422   3.722   2.950  0.3853  0.0173  0.2028
 6723SOL    HW131802   3.400   3.811   2.976  1.8111  0.2125  0.7958
 6723SOL    HW231803   3.433   3.684   3.037  0.3363  0.4371  0.3939
 6724SOL     OW31804   2.150   0.775   6.320  0.0156 -0.0728  0.2286
 6724SOL    HW131805   2.185   0.689   6.299 -0.2209  0.5442 -2.7121
 6724SOL    HW231806   2.202   0.792   6.398 -1.5553  3.3690  0.5018
 6725SOL     OW31807   3.843   4.579   5.099  0.0468 -0.1902  0.1905
 6725SOL    HW131808   3.799   4.637   5.161  0.5089  2.2682 -1.7515
 6725SOL    HW231809   3.904   4.646   5.066  1.3322 -0.2507  2.5176
 6726SOL     OW31810   3.539   2.261  14.664 -0.2763 -0.4489 -0.1215
 6726SOL    HW131811   3.504   2.348  14.685 -2.6182 -1.7886  1.5205
 6726SOL    HW231812   3.464   2.201  14.667 -0.0306 -0.6563  1.5968
 6727SOL     OW31813   0.211   3.353  16.452  0.4148 -0.0577 -0.0944
 6727SOL    HW131814   0.286   3.343  16.393  1.9693  2.2567  1.4604
 6727SOL    HW231815   0.249   3.369  16.539 -0.3004 -1.8063  0.5285
 6728SOL     OW31816   2.315   4.261  14.725 -0.4906 -0.2975 -0.2094
 6728SOL    HW131817   2.325   4.171  14.757 -1.2472  0.2811  1.6756
 6728SOL    HW231818   2.222   4.278  14.741 -0.5086 -0.6558  0.0734
 6729SOL     OW31819   0.046   0.678   3.407 -0.2830  0.3074 -0.2730
 6729SOL    HW131820   4.734   0.666   3.484  0.8086 -2.3338  0.0905
 6729SOL    HW231821   0.034   0.597   3.358 -0.1614 -0.1438  0.4355
 6730SOL     OW31822   4.277   0.686   6.781  0.0277  0.1447 -0.3353
 6730SOL    HW131823   4.278   0.706   6.874 -1.1037 -1.8992  0.1064
 6730SOL    HW231824   4.359   0.639   6.768  0.5216  0.7115  0.8004
 6731SOL     OW31825   2.710   4.556   8.560 -0.4771  0.0976 -0.2370
 6731SOL    HW131826   2.777   4.600   8.612 -0.9173  1.1189 -0.5310
 6731SOL    HW231827   2.765   4.505   8.500  0.9323  0.1341  1.0211
 6732SOL     OW31828   0.151   0.177   7.707  0.9302 -0.4062 -0.0705
 6732SOL    HW131829   0.243   0.203   7.694  0.3168  1.8954  0.3173
 6732SOL    HW231830   0.155   0.107   7.772 -0.4417 -0.9830 -0.6181
 6733SOL     OW31831   3.108   2.332   2.688 -0.0292  0.1039  0.3741
 6733SOL    HW131832   3.040   2.374   2.636  0.3439 -1.0145 -1.0214
 6733SOL    HW231833   3.099   2.357   2.780 -1.6506  1.1214 -0.0539
 6734SOL     OW31834   3.845   2.551   6.223  0.0906 -0.7188 -0.2686
 6734SOL    HW131835   3.796   2.541   6.142 -0.3969 -0.3538 -0.0151
 6734SOL    HW231836   3.928   2.582   6.185 -0.2097  2.7389  1.8910
 6735SOL     OW31837   0.884   2.054   8.399  1.0456 -0.2860  0.5725
 6735SOL    HW131838   0.796   2.088   8.410  1.5356  1.0538  0.3028
 6735SOL    HW231839   0.866   1.966   8.366 -0.3714 -0.0843  0.8282
 6736SOL     OW31840   3.837   0.188   5.850 -1.0186  0.4245 -0.1258
 6736SOL    HW131841   3.897   0.163   5.921  1.9955  3.3401 -1.6408
 6736SOL    HW231842   3.890   0.170   5.773  0.3885 -0.3472  1.0144
 6737SOL     OW31843   4.565   0.510   5.309 -0.3026  0.0460 -0.0906
 6737SOL    HW131844   4.598   0.518   5.220  0.5543  2.6209  0.4510
 6737SOL    HW231845   4.624   0.451   5.355 -0.5747  1.2353  1.8070
 6738SOL     OW31846   4.131   1.114   1.987  0.6092 -0.0889 -0.0191
 6738SOL    HW131847   4.165   1.027   2.007  0.4515 -0.4055 -1.1068
 6738SOL    HW231848   4.050   1.104   1.936 -0.9341 -0.2630  2.4755
 6739SOL     OW31849   1.566   3.835  16.217  0.1601  0.5293  0.2695
 6739SOL    HW131850   1.489   3.780  16.212 -1.0745  2.1898  0.9300
 6739SOL    HW231851   1.553   3.869  16.128  0.7722  0.3843  0.1202
 6740SOL     OW31852   1.772   4.211   4.357 -0.7464 -0.1228  0.3890
 6740SOL    HW131853   1.730   4.297   4.356 -0.0749  0.2390  1.8637
 6740SOL    HW231854   1.808   4.212   4.446 -0.5394  0.0017  0.3038
 6741SOL     OW31855   0.088   4.168   1.645  0.2110 -0.1852 -0.5227
 6741SOL    HW131856   0.170   4.201   1.680 -1.6171  0.8835  2.7309
 6741SOL    HW231857   0.102   4.170   1.550  1.5345  0.8535 -0.3043
 6742SOL     OW31858   3.738   0.591  10.520 -0.9378  0.3521  0.2622
 6742SOL    HW131859   3.722   0.580  10.426 -0.3545  1.3311  0.0428
 6742SOL    HW231860   3.723   0.502  10.550  1.0798  0.0526  0.3680
 6743SOL     OW31861   2.050   3.416   6.352  0.2068 -0.4553  0.3761
 6743SOL    HW131862   2.042   3.392   6.445  1.1458  0.9399  0.8120
 6743SOL    HW231863   1.957   3.404   6.332  0.7563 -2.4752 -1.0470
 6744SOL     OW31864   1.102   1.915   9.005 -0.1281 -0.7502 -0.2015
 6744SOL    HW131865   1.025   1.859   8.998 -0.8411  0.2333 -0.1945
 6744SOL    HW231866   1.109   1.933   8.911  2.7712 -1.3045 -0.1095
 6745SOL     OW31867   1.560   2.331  12.742  0.3574  0.1056  0.5769
 6745SOL    HW131868   1.581   2.309  12.651 -0.1041  0.7734  0.3083
 6745SOL    HW231869   1.503   2.262  12.776  0.5898 -1.0082 -1.2941
 6746SOL     OW31870   0.993   2.049  14.873 -0.1880  0.4953  0.5514
 6746SOL    HW131871   0.953   2.089  14.795 -1.4804 -1.4240  0.2181
 6746SOL    HW231872   0.945   1.966  14.872 -1.7662  1.3899  2.5093
 6747SOL     OW31873   0.948   3.705   1.250 -0.2791 -0.2865 -0.6779
 6747SOL    HW131874   0.978   3.732   1.337 -1.3553 -3.2945  0.6350
 6747SOL    HW231875   1.030   3.707   1.200 -0.7289 -0.2325 -1.4146
 6748SOL     OW31876   0.178   3.958  15.026  0.3548  0.0479  0.4582
 6748SOL    HW131877   0.227   3.944  15.107  0.8797  0.1211  0.1503
 6748SOL    HW231878   0.223   3.891  14.975  0.3201 -0.6306  1.3233
 6749SOL     OW31879   2.622   3.889  14.411  0.3922 -0.0451  0.4653
 6749SOL    HW131880   2.600   3.961  14.470  1.7698  0.2863  0.5833
 6749SOL    HW231881   2.556   3.827  14.443 -0.0689 -1.0208 -2.4062
 6750SOL     OW31882   1.608   4.422  12.725 -0.4407  0.2453  0.5252
 6750SOL    HW131883   1.548   4.363  12.680 -1.1299  0.5341  1.0524
 6750SOL    HW231884   1.620   4.370  12.805  0.0672  0.9066  0.8751
 6751SOL     OW31885   3.425   4.433   6.254 -0.3170  0.6450  0.0337
 6751SOL    HW131886   3.353   4.476   6.208  0.3470  0.8894 -0.7758
 6751SOL    HW231887   3.388   4.413   6.340 -0.4444  2.2242  0.3371
 6752SOL     OW31888   2.562   3.118   2.519  0.1127 -0.3286  0.1659
 6752SOL    HW131889   2.610   3.138   2.439  1.8842  0.2908  1.3844
 6752SOL    HW231890   2.470   3.123   2.491  0.2760 -0.2019 -0.3311
 6753SOL     OW31891   1.762   0.514   9.693 -0.3220 -0.6917 -0.6769
 6753SOL    HW131892   1.671   0.487   9.709 -1.1995  2.1181 -0.9795
 6753SOL    HW231893   1.744   0.606   9.712  0.5701 -0.7912  0.6415
 6754SOL     OW31894   0.977   0.226   7.397 -0.2647 -0.1923 -0.0915
 6754SOL    HW131895   0.903   0.269   7.438 -0.0858 -1.1979  1.2836
 6754SOL    HW231896   0.944   0.226   7.307  0.0509  0.5462 -0.2014
 6755SOL     OW31897   3.876   2.430   1.519  0.2785  0.7293  0.3285
 6755SOL    HW131898   3.964   2.431   1.481 -0.0758 -0.4522 -0.5214
 6755SOL    HW231899   3.824   2.400   1.445 -0.9754  0.7331  1.2145
 6756SOL     OW31900   2.231   1.270  13.600 -0.0456 -0.0154 -0.0701
 6756SOL    HW131901   2.157   1.331  13.599  0.4007  0.4922 -1.9559
 6756SOL    HW231902   2.190   1.206  13.541  1.0916 -1.5565  0.8081
 6757SOL     OW31903   1.968   0.940  12.169 -0.1907  0.0179 -0.0230
 6757SOL    HW131904   2.027   0.995  12.118  0.7400  0.4019  1.4956
 6757SOL    HW231905   2.012   0.948  12.253 -0.2307 -1.7197  0.1619
 6758SOL     OW31906   0.829   3.422   4.754  0.7103 -0.2576  0.2674
 6758SOL    HW131907   0.811   3.422   4.660  1.5414 -1.9165  0.1075
 6758SOL    HW231908   0.843   3.517   4.754 -2.7753  0.2293 -0.0433
 6759SOL     OW31909   2.539   3.755   0.868  0.0661  0.0847  0.7215
 6759SOL    HW131910   2.531   3.660   0.862  1.6040  0.0638 -1.0812
 6759SOL    HW231911   2.585   3.766   0.785 -1.6147 -1.3026 -0.4034
 6760SOL     OW31912   2.282   4.724  11.693  0.1862  0.3630  0.1694
 6760SOL    HW131913   2.192   4.742  11.665  0.8833  0.0491 -2.2628
 6760SOL    HW231914   2.275   4.642  11.742 -0.2298 -0.5765 -1.4404
 6761SOL     OW31915   1.229   2.591  15.751 -0.3578 -0.2113  0.0862
 6761SOL    HW131916   1.221   2.628  15.839  2.1872  0.8825 -0.1370
 6761SOL    HW231917   1.166   2.519  15.760  1.3337 -2.1260 -3.5282
 6762SOL     OW31918   3.240   2.303  10.588  0.0503 -0.2914  0.0963
 6762SOL    HW131919   3.158   2.302  10.538  1.4326  1.6130 -2.1736
 6762SOL    HW231920   3.213   2.283  10.678 -2.3087  1.7915 -0.1489
 6763SOL     OW31921   4.588   3.557   8.155 -0.3983 -0.1572 -0.9646
 6763SOL    HW131922   4.508   3.595   8.192 -0.2240  0.3760 -1.1311
 6763SOL    HW231923   4.657   3.590   8.213  0.7329 -2.3514 -1.0797
 6764SOL     OW31924   0.517   0.335   4.892  0.3535  0.4194  0.4200
 6764SOL    HW131925   0.443   0.385   4.858  1.1534  1.3674  0.0709
 6764SOL    HW231926   0.569   0.314   4.814 -0.8435 -1.9048  0.2374
 6765SOL     OW31927   0.312   3.126  11.398  0.4268  0.1561 -0.5619
 6765SOL    HW131928   0.317   3.210  11.443  1.0619 -0.3686  0.3524
 6765SOL    HW231929   0.218   3.126  11.377  0.0292 -2.0703  1.2140
 6766SOL     OW31930   3.077   1.424   1.897  0.2800 -0.2759 -0.2002
 6766SOL    HW131931   3.077   1.476   1.816  0.8654 -0.1489 -0.1191
 6766SOL    HW231932   3.133   1.349   1.873  0.1265 -0.1959 -0.8092
 6767SOL     OW31933   4.295   0.650   5.010 -0.5619  0.7509 -0.1817
 6767SOL    HW131934   4.201   0.637   4.996 -0.2462 -1.5182 -0.2254
 6767SOL    HW231935   4.310   0.614   5.097 -1.7211  1.1944  0.2071
 6768SOL     OW31936   0.611   1.583   1.860  0.3289  0.1998  0.1806
 6768SOL    HW131937   0.582   1.493   1.850 -0.7814  0.5261  0.4058
 6768SOL    HW231938   0.524   1.623   1.866  0.4761  0.9791 -3.1107
 6769SOL     OW31939   3.952   1.321   8.877  0.2648  0.8027 -0.3210
 6769SOL    HW131940   3.992   1.304   8.792 -0.3689 -0.0513 -0.4480
 6769SOL    HW231941   3.875   1.370   8.847  0.3371  0.0946 -1.6481
 6770SOL     OW31942   0.579   2.509   7.466 -0.0939  0.3097  0.5268
 6770SOL    HW131943   0.498   2.477   7.425 -1.1660  0.9891  2.1104
 6770SOL    HW231944   0.630   2.432   7.492 -0.4405  0.3153  1.2096
 6771SOL     OW31945   2.665   2.482   2.097  0.4318  0.7086 -0.6661
 6771SOL    HW131946   2.671   2.571   2.133 -2.1522  0.8983 -0.7090
 6771SOL    HW231947   2.570   2.474   2.112  0.4972  0.9174 -0.1042
 6772SOL     OW31948   2.278   0.673   8.823 -0.0214  0.7000 -0.1215
 6772SOL    HW131949   2.356   0.683   8.878 -1.1723  1.7073  1.3310
 6772SOL    HW231950   2.217   0.702   8.890  0.4561  0.2769  0.4938
 6773SOL     OW31951   1.617   1.404   3.178  0.1797  0.1388  0.2008
 6773SOL    HW131952   1.711   1.418   3.187  0.4078 -1.0938 -0.3093
 6773SOL    HW231953   1.578   1.487   3.204  0.0285 -0.7331  2.7491
 6774SOL     OW31954   3.064   0.646  13.997 -0.6462  0.3741 -0.1496
 6774SOL    HW131955   3.019   0.667  13.916 -0.9071 -0.9696 -0.3518
 6774SOL    HW231956   3.134   0.710  14.004  1.4423 -1.8332 -0.9508
 6775SOL     OW31957   0.044   2.590  17.493 -0.1142  0.3386  0.0339
 6775SOL    HW131958   4.729   2.665  17.500  1.5458  1.8249 -2.3619
 6775SOL    HW231959   0.121   2.641  17.470  0.5681 -0.3143  0.8793
 6776SOL     OW31960   1.586   0.685   3.289 -0.2805  0.5054 -0.3962
 6776SOL    HW131961   1.600   0.740   3.212 -1.4711 -1.9321 -2.3072
 6776SOL    HW231962   1.495   0.673   3.264 -0.2152 -0.1387 -0.3305
 6777SOL     OW31963   4.546   3.567   2.498  0.3487  0.1433  0.2157
 6777SOL    HW131964   4.503   3.481   2.504 -0.3416  0.5725  1.4962
 6777SOL    HW231965   4.630   3.538   2.462  0.5509  0.0683  0.7467
 6778SOL     OW31966   0.213   4.530   3.971  0.4263  0.0349 -0.2663
 6778SOL    HW131967   0.138   4.493   3.925  0.7327  0.6784 -1.2800
 6778SOL    HW231968   0.176   4.517   4.058 -2.1129 -0.4886 -1.4395
 6779SOL     OW31969   0.648   1.165   3.791 -0.0010  0.2462  0.2550
 6779SOL    HW131970   0.612   1.137   3.707 -0.4051 -0.4331  0.6558
 6779SOL    HW231971   0.579   1.161   3.857 -0.2642  0.4478 -0.0120
 6780SOL     OW31972   4.168   3.363   6.174  0.4346  0.0463 -0.2252
 6780SOL    HW131973   4.136   3.388   6.087 -1.4246 -0.5531  0.2829
 6780SOL    HW231974   4.089   3.352   6.227 -0.9964  0.3941 -2.2645
 6781SOL     OW31975   2.171   0.377   3.691  0.5042 -0.7227 -0.6208
 6781SOL    HW131976   2.135   0.314   3.629 -2.7462  0.7203 -0.2180
 6781SOL    HW231977   2.085   0.399   3.727  0.3482 -3.4257  0.6644
 6782SOL     OW31978   3.888   3.037  13.327 -0.0931  0.3800  0.0500
 6782SOL    HW131979   3.795   3.017  13.342  0.0308 -1.7779 -2.1803
 6782SOL    HW231980   3.893   3.133  13.326 -0.8389  0.3443 -4.0474
 6783SOL     OW31981   0.809   4.088  12.001  0.7177  0.1791  0.2006
 6783SOL    HW131982   0.772   4.151  11.939  0.5976 -0.1587 -0.0682
 6783SOL    HW231983   0.731   4.037  12.022  0.5459  0.8862  1.2720
 6784SOL     OW31984   3.137   2.708   7.368  0.1616 -0.1409 -0.5192
 6784SOL    HW131985   3.130   2.622   7.411 -2.8988 -0.5240 -1.8015
 6784SOL    HW231986   3.047   2.738   7.360 -0.0985 -0.8007 -0.1177
 6785SOL     OW31987   2.811   4.318   8.016 -0.1715 -0.4755 -0.1368
 6785SOL    HW131988   2.802   4.413   8.014 -0.5935 -0.4856  1.2118
 6785SOL    HW231989   2.768   4.308   8.101 -0.4722  0.4946 -0.1788
 6786SOL     OW31990   2.272   1.023   2.656 -0.2615  0.4440  0.0482
 6786SOL    HW131991   2.343   0.982   2.705 -1.8980 -1.9378  0.4103
 6786SOL    HW231992   2.308   1.003   2.569 -1.7384  0.2506 -0.5111
 6787SOL     OW31993   3.629   2.151   1.435  0.5360  0.5439 -0.1948
 6787SOL    HW131994   3.572   2.118   1.366  1.0318  2.0550 -1.3351
 6787SOL    HW231995   3.616   2.244   1.416  0.7556  1.2336  3.0248
 6788SOL     OW31996   2.696   3.395   4.426  0.0107  0.1186 -0.7894
 6788SOL    HW131997   2.764   3.332   4.400 -0.3874 -1.3831  1.8302
 6788SOL    HW231998   2.714   3.462   4.359  1.8910 -0.7669 -1.1884
 6789SOL     OW31999   3.439   3.515  17.664 -0.3618  0.2329 -0.0955
 6789SOL    HW132000   3.530   3.488  17.659 -0.3441  0.2834 -0.0298
 6789SOL    HW232001   3.395   3.449  17.610  0.4524 -1.2724  1.0706
 6790SOL     OW32002   3.793   0.051   6.202  0.1285 -0.0875  0.9115
 6790SOL    HW132003   3.850   0.129   6.203  0.6928 -0.4813 -3.0332
 6790SOL    HW232004   3.776   0.037   6.295  1.4508  0.0838  1.1886
 6791SOL     OW32005   3.806   1.787   7.499  0.4292  0.1087 -0.1955
 6791SOL    HW132006   3.809   1.702   7.543 -2.7601 -0.5836 -1.3265
 6791SOL    HW232007   3.898   1.792   7.474  0.3590 -0.4529 -0.5622
 6792SOL     OW32008   3.619   4.119   5.105 -0.1126  0.0008 -0.2223
 6792SOL    HW132009   3.646   4.200   5.062 -0.8490  0.8037  0.8572
 6792SOL    HW232010   3.677   4.057   5.061  1.0799  0.8665  0.1293
 6793SOL     OW32011   2.428   0.954   5.762 -0.2148 -0.1816 -0.1572
 6793SOL    HW132012   2.518   0.950   5.732  0.3263  2.8182  1.0098
 6793SOL    HW232013   2.428   0.998   5.847 -2.2162  0.1072 -0.2948
 6794SOL     OW32014   4.408   3.674  16.889 -0.3570 -0.3118 -0.2229
 6794SOL    HW132015   4.437   3.637  16.806  1.7029  0.7242  0.0287
 6794SOL    HW232016   4.449   3.760  16.883 -0.3109 -0.4621 -1.8279
 6795SOL     OW32017   0.118   4.481   5.074  0.1890 -0.0521 -0.0615
 6795SOL    HW132018   0.086   4.391   5.079 -1.2932  0.5195  0.7564
 6795SOL    HW232019   0.045   4.525   5.118 -0.2051  0.3675 -1.1393
 6796SOL     OW32020   4.069   2.199   6.692  0.5835 -0.3547  0.4365
 6796SOL    HW132021   4.021   2.242   6.763  0.8504  0.2606  0.2453
 6796SOL    HW232022   4.093   2.268   6.630  0.5385 -1.7656 -1.1495
 6797SOL     OW32023   2.470   0.679  16.014  0.1579 -0.7047 -0.0435
 6797SOL    HW132024   2.446   0.682  15.922 -1.6904 -2.5001  0.3783
 6797SOL    HW232025   2.549   0.628  15.997  0.1716 -1.5137  2.3444
 6798SOL     OW32026   3.811   3.987  14.020  0.1694  0.4161  0.3564
 6798SOL    HW132027   3.849   4.011  13.935 -1.6772  1.2837 -0.2323
 6798SOL    HW232028   3.719   4.000  13.996  0.2862  1.9915  0.7947
 6799SOL     OW32029   0.050   3.648   8.292  0.1305  0.0410  0.8991
 6799SOL    HW132030   0.083   3.735   8.269  0.3131  0.3915  2.4453
 6799SOL    HW232031   0.129   3.593   8.296 -0.7849 -1.2805  0.8385
 6800SOL     OW32032   1.233   1.199   6.219 -0.1068  0.2725 -0.3033
 6800SOL    HW132033   1.208   1.203   6.127  0.0122 -2.9519 -0.4651
 6800SOL    HW232034   1.240   1.106   6.241  0.1674 -0.3597 -3.1161
 6801SOL     OW32035   2.505   1.718  10.212 -0.3779  0.1918  0.2687
 6801SOL    HW132036   2.563   1.754  10.279  0.6300 -0.7103 -0.1203
 6801SOL    HW232037   2.477   1.788  10.153  1.0326  1.3792  1.0279
 6802SOL     OW32038   1.147   3.855   0.432  0.3078  0.2185  0.0356
 6802SOL    HW132039   1.171   3.841   0.523 -0.5186 -1.0540  0.0540
 6802SOL    HW232040   1.172   3.948   0.427 -0.3402  0.2368 -2.9114
 6803SOL     OW32041   4.328   2.946  12.098  0.2479 -0.6515  0.1549
 6803SOL    HW132042   4.343   2.851  12.091  2.0841 -0.6157  3.8413
 6803SOL    HW232043   4.386   2.960  12.172  1.3723 -2.2501 -0.4068
 6804SOL     OW32044   2.573   1.231   8.437  0.6221 -0.1737 -0.7263
 6804SOL    HW132045   2.607   1.156   8.485  2.7015  0.6231 -0.9620
 6804SOL    HW232046   2.528   1.264   8.515  0.6053 -1.5156 -0.1668
 6805SOL     OW32047   0.152   1.665   1.174  0.0673  0.3220  0.3397
 6805SOL    HW132048   0.087   1.623   1.117 -0.5278 -1.8277  2.5893
 6805SOL    HW232049   0.157   1.600   1.245  0.5883 -0.0198 -0.0146
 6806SOL     OW32050   0.358   2.258   8.027  0.4783 -0.1858  0.2628
 6806SOL    HW132051   0.418   2.313   7.976 -0.5110  1.0582  0.4514
 6806SOL    HW232052   0.389   2.280   8.114  1.7280 -0.3978 -0.1319
 6807SOL     OW32053   0.805   0.592   6.480  0.4500  0.4051  0.3338
 6807SOL    HW132054   0.893   0.619   6.453  0.2437 -1.2969 -2.0238
 6807SOL    HW232055   0.826   0.528   6.547  0.2052  1.4013  1.3512
 6808SOL     OW32056   4.381   3.353  14.306 -0.6086  0.3765 -0.3003
 6808SOL    HW132057   4.318   3.327  14.373  0.2234 -3.7849 -1.1400
 6808SOL    HW232058   4.383   3.271  14.257  1.1379 -1.5065  2.9712
 6809SOL     OW32059   4.590   3.527  14.270  0.3299  0.3895  0.0395
 6809SOL    HW132060   4.541   3.588  14.326  0.4334  0.2847  0.2440
 6809SOL    HW232061   4.535   3.451  14.292  1.6549 -1.1526 -2.0521
 6810SOL     OW32062   2.554   3.592   5.911  0.4049  0.0406  0.0934
 6810SOL    HW132063   2.549   3.502   5.943  1.5768  0.1372  0.5612
 6810SOL    HW232064   2.596   3.570   5.828 -2.0906 -1.7250 -0.6888
 6811SOL     OW32065   3.713   0.071   2.858 -0.0462  0.0142 -0.2929
 6811SOL    HW132066   3.620   0.095   2.852  0.1496  0.5671 -1.1296
 6811SOL    HW232067   3.753   0.129   2.793  0.3190  1.3807  1.1429
 6812SOL     OW32068   1.737   3.949   3.377 -0.0508  0.0005  0.3043
 6812SOL    HW132069   1.772   3.860   3.369 -0.8758 -0.2562 -0.4157
 6812SOL    HW232070   1.715   3.948   3.470  1.0671 -0.7878  0.5709
 6813SOL     OW32071   0.382   2.726   5.368  0.3006 -0.7940  0.4195
 6813SOL    HW132072   0.320   2.791   5.402  3.2149  1.5108  1.3319
 6813SOL    HW232073   0.391   2.777   5.288  0.7692  0.5360  1.3091
 6814SOL     OW32074   1.288   0.603   7.627  0.0226  0.4447 -0.3853
 6814SOL    HW132075   1.238   0.563   7.698  0.2011  0.1329 -0.4347
 6814SOL    HW232076   1.222   0.578   7.562  2.1147  0.8993 -2.6943
 6815SOL     OW32077   3.493   3.860   7.082  0.4292 -0.0667 -0.2995
 6815SOL    HW132078   3.567   3.863   7.021  1.6584 -2.7383  1.1215
 6815SOL    HW232079   3.534   3.797   7.141 -2.7078  0.0398  2.0006
 6816SOL     OW32080   2.779   1.563   7.203 -0.1276 -0.0773  0.2066
 6816SOL    HW132081   2.729   1.639   7.171 -0.1403  0.0640  0.5562
 6816SOL    HW232082   2.776   1.497   7.134  0.9243  0.4859 -0.3664
 6817SOL     OW32083   3.259   1.322   0.314  0.2936 -0.0056  0.0860
 6817SOL    HW132084   3.178   1.276   0.293 -0.9823  1.6783  1.2888
 6817SOL    HW232085   3.291   1.268   0.387 -1.1963 -0.0156  0.7325
 6818SOL     OW32086   1.486   4.434  16.442  0.1032  0.0586  0.2467
 6818SOL    HW132087   1.438   4.488  16.379 -0.9938 -0.3384  0.7431
 6818SOL    HW232088   1.547   4.390  16.383  1.3176  0.8306  0.9401
 6819SOL     OW32089   3.492   2.131   1.164 -0.2101 -0.6017  0.3486
 6819SOL    HW132090   3.500   2.226   1.157  1.2921 -0.8348 -1.0233
 6819SOL    HW232091   3.564   2.113   1.103 -1.9240 -3.3743 -0.8082
 6820SOL     OW32092   4.659   1.322   9.794  0.2666  0.3784 -0.2444
 6820SOL    HW132093   4.662   1.228   9.813 -0.0120  0.0796 -1.6880
 6820SOL    HW232094   4.564   1.329   9.785  0.2385  1.4041  0.8984
 6821SOL     OW32095   4.173   1.099  12.750  0.7301 -0.3281  0.1858
 6821SOL    HW132096   4.122   1.037  12.801  0.2023  1.8168  2.2662
 6821SOL    HW232097   4.253   1.052  12.731  0.1274 -0.9448 -0.8631
 6822SOL     OW32098   4.389   0.041   4.475 -0.2757 -0.2100 -0.4371
 6822SOL    HW132099   4.303   0.035   4.516 -0.0066  0.7323  0.2659
 6822SOL    HW232100   4.357   0.079   4.394 -0.7179  1.1684  0.3944
 6823SOL     OW32101   0.404   2.717   7.241 -0.1548  0.3762  0.5228
 6823SOL    HW132102   0.419   2.795   7.295  0.4373 -0.8661  2.1542
 6823SOL    HW232103   0.335   2.670   7.287 -1.6144  0.0403 -2.0581
 6824SOL     OW32104   3.087   0.967  10.745  0.3981  0.3975 -0.2131
 6824SOL    HW132105   3.176   1.001  10.736  0.7246 -0.7200 -1.1706
 6824SOL    HW232106   3.077   0.905  10.817 -1.0235  2.6022  1.4842
 6825SOL     OW32107   4.293   4.332   4.597 -0.1516 -0.3130 -0.7016
 6825SOL    HW132108   4.357   4.273   4.558 -0.5374 -0.8162 -0.5603
 6825SOL    HW232109   4.209   4.288   4.592 -0.0877 -0.4923 -0.2312
 6826SOL     OW32110   1.223   2.308   1.700  0.5727 -0.2613  0.2449
 6826SOL    HW132111   1.255   2.240   1.761  2.1578 -0.4134 -0.7408
 6826SOL    HW232112   1.305   2.357   1.690  0.6617 -0.1774  1.3353
 6827SOL     OW32113   1.117   3.033   5.554 -0.4215 -0.5219  0.3168
 6827SOL    HW132114   1.203   2.996   5.537 -0.3403  0.0201 -0.4682
 6827SOL    HW232115   1.066   2.962   5.592  0.3490 -0.5149  1.3696
 6828SOL     OW32116   4.320   2.758   4.379 -0.7826 -0.1509 -0.0454
 6828SOL    HW132117   4.244   2.779   4.434 -1.4359 -1.2761 -0.5229
 6828SOL    HW232118   4.397   2.766   4.435 -1.2253 -1.2378  0.7356
 6829SOL     OW32119   0.205   2.688   9.102  0.4099 -0.2292 -0.6108
 6829SOL    HW132120   0.282   2.696   9.159 -0.5895 -2.0175  1.0203
 6829SOL    HW232121   0.203   2.775   9.063  1.2969 -0.6540 -1.5912
 6830SOL     OW32122   1.051   2.284  10.630 -0.2903  0.2358 -0.0681
 6830SOL    HW132123   1.094   2.231  10.563 -0.5121 -1.5288  1.1834
 6830SOL    HW232124   1.128   2.298  10.685 -1.5762  2.3008  1.1814
 6831SOL     OW32125   2.652   2.904   5.851  0.3796 -0.9422  0.3970
 6831SOL    HW132126   2.680   2.820   5.889 -0.5093 -1.5952 -0.3927
 6831SOL    HW232127   2.682   2.877   5.764 -0.7463 -4.3326  1.0572
 6832SOL     OW32128   1.539   1.851   9.744  0.4513 -0.4340  0.1003
 6832SOL    HW132129   1.572   1.899   9.669 -2.9168  1.1108 -0.3997
 6832SOL    HW232130   1.480   1.917   9.779  2.1080  0.6675  0.7802
 6833SOL     OW32131   3.902   4.302   3.900  0.1371 -0.4723 -0.2108
 6833SOL    HW132132   3.856   4.227   3.864  0.9243  0.2414 -2.6794
 6833SOL    HW232133   3.956   4.311   3.822 -0.7530 -0.9802 -0.8817
 6834SOL     OW32134   0.776   0.388   3.881  0.3214 -0.0039  0.2293
 6834SOL    HW132135   0.803   0.333   3.954  0.6198 -0.8582 -0.5290
 6834SOL    HW232136   0.743   0.469   3.921 -0.4127 -0.6941  1.0359
 6835SOL     OW32137   3.538   3.065   3.739 -0.2530 -0.0486  0.2240
 6835SOL    HW132138   3.583   3.033   3.817  1.2231  3.0690  0.6656
 6835SOL    HW232139   3.468   3.001   3.745  1.2352 -1.5376  1.8124
 6836SOL     OW32140   1.266   1.558  14.976  0.3556  0.2947 -0.4277
 6836SOL    HW132141   1.302   1.646  14.962 -0.1055  0.4433 -0.6947
 6836SOL    HW232142   1.296   1.539  15.064  0.9348  2.0987 -0.2366
 6837SOL     OW32143   0.346   0.633   4.191 -0.0739  0.0166  0.2152
 6837SOL    HW132144   0.384   0.652   4.277  0.4187  1.1719 -0.2491
 6837SOL    HW232145   0.389   0.552   4.164  1.3503  0.2117  1.8835
 6838SOL     OW32146   3.180   1.730   5.394 -0.0311  0.4639 -0.4292
 6838SOL    HW132147   3.105   1.781   5.424 -0.2541 -0.0626 -0.0780
 6838SOL    HW232148   3.211   1.686   5.474 -1.0641  1.8173  0.7062
 6839SOL     OW32149   1.646   2.654   2.765  0.0853 -0.1013  0.6812
 6839SOL    HW132150   1.682   2.568   2.784 -1.5088 -0.8320  0.4024
 6839SOL    HW232151   1.554   2.627   2.758  0.4614 -0.8864 -1.2296
 6840SOL     OW32152   2.341   0.488   3.492  0.2783  0.4275 -0.5869
 6840SOL    HW132153   2.382   0.487   3.578 -1.0325  1.6282  0.0523
 6840SOL    HW232154   2.255   0.447   3.499  1.0096 -0.8076  1.0412
 6841SOL     OW32155   2.236   3.075  11.682  0.2840  0.0969  0.3497
 6841SOL    HW132156   2.277   3.076  11.769  1.4929 -1.9518 -0.2003
 6841SOL    HW232157   2.315   3.095  11.632  1.6914 -0.0779  2.4830
 6842SOL     OW32158   1.101   2.464   3.635 -0.5889 -0.2428 -0.0077
 6842SOL    HW132159   1.054   2.522   3.694  0.4812 -0.7500  1.3633
 6842SOL    HW232160   1.129   2.397   3.697 -1.7156 -1.4048 -0.7635
 6843SOL     OW32161   3.586   4.616   7.684  0.2683 -0.3643 -0.6747
 6843SOL    HW132162   3.492   4.609   7.668 -0.0171 -0.0287  0.8478
 6843SOL    HW232163   3.611   4.528   7.714  0.0054  0.5762  2.3017
 6844SOL     OW32164   4.364   2.978   0.636  0.0546 -0.2473  0.6488
 6844SOL    HW132165   4.428   3.047   0.650  0.5026 -0.7461  1.0593
 6844SOL    HW232166   4.370   2.928   0.717 -2.3902  0.4565  1.2683
 6845SOL     OW32167   3.847   2.968   0.879  0.3231 -0.0843 -0.1222
 6845SOL    HW132168   3.861   2.982   0.786  0.7972  0.9315  0.1060
 6845SOL    HW232169   3.841   3.056   0.917  1.4585 -0.1674  0.2616
 6846SOL     OW32170   0.566   1.134   1.639  0.1583 -0.4362 -0.0959
 6846SOL    HW132171   0.632   1.110   1.704  0.9008 -1.4786 -1.2304
 6846SOL    HW232172   0.598   1.072   1.573 -1.5487 -1.6919  0.2550
 6847SOL     OW32173   4.122   2.409   6.547 -0.8336 -0.0589  0.0503
 6847SOL    HW132174   4.158   2.497   6.537 -0.0338 -0.4029 -0.0530
 6847SOL    HW232175   4.099   2.397   6.454 -0.0214 -1.0070 -0.0227
 6848SOL     OW32176   1.023   2.595   0.067  0.5091 -0.2265 -0.5462
 6848SOL    HW132177   1.073   2.514   0.052  0.1366 -0.7313  0.9390
 6848SOL    HW232178   1.012   2.627  17.748  2.6344  2.0171 -0.0007
 6849SOL     OW32179   3.149   3.609  16.406 -0.0108 -0.1922 -0.2016
 6849SOL    HW132180   3.136   3.585  16.498 -0.1581  2.9208  0.6155
 6849SOL    HW232181   3.065   3.637  16.371 -0.1640 -2.0655 -1.3183
 6850SOL     OW32182   3.985   0.076   4.171  0.4592 -0.6553 -0.0052
 6850SOL    HW132183   4.003   0.001   4.228 -1.4593 -0.4494  0.8798
 6850SOL    HW232184   3.950   0.146   4.227  0.1488 -3.0908  2.8314
 6851SOL     OW32185   1.462   4.083   0.333  0.0546  0.3047  0.0092
 6851SOL    HW132186   1.509   4.025   0.393  2.0308  2.7031  0.7592
 6851SOL    HW232187   1.381   4.105   0.379  2.2712  0.4421  3.8067
 6852SOL     OW32188   3.096   1.274  10.614 -0.5582 -0.1722  0.3336
 6852SOL    HW132189   3.125   1.188  10.585  1.3924 -0.0667  1.9901
 6852SOL    HW232190   3.066   1.261  10.704 -0.9468 -0.2059  0.1998
 6853SOL     OW32191   3.579   4.390   4.079 -0.3117 -0.6293 -0.3270
 6853SOL    HW132192   3.582   4.337   4.159  0.1575  0.4927  0.3863
 6853SOL    HW232193   3.551   4.325   4.015  0.5176  0.3735 -1.7003
 6854SOL     OW32194   0.698   2.309   9.190  0.0520 -0.8416 -0.0718
 6854SOL    HW132195   0.651   2.282   9.269 -2.8167 -0.0951 -1.5042
 6854SOL    HW232196   0.753   2.232   9.179  0.8191 -0.3148  0.0489
 6855SOL     OW32197   1.123   0.496  15.535 -0.2228  0.4098 -0.8633
 6855SOL    HW132198   1.203   0.501  15.587 -1.6168 -0.0649  1.3748
 6855SOL    HW232199   1.132   0.546  15.454  0.8394  2.4168  0.5001
 6856SOL     OW32200   3.525   1.680   5.684  0.4444 -0.3168  0.2560
 6856SOL    HW132201   3.534   1.762   5.636  1.2363 -0.8843 -0.5600
 6856SOL    HW232202   3.451   1.642   5.636  0.0290  1.2911 -0.3750
 6857SOL     OW32203   0.059   0.725   2.043  0.3719  0.1989  0.2034
 6857SOL    HW132204   0.143   0.770   2.038  2.1388 -3.0539  1.0938
 6857SOL    HW232205   0.083   0.649   2.096 -0.8006 -0.1575  0.2259
 6858SOL     OW32206   2.111   2.392   4.232 -0.2355 -0.3465  0.2259
 6858SOL    HW132207   2.048   2.444   4.182 -1.9533 -0.2701  2.4725
 6858SOL    HW232208   2.119   2.313   4.178  0.8384 -0.7260  0.9273
 6859SOL     OW32209   2.398   4.201   7.130  0.2776 -0.3614  0.5650
 6859SOL    HW132210   2.313   4.158   7.137  1.1665 -1.8502  1.9153
 6859SOL    HW232211   2.459   4.130   7.112 -0.2000 -0.9086  1.1111
 6860SOL     OW32212   3.440   4.391   5.207  0.0270  0.7042 -0.3231
 6860SOL    HW132213   3.368   4.352   5.158 -0.1097 -0.7507  1.0299
 6860SOL    HW232214   3.521   4.362   5.164 -0.2470  2.1179 -1.7620
 6861SOL     OW32215   2.614   2.436   5.008 -0.2094  0.2683 -0.4445
 6861SOL    HW132216   2.592   2.482   4.927 -0.9135  0.1946 -0.2959
 6861SOL    HW232217   2.709   2.440   4.997  0.0260 -2.7816  0.5142
 6862SOL     OW32218   0.714   0.113  15.126 -0.2633  0.0965 -0.1878
 6862SOL    HW132219   0.749   0.200  15.107 -1.2114  0.3729 -0.6629
 6862SOL    HW232220   0.623   0.142  15.114 -0.3376 -0.1481 -0.2067
 6863SOL     OW32221   3.686   0.501  16.705  0.3327  0.4453 -0.4187
 6863SOL    HW132222   3.780   0.509  16.689  0.9954 -0.3794  3.0798
 6863SOL    HW232223   3.653   0.571  16.649 -0.4107  1.0806  0.7904
 6864SOL     OW32224   2.969   1.189   9.140 -0.0159  0.1014 -0.0262
 6864SOL    HW132225   3.052   1.146   9.160 -1.0330 -1.0503  1.6594
 6864SOL    HW232226   2.918   1.163   9.216  1.1702 -1.4093  0.2558
 6865SOL     OW32227   3.081   0.494   8.572 -0.2214  0.4162  0.1879
 6865SOL    HW132228   3.104   0.575   8.526  2.1680 -0.2285  0.2653
 6865SOL    HW232229   3.097   0.522   8.662 -0.0903  0.3915  0.1725
 6866SOL     OW32230   3.053   4.044   6.953 -0.5267  0.6602  0.0004
 6866SOL    HW132231   3.007   3.994   7.020  0.8066  1.1134  1.2500
 6866SOL    HW232232   3.134   4.063   7.001 -1.6074 -0.2212  2.1939
 6867SOL     OW32233   4.499   0.925   9.996 -0.2767 -0.1653 -0.3191
 6867SOL    HW132234   4.540   0.969   9.921  2.5804 -0.6694  0.9468
 6867SOL    HW232235   4.418   0.974   9.979  0.6123  0.5826 -2.4684
 6868SOL     OW32236   1.016   2.207  16.314  0.3655  0.2662 -0.0961
 6868SOL    HW132237   1.072   2.163  16.379 -0.4922 -1.3822 -0.4852
 6868SOL    HW232238   1.065   2.185  16.235  1.0444  1.8430 -0.1155
 6869SOL     OW32239   1.330   2.980   8.402  0.1949  0.0657  0.0068
 6869SOL    HW132240   1.322   2.969   8.308 -1.4183 -1.2745  0.2996
 6869SOL    HW232241   1.398   3.047   8.413 -0.4037  0.5831  0.5266
 6870SOL     OW32242   1.024   0.150   0.272 -0.1499  0.3851 -0.5764
 6870SOL    HW132243   1.069   0.227   0.308  0.2191  1.5842 -3.6157
 6870SOL    HW232244   1.029   0.173   0.180  2.0835  1.6805 -0.1471
 6871SOL     OW32245   1.069   4.615   4.201  0.5305  0.4386  0.2093
 6871SOL    HW132246   1.041   4.524   4.189 -0.3891  0.9094 -1.1422
 6871SOL    HW232247   0.989   4.664   4.221  0.7605  0.6462  0.6125
 6872SOL     OW32248   0.887   0.435  16.842  0.0463 -0.4570 -0.1069
 6872SOL    HW132249   0.953   0.404  16.781  0.6218 -0.2370  0.4048
 6872SOL    HW232250   0.924   0.397  16.921  2.5253  2.3611  0.0659
 6873SOL     OW32251   3.960   3.219   9.681 -0.1047 -0.2270  0.0837
 6873SOL    HW132252   3.893   3.155   9.707  0.1770 -0.6133 -0.1277
 6873SOL    HW232253   4.014   3.236   9.758  1.0358 -0.6062 -0.6116
 6874SOL     OW32254   1.936   1.027   7.078  0.2872 -0.2486  0.0231
 6874SOL    HW132255   1.860   1.013   7.135 -0.8222  2.1586 -0.8256
 6874SOL    HW232256   1.983   0.944   7.074 -0.9572 -0.8432 -2.5437
 6875SOL     OW32257   1.695   0.012  11.787 -0.3630  0.4264  0.3251
 6875SOL    HW132258   1.628   0.078  11.805  0.1310  1.2869 -0.9872
 6875SOL    HW232259   1.700   0.014  11.691 -0.5646  4.3565  0.3897
 6876SOL     OW32260   3.821   2.351  12.993  0.0461  0.2676  0.0042
 6876SOL    HW132261   3.846   2.438  13.024 -0.3722 -0.8063  3.3230
 6876SOL    HW232262   3.860   2.342  12.906 -1.6669 -0.7940 -0.6606
 6877SOL     OW32263   2.241   4.447   4.912  0.1361 -0.2292  0.1705
 6877SOL    HW132264   2.318   4.405   4.873  0.2728 -0.7765  1.0170
 6877SOL    HW232265   2.261   4.426   5.003 -1.7085  1.6450  0.9956
 6878SOL     OW32266   1.925   3.901   9.322 -0.0737  0.2548 -0.2035
 6878SOL    HW132267   2.017   3.887   9.298 -0.3730  0.3926 -1.4235
 6878SOL    HW232268   1.924   3.987   9.363  1.6737 -0.0192  0.4110
 6879SOL     OW32269   4.182   0.220   2.513 -0.5014 -0.1077  0.0005
 6879SOL    HW132270   4.144   0.153   2.570  1.2301 -1.0128  0.1102
 6879SOL    HW232271   4.109   0.281   2.510 -0.7238 -0.4998 -1.8758
 6880SOL     OW32272   0.892   1.669   4.783 -0.1628 -0.3366 -0.2220
 6880SOL    HW132273   0.853   1.603   4.727 -1.4285 -0.0862  0.3627
 6880SOL    HW232274   0.922   1.737   4.722  2.2881 -0.4701  0.8360
 6881SOL     OW32275   0.555   0.772   5.203 -0.1550 -0.0223 -0.6593
 6881SOL    HW132276   0.524   0.688   5.238  0.5912 -0.0934 -0.1770
 6881SOL    HW232277   0.481   0.804   5.151 -0.0311 -0.4516 -1.0951
 6882SOL     OW32278   2.624   2.115   8.467  0.2409  0.1866 -0.4724
 6882SOL    HW132279   2.696   2.138   8.525  1.8753 -2.0832 -1.6279
 6882SOL    HW232280   2.653   2.157   8.386 -2.2544  2.8140 -0.0120
 6883SOL     OW32281   3.367   3.979   7.641  0.4210 -0.4444 -0.0109
 6883SOL    HW132282   3.324   3.894   7.639 -0.4540  0.0254 -2.0244
 6883SOL    HW232283   3.437   3.967   7.704  2.8085  1.1943 -2.3401
 6884SOL     OW32284   0.305   3.805  10.728  0.0139 -0.3001 -0.0625
 6884SOL    HW132285   0.373   3.797  10.795 -1.2585 -1.1256  1.1417
 6884SOL    HW232286   0.351   3.844  10.654 -0.3384 -1.1980 -0.7591
 6885SOL     OW32287   0.486   4.001   2.280 -0.1262 -0.2913 -0.4439
 6885SOL    HW132288   0.454   3.956   2.202  0.7257 -2.0819  0.2501
 6885SOL    HW232289   0.523   4.077   2.233 -1.6056  1.5322  1.3515
 6886SOL     OW32290   1.305   1.657   5.465 -0.1491  0.4152  0.4982
 6886SOL    HW132291   1.245   1.591   5.429  3.1647 -2.4486  0.1692
 6886SOL    HW232292   1.374   1.599   5.498 -0.2230  0.3439  0.5281
 6887SOL     OW32293   1.934   3.156   7.365  0.0459  0.3493 -0.1770
 6887SOL    HW132294   1.857   3.100   7.359  1.3692 -1.3432 -1.2914
 6887SOL    HW232295   1.942   3.207   7.284  1.7490 -2.0879 -1.5256
 6888SOL     OW32296   2.777   1.959   2.653  0.0152  0.0426  0.3051
 6888SOL    HW132297   2.747   1.933   2.740 -0.7661  2.0291  0.6522
 6888SOL    HW232298   2.761   1.877   2.606 -0.2981  0.0550  0.3883
 6889SOL     OW32299   0.851   1.027   3.944  0.0932 -0.1291 -0.3979
 6889SOL    HW132300   0.815   1.062   3.862 -1.1854 -1.5074 -0.4281
 6889SOL    HW232301   0.905   1.104   3.961 -1.2198  0.5108  0.9196
 6890SOL     OW32302   1.159   1.957   1.774  0.6676 -0.0593 -0.5758
 6890SOL    HW132303   1.080   1.922   1.815 -0.5491  0.9698 -2.0542
 6890SOL    HW232304   1.227   1.921   1.831 -0.1493  1.2498  1.2236
 6891SOL     OW32305   0.614   0.842   3.740 -0.0802  0.1031 -0.0214
 6891SOL    HW132306   0.567   0.842   3.824  1.6878  2.9088  0.9849
 6891SOL    HW232307   0.548   0.883   3.684 -1.1563 -0.8982  0.5064
 6892SOL     OW32308   1.078   4.358   8.841 -0.7328 -0.1245 -0.1728
 6892SOL    HW132309   1.001   4.312   8.809 -1.4885  0.5231  0.7262
 6892SOL    HW232310   1.042   4.417   8.907 -0.8595 -2.3403  1.7275
 6893SOL     OW32311   1.195   2.731   5.285  0.0784 -0.3261 -0.5035
 6893SOL    HW132312   1.234   2.772   5.363 -2.3526 -1.1273  1.1367
 6893SOL    HW232313   1.132   2.680   5.337  1.3953 -1.7361 -0.2863
 6894SOL     OW32314   2.107   3.973   7.719 -0.4193  0.1684  0.6035
 6894SOL    HW132315   2.188   3.986   7.769  0.0380 -0.2527 -0.0314
 6894SOL    HW232316   2.055   4.045   7.754 -2.4657 -0.9651 -0.0567
 6895SOL     OW32317   0.848   2.278   9.563 -0.4030 -0.2434 -0.3169
 6895SOL    HW132318   0.761   2.262   9.598  0.0033 -1.4016  0.1740
 6895SOL    HW232319   0.865   2.190   9.528  2.4718  0.3236 -0.3419
 6896SOL     OW32320   2.740   1.341   1.250 -0.0112  0.2140  0.6368
 6896SOL    HW132321   2.743   1.428   1.290  2.2587 -0.7844  2.6160
 6896SOL    HW232322   2.741   1.357   1.156  0.6795 -0.6636  0.5043
 6897SOL     OW32323   2.057   2.519   4.579  0.3825 -0.5393 -0.0591
 6897SOL    HW132324   2.091   2.571   4.505 -1.5699 -0.5804 -0.9852
 6897SOL    HW232325   1.986   2.471   4.536 -0.0531  0.8520 -0.9097
 6898SOL     OW32326   4.068   2.580   1.785 -0.2231 -0.2025  0.0624
 6898SOL    HW132327   4.121   2.587   1.705  0.8070 -0.8174  0.6893
 6898SOL    HW232328   4.005   2.651   1.776 -0.0168 -0.0559 -0.2208
 6899SOL     OW32329   4.681   1.021   2.868 -0.2569 -0.1615 -0.1501
 6899SOL    HW132330   0.030   1.045   2.863 -0.0941 -0.5994  0.8453
 6899SOL    HW232331   4.699   0.927   2.864  2.5834  0.4764 -2.8824
 6900SOL     OW32332   2.130   4.281  14.089  0.0407  0.4936  0.6140
 6900SOL    HW132333   2.135   4.313  14.179 -1.3129  2.0014  0.1498
 6900SOL    HW232334   2.137   4.366  14.044  0.4616  0.8053  1.2624
 6901SOL     OW32335   3.287   0.870  10.075 -0.5459 -0.2824  0.0582
 6901SOL    HW132336   3.375   0.836  10.061 -0.7289 -0.9700  0.5548
 6901SOL    HW232337   3.297   0.962  10.097  0.2625 -0.5685  0.8741
 6902SOL     OW32338   2.483   4.177  17.651 -0.2421 -0.1469  0.1503
 6902SOL    HW132339   2.525   4.212  17.729  1.6252 -0.2803 -0.7854
 6902SOL    HW232340   2.409   4.237  17.645  0.4327  0.9084  2.5197
 6903SOL     OW32341   0.341   1.529   8.015 -0.1853 -0.4504 -0.0754
 6903SOL    HW132342   0.260   1.496   7.977  1.1638 -1.5033 -2.0515
 6903SOL    HW232343   0.335   1.496   8.105  0.4941 -0.1979  0.0619
 6904SOL     OW32344   4.542   4.210  15.082 -0.5406  0.1198  0.4600
 6904SOL    HW132345   4.573   4.300  15.075  0.2853 -0.1535  0.5872
 6904SOL    HW232346   4.608   4.175  15.142  0.8612  0.4378 -0.8823
 6905SOL     OW32347   2.041   0.766   0.034  0.1840  0.3477  0.4151
 6905SOL    HW132348   2.087   0.848   0.017  0.0737  0.6506  1.6291
 6905SOL    HW232349   2.109   0.708   0.066 -1.8058 -2.3301 -0.2179
 6906SOL     OW32350   0.937   4.347  14.203  0.0618 -0.2164 -0.0771
 6906SOL    HW132351   0.976   4.427  14.238  1.4617 -1.6946  1.7541
 6906SOL    HW232352   0.925   4.378  14.114 -2.0027 -0.7589  0.0225
 6907SOL     OW32353   1.222   2.250   4.904 -0.1217  0.1813  0.1097
 6907SOL    HW132354   1.308   2.267   4.941 -0.4391  1.7025  0.1399
 6907SOL    HW232355   1.173   2.215   4.978 -0.1785 -2.9756 -1.4177
 6908SOL     OW32356   2.477   2.758   9.700 -0.1141 -0.0153  0.1430
 6908SOL    HW132357   2.520   2.829   9.652 -1.4095  0.2057 -0.7008
 6908SOL    HW232358   2.481   2.791   9.790 -1.3001  2.3323 -0.6508
 6909SOL     OW32359   1.273   0.309  16.401 -0.1606  0.3288  0.3610
 6909SOL    HW132360   1.358   0.312  16.357  0.2374 -1.6806  0.9922
 6909SOL    HW232361   1.212   0.311  16.328  0.3376 -1.2127 -0.1074
 6910SOL     OW32362   2.183   0.941   3.346 -0.7793 -0.7793  0.3255
 6910SOL    HW132363   2.103   0.986   3.320  1.1429  1.7154 -1.2131
 6910SOL    HW232364   2.250   1.008   3.356 -2.4871  0.5740  2.6586
 6911SOL     OW32365   1.000   0.661   4.998  0.2750  0.9108 -0.3887
 6911SOL    HW132366   1.035   0.578   5.033 -0.2187  0.1124 -1.8106
 6911SOL    HW232367   1.055   0.729   5.038  0.2452  1.1287 -0.7239
 6912SOL     OW32368   0.998   2.388   9.363  0.6322  0.6548 -0.0847
 6912SOL    HW132369   0.947   2.450   9.311 -0.9077  0.1818  0.8387
 6912SOL    HW232370   0.925   2.366   9.421  0.5400 -0.3369 -0.5872
 6913SOL     OW32371   4.212   0.690   3.267  0.4009 -0.0471 -0.0028
 6913SOL    HW132372   4.191   0.781   3.288  1.2583  0.2468 -0.4023
 6913SOL    HW232373   4.250   0.676   3.354  0.5221 -1.0944 -0.2226
 6914SOL     OW32374   4.220   1.864   8.222 -0.1123  0.2305  0.2859
 6914SOL    HW132375   4.237   1.938   8.280 -1.0909 -1.2202  2.3887
 6914SOL    HW232376   4.132   1.831   8.239  0.0232  0.8260  2.0674
 6915SOL     OW32377   3.951   4.261   7.541  0.0490 -0.1825 -0.4620
 6915SOL    HW132378   4.027   4.235   7.490  0.9332 -0.6354  1.0775
 6915SOL    HW232379   3.934   4.182   7.592 -0.7203  0.6574  0.6059
 6916SOL     OW32380   0.577   2.415   2.252 -0.4485  0.5048  0.1629
 6916SOL    HW132381   0.621   2.445   2.332 -1.0935  0.0612  0.6874
 6916SOL    HW232382   0.646   2.437   2.190 -1.2039  1.6021 -0.2938
 6917SOL     OW32383   2.595   3.434  13.137  0.5827 -0.1556 -0.6336
 6917SOL    HW132384   2.610   3.339  13.135  0.1590 -0.2242 -0.7160
 6917SOL    HW232385   2.531   3.432  13.209 -0.4681  2.8181 -1.5056
 6918SOL     OW32386   2.504   2.363   0.374  0.0988 -0.6155  0.3598
 6918SOL    HW132387   2.545   2.310   0.305 -2.6489 -0.2365 -1.5901
 6918SOL    HW232388   2.419   2.321   0.359 -0.8792  1.0083  1.4369
 6919SOL     OW32389   2.985   1.431   9.020 -0.3571  0.2539 -0.1004
 6919SOL    HW132390   2.971   1.349   9.066  0.7671  0.2988  0.2977
 6919SOL    HW232391   3.060   1.466   9.068  0.5977  0.8533 -2.0249
 6920SOL     OW32392   3.732   2.595   1.700 -0.2985 -0.2021  0.1673
 6920SOL    HW132393   3.662   2.644   1.658 -0.0067 -0.6702 -0.8623
 6920SOL    HW232394   3.733   2.518   1.644  4.0383 -0.1359  0.1498
 6921SOL     OW32395   2.087   3.039  12.100  0.1221  0.8405 -0.7934
 6921SOL    HW132396   2.028   3.077  12.165  0.4054  1.1783 -0.7334
 6921SOL    HW232397   2.159   3.102  12.093 -0.0108  1.0104 -0.6280
 6922SOL     OW32398   0.803   3.485   2.617 -0.8230  0.0939 -0.4198
 6922SOL    HW132399   0.864   3.554   2.590  0.6826 -1.7094 -1.6454
 6922SOL    HW232400   0.854   3.436   2.681  0.0860 -1.5658 -2.4103
 6923SOL     OW32401   1.553   3.432   5.892 -0.2201  0.9131 -0.2843
 6923SOL    HW132402   1.644   3.433   5.921 -0.0603 -0.1137 -0.7652
 6923SOL    HW232403   1.550   3.375   5.815 -1.6475 -0.6430  0.9259
 6924SOL     OW32404   1.793   2.132   0.043 -0.1019  0.0486  0.4194
 6924SOL    HW132405   1.836   2.104  17.733  0.6379  1.8375  0.1899
 6924SOL    HW232406   1.784   2.050   0.092 -0.9777  0.4520  0.9293
 6925SOL     OW32407   0.978   0.276   5.945 -0.3777  0.2473  0.3666
 6925SOL    HW132408   1.027   0.258   6.025  2.0410  0.6310 -1.0174
 6925SOL    HW232409   1.047   0.256   5.881  1.8614  0.4231  2.7529
 6926SOL     OW32410   3.326   3.528   9.745  0.8402  0.2264 -0.2074
 6926SOL    HW132411   3.395   3.595   9.742  0.9717  0.1558  1.5218
 6926SOL    HW232412   3.347   3.472   9.671 -0.4723 -1.0135  0.3488
 6927SOL     OW32413   0.665   2.082   7.256 -0.3745 -0.0577  0.1941
 6927SOL    HW132414   0.706   2.146   7.314  1.0346 -1.1251  0.3624
 6927SOL    HW232415   0.580   2.071   7.297  0.0778 -0.9099  0.8965
 6928SOL     OW32416   0.395   2.434   6.481  0.1472  0.3409 -0.0157
 6928SOL    HW132417   0.427   2.344   6.474 -1.7092 -0.2127 -1.2456
 6928SOL    HW232418   0.475   2.466   6.523 -0.8980  2.7839  0.0850
 6929SOL     OW32419   0.264   3.044   7.244  0.4702  0.0491 -0.6539
 6929SOL    HW132420   0.204   3.118   7.257 -0.4003 -1.2528  2.6812
 6929SOL    HW232421   0.214   2.963   7.238  1.4675 -0.7600  2.0210
 6930SOL     OW32422   2.422   4.740  12.944  0.3709  0.3600  0.1802
 6930SOL    HW132423   2.499   0.038  12.983  0.0950  2.3600 -1.4059
 6930SOL    HW232424   2.367   4.739  13.023  0.4644  1.0963  0.2575
 6931SOL     OW32425   2.778   3.752   8.779 -0.6485  0.3385  0.1115
 6931SOL    HW132426   2.798   3.663   8.809  0.6424  0.3262 -0.7785
 6931SOL    HW232427   2.695   3.745   8.732 -0.5795  0.5511 -0.0398
 6932SOL     OW32428   2.518   1.988   3.145  0.1963  0.0668  0.1433
 6932SOL    HW132429   2.431   1.961   3.175 -1.5806  3.1775 -2.2469
 6932SOL    HW232430   2.495   2.076   3.117  1.6227  0.4469  0.1875
 6933SOL     OW32431   3.332   1.456   3.226 -0.2072  0.0073 -0.1154
 6933SOL    HW132432   3.317   1.549   3.239 -0.3533 -0.0004 -0.2354
 6933SOL    HW232433   3.274   1.411   3.288  2.5316 -3.0271  0.2767
 6934SOL     OW32434   1.481   3.524   2.145  0.5412 -0.2290 -0.3204
 6934SOL    HW132435   1.391   3.555   2.131  1.5981  2.1577 -1.8261
 6934SOL    HW232436   1.466   3.433   2.118  2.3072 -1.3834  2.6879
 6935SOL     OW32437   2.405   1.434   2.974 -0.3890  0.3497 -0.4694
 6935SOL    HW132438   2.494   1.413   3.003 -0.1685 -1.8459 -2.6881
 6935SOL    HW232439   2.388   1.369   2.906 -1.6826  1.2067 -0.9682
 6936SOL     OW32440   0.697   3.981   7.116  0.2747  0.0112  0.5784
 6936SOL    HW132441   0.657   4.053   7.165 -1.6893 -1.1854  0.7176
 6936SOL    HW232442   0.788   4.011   7.123  1.1197 -2.1459 -1.3645
 6937SOL     OW32443   0.827   4.645   5.645 -0.2738  0.0024  0.5736
 6937SOL    HW132444   0.791   4.734   5.655 -1.1037 -0.1595 -0.8775
 6937SOL    HW232445   0.755   4.597   5.687 -1.0025 -0.9824 -1.7973
 6938SOL     OW32446   0.374   4.433   3.266 -0.0900 -0.3050 -0.0283
 6938SOL    HW132447   0.309   4.394   3.325  0.1554 -1.0922 -0.2701
 6938SOL    HW232448   0.376   4.384   3.184  1.0902  0.6172 -0.5493
 6939SOL     OW32449   3.149   2.500   6.980 -0.1151  0.0463  0.1920
 6939SOL    HW132450   3.090   2.575   6.980  0.4335  0.4677 -1.4756
 6939SOL    HW232451   3.235   2.540   6.975 -0.6350  0.9549 -1.4393
 6940SOL     OW32452   4.396   4.255  15.344  0.4752 -0.3137  0.1723
 6940SOL    HW132453   4.345   4.181  15.376  0.4138  0.7377  2.4968
 6940SOL    HW232454   4.398   4.238  15.250 -1.4691 -1.5048  0.3390
 6941SOL     OW32455   0.566   0.752   9.213 -0.1029 -0.0973  0.7216
 6941SOL    HW132456   0.648   0.709   9.235 -0.2387 -0.4351  0.5887
 6941SOL    HW232457   0.551   0.805   9.290 -1.6167 -3.2954  2.6493
 6942SOL     OW32458   4.502   1.092   5.167  0.3015 -0.7988 -0.3016
 6942SOL    HW132459   4.460   1.170   5.203  0.1885 -2.0042  2.1470
 6942SOL    HW232460   4.459   1.028   5.223  0.4283 -1.9085 -1.4576
 6943SOL     OW32461   0.371   0.059   7.995 -0.3848 -0.0920  0.2805
 6943SOL    HW132462   0.380   0.008   8.076 -1.5329 -0.8107 -0.0488
 6943SOL    HW232463   0.281   0.038   7.971 -0.5185 -0.1830  0.8462
 6944SOL     OW32464   3.980   2.632   0.711  0.0658  0.5689 -0.5054
 6944SOL    HW132465   4.011   2.694   0.645  1.0928  0.5888 -0.0045
 6944SOL    HW232466   4.021   2.553   0.677 -1.6751  0.4130 -2.2189
 6945SOL     OW32467   1.041   3.471   8.941  0.0888  0.2062  0.7118
 6945SOL    HW132468   1.054   3.387   8.984  0.1843  0.2034  0.6772
 6945SOL    HW232469   0.955   3.440   8.910 -0.1581  1.3779  0.2244
 6946SOL     OW32470   0.843   1.562   9.988 -0.3736  0.1366 -0.2190
 6946SOL    HW132471   0.907   1.562  10.059  0.4233 -0.5629 -0.9329
 6946SOL    HW232472   0.882   1.629   9.931 -0.0397  0.6315  0.5915
 6947SOL     OW32473   0.296   0.075  17.694 -0.4597  0.1381  0.3214
 6947SOL    HW132474   0.309   0.114   0.009  2.6899 -1.9203  0.7843
 6947SOL    HW232475   0.345   0.129  17.632  0.4923 -0.0355  0.9237
 6948SOL     OW32476   4.239   1.511   0.887  0.3082  0.1072  0.0169
 6948SOL    HW132477   4.154   1.477   0.914  0.2298 -0.7666 -1.3521
 6948SOL    HW232478   4.203   1.598   0.869 -0.1903 -0.2197 -0.5707
 6949SOL     OW32479   2.520   3.681   4.403  0.4829  0.1096  0.1678
 6949SOL    HW132480   2.469   3.601   4.393  0.5097 -0.1673  2.2446
 6949SOL    HW232481   2.480   3.734   4.335 -1.5810 -1.6224  0.0313
 6950SOL     OW32482   2.392   0.104   3.885  0.4942 -0.5248 -0.3308
 6950SOL    HW132483   2.344   0.119   3.966  2.3223 -1.8690  0.9694
 6950SOL    HW232484   2.406   0.183   3.832  0.6523 -0.6526 -0.4782
 6951SOL     OW32485   1.772   1.719   5.878  0.4264 -0.3181  0.2908
 6951SOL    HW132486   1.767   1.624   5.866 -1.1284 -0.2036 -0.0245
 6951SOL    HW232487   1.685   1.751   5.853 -0.9881 -3.9571  0.5701
 6952SOL     OW32488   1.789   3.334   5.681 -0.0972  0.2707 -0.4824
 6952SOL    HW132489   1.772   3.366   5.770  1.4509 -1.4468  0.4486
 6952SOL    HW232490   1.867   3.282   5.700 -1.5647 -1.8453 -0.2447
 6953SOL     OW32491   2.293   2.502  10.339 -0.5059 -0.5070  0.8206
 6953SOL    HW132492   2.305   2.523  10.432 -2.1309  3.4812  0.1635
 6953SOL    HW232493   2.351   2.554  10.284 -2.1075 -0.3433 -0.7405
 6954SOL     OW32494   0.956   1.226   3.267  0.2567 -0.4358  0.9332
 6954SOL    HW132495   1.010   1.153   3.235  1.0869  1.4637 -1.9772
 6954SOL    HW232496   0.997   1.288   3.207 -1.0491  0.3230  0.8447
 6955SOL     OW32497   1.272   2.879   6.979  0.3303 -0.3491  0.0846
 6955SOL    HW132498   1.332   2.953   6.970  1.7982 -1.6912 -1.0990
 6955SOL    HW232499   1.328   2.834   7.042 -0.6128  0.0964  1.2490
 6956SOL     OW32500   2.912   3.468   5.272 -0.0649  0.0268 -0.2241
 6956SOL    HW132501   2.874   3.439   5.355 -0.0263  0.2132 -0.1415
 6956SOL    HW232502   2.854   3.538   5.241  0.6575  0.8613  0.3035
 6957SOL     OW32503   1.661   1.506   4.815 -0.2642  0.6644  0.4364
 6957SOL    HW132504   1.726   1.560   4.768  1.0772  0.1933  1.7530
 6957SOL    HW232505   1.610   1.565   4.870 -2.4897  0.0307 -0.9397
 6958SOL     OW32506   0.394   4.665   7.297  1.0094 -0.2826  0.1064
 6958SOL    HW132507   0.395   4.586   7.350 -0.1644 -0.0925  0.4294
 6958SOL    HW232508   0.439   4.643   7.216  1.8549  0.3451  0.4087
 6959SOL     OW32509   4.482   1.031  11.548  0.2070  0.3646  0.2138
 6959SOL    HW132510   4.545   1.001  11.614 -0.4738 -0.6429  0.4065
 6959SOL    HW232511   4.401   1.003  11.591  0.4503 -1.0351 -0.2391
 6960SOL     OW32512   0.676   2.015  16.545  0.1367 -0.5749  0.4069
 6960SOL    HW132513   0.731   2.071  16.491 -0.4082  0.4621  0.9270
 6960SOL    HW232514   0.679   2.076  16.619  2.7221 -0.4560  0.1951
 6961SOL     OW32515   0.401   3.620   3.774 -0.1156  0.0505  0.1837
 6961SOL    HW132516   0.478   3.651   3.820  0.5142 -0.2148 -0.6986
 6961SOL    HW232517   0.442   3.605   3.689 -0.4367 -0.9398  0.2018
 6962SOL     OW32518   2.556   0.271  12.037 -0.2974  0.0113 -0.1813
 6962SOL    HW132519   2.524   0.337  12.099 -3.1298  1.5399 -3.2606
 6962SOL    HW232520   2.578   0.197  12.094 -0.5012  0.3629  0.3557
 6963SOL     OW32521   2.419   1.395   4.876  0.2441 -0.0846 -0.0108
 6963SOL    HW132522   2.387   1.306   4.892 -0.3992  0.2691  0.6832
 6963SOL    HW232523   2.460   1.420   4.959 -0.5777 -1.7340  0.8968
 6964SOL     OW32524   1.669   0.335   0.872  0.3579 -0.5433  0.1464
 6964SOL    HW132525   1.632   0.310   0.788  1.7588 -1.4191 -0.2064
 6964SOL    HW232526   1.676   0.245   0.903 -1.3394 -0.6519  0.2058
 6965SOL     OW32527   0.222   2.442   5.166 -0.1043  0.3498  0.0692
 6965SOL    HW132528   0.235   2.348   5.179 -0.6998  0.1909 -0.4814
 6965SOL    HW232529   0.266   2.472   5.246 -0.1401 -0.9305  0.5685
 6966SOL     OW32530   4.448   4.381   3.444  0.0866 -0.0654 -0.3572
 6966SOL    HW132531   4.426   4.454   3.501  1.2663 -0.6789  0.8880
 6966SOL    HW232532   4.380   4.318   3.467  1.3715 -1.6859 -1.0011
 6967SOL     OW32533   3.094   0.269   7.643 -0.6464 -0.3280  0.1016
 6967SOL    HW132534   3.049   0.341   7.688  0.2476  0.7109 -0.6881
 6967SOL    HW232535   3.091   0.219   7.725  1.5327 -0.0515  0.3581
 6968SOL     OW32536   3.161   2.188  10.844  0.3902  0.2722 -0.4188
 6968SOL    HW132537   3.234   2.161  10.899  1.0970  0.4779 -1.2454
 6968SOL    HW232538   3.089   2.148  10.893 -0.5540  1.8182 -0.5243
 6969SOL     OW32539   0.884   2.523   5.184  0.4886 -0.2012  0.0892
 6969SOL    HW132540   0.834   2.492   5.259  1.1201  0.0619  0.6182
 6969SOL    HW232541   0.850   2.612   5.173  0.3192 -0.1854  0.7862
 6970SOL     OW32542   1.499   0.377   7.047 -0.3858 -0.1128 -0.5155
 6970SOL    HW132543   1.434   0.412   7.107 -0.6887 -2.2144  0.3990
 6970SOL    HW232544   1.446   0.339   6.977 -1.6698  0.1295  0.3302
 6971SOL     OW32545   4.602   1.347  12.173  0.2674  0.4189  0.5166
 6971SOL    HW132546   4.524   1.300  12.203 -0.4132  0.7644 -0.6748
 6971SOL    HW232547   4.623   1.307  12.089  1.0044  1.3506  0.2465
 6972SOL     OW32548   3.326   0.505  17.131  0.8349  0.2420 -0.2897
 6972SOL    HW132549   3.369   0.472  17.052 -2.6367  1.1482 -2.5865
 6972SOL    HW232550   3.397   0.492  17.193 -0.2044 -0.9018  0.6608
 6973SOL     OW32551   1.083   2.130   6.336 -0.2019 -0.3750  0.2055
 6973SOL    HW132552   1.092   2.056   6.396 -3.3333 -0.9062  0.0216
 6973SOL    HW232553   1.172   2.127   6.301 -0.8706  0.6330 -1.6203
 6974SOL     OW32554   1.438   2.809   4.246 -0.3827  0.3865 -0.5300
 6974SOL    HW132555   1.361   2.865   4.238 -1.0720 -0.5092 -0.1864
 6974SOL    HW232556   1.482   2.849   4.171 -0.7569  0.1968 -0.8519
 6975SOL     OW32557   1.736   1.548   7.588  0.3820  0.2184  0.3746
 6975SOL    HW132558   1.726   1.486   7.516  0.1284 -0.2843  0.8449
 6975SOL    HW232559   1.777   1.620   7.540  1.6053 -1.3459 -0.9357
 6976SOL     OW32560   0.531   2.328  10.616  0.1734 -0.1972 -1.2910
 6976SOL    HW132561   0.556   2.330  10.708 -2.5142 -0.2241 -0.5454
 6976SOL    HW232562   0.579   2.402  10.579 -1.2966 -0.1372 -3.1019
 6977SOL     OW32563   1.933   3.618   4.665 -0.1091  0.5111  0.9044
 6977SOL    HW132564   1.840   3.624   4.688 -0.0696  2.7202  0.5381
 6977SOL    HW232565   1.931   3.549   4.598 -0.6407  1.5844 -0.1990
 6978SOL     OW32566   0.368   0.276   3.092  0.3312 -0.5555  0.2271
 6978SOL    HW132567   0.393   0.336   3.161  1.4800 -1.8351  0.9347
 6978SOL    HW232568   0.275   0.293   3.079  0.7625  1.4558 -0.1502
 6979SOL     OW32569   3.614   0.888  17.393  0.1351 -0.5089 -0.0623
 6979SOL    HW132570   3.703   0.918  17.411  0.2124  0.6536 -2.3540
 6979SOL    HW232571   3.585   0.915  17.480 -0.5298  1.9281 -1.0435
 6980SOL     OW32572   2.260   4.673  17.161  0.4552 -0.2726  0.6179
 6980SOL    HW132573   2.201   4.716  17.099  1.7302 -0.5411 -0.7963
 6980SOL    HW232574   2.234   4.581  17.155  0.5387 -0.2502 -0.1492
 6981SOL     OW32575   4.362   0.349   5.679 -0.4385  0.1199 -0.4366
 6981SOL    HW132576   4.332   0.268   5.719 -0.3824 -0.1787 -0.9917
 6981SOL    HW232577   4.452   0.327   5.656  0.5568  2.8711  0.8349
 6982SOL     OW32578   4.500   3.795   1.953 -0.0269 -0.2046  0.4023
 6982SOL    HW132579   4.437   3.819   2.021 -1.5176 -0.7534 -0.7794
 6982SOL    HW232580   4.516   3.876   1.904 -0.4593 -0.6080 -0.4150
 6983SOL     OW32581   2.073   4.684   7.512 -0.1840 -0.1733  0.1208
 6983SOL    HW132582   2.032   4.735   7.442 -0.6834 -1.6191 -0.6426
 6983SOL    HW232583   2.160   4.682   7.473 -0.4286 -2.2197 -0.3362
 6984SOL     OW32584   1.581   1.630  12.342  0.3664 -0.5387 -0.4256
 6984SOL    HW132585   1.554   1.600  12.429 -0.5782  2.7695  0.4185
 6984SOL    HW232586   1.648   1.694  12.366 -0.2209 -0.0132 -0.1988
 6985SOL     OW32587   4.301   1.350   1.224  0.0093  0.5302  0.9051
 6985SOL    HW132588   4.340   1.430   1.187  2.0578 -0.8649  0.0594
 6985SOL    HW232589   4.368   1.286   1.202 -1.3087 -1.0234  1.3860
 6986SOL     OW32590   1.533   2.240   5.884  0.4116 -0.2240  0.3663
 6986SOL    HW132591   1.459   2.280   5.929 -1.0604 -2.1997 -0.2696
 6986SOL    HW232592   1.561   2.314   5.831  0.8762  0.3369  1.3985
 6987SOL     OW32593   2.169   2.168  11.911  0.2315  0.2327  0.4830
 6987SOL    HW132594   2.224   2.089  11.916 -2.3862 -1.5216  1.4506
 6987SOL    HW232595   2.111   2.144  11.839 -0.4057  0.9434  0.7681
 6988SOL     OW32596   1.909   3.518  13.067  0.6939  0.2284  0.3105
 6988SOL    HW132597   2.002   3.494  13.062  0.6840  0.0091  1.0258
 6988SOL    HW232598   1.901   3.592  13.007  1.9989  0.8211  0.8541
 6989SOL     OW32599   1.907   2.853  13.548 -0.3059 -0.0986  0.2164
 6989SOL    HW132600   1.861   2.924  13.504 -1.1865  0.2715  1.7466
 6989SOL    HW232601   1.890   2.788  13.480 -3.2679  0.3993  0.4843
 6990SOL     OW32602   1.745   0.802  13.855 -0.0813  0.5292  0.6077
 6990SOL    HW132603   1.822   0.832  13.903  1.1629 -0.2310 -0.8878
 6990SOL    HW232604   1.760   0.835  13.766 -2.9688 -0.3150 -0.1819
 6991SOL     OW32605   0.601   2.680  16.958 -0.0665  0.4468  0.1608
 6991SOL    HW132606   0.588   2.770  16.928  0.8912 -0.1494 -2.0268
 6991SOL    HW232607   0.657   2.643  16.889  2.3653  1.0475  1.7951
 6992SOL     OW32608   2.467   0.402  15.828 -0.0873 -0.2583 -0.0277
 6992SOL    HW132609   2.558   0.432  15.827 -0.5029  0.9383 -1.4494
 6992SOL    HW232610   2.422   0.486  15.819  1.9965  0.9192  0.5864
 6993SOL     OW32611   2.764   3.609  17.205 -0.9171 -0.5760  0.2458
 6993SOL    HW132612   2.796   3.688  17.249 -0.0746  0.2168 -1.7455
 6993SOL    HW232613   2.837   3.548  17.221 -1.2208 -0.7635  0.9157
 6994SOL     OW32614   3.744   0.808   7.349  0.0996  0.2337  0.1298
 6994SOL    HW132615   3.751   0.785   7.441 -0.8636  1.1647  0.4345
 6994SOL    HW232616   3.649   0.794   7.346  0.2035 -0.2603 -1.1057
 6995SOL     OW32617   3.076   2.787  14.287 -0.0988  0.0352  0.5383
 6995SOL    HW132618   3.034   2.863  14.328  1.8962  1.6435 -0.3729
 6995SOL    HW232619   3.168   2.810  14.297 -0.3095 -0.1731  2.8581
 6996SOL     OW32620   0.426   2.228   2.808 -0.5091  0.3441  0.3213
 6996SOL    HW132621   0.415   2.237   2.713  1.6696 -1.1912 -0.0516
 6996SOL    HW232622   0.521   2.226   2.814 -0.3959 -0.4034 -1.4610
 6997SOL     OW32623   2.978   1.765   8.122  0.1094  0.1114  0.0730
 6997SOL    HW132624   3.031   1.836   8.087  0.3072  0.5664  1.3162
 6997SOL    HW232625   2.939   1.812   8.195 -2.0658 -0.6834 -0.5650
 6998SOL     OW32626   4.211   4.493   7.405  0.1660 -0.3549 -0.6295
 6998SOL    HW132627   4.118   4.514   7.413  0.4020  0.7182 -0.7631
 6998SOL    HW232628   4.254   4.558   7.460  0.1650 -1.7818  1.0863
 6999SOL     OW32629   2.990   2.611  14.054 -0.4957 -0.2357 -0.0729
 6999SOL    HW132630   3.020   2.676  13.990 -0.9519  0.2144  0.1672
 6999SOL    HW232631   3.007   2.654  14.138 -1.3027  1.0523 -0.5700
 7000SOL     OW32632   1.603   0.361  16.803  0.5464 -0.0107 -0.0811
 7000SOL    HW132633   1.643   0.374  16.889  1.4445 -0.1882 -0.4639
 7000SOL    HW232634   1.657   0.420  16.750  0.1403  1.1809  0.8482
 7001SOL     OW32635   2.428   3.113   2.787  0.1946  0.7080  0.4001
 7001SOL    HW132636   2.336   3.095   2.806  0.4635  0.7728  1.8244
 7001SOL    HW232637   2.438   3.097   2.694 -0.2091 -2.0422  0.8451
 7002SOL     OW32638   2.038   0.325   5.386 -0.2303 -0.4541  0.1452
 7002SOL    HW132639   1.952   0.330   5.430 -0.3594 -1.9244  0.0502
 7002SOL    HW232640   2.015   0.369   5.304  2.0822  2.6238  1.1272
 7003SOL     OW32641   0.751   3.743  10.207  0.3363 -0.7047  0.5241
 7003SOL    HW132642   0.826   3.694  10.241  0.1440 -0.5675  1.1503
 7003SOL    HW232643   0.781   3.748  10.116 -1.4596  1.2370  0.0415
 7004SOL     OW32644   0.906   2.855   2.501 -0.6684  0.2514 -0.3065
 7004SOL    HW132645   0.911   2.917   2.573  0.6047 -0.9947  0.6927
 7004SOL    HW232646   0.812   2.858   2.485 -0.7090  1.7424  0.2483
 7005SOL     OW32647   0.015   2.499  12.152  0.4723 -0.2994  0.2044
 7005SOL    HW132648   0.105   2.529  12.154  1.6639 -3.7762 -1.0161
 7005SOL    HW232649   0.013   2.454  12.067  0.4013  1.9440 -0.9835
 7006SOL     OW32650   3.286   0.111  15.526  0.6490  0.2666  0.1627
 7006SOL    HW132651   3.303   0.083  15.616 -0.5570 -0.8119  0.0586
 7006SOL    HW232652   3.283   0.206  15.540 -3.2351  0.0008  1.1952
 7007SOL     OW32653   3.557   1.489   8.459  0.4854 -0.3488 -0.5223
 7007SOL    HW132654   3.462   1.500   8.452  0.3406 -1.4651 -0.3620
 7007SOL    HW232655   3.572   1.543   8.536  1.8889 -1.0636 -0.3084
 7008SOL     OW32656   4.599   1.581   2.677  0.7520 -0.2260 -0.1156
 7008SOL    HW132657   4.591   1.533   2.594 -2.3577  2.6049 -1.4175
 7008SOL    HW232658   4.546   1.655   2.651  1.1868 -0.4723 -1.6962
 7009SOL     OW32659   4.442   3.567   1.805  0.1448 -0.1346 -0.5987
 7009SOL    HW132660   4.421   3.615   1.725 -2.0527  2.3488  1.4683
 7009SOL    HW232661   4.462   3.637   1.867 -2.0237  0.8204 -1.0019
 7010SOL     OW32662   2.027   3.668   5.924  0.0296 -0.2945  0.1813
 7010SOL    HW132663   2.090   3.693   5.856 -0.0056 -0.4254  0.0999
 7010SOL    HW232664   2.082   3.653   6.002  1.1960  0.8226 -0.4197
 7011SOL     OW32665   4.542   3.314   0.412 -0.4079 -0.4587  0.1532
 7011SOL    HW132666   4.624   3.289   0.370 -0.4716 -0.2930 -0.0740
 7011SOL    HW232667   4.569   3.302   0.503 -0.1918 -1.3284 -0.0365
 7012SOL     OW32668   1.254   0.974   5.435  0.7030  0.0381 -0.0146
 7012SOL    HW132669   1.220   1.029   5.505  0.5083 -0.6709  0.4457
 7012SOL    HW232670   1.315   1.034   5.392 -1.9011  2.2510 -0.5624
 7013SOL     OW32671   0.368   4.305   0.121 -0.6012  0.6068  0.7606
 7013SOL    HW132672   0.292   4.295   0.064  0.9172 -2.1881 -0.7868
 7013SOL    HW232673   0.335   4.370   0.183  0.0502 -0.2648  2.0304
 7014SOL     OW32674   4.484   0.148   9.758 -0.2183 -0.1181 -0.2493
 7014SOL    HW132675   4.427   0.083   9.717 -0.1386 -0.1242 -0.3478
 7014SOL    HW232676   4.571   0.111   9.750  0.3378  0.0555  4.5912
 7015SOL     OW32677   2.375   1.705   5.485  0.0926 -0.0079  0.4694
 7015SOL    HW132678   2.459   1.694   5.440 -0.1689  2.2248 -0.5436
 7015SOL    HW232679   2.314   1.653   5.433  2.6667 -1.4962 -1.1331
 7016SOL     OW32680   4.497   1.516   2.078  0.4128  0.0212  0.1579
 7016SOL    HW132681   4.557   1.473   2.139 -0.0064  1.1663  1.3869
 7016SOL    HW232682   4.533   1.496   1.992 -4.9066 -0.2250 -1.9328
 7017SOL     OW32683   3.206   3.852  11.738  0.8358  0.1730  0.3601
 7017SOL    HW132684   3.132   3.913  11.733  1.0752  0.5837  1.6206
 7017SOL    HW232685   3.173   3.768  11.707  3.3898  0.2856 -2.5718
 7018SOL     OW32686   0.336   3.780  14.860  0.4946 -0.7857  0.0844
 7018SOL    HW132687   0.271   3.717  14.891  0.9736 -0.4844  1.6964
 7018SOL    HW232688   0.416   3.733  14.886  0.8522  0.7821  1.8048
 7019SOL     OW32689   0.345   1.362   4.621  0.1403  0.3848  0.0560
 7019SOL    HW132690   0.342   1.457   4.624  2.3230  0.4724  0.0344
 7019SOL    HW232691   0.425   1.347   4.571  0.4526 -0.1185  0.7024
 7020SOL     OW32692   1.880   1.013   1.735 -0.3257  0.1124  0.0686
 7020SOL    HW132693   1.801   0.960   1.733  0.2039 -0.5835 -2.5115
 7020SOL    HW232694   1.865   1.046   1.646 -0.5670 -1.2398 -0.3873
 7021SOL     OW32695   4.714   1.203  11.947 -0.4172 -0.5389 -0.2391
 7021SOL    HW132696   0.017   1.120  11.954  0.6901  0.0897 -0.2115
 7021SOL    HW232697   0.011   1.241  11.869  0.5466 -1.5737 -0.2355
 7022SOL     OW32698   3.158   0.765   7.938  0.1424 -0.2740  0.2678
 7022SOL    HW132699   3.243   0.723   7.938  0.2707 -0.0181 -1.9469
 7022SOL    HW232700   3.160   0.809   7.853 -0.2121 -1.7000 -0.4753
 7023SOL     OW32701   3.157   2.336   1.850  0.0562 -0.3466 -0.7949
 7023SOL    HW132702   3.096   2.286   1.905  1.1732  0.1595  0.8959
 7023SOL    HW232703   3.221   2.267   1.837 -1.0946 -1.8166  1.2655
 7024SOL     OW32704   3.862   2.505   9.118 -0.5685  0.2267  0.4414
 7024SOL    HW132705   3.792   2.439   9.115 -1.0817  0.8808 -1.9272
 7024SOL    HW232706   3.819   2.578   9.162  0.5285  0.8301  0.4921
 7025SOL     OW32707   1.822   3.479  13.789  0.6640  0.4302  0.0055
 7025SOL    HW132708   1.875   3.517  13.719 -0.9665  1.3662 -0.7307
 7025SOL    HW232709   1.794   3.396  13.750 -0.1836  0.7833 -0.1363
 7026SOL     OW32710   2.541   0.418   5.184 -0.5596  0.0721  0.2417
 7026SOL    HW132711   2.604   0.347   5.174  2.1765  2.4142  1.0894
 7026SOL    HW232712   2.462   0.375   5.216 -1.0473  1.2213  0.5890
 7027SOL     OW32713   0.723   3.774  12.192 -0.1108  0.2887 -0.4306
 7027SOL    HW132714   0.681   3.748  12.110 -0.9409 -1.0990  0.4540
 7027SOL    HW232715   0.697   3.701  12.248  1.2165  1.7388  2.0612
 7028SOL     OW32716   2.617   3.041   9.218  0.0521  0.5461 -0.5261
 7028SOL    HW132717   2.664   3.118   9.185  1.2368 -1.4392 -3.5192
 7028SOL    HW232718   2.533   3.081   9.195 -0.1790 -0.6984 -1.8605
 7029SOL     OW32719   3.314   3.128   4.636 -0.2326 -0.2166 -0.8655
 7029SOL    HW132720   3.249   3.092   4.576 -0.2798 -1.0143 -0.3353
 7029SOL    HW232721   3.390   3.154   4.583  0.3997 -2.7579 -1.2150
 7030SOL     OW32722   2.744   2.472   9.745  0.0642  0.1833  0.4169
 7030SOL    HW132723   2.660   2.438   9.716 -0.1119  0.5642  0.4904
 7030SOL    HW232724   2.769   2.528   9.672 -0.2256  0.5543  0.6027
 7031SOL     OW32725   3.676   3.024   5.045  0.2258  0.2272  0.2250
 7031SOL    HW132726   3.610   3.092   5.055  0.6925  1.0232 -2.2421
 7031SOL    HW232727   3.661   3.003   4.953 -1.7852  1.8866  0.1870
 7032SOL     OW32728   1.214   0.232   1.816 -0.1465  0.3063 -0.0942
 7032SOL    HW132729   1.278   0.287   1.861  1.1314 -0.3504 -1.1196
 7032SOL    HW232730   1.150   0.296   1.784 -0.5966 -0.1983 -0.2032
 7033SOL     OW32731   2.604   3.807   8.442 -0.2465 -0.3153  0.0600
 7033SOL    HW132732   2.636   3.719   8.463  0.9459  0.2922  0.8211
 7033SOL    HW232733   2.596   3.812   8.346  0.2983  1.0130  0.0723
 7034SOL     OW32734   3.297   2.722   3.500 -0.6088 -0.1458  0.5364
 7034SOL    HW132735   3.275   2.766   3.581 -0.0506 -0.7834  1.0337
 7034SOL    HW232736   3.239   2.646   3.500 -0.4458 -0.2730 -1.0776
 7035SOL     OW32737   2.859   4.096   5.428  0.0921 -0.3767 -0.7467
 7035SOL    HW132738   2.942   4.080   5.383  2.3279  2.0252  2.5526
 7035SOL    HW232739   2.881   4.066   5.516 -1.1243 -0.1196 -0.3650
 7036SOL     OW32740   4.607   1.848   6.302  0.1684 -0.2457  0.2829
 7036SOL    HW132741   4.512   1.843   6.312  0.0775  0.8819 -0.0103
 7036SOL    HW232742   4.622   1.939   6.329 -1.6563 -0.0809  0.7855
 7037SOL     OW32743   0.911   0.309  15.513  0.1389 -0.3952 -0.4787
 7037SOL    HW132744   0.953   0.247  15.573 -0.1118  0.5052  0.6383
 7037SOL    HW232745   0.973   0.383  15.509  0.9878 -1.0440  0.6911
 7038SOL     OW32746   4.231   1.371  13.707 -0.2669 -0.1617 -0.0747
 7038SOL    HW132747   4.193   1.454  13.678  0.6729  0.6447  0.9634
 7038SOL    HW232748   4.150   1.321  13.703 -1.5960  1.9028  1.4837
 7039SOL     OW32749   1.204   4.317   2.343  0.7468  0.6085  0.4050
 7039SOL    HW132750   1.293   4.325   2.377  0.7040 -0.3742  0.7408
 7039SOL    HW232751   1.174   4.408   2.353  0.7153  0.6976 -0.5394
 7040SOL     OW32752   2.030   1.381   6.315 -0.4548  0.3990 -0.3337
 7040SOL    HW132753   2.102   1.319   6.317 -1.4775 -0.8160 -1.2420
 7040SOL    HW232754   1.954   1.323   6.311 -0.1019 -0.0962  0.2529
 7041SOL     OW32755   3.835   4.584  17.339 -0.3639 -0.3602  0.9982
 7041SOL    HW132756   3.822   4.675  17.365  1.3471  0.3202 -0.5299
 7041SOL    HW232757   3.867   4.603  17.251 -1.1508 -1.2369  0.5172
 7042SOL     OW32758   3.375   0.333   7.517  0.3487  0.3679 -0.4714
 7042SOL    HW132759   3.359   0.275   7.442  0.2881 -1.4815  0.9848
 7042SOL    HW232760   3.297   0.314   7.569 -0.2172 -0.7006 -1.7086
 7043SOL     OW32761   0.814   0.600  17.456 -0.0834 -0.1925  0.0336
 7043SOL    HW132762   0.790   0.511  17.483 -0.9672  0.3643  1.0893
 7043SOL    HW232763   0.907   0.597  17.480 -0.4905 -1.0642  1.4843
 7044SOL     OW32764   2.919   4.107   4.505  0.2710  0.0966 -0.3201
 7044SOL    HW132765   2.836   4.068   4.476 -0.5527  1.7261 -0.1394
 7044SOL    HW232766   2.975   4.079   4.432 -1.0949  0.9084 -1.6984
 7045SOL     OW32767   1.343   3.425   3.374  0.5819 -0.2757 -0.7173
 7045SOL    HW132768   1.349   3.516   3.347 -4.1843  0.2957  0.3034
 7045SOL    HW232769   1.426   3.391   3.339  0.4144 -1.8792  0.4342
 7046SOL     OW32770   4.245   3.982   6.675 -0.1081 -0.1728  0.2292
 7046SOL    HW132771   4.151   3.984   6.694  0.3409  1.1311  2.2665
 7046SOL    HW232772   4.243   3.993   6.580  0.9554  0.1664  0.2475
 7047SOL     OW32773   1.160   3.759   6.861 -0.0508 -0.1046 -0.1959
 7047SOL    HW132774   1.113   3.735   6.781 -1.8798 -1.8384  1.3951
 7047SOL    HW232775   1.171   3.674   6.904  1.2921 -0.7818 -1.8979
 7048SOL     OW32776   2.287   1.209   2.412 -0.4179  0.0487 -0.1175
 7048SOL    HW132777   2.380   1.210   2.391 -0.1892 -1.4585  0.8824
 7048SOL    HW232778   2.266   1.116   2.416  0.3043 -0.1539 -1.0021
 7049SOL     OW32779   0.613   3.548   0.429  0.1661 -0.3127 -0.3647
 7049SOL    HW132780   0.536   3.530   0.374 -0.9187  0.2533  0.9463
 7049SOL    HW232781   0.676   3.564   0.359  0.0769 -1.4385 -0.7098
 7050SOL     OW32782   2.426   1.227   8.183 -0.4171 -0.2036  0.4396
 7050SOL    HW132783   2.443   1.242   8.276 -1.2537  1.9071  0.2480
 7050SOL    HW232784   2.494   1.275   8.136  0.0900 -0.2388  1.1507
 7051SOL     OW32785   0.408   0.008  16.455 -0.4201  0.4629 -0.2391
 7051SOL    HW132786   0.369   4.682  16.508  1.0833 -0.2040  0.0143
 7051SOL    HW232787   0.403   0.084  16.512  2.6096  1.6746 -1.5556
 7052SOL     OW32788   1.270   3.287   6.876  0.3585 -0.0163  0.0169
 7052SOL    HW132789   1.342   3.350   6.878  0.1615  0.2218 -0.4107
 7052SOL    HW232790   1.198   3.346   6.855  0.0175 -0.1278  0.8673
 7053SOL     OW32791   3.264   1.170   8.564  0.0728 -0.2090  0.0768
 7053SOL    HW132792   3.279   1.080   8.593  1.2349  0.2154  0.7935
 7053SOL    HW232793   3.347   1.188   8.519  1.2666  0.2480  2.4629
 7054SOL     OW32794   0.753   1.339   4.816 -0.6364  0.6019  0.4472
 7054SOL    HW132795   0.719   1.409   4.872 -0.3325  0.6356  0.5897
 7054SOL    HW232796   0.766   1.395   4.740  1.3179 -0.5459 -0.0537
 7055SOL     OW32797   0.288   3.473   4.208 -0.2153 -0.1282 -0.5687
 7055SOL    HW132798   0.285   3.462   4.113 -0.0498 -2.9854 -0.2456
 7055SOL    HW232799   0.219   3.540   4.210 -0.1444 -0.1143  2.1235
 7056SOL     OW32800   2.596   2.301  11.657 -0.2869 -0.2331 -0.0542
 7056SOL    HW132801   2.626   2.390  11.674 -0.1763 -0.3866  0.5508
 7056SOL    HW232802   2.633   2.260  11.735  0.3616  0.4932  0.0245
 7057SOL     OW32803   2.736   0.735  10.037 -0.1038 -0.2637  0.5370
 7057SOL    HW132804   2.778   0.818  10.055  0.8610 -0.7355  0.4670
 7057SOL    HW232805   2.657   0.747  10.090 -0.1537 -1.8705  0.8286
 7058SOL     OW32806   1.329   3.634   0.830  0.3400  0.0700  0.2991
 7058SOL    HW132807   1.301   3.720   0.859  0.4800  0.4356 -0.6565
 7058SOL    HW232808   1.246   3.587   0.837  0.0429  0.5067 -0.3328
 7059SOL     OW32809   2.474   0.924   9.967  0.0715 -0.1405 -0.4721
 7059SOL    HW132810   2.514   0.955  10.048  0.1835 -1.6157  0.0423
 7059SOL    HW232811   2.416   0.999   9.952  0.5919  0.2002 -0.7696
 7060SOL     OW32812   0.045   1.654   6.385 -0.3284  0.0918 -0.3022
 7060SOL    HW132813   4.728   1.725   6.367  0.0579  0.6055  0.4128
 7060SOL    HW232814   4.743   1.579   6.347  0.5178 -0.1550 -0.8381
 7061SOL     OW32815   0.886   2.445  17.307  0.0081 -0.2771 -0.0626
 7061SOL    HW132816   0.866   2.495  17.228 -0.2059  2.1841  1.5253
 7061SOL    HW232817   0.839   2.364  17.289  1.2761 -0.9098 -0.5250
 7062SOL     OW32818   3.082   0.583  16.504  0.4253  0.6938 -0.5597
 7062SOL    HW132819   2.996   0.541  16.509  0.6731  0.2443  0.0208
 7062SOL    HW232820   3.085   0.621  16.416  0.2632 -0.4703 -1.0654
 7063SOL     OW32821   3.994   0.716   4.593 -0.2820  0.8352 -0.2334
 7063SOL    HW132822   4.083   0.686   4.575 -1.4112 -2.4784 -0.2846
 7063SOL    HW232823   4.010   0.809   4.581  0.3869  0.7649  0.1225
 7064SOL     OW32824   1.071   4.595   9.374 -0.1403 -0.3727 -0.3714
 7064SOL    HW132825   1.058   4.503   9.353 -2.9185 -0.4993  1.8519
 7064SOL    HW232826   1.028   4.600   9.459 -0.1542  0.3456 -0.4174
 7065SOL     OW32827   1.188   2.560   0.263 -0.4431 -0.2378 -0.2570
 7065SOL    HW132828   1.264   2.553   0.206 -0.7421  0.9121 -0.7947
 7065SOL    HW232829   1.119   2.557   0.198 -1.0617  0.0404  0.3910
 7066SOL     OW32830   0.685   4.157   9.868 -0.3285  0.2526  0.5675
 7066SOL    HW132831   0.722   4.102   9.798 -1.7972  0.8560 -0.6585
 7066SOL    HW232832   0.597   4.172   9.835  0.5916  0.2122 -1.9271
 7067SOL     OW32833   1.912   3.696   8.926 -0.0625 -0.2958 -0.6262
 7067SOL    HW132834   1.841   3.696   8.862 -2.5019 -2.8918  2.0856
 7067SOL    HW232835   1.865   3.644   8.991  0.7107 -0.7591 -0.4381
 7068SOL     OW32836   4.111   3.624   7.390  0.6425 -0.1211 -0.5341
 7068SOL    HW132837   4.127   3.577   7.472 -2.1919  0.1757  0.1912
 7068SOL    HW232838   4.152   3.554   7.339  1.4393  0.1512 -0.2689
 7069SOL     OW32839   2.688   4.212   9.367  0.1134 -0.0685 -0.0703
 7069SOL    HW132840   2.754   4.146   9.390 -0.0552 -0.7850 -1.6016
 7069SOL    HW232841   2.613   4.155   9.349 -0.3545  0.2049  1.0605
 7070SOL     OW32842   1.444   3.793   2.979 -0.1632  0.1336  0.3526
 7070SOL    HW132843   1.387   3.811   2.904  1.4792 -0.0016 -0.9278
 7070SOL    HW232844   1.447   3.876   3.027  1.3004  0.7222 -0.7903
 7071SOL     OW32845   1.751   3.262  10.718  0.0995  0.3692 -0.4386
 7071SOL    HW132846   1.746   3.174  10.680 -0.1118  0.3997 -0.4797
 7071SOL    HW232847   1.826   3.259  10.778  0.2633 -0.5575 -0.6939
 7072SOL     OW32848   3.372   2.876   2.689  0.1132 -0.5584  0.8741
 7072SOL    HW132849   3.295   2.853   2.638  1.3314 -2.3363 -0.1580
 7072SOL    HW232850   3.334   2.923   2.763 -1.2124 -1.4796  0.7623
 7073SOL     OW32851   3.975   1.345   6.240  0.5803 -0.2280  0.6190
 7073SOL    HW132852   4.045   1.286   6.212  1.0533  1.2831 -1.3922
 7073SOL    HW232853   3.924   1.310   6.313 -0.8072 -0.7113 -0.5965
 7074SOL     OW32854   1.441   0.439  13.418  0.6029 -0.6229 -0.4577
 7074SOL    HW132855   1.397   0.393  13.490  1.1029 -1.2662 -0.5634
 7074SOL    HW232856   1.369   0.458  13.358  2.0172 -1.6776 -2.4822
 7075SOL     OW32857   3.504   2.099   6.073  0.4006  0.1748 -0.0576
 7075SOL    HW132858   3.512   2.127   5.982 -0.3759  0.4915 -0.0285
 7075SOL    HW232859   3.496   2.006   6.054  1.7469  0.4954 -2.1858
 7076SOL     OW32860   2.224   3.733  16.166  0.3311  0.5382  0.1619
 7076SOL    HW132861   2.205   3.679  16.242 -0.1022 -0.4727 -0.6764
 7076SOL    HW232862   2.158   3.704  16.103  0.7992  1.4336 -0.7661
 7077SOL     OW32863   2.539   4.037  17.115 -0.7858  0.3742 -0.0683
 7077SOL    HW132864   2.513   4.036  17.023 -0.5341 -2.5218 -0.0927
 7077SOL    HW232865   2.474   3.989  17.167 -2.0992 -0.0600 -2.1493
 7078SOL     OW32866   0.507   0.396   0.850  0.7156  0.8647  0.8825
 7078SOL    HW132867   0.542   0.483   0.837 -1.0771  1.5497  0.6777
 7078SOL    HW232868   0.416   0.409   0.823  1.2163  0.0795 -1.1527
 7079SOL     OW32869   0.538   1.309   1.085  0.0872  0.6302  0.2218
 7079SOL    HW132870   0.575   1.398   1.081 -0.1175  0.7044 -0.1078
 7079SOL    HW232871   0.579   1.271   1.007 -1.8521  0.7756 -0.8677
 7080SOL     OW32872   1.791   2.600   9.448 -0.3659  0.3424  0.0364
 7080SOL    HW132873   1.713   2.639   9.408 -0.0418  0.5591 -0.3847
 7080SOL    HW232874   1.839   2.680   9.470  1.7691 -0.5632 -1.3895
 7081SOL     OW32875   3.351   0.541   4.654 -0.1796  0.2551  0.0801
 7081SOL    HW132876   3.320   0.612   4.711  2.4813  2.5033 -1.2732
 7081SOL    HW232877   3.291   0.555   4.580  0.1571 -0.1920 -0.2766
 7082SOL     OW32878   0.897   3.343   5.874 -0.2130 -0.0292  0.1161
 7082SOL    HW132879   0.921   3.418   5.820 -0.1845 -1.2991 -1.6755
 7082SOL    HW232880   0.890   3.272   5.809  2.5904 -0.6540  0.4741
 7083SOL     OW32881   0.861   1.200  11.936 -0.7907 -1.6188  0.0864
 7083SOL    HW132882   0.937   1.211  11.879 -0.1031 -0.5635  1.1934
 7083SOL    HW232883   0.857   1.291  11.967  0.0095 -2.1732  1.8285
 7084SOL     OW32884   3.199   2.250   8.727  0.0413 -0.0498  0.0553
 7084SOL    HW132885   3.189   2.193   8.651  0.3867  0.1142 -0.1108
 7084SOL    HW232886   3.280   2.296   8.707  0.7032 -0.5083  1.7031
 7085SOL     OW32887   1.897   4.258   8.775 -0.7564  0.2178 -0.4077
 7085SOL    HW132888   1.913   4.164   8.781 -0.2883  0.2863 -0.5997
 7085SOL    HW232889   1.984   4.296   8.770 -0.6398  0.2084  1.6241
 7086SOL     OW32890   2.721   0.207   1.982  0.4039  0.8906 -0.2853
 7086SOL    HW132891   2.683   0.121   1.998 -0.5439  1.0825 -1.4837
 7086SOL    HW232892   2.644   0.254   2.015  0.5263  1.2294 -0.4851
 7087SOL     OW32893   3.905   4.692  16.763  0.4364  0.1865 -0.1901
 7087SOL    HW132894   3.981   4.643  16.734 -0.1927 -0.5690 -0.5630
 7087SOL    HW232895   3.894   0.009  16.690 -0.3343  0.7667  0.3923
 7088SOL     OW32896   4.396   4.280  14.751 -0.1581  0.5374  0.2947
 7088SOL    HW132897   4.437   4.193  14.747  2.9200  1.9837 -0.2579
 7088SOL    HW232898   4.307   4.265  14.720  0.2510 -1.7787  0.1916
 7089SOL     OW32899   3.336   4.006   6.918 -0.5191  0.7607 -0.0347
 7089SOL    HW132900   3.356   3.960   6.837  0.5839 -0.7840  1.1056
 7089SOL    HW232901   3.401   3.973   6.980  0.8665 -0.7930 -2.3118
 7090SOL     OW32902   0.134   2.982  17.445  0.4582  0.1776 -0.1158
 7090SOL    HW132903   0.127   2.997  17.351 -0.9408  0.9111  0.1136
 7090SOL    HW232904   0.044   2.959  17.467  1.2063 -3.3628 -0.6784
 7091SOL     OW32905   1.012   3.734  12.213 -0.2740 -0.3536 -1.0276
 7091SOL    HW132906   0.917   3.747  12.208  0.0340  2.2229  0.0405
 7091SOL    HW232907   1.044   3.682  12.140  1.2112 -0.0751 -0.5620
 7092SOL     OW32908   4.189   1.263  16.845  0.3125  0.3819 -0.1742
 7092SOL    HW132909   4.264   1.259  16.904  0.9044  1.5786 -0.8551
 7092SOL    HW232910   4.156   1.175  16.865  1.8449  0.0257  0.7421
 7093SOL     OW32911   2.221   0.225   2.477 -0.0865 -0.3522  0.3678
 7093SOL    HW132912   2.158   0.297   2.483  0.6653  0.2978  0.6320
 7093SOL    HW232913   2.233   0.205   2.384 -0.8067 -1.5109  0.5293
 7094SOL     OW32914   2.210   2.440   4.803  0.5510  0.7513 -0.6822
 7094SOL    HW132915   2.166   2.466   4.722  1.7021  1.2654 -1.1385
 7094SOL    HW232916   2.131   2.439   4.857  0.9554 -2.5592 -0.1393
 7095SOL     OW32917   1.343   1.959   3.999 -0.3413  0.1622 -0.1846
 7095SOL    HW132918   1.332   1.938   4.092  1.7669 -1.1006 -0.2308
 7095SOL    HW232919   1.408   2.028   4.010  0.9785 -1.0807 -0.0733
 7096SOL     OW32920   0.103   2.385   8.803  0.1958  0.4022  0.4736
 7096SOL    HW132921   0.051   2.445   8.751 -1.8196 -2.1130 -0.4235
 7096SOL    HW232922   0.182   2.364   8.753  0.9361  1.1807  1.3293
 7097SOL     OW32923   3.731   1.529  12.277 -0.1586 -0.2836  0.3494
 7097SOL    HW132924   3.641   1.553  12.302  0.4681  0.2181  2.1742
 7097SOL    HW232925   3.773   1.612  12.255  0.5426 -0.7703 -0.1198
 7098SOL     OW32926   0.870   1.502  11.124  0.1083 -0.4037  0.0214
 7098SOL    HW132927   0.806   1.531  11.060 -0.1519  1.9566  1.3554
 7098SOL    HW232928   0.815   1.508  11.202 -1.2749  0.5316 -1.0377
 7099SOL     OW32929   1.204   2.356   0.996 -1.0412 -0.9646 -0.5702
 7099SOL    HW132930   1.178   2.290   1.061  0.6762 -0.7166  0.3601
 7099SOL    HW232931   1.168   2.437   1.031  2.3867  1.3769 -2.5380
 7100SOL     OW32932   4.484   2.905   7.033  0.2360 -0.1818 -0.0530
 7100SOL    HW132933   4.503   2.996   7.057  1.3910 -0.8095  1.3351
 7100SOL    HW232934   4.454   2.922   6.943 -0.0525 -0.3052  0.0193
 7101SOL     OW32935   4.240   4.436   5.235  0.5008  0.3365 -0.5108
 7101SOL    HW132936   4.152   4.400   5.223  0.6866 -0.5875  0.9087
 7101SOL    HW232937   4.232   4.474   5.322 -3.5541  0.5288 -0.9423
 7102SOL     OW32938   0.965   0.096  16.869 -0.2031 -0.0407  0.1146
 7102SOL    HW132939   0.963   0.159  16.941  3.4614 -0.0258  0.1769
 7102SOL    HW232940   0.959   0.021  16.929 -0.5334  0.3130  0.5267
 7103SOL     OW32941   3.675   2.672   9.259  0.6732  0.7117  0.1599
 7103SOL    HW132942   3.726   2.702   9.334 -0.7782  1.9623  0.6353
 7103SOL    HW232943   3.672   2.758   9.218  0.9485  0.9561  0.6475
 7104SOL     OW32944   0.683   0.346   2.375  0.5103  0.3940 -0.3417
 7104SOL    HW132945   0.728   0.375   2.454  1.2752  0.7086 -0.8869
 7104SOL    HW232946   0.745   0.278   2.346  0.3107 -0.1552  0.5369
 7105SOL     OW32947   0.719   3.347   1.489 -0.0073  0.1540  0.7405
 7105SOL    HW132948   0.654   3.285   1.520  0.3642 -0.5591  0.1068
 7105SOL    HW232949   0.706   3.420   1.549 -0.9355  1.0452 -0.5351
 7106SOL     OW32950   0.679   2.964   5.362  0.7258  0.0811  0.0842
 7106SOL    HW132951   0.654   2.926   5.446 -0.4964 -0.3427 -0.4771
 7106SOL    HW232952   0.713   3.051   5.384 -2.1999  1.1178  0.4486
 7107SOL     OW32953   4.148   4.066   9.455  0.2592  0.0250 -0.0012
 7107SOL    HW132954   4.189   3.984   9.427  0.0190 -0.2862  0.5564
 7107SOL    HW232955   4.110   4.032   9.536  0.4060  2.4266  1.0867
 7108SOL     OW32956   1.341   3.870  11.834 -0.5013 -0.6354  0.9854
 7108SOL    HW132957   1.375   3.955  11.805 -0.0187 -0.7216  1.2875
 7108SOL    HW232958   1.246   3.883  11.840 -0.7991 -1.9977 -0.9392
 7109SOL     OW32959   2.156   2.177   9.111  0.2384  0.1470  0.0603
 7109SOL    HW132960   2.077   2.132   9.080 -0.5817  2.1710 -0.7625
 7109SOL    HW232961   2.214   2.101   9.105  0.0711  0.1711 -1.8336
 7110SOL     OW32962   0.128   0.734   1.541  0.1984 -0.4976  0.3092
 7110SOL    HW132963   0.046   0.710   1.498  0.1554  0.5635 -0.1899
 7110SOL    HW232964   0.098   0.726   1.632 -1.9070 -3.4268 -0.6554
 7111SOL     OW32965   4.192   4.208   7.163 -0.5548  0.1131 -0.5726
 7111SOL    HW132966   4.125   4.238   7.102  2.3078  2.7119 -2.3991
 7111SOL    HW232967   4.261   4.173   7.107 -1.1102  0.9389 -1.7661
 7112SOL     OW32968   0.599   4.661   2.988  0.3756  0.1364  0.1834
 7112SOL    HW132969   0.616   4.573   3.021  0.1885  0.3013  0.7215
 7112SOL    HW232970   0.505   4.654   2.972  0.5877  0.9597 -1.4442
 7113SOL     OW32971   4.111   0.113   1.218  0.2344 -0.0575  0.2986
 7113SOL    HW132972   4.076   0.175   1.281  0.9938 -1.4679  2.0871
 7113SOL    HW232973   4.033   0.085   1.169  0.1540 -3.1789  2.2002
 7114SOL     OW32974   1.100   1.421   3.104  0.4099  0.4355  0.4557
 7114SOL    HW132975   1.168   1.469   3.151  0.3660  0.9578 -0.0080
 7114SOL    HW232976   1.135   1.416   3.014 -1.1503  4.1474 -0.3791
 7115SOL     OW32977   4.681   0.149   9.187 -0.0826  0.0800 -0.3079
 7115SOL    HW132978   0.027   0.182   9.173  0.6180 -2.7891 -2.4912
 7115SOL    HW232979   4.667   0.109   9.101  0.1791 -0.5307 -0.0611
 7116SOL     OW32980   1.145   2.386   1.419  0.2629  0.7898  0.1641
 7116SOL    HW132981   1.165   2.319   1.484 -0.1840 -1.0714 -1.6116
 7116SOL    HW232982   1.225   2.439   1.418 -0.1784  1.5484  3.6628
 7117SOL     OW32983   2.638   3.531  10.651  0.5361 -0.0453 -0.5308
 7117SOL    HW132984   2.564   3.545  10.592  0.6989 -0.9452 -0.9485
 7117SOL    HW232985   2.691   3.471  10.598  2.2206 -0.4523  1.5907
 7118SOL     OW32986   3.110   2.495   5.686 -0.1077 -0.7086  0.2728
 7118SOL    HW132987   3.100   2.462   5.597  0.9602 -0.5269  0.0803
 7118SOL    HW232988   3.195   2.539   5.680 -1.6583  2.2408 -0.3062
 7119SOL     OW32989   0.169   1.946   5.868 -0.1442 -0.2214  0.5030
 7119SOL    HW132990   0.122   1.863   5.872 -1.2924  0.4167 -0.0811
 7119SOL    HW232991   0.121   2.002   5.929  0.5601  1.0480 -0.0982
 7120SOL     OW32992   3.073   0.072   6.230  0.3308  0.2328 -0.2273
 7120SOL    HW132993   3.161   0.053   6.197  0.3108  0.5823 -0.4848
 7120SOL    HW232994   3.085   0.142   6.294  4.2587 -0.5521 -0.0844
 7121SOL     OW32995   2.513   1.515   1.138  0.7827  0.3463 -0.0860
 7121SOL    HW132996   2.460   1.527   1.216  0.8999  2.3653 -0.3300
 7121SOL    HW232997   2.548   1.603   1.127  2.5843 -0.4518 -0.8450
 7122SOL     OW32998   4.407   3.999  14.950  0.4836 -0.1536 -0.1108
 7122SOL    HW132999   4.445   4.080  14.984 -1.6017  1.5942 -1.9779
 7122SOL    HW233000   4.339   3.989  15.016 -0.1952 -1.8651 -1.0654
 7123SOL     OW33001   1.430   3.252   5.660 -0.3948  0.1201  0.0288
 7123SOL    HW133002   1.476   3.295   5.588 -0.1833 -0.3763 -0.1352
 7123SOL    HW233003   1.476   3.169   5.676 -0.5845  0.2378  1.1765
 7124SOL     OW33004   0.805   2.641  17.133 -0.6293 -0.2591  0.4151
 7124SOL    HW133005   0.821   2.713  17.194  0.2843 -0.3179  0.2536
 7124SOL    HW233006   0.725   2.669  17.089  1.4369  0.6942 -2.7643
 7125SOL     OW33007   4.471   2.794   7.301  0.3399  0.4056 -0.1290
 7125SOL    HW133008   4.473   2.808   7.206  0.3565 -0.4382 -0.2486
 7125SOL    HW233009   4.480   2.887   7.325  0.9700  0.2016  0.4247
 7126SOL     OW33010   3.829   3.520  10.493 -0.2565  0.0515  0.1155
 7126SOL    HW133011   3.744   3.493  10.461 -0.0948  0.5680 -0.7434
 7126SOL    HW233012   3.798   3.600  10.535  1.3865 -0.1640  1.7630
 7127SOL     OW33013   3.176   2.442  11.710 -0.2748  0.2404 -0.5242
 7127SOL    HW133014   3.145   2.532  11.706 -2.8024 -0.4982  2.5926
 7127SOL    HW233015   3.229   2.440  11.789  3.5091 -1.1273 -3.0907
 7128SOL     OW33016   0.675   0.092   0.908 -0.2168  0.4522  0.3961
 7128SOL    HW133017   0.692   0.020   0.968 -0.8483  0.5527  0.6935
 7128SOL    HW233018   0.587   0.120   0.933 -0.1330  0.8528  0.2377
 7129SOL     OW33019   4.342   0.708   3.508  0.1525  0.1948 -0.1224
 7129SOL    HW133020   4.295   0.656   3.573  0.2246 -0.6188 -0.7301
 7129SOL    HW233021   4.329   0.797   3.541  0.7049  0.3769 -0.3925
 7130SOL     OW33022   4.561   0.045   8.971 -0.3275 -0.3551  0.0827
 7130SOL    HW133023   4.496   0.035   9.040 -0.5009 -2.5298 -0.3884
 7130SOL    HW233024   4.535   0.134   8.949  0.5106 -0.2003 -0.2757
 7131SOL     OW33025   2.501   1.475   9.093 -0.4817  0.2190 -0.2388
 7131SOL    HW133026   2.575   1.448   9.039 -0.3011  0.5511 -0.1625
 7131SOL    HW233027   2.458   1.542   9.039 -0.4107  0.6110  0.1818
 7132SOL     OW33028   1.387   2.439  14.213 -0.0916 -0.2646  0.1876
 7132SOL    HW133029   1.427   2.455  14.128 -1.9648  0.5969 -0.5152
 7132SOL    HW233030   1.317   2.382  14.181 -0.7112 -1.0941  3.0030
 7133SOL     OW33031   0.134   4.318   1.100  0.0455 -0.5937  0.6670
 7133SOL    HW133032   0.174   4.379   1.038  0.1567  0.4568  1.7773
 7133SOL    HW233033   0.213   4.276   1.133 -0.3972 -0.3568  2.0490
 7134SOL     OW33034   0.030   3.599  11.229 -0.2228 -0.2625  0.1967
 7134SOL    HW133035   0.050   3.507  11.247  1.8748  0.5680  2.0574
 7134SOL    HW233036   0.115   3.621  11.190 -1.0365  1.6690 -0.4724
 7135SOL     OW33037   0.368   2.797  13.283 -0.1641  0.4058  0.2607
 7135SOL    HW133038   0.421   2.717  13.286  0.2802  0.6838 -0.4490
 7135SOL    HW233039   0.409   2.849  13.352 -0.4997  0.9234  0.0655
 7136SOL     OW33040   1.890   0.882   6.313 -0.0010 -0.5091 -1.0125
 7136SOL    HW133041   1.969   0.850   6.356  0.3310  0.8407 -0.6115
 7136SOL    HW233042   1.919   0.912   6.227  0.5771  5.0333  1.1103
 7137SOL     OW33043   3.424   1.447  10.481 -0.0538 -0.3731 -0.1240
 7137SOL    HW133044   3.505   1.489  10.452 -0.9237  0.6100 -1.0982
 7137SOL    HW233045   3.452   1.387  10.550  0.6782 -3.3688 -3.0136
 7138SOL     OW33046   4.094   1.584   3.726 -0.4459  0.3164 -0.1456
 7138SOL    HW133047   4.071   1.599   3.818 -0.3814 -0.2902 -0.0307
 7138SOL    HW233048   4.013   1.583   3.674 -1.1548 -0.2204  0.9643
 7139SOL     OW33049   3.739   1.500   8.834 -0.6545  0.0215  0.6239
 7139SOL    HW133050   3.687   1.535   8.906  1.5147  3.2198  0.6221
 7139SOL    HW233051   3.694   1.416   8.825 -2.5589  1.0517  0.7329
 7140SOL     OW33052   1.188   1.193   2.295  0.2621  0.1041 -0.4219
 7140SOL    HW133053   1.209   1.214   2.204  0.2850  0.6872 -0.2794
 7140SOL    HW233054   1.261   1.146   2.335 -0.8299  0.6389  2.2617
 7141SOL     OW33055   0.076   0.545   2.586 -0.2645 -0.2645  0.4158
 7141SOL    HW133056   4.738   0.524   2.540 -0.0144 -1.0586  0.3295
 7141SOL    HW233057   0.040   0.611   2.645  0.5695  0.2858  0.3059
 7142SOL     OW33058   4.393   1.897   5.192 -0.3073 -0.3802 -0.4704
 7142SOL    HW133059   4.477   1.857   5.213 -1.3915 -1.5083  1.6730
 7142SOL    HW233060   4.399   1.886   5.097 -0.7768 -0.3917 -0.4964
 7143SOL     OW33061   2.450   3.674   7.599 -0.2247  0.0403  0.2310
 7143SOL    HW133062   2.477   3.584   7.584 -1.0451 -0.1680  0.0416
 7143SOL    HW233063   2.389   3.684   7.526 -1.0953  0.9359  1.0788
 7144SOL     OW33064   1.934   0.838  13.247  0.1335  0.3276  0.1094
 7144SOL    HW133065   2.029   0.831  13.242  0.1575 -0.0654  1.1869
 7144SOL    HW233066   1.935   0.874  13.158 -1.8706 -0.5824 -0.2900
 7145SOL     OW33067   0.520   4.018   3.900  0.2289 -0.0674 -0.4050
 7145SOL    HW133068   0.475   4.014   3.816 -1.5302  1.4379  0.4488
 7145SOL    HW233069   0.483   3.943   3.947  1.2799 -1.4347 -1.7678
 7146SOL     OW33070   4.334   3.482   5.159  0.5506 -0.2742 -0.0839
 7146SOL    HW133071   4.369   3.459   5.073  0.7649 -0.3515  0.0241
 7146SOL    HW233072   4.288   3.404   5.191 -0.0801 -0.0958 -0.5444
 7147SOL     OW33073   3.048   2.416   1.303  0.5332  0.3126 -0.1758
 7147SOL    HW133074   2.977   2.468   1.265  1.0409 -0.1952 -1.7858
 7147SOL    HW233075   3.113   2.429   1.234  0.4737 -2.4543 -0.7223
 7148SOL     OW33076   4.727   2.374   2.243  0.1190 -0.1929 -0.0234
 7148SOL    HW133077   4.727   2.369   2.338 -0.8638  2.3361  0.1291
 7148SOL    HW233078   4.648   2.323   2.228 -0.9533  1.4984 -0.1948
 7149SOL     OW33079   3.124   1.938   0.990 -0.1805 -0.2206  0.2794
 7149SOL    HW133080   3.047   1.955   0.936  0.8512 -0.5811 -1.2982
 7149SOL    HW233081   3.099   1.975   1.074  0.6690  0.2066  0.3460
 7150SOL     OW33082   0.034   3.104   6.351 -0.1544 -0.2271  0.5000
 7150SOL    HW133083   4.692   3.131   6.384 -0.1804 -0.4592  0.6158
 7150SOL    HW233084   0.046   3.023   6.400 -1.6636 -1.6790 -1.5742
 7151SOL     OW33085   4.733   0.678   8.858 -0.1022 -0.6329 -0.1525
 7151SOL    HW133086   4.697   0.646   8.941  0.5769  0.6441  0.6332
 7151SOL    HW233087   0.066   0.621   8.849  0.7907  0.4906  0.2505
 7152SOL     OW33088   3.767   3.564   2.868 -0.1815 -0.0566 -0.5039
 7152SOL    HW133089   3.712   3.513   2.929  2.1753 -1.8293  0.1265
 7152SOL    HW233090   3.761   3.657   2.887 -0.8211 -0.2585  0.2858
 7153SOL     OW33091   0.468   3.151   1.518 -0.1996 -0.3638 -0.0161
 7153SOL    HW133092   0.424   3.066   1.520  3.5751 -2.3184 -0.6583
 7153SOL    HW233093   0.416   3.202   1.580  1.5690  1.6314 -0.1397
 7154SOL     OW33094   2.895   1.304   5.750  0.5594 -0.4891 -0.0017
 7154SOL    HW133095   2.830   1.358   5.705  1.1926 -1.9964 -2.6925
 7154SOL    HW233096   2.948   1.261   5.683 -1.5730 -0.9052 -1.4344
 7155SOL     OW33097   4.179   3.940   0.056  0.8869 -0.0706  0.3199
 7155SOL    HW133098   4.107   4.002   0.063  1.2054  0.1954  1.2985
 7155SOL    HW233099   4.245   3.963   0.121  1.0210  0.7738 -0.1192
 7156SOL     OW33100   0.256   1.642  15.079 -0.0795  0.3378  0.1439
 7156SOL    HW133101   0.331   1.648  15.139 -1.5978  1.5364  1.9190
 7156SOL    HW233102   0.304   1.609  15.004 -1.3987 -2.4393  0.5311
 7157SOL     OW33103   2.056   3.441   9.158  0.4431  0.1375  0.3201
 7157SOL    HW133104   2.107   3.412   9.083  0.6506 -0.5479  0.7308
 7157SOL    HW233105   2.035   3.353   9.189 -1.7513  0.6988  0.4704
 7158SOL     OW33106   2.225   2.389   9.426  0.8535 -0.0816 -0.6045
 7158SOL    HW133107   2.281   2.314   9.444  0.9884  0.3166  0.6192
 7158SOL    HW233108   2.272   2.457   9.473 -0.7430  1.7615 -1.6416
 7159SOL     OW33109   2.945   2.609   6.515 -0.1694  0.5170 -0.1416
 7159SOL    HW133110   2.930   2.618   6.421 -0.8895 -0.2228 -0.1001
 7159SOL    HW233111   3.029   2.562   6.512  0.4041  1.6622 -2.3630
 7160SOL     OW33112   2.779   4.529   3.262  0.0485  0.2323  0.1830
 7160SOL    HW133113   2.839   4.603   3.257  0.7893 -0.5136 -1.9739
 7160SOL    HW233114   2.802   4.486   3.344  1.6977  2.0173  0.6499
 7161SOL     OW33115   2.864   2.436   4.227 -0.3210  0.1357  0.8646
 7161SOL    HW133116   2.882   2.343   4.238 -0.9037 -0.1723 -0.7685
 7161SOL    HW233117   2.892   2.473   4.310  1.6811  1.3066 -0.3420
 7162SOL     OW33118   2.814   0.149   8.016 -0.1005  0.0258  0.0322
 7162SOL    HW133119   2.729   0.109   7.997 -0.7376  2.3082 -1.8466
 7162SOL    HW233120   2.852   0.159   7.929 -0.4222  0.6689 -0.0316
 7163SOL     OW33121   0.483   1.881   8.393  0.1393 -0.5608  0.0887
 7163SOL    HW133122   0.564   1.866   8.442  1.2189 -0.5811 -1.6655
 7163SOL    HW233123   0.426   1.808   8.417 -0.1926 -0.6344 -0.9146
 7164SOL     OW33124   4.550   3.552   6.096 -0.1309  0.4155  0.0647
 7164SOL    HW133125   4.619   3.613   6.120 -0.5212  1.3382 -1.1549
 7164SOL    HW233126   4.564   3.493   6.170 -0.3396 -2.4185 -2.1591
 7165SOL     OW33127   2.793   1.005   1.024  0.0979 -0.1249 -0.1163
 7165SOL    HW133128   2.772   0.926   0.974 -1.5915  0.2807 -0.0613
 7165SOL    HW233129   2.817   1.059   0.949 -0.5890 -1.4519 -1.2982
 7166SOL     OW33130   2.323   3.007   6.270 -0.0105  0.0337  0.5630
 7166SOL    HW133131   2.354   3.097   6.278  0.1431  0.0345 -0.1125
 7166SOL    HW233132   2.285   3.010   6.182 -2.4712 -1.4340  1.5550
 7167SOL     OW33133   0.054   3.959   5.225  0.2331 -0.1792 -0.4658
 7167SOL    HW133134   4.722   3.903   5.208  0.0170  0.7695 -2.6287
 7167SOL    HW233135   0.122   3.910   5.180  0.5657  1.7276 -2.0450
 7168SOL     OW33136   2.815   1.506   4.134 -0.4645 -0.0777  0.1230
 7168SOL    HW133137   2.896   1.506   4.185 -1.8709  2.0068  2.3599
 7168SOL    HW233138   2.756   1.450   4.184  1.0629 -0.7185  1.1982
 7169SOL     OW33139   3.228   4.519  10.263 -1.0490  0.1550 -0.4599
 7169SOL    HW133140   3.273   4.446  10.306  1.2820  1.4213 -0.7562
 7169SOL    HW233141   3.247   4.596  10.316  0.0170 -0.6812  0.3674
 7170SOL     OW33142   2.850   2.624   5.087 -0.5156 -0.1101 -0.6595
 7170SOL    HW133143   2.864   2.711   5.124 -1.0157 -0.3678  0.1282
 7170SOL    HW233144   2.755   2.621   5.096 -0.5308  0.9646 -0.4699
 7171SOL     OW33145   4.204   0.721   0.039  0.5626 -0.3012  0.3384
 7171SOL    HW133146   4.136   0.706   0.105  2.5276  0.1107  2.4403
 7171SOL    HW233147   4.278   0.748   0.093 -0.9181  0.6090  1.8977
 7172SOL     OW33148   3.994   2.291   7.397  0.0868 -0.7033  0.5071
 7172SOL    HW133149   4.067   2.347   7.423  0.6663 -1.4738  0.5521
 7172SOL    HW233150   4.033   2.209   7.367  0.2696 -0.0109 -1.1487
 7173SOL     OW33151   2.359   3.787  14.410 -0.0461 -0.1330  0.1986
 7173SOL    HW133152   2.329   3.697  14.421  2.5896 -0.7874  2.0709
 7173SOL    HW233153   2.331   3.833  14.489 -2.6394 -1.6617  0.1572
 7174SOL     OW33154   3.215   2.453   0.577  0.3244  0.1437 -0.4936
 7174SOL    HW133155   3.203   2.450   0.672 -2.7296 -1.4905 -0.9220
 7174SOL    HW233156   3.136   2.410   0.542 -0.8766  2.4587 -0.6499
 7175SOL     OW33157   0.441   0.487   8.359  0.4235  0.0023  0.0949
 7175SOL    HW133158   0.524   0.501   8.405  0.9288  0.5248 -0.9523
 7175SOL    HW233159   0.419   0.579   8.346  3.2356  0.4547 -1.5434
 7176SOL     OW33160   1.574   1.506  15.577  0.2562  0.3301 -0.0828
 7176SOL    HW133161   1.539   1.570  15.515 -1.7644  0.8385  1.5783
 7176SOL    HW233162   1.494   1.456  15.591  0.1796  0.1681 -1.1489
 7177SOL     OW33163   0.051   3.892  16.893  0.2750 -0.6679 -0.6827
 7177SOL    HW133164   4.699   3.894  16.903  0.1367 -2.1120 -1.7658
 7177SOL    HW233165   0.063   3.886  16.799  0.1063  1.0142 -0.8070
 7178SOL     OW33166   3.263   4.649  11.779  0.1132 -0.2984 -0.0001
 7178SOL    HW133167   3.276   4.742  11.759 -1.3777  0.4335  2.4220
 7178SOL    HW233168   3.317   4.624  11.853  1.9213 -2.6206 -2.1262
 7179SOL     OW33169   3.048   1.310   2.342 -0.0336  0.0317 -0.2168
 7179SOL    HW133170   3.042   1.240   2.407  1.3185  0.7502  0.6682
 7179SOL    HW233171   3.144   1.310   2.347 -0.0566 -0.8508  0.2027
 7180SOL     OW33172   4.258   1.043   4.819  0.4397  0.0450  0.3141
 7180SOL    HW133173   4.223   1.006   4.900  0.7377 -2.1828 -0.5594
 7180SOL    HW233174   4.345   1.071   4.847  0.7116  0.9741 -1.4798
 7181SOL     OW33175   2.205   1.873   4.918 -0.3660  0.2969  0.1875
 7181SOL    HW133176   2.170   1.903   5.001  0.6582 -0.4266  0.8763
 7181SOL    HW233177   2.285   1.837   4.955 -1.5952 -1.9756  0.5778
 7182SOL     OW33178   0.816   4.247  12.743 -0.0916  0.0384 -0.2931
 7182SOL    HW133179   0.822   4.342  12.735  2.0303  0.0341  1.3020
 7182SOL    HW233180   0.726   4.221  12.721  0.5623 -1.8558 -0.7408
 7183SOL     OW33181   2.810   0.497   8.064  0.3707 -0.5337  0.1765
 7183SOL    HW133182   2.893   0.461   8.094 -0.1457 -2.0338 -0.2357
 7183SOL    HW233183   2.810   0.582   8.109 -0.8023 -1.0966  1.2642
 7184SOL     OW33184   3.220   0.467   4.010 -0.4603  0.4745 -0.3531
 7184SOL    HW133185   3.241   0.408   3.938  0.9550  0.7585 -0.1792
 7184SOL    HW233186   3.139   0.506   3.978  0.0159  1.5677 -0.2387
 7185SOL     OW33187   1.408   4.172   7.135 -0.5554 -0.3379  0.0180
 7185SOL    HW133188   1.317   4.180   7.105 -1.5097 -1.4836  2.5845
 7185SOL    HW233189   1.388   4.167   7.229 -2.8577  1.1385 -0.3780
 7186SOL     OW33190   2.722   1.488   2.148  0.3764 -0.1009 -0.0302
 7186SOL    HW133191   2.693   1.564   2.098  1.2077  0.2916  0.0851
 7186SOL    HW233192   2.736   1.418   2.084 -0.9730 -0.5656  0.1679
 7187SOL     OW33193   0.850   0.336  15.178  0.0649  0.1578 -0.0303
 7187SOL    HW133194   0.870   0.380  15.261 -0.6504  1.0869 -0.3600
 7187SOL    HW233195   0.879   0.402  15.115  3.1728 -1.3108 -0.1301
 7188SOL     OW33196   1.120   1.589   7.769  0.3450 -0.1727 -0.1591
 7188SOL    HW133197   1.205   1.614   7.806 -0.0898 -0.6833  1.1694
 7188SOL    HW233198   1.084   1.527   7.832 -1.1339  2.0779  1.1798
 7189SOL     OW33199   1.759   2.415   1.917  0.2293 -0.1018 -0.5496
 7189SOL    HW133200   1.738   2.370   1.836 -2.0154  0.5620 -0.3526
 7189SOL    HW233201   1.810   2.344   1.955 -0.4239 -0.4843 -0.3818
 7190SOL     OW33202   3.733   4.555   1.725 -0.9121  0.5174  0.8367
 7190SOL    HW133203   3.667   4.487   1.711  0.1380 -0.0544 -1.3496
 7190SOL    HW233204   3.802   4.504   1.768  0.1533  2.2729  1.2272
 7191SOL     OW33205   0.807   2.635  16.763 -0.1258  0.1371 -0.2657
 7191SOL    HW133206   0.766   2.648  16.678  0.0044  2.8227  0.1053
 7191SOL    HW233207   0.839   2.544  16.758  1.2726  0.5351  1.4041
 7192SOL     OW33208   3.478   3.798   8.422  0.1459 -0.9164  0.0108
 7192SOL    HW133209   3.391   3.821   8.456  0.0521  1.5348 -1.8808
 7192SOL    HW233210   3.515   3.748   8.494  1.6785  0.6025  0.2751
 7193SOL     OW33211   3.542   1.964   2.871 -0.3752 -0.0337 -0.3936
 7193SOL    HW133212   3.499   1.961   2.785  0.9163  2.5589 -1.1719
 7193SOL    HW233213   3.559   1.871   2.883  1.4617  0.1319 -1.6201
 7194SOL     OW33214   3.557   1.039   7.294  0.2646 -0.6890  0.0782
 7194SOL    HW133215   3.489   1.086   7.245  2.4531  1.2732 -1.0597
 7194SOL    HW233216   3.557   1.087   7.376 -1.3537 -0.0669 -0.2836
 7195SOL     OW33217   3.523   0.412   9.608  0.8608 -0.2360 -0.2387
 7195SOL    HW133218   3.454   0.365   9.656  0.6043 -0.2186 -0.5917
 7195SOL    HW233219   3.485   0.496   9.583  1.2945  0.3758  1.1529
 7196SOL     OW33220   4.428   3.550   5.856 -0.0387 -0.5541 -0.2261
 7196SOL    HW133221   4.344   3.518   5.891 -1.0965  1.7798 -0.6668
 7196SOL    HW233222   4.481   3.549   5.936  0.1373 -1.1174 -0.3464
 7197SOL     OW33223   2.720   4.583   7.425 -0.0731  0.2088  0.3576
 7197SOL    HW133224   2.729   4.662   7.372  0.3109  0.0149  0.1335
 7197SOL    HW233225   2.628   4.564   7.408 -0.5299  1.0794  1.8155
 7198SOL     OW33226   1.113   4.354   5.607 -0.5514 -0.7294 -0.3235
 7198SOL    HW133227   1.100   4.314   5.520 -0.9828 -0.9010 -0.1790
 7198SOL    HW233228   1.107   4.446   5.581 -0.4644 -1.0874 -1.6543
 7199SOL     OW33229   0.924   3.106   8.121 -0.1254 -0.1975  0.0893
 7199SOL    HW133230   0.883   3.160   8.189 -4.3753 -1.8369 -1.1992
 7199SOL    HW233231   0.940   3.028   8.173 -2.8631 -0.2125  0.8833
 7200SOL     OW33232   3.664   2.268   5.200  0.1024  0.0975 -0.7901
 7200SOL    HW133233   3.663   2.265   5.104  1.6330 -1.4229 -0.7763
 7200SOL    HW233234   3.581   2.228   5.223  0.4140 -0.9295 -1.4508
 7201SOL     OW33235   0.422   4.639   7.694  0.1680  0.3908 -0.3143
 7201SOL    HW133236   0.477   4.657   7.617  0.8947  0.0888  0.1291
 7201SOL    HW233237   0.336   4.646   7.654 -0.3030 -2.9098  0.0712
 7202SOL     OW33238   3.998   0.250  10.065  1.0461  0.3847  0.4215
 7202SOL    HW133239   3.965   0.303  10.137 -0.2487 -0.8380  0.7122
 7202SOL    HW233240   4.052   0.316  10.021  0.1080  0.8098 -0.0973
 7203SOL     OW33241   3.028   3.818   3.667 -0.8069  0.0127 -0.2506
 7203SOL    HW133242   3.112   3.820   3.712 -0.7490  0.1277 -0.3633
 7203SOL    HW233243   3.049   3.773   3.585 -0.2831  1.8990 -1.1444
 7204SOL     OW33244   2.166   2.412   5.426 -0.3163  0.1747 -0.2346
 7204SOL    HW133245   2.230   2.482   5.432  0.7164 -0.6794 -1.1545
 7204SOL    HW233246   2.219   2.340   5.459  0.1139  1.3106  1.5141
 7205SOL     OW33247   4.055   4.413   8.772  0.1101 -0.2240 -0.5525
 7205SOL    HW133248   4.103   4.331   8.772 -0.3098 -0.4583 -2.9659
 7205SOL    HW233249   4.038   4.420   8.678 -1.6422 -2.7399 -0.4211
 7206SOL     OW33250   3.021   1.865  13.212  0.1192  0.4062  0.3715
 7206SOL    HW133251   3.077   1.910  13.275  0.7168 -1.1012  0.9319
 7206SOL    HW233252   2.944   1.845  13.265  0.1734  0.4515  0.4664
 7207SOL     OW33253   1.870   1.945   9.723 -0.3783  0.3214  0.3036
 7207SOL    HW133254   1.849   2.036   9.745 -0.0468  0.4332  0.1544
 7207SOL    HW233255   1.965   1.956   9.715 -0.6546  1.8983 -0.8059
 7208SOL     OW33256   0.238   1.848   1.454  0.1441 -0.1171  0.2378
 7208SOL    HW133257   0.194   1.931   1.472 -1.2918 -0.4300 -1.9140
 7208SOL    HW233258   0.183   1.789   1.506  0.0611 -0.1067  0.1601
 7209SOL     OW33259   3.768   2.349   9.442  0.3114  0.0316 -0.4430
 7209SOL    HW133260   3.851   2.395   9.454  1.2819 -1.3473 -1.8297
 7209SOL    HW233261   3.705   2.419   9.426  1.7306  1.8040  1.6987
 7210SOL     OW33262   3.691   1.888   9.381 -0.0034 -0.0513 -0.2740
 7210SOL    HW133263   3.718   1.980   9.388 -0.8047  0.4204 -3.3900
 7210SOL    HW233264   3.705   1.879   9.287 -2.5094 -3.9791 -0.2330
 7211SOL     OW33265   0.329   2.610   3.292 -0.5382 -0.1090 -0.1135
 7211SOL    HW133266   0.395   2.557   3.337  3.1911  1.6638 -3.4038
 7211SOL    HW233267   0.360   2.700   3.302 -1.4815 -0.1851  3.2588
 7212SOL     OW33268   0.624   0.927   7.768  0.2158 -0.2643  0.9392
 7212SOL    HW133269   0.691   0.860   7.757 -0.1004 -0.8345  2.4767
 7212SOL    HW233270   0.675   0.996   7.811 -0.3186  1.4822 -1.2421
 7213SOL     OW33271   2.201   3.729  10.577  0.3868  0.2312  0.0070
 7213SOL    HW133272   2.172   3.820  10.573 -2.0363 -0.4716  1.7121
 7213SOL    HW233273   2.137   3.691  10.517 -1.0413 -0.8335  2.1945
 7214SOL     OW33274   3.370   0.065  10.282 -0.0165 -0.1558 -0.0767
 7214SOL    HW133275   3.428   0.092  10.211 -1.9428  0.3244 -1.4695
 7214SOL    HW233276   3.369   0.146  10.333  1.6189  0.5114 -1.1082
 7215SOL     OW33277   3.115   1.447   6.209 -0.7123 -0.3207  0.6875
 7215SOL    HW133278   3.120   1.403   6.124 -1.7290  0.5991  0.1477
 7215SOL    HW233279   3.037   1.402   6.243 -3.2528  2.1843 -1.7787
 7216SOL     OW33280   4.061   1.527  11.801  0.1577 -0.0967  0.1411
 7216SOL    HW133281   4.108   1.557  11.723  0.9909 -0.1072  0.6427
 7216SOL    HW233282   4.130   1.531  11.867  0.2784  2.6438 -0.1449
 7217SOL     OW33283   4.184   0.036   5.290  0.0853 -0.2809  0.1749
 7217SOL    HW133284   4.269   0.050   5.331 -0.1431  3.1171 -0.5079
 7217SOL    HW233285   4.207   0.085   5.210  0.3353 -0.2840  0.2443
 7218SOL     OW33286   1.511   0.842   5.294  0.2054 -0.6323 -0.5495
 7218SOL    HW133287   1.586   0.898   5.313 -0.3948 -0.3724  1.0554
 7218SOL    HW233288   1.448   0.914   5.301  0.6866 -0.3621  1.1087
 7219SOL     OW33289   2.586   2.036   4.863  0.5406  0.4269 -0.5055
 7219SOL    HW133290   2.625   2.036   4.775 -0.9306 -2.6632 -1.1535
 7219SOL    HW233291   2.633   1.961   4.901  1.2919  2.2789  2.2069
 7220SOL     OW33292   1.406   3.199   8.860 -0.1984  0.3092 -0.3976
 7220SOL    HW133293   1.336   3.163   8.805 -0.5095 -1.4764  1.1541
 7220SOL    HW233294   1.476   3.134   8.857  1.1746  1.7521  1.0787
 7221SOL     OW33295   0.195   1.902   4.365  0.3310  0.0834 -0.3907
 7221SOL    HW133296   0.152   1.913   4.280  0.8116 -1.4803 -0.8532
 7221SOL    HW233297   0.278   1.860   4.341  0.6402  0.2130  0.4619
 7222SOL     OW33298   4.577   2.114   3.288 -0.4916 -0.0619 -0.2030
 7222SOL    HW133299   4.668   2.144   3.286  0.2162 -2.0342  2.4141
 7222SOL    HW233300   4.534   2.172   3.351 -0.2795  1.4270 -1.4111
 7223SOL     OW33301   0.526   1.152   5.388 -0.2473  0.3117  0.1489
 7223SOL    HW133302   0.519   1.214   5.461  0.5303  0.5373  0.0347
 7223SOL    HW233303   0.495   1.201   5.312  1.9881 -0.5571 -1.3217
 7224SOL     OW33304   0.428   4.537   3.795 -0.1679 -0.2616  0.3941
 7224SOL    HW133305   0.471   4.454   3.818 -0.3239  0.0891  1.9301
 7224SOL    HW233306   0.347   4.527   3.845 -1.5208  1.9254 -1.3268
 7225SOL     OW33307   0.666   3.215  17.322 -0.4220 -0.4858  0.4992
 7225SOL    HW133308   0.621   3.191  17.241 -0.7741  0.9733  0.2610
 7225SOL    HW233309   0.598   3.263  17.370 -2.2706 -2.8080  0.1891
 7226SOL     OW33310   2.586   0.321   6.478 -0.1988  0.2321 -0.0323
 7226SOL    HW133311   2.617   0.313   6.388  0.5534 -0.6055  0.2919
 7226SOL    HW233312   2.545   0.235   6.489 -1.3721  0.8060  0.0993
 7227SOL     OW33313   0.849   2.964   6.608  0.3709  0.5075 -1.3365
 7227SOL    HW133314   0.944   2.952   6.599  0.3349  0.0315 -1.0905
 7227SOL    HW233315   0.823   2.873   6.623 -1.0348  1.0632 -0.4669
 7228SOL     OW33316   0.409   1.321   5.168  0.3785 -0.1469 -0.0008
 7228SOL    HW133317   0.340   1.381   5.139 -0.6621 -1.2576  0.1750
 7228SOL    HW233318   0.442   1.287   5.085  0.6819 -1.5269  0.6817
 7229SOL     OW33319   4.129   2.099  16.815 -0.0280  0.0067  0.3011
 7229SOL    HW133320   4.216   2.118  16.779 -0.1680  0.9447  0.4630
 7229SOL    HW233321   4.152   2.037  16.884  0.2659  3.9494  3.7130
 7230SOL     OW33322   3.136   2.875   4.138 -0.2234 -0.0047  0.1449
 7230SOL    HW133323   3.049   2.912   4.123 -0.6508 -1.3039 -0.5291
 7230SOL    HW233324   3.131   2.789   4.097 -2.0780  1.1154 -1.9519
 7231SOL     OW33325   1.592   0.960  14.009  0.4456 -0.3356  0.3764
 7231SOL    HW133326   1.604   1.037  13.953  1.6509 -1.6304 -1.1243
 7231SOL    HW233327   1.659   0.905  13.971  0.8067  0.9397 -0.8311
 7232SOL     OW33328   3.233   1.621   2.743  0.2884  0.1721  0.1197
 7232SOL    HW133329   3.246   1.715   2.734 -3.3684  0.5064 -1.6440
 7232SOL    HW233330   3.139   1.629   2.756  0.4824  0.3510  1.3885
 7233SOL     OW33331   3.427   3.807   1.982  0.1884  0.4067  0.1956
 7233SOL    HW133332   3.424   3.858   2.063  2.3297  1.4062 -0.3485
 7233SOL    HW233333   3.335   3.797   1.957 -0.0851 -0.2772  1.4950
 7234SOL     OW33334   3.710   0.897   6.507 -0.6751 -0.5685 -0.5599
 7234SOL    HW133335   3.780   0.939   6.557 -0.3666 -0.9657 -0.6566
 7234SOL    HW233336   3.748   0.810   6.491  2.2905  0.3729  1.3975
 7235SOL     OW33337   2.723   4.111   6.630  0.0620 -0.1715  0.7238
 7235SOL    HW133338   2.664   4.168   6.679  0.5559  0.9590  0.0257
 7235SOL    HW233339   2.711   4.146   6.541  1.5486  2.2104  1.4638
 7236SOL     OW33340   3.103   1.104   1.038 -0.0752 -0.3549 -0.0864
 7236SOL    HW133341   3.098   1.020   1.082  0.2943 -0.0193  0.5954
 7236SOL    HW233342   3.046   1.154   1.096  1.8773  0.2891  1.2933
 7237SOL     OW33343   2.171   0.743  12.071 -0.1894  0.2493 -0.0429
 7237SOL    HW133344   2.155   0.797  11.994 -0.2124  0.4481  0.1031
 7237SOL    HW233345   2.110   0.781  12.135  0.0307 -0.3543  0.5243
 7238SOL     OW33346   3.091   2.840   4.483 -0.4850  0.0797  0.2033
 7238SOL    HW133347   3.000   2.839   4.514 -0.5488  0.0696  0.0169
 7238SOL    HW233348   3.102   2.933   4.464 -1.6397  0.2392  0.3186
 7239SOL     OW33349   2.601   3.572   7.955 -0.4564 -0.6402 -0.3301
 7239SOL    HW133350   2.646   3.540   7.878 -1.5685 -2.4813 -0.2196
 7239SOL    HW233351   2.646   3.656   7.959 -1.5187  0.0096 -2.2327
 7240SOL     OW33352   3.203   1.480  17.328  0.4262  0.1175  0.0997
 7240SOL    HW133353   3.180   1.548  17.264 -0.3622  0.9586  1.2640
 7240SOL    HW233354   3.286   1.515  17.360  0.2087  0.5638  0.1797
 7241SOL     OW33355   0.609   2.046   4.945 -0.0558  0.2728 -0.4161
 7241SOL    HW133356   0.570   2.010   5.025  0.6630  0.7870  0.1630
 7241SOL    HW233357   0.543   2.112   4.928 -1.7086 -1.4692 -0.7218
 7242SOL     OW33358   0.456   3.430   7.207 -0.0797 -0.1311  0.1138
 7242SOL    HW133359   0.516   3.362   7.237  0.5251  0.6386  0.6662
 7242SOL    HW233360   0.470   3.407   7.115 -1.5782  0.3902 -0.2412
 7243SOL     OW33361   3.700   0.979   8.082 -0.5837 -0.6839  0.1785
 7243SOL    HW133362   3.622   0.926   8.065 -2.1229  1.3885  0.6599
 7243SOL    HW233363   3.713   0.985   8.177  3.2471 -1.7766 -0.2763
 7244SOL     OW33364   0.357   3.526   2.455 -0.2635 -0.4553 -0.3416
 7244SOL    HW133365   0.419   3.460   2.485 -2.3748 -3.1149 -1.8595
 7244SOL    HW233366   0.349   3.510   2.361  0.1817 -0.1553 -0.4301
 7245SOL     OW33367   1.427   2.581   6.206  0.3169  0.2841 -0.2051
 7245SOL    HW133368   1.523   2.587   6.200  0.4406 -0.0271  1.6201
 7245SOL    HW233369   1.421   2.606   6.298  0.9202  0.6651 -0.2649
 7246SOL     OW33370   4.646   0.619  10.263 -0.0357  0.3814 -0.1954
 7246SOL    HW133371   4.666   0.679  10.191 -1.5906  0.8991 -0.2014
 7246SOL    HW233372   4.615   0.545  10.212 -2.4249  0.8081  0.6239
 7247SOL     OW33373   4.393   0.085   7.377  0.6103  0.2517  0.1745
 7247SOL    HW133374   4.416   0.031   7.452  0.9351 -1.3178 -1.0492
 7247SOL    HW233375   4.348   0.155   7.425  0.3436  0.5066 -0.4490
 7248SOL     OW33376   3.810   0.416  16.129  0.1376  0.1658  0.0136
 7248SOL    HW133377   3.715   0.417  16.141  0.4035  0.3994  2.0955
 7248SOL    HW233378   3.832   0.509  16.120  0.2399 -0.0369 -1.8450
 7249SOL     OW33379   0.136   1.040   4.473 -0.0635 -0.6494 -0.2202
 7249SOL    HW133380   0.128   1.132   4.447  0.0362 -1.0937 -1.7998
 7249SOL    HW233381   0.227   1.023   4.451  0.0645 -0.6526  0.3040
 7250SOL     OW33382   2.626   1.568   1.749 -0.4181 -0.1924  0.4596
 7250SOL    HW133383   2.622   1.620   1.829 -0.2294 -0.5078  0.6760
 7250SOL    HW233384   2.671   1.490   1.781  2.0223  0.6176 -1.0221
 7251SOL     OW33385   0.403   1.872   7.857 -0.1703 -0.0971  0.5546
 7251SOL    HW133386   0.481   1.915   7.890  1.5046 -0.5378 -2.8604
 7251SOL    HW233387   0.346   1.948   7.865  3.0339  2.6269 -2.6305
 7252SOL     OW33388   0.302   3.629  17.058  0.0430 -0.1935 -0.0290
 7252SOL    HW133389   0.363   3.575  17.007 -0.3915 -1.1493  0.4714
 7252SOL    HW233390   0.326   3.714  17.021  1.6166 -1.1322 -1.2173
 7253SOL     OW33391   0.044   3.711   6.141  0.6796 -0.3809 -0.4680
 7253SOL    HW133392   0.111   3.659   6.185 -0.7475 -0.2163  1.8715
 7253SOL    HW233393   0.098   3.769   6.087 -0.8643  0.5268 -1.0373
 7254SOL     OW33394   2.330   3.609   7.234 -0.1103  0.0848 -0.1832
 7254SOL    HW133395   2.308   3.668   7.306  1.3855  2.1860 -1.4907
 7254SOL    HW233396   2.320   3.666   7.158  1.6296  1.5304  0.6715
 7255SOL     OW33397   1.683   1.790   2.326  0.2958  0.2372 -0.6698
 7255SOL    HW133398   1.731   1.748   2.398  1.3772 -1.8495 -2.6224
 7255SOL    HW233399   1.608   1.731   2.325  0.5173 -0.0790  0.6160
 7256SOL     OW33400   4.071   2.834  12.198 -0.1220  0.1135 -0.0767
 7256SOL    HW133401   4.091   2.858  12.108 -0.1341  1.1790  0.2139
 7256SOL    HW233402   4.084   2.920  12.237  2.0270  0.4749 -1.5795
 7257SOL     OW33403   1.893   1.526  12.528 -0.5452  0.2865 -0.6072
 7257SOL    HW133404   1.980   1.562  12.509 -0.9358  0.4800 -1.9833
 7257SOL    HW233405   1.834   1.577  12.472 -0.2583  1.1717 -0.1197
 7258SOL     OW33406   1.074   0.478   2.141 -0.3125 -0.0040 -0.3173
 7258SOL    HW133407   1.163   0.514   2.133 -0.2790 -0.1851 -0.7684
 7258SOL    HW233408   1.017   0.555   2.148 -0.1328 -0.0622  1.5709
 7259SOL     OW33409   0.199   3.766   5.098 -0.1900 -0.3345 -0.5577
 7259SOL    HW133410   0.203   3.671   5.098 -0.6439 -0.3547 -1.2249
 7259SOL    HW233411   0.282   3.780   5.053  1.0830 -1.3734  1.4883
 7260SOL     OW33412   1.575   4.742   2.501  0.6185 -0.3357  0.0945
 7260SOL    HW133413   1.571   4.725   2.595  1.6717 -0.8095  0.0495
 7260SOL    HW233414   1.549   0.091   2.501  0.9337 -0.2379 -2.0719
 7261SOL     OW33415   0.777   1.288   7.089  0.3331 -0.4242  0.0189
 7261SOL    HW133416   0.871   1.280   7.071  0.7875  0.2054  2.0876
 7261SOL    HW233417   0.737   1.211   7.050 -0.7490  0.2102 -0.1229
 7262SOL     OW33418   3.778   4.385   5.621 -0.0055  0.3482 -0.2238
 7262SOL    HW133419   3.792   4.478   5.639  0.4068  0.2704 -0.1604
 7262SOL    HW233420   3.695   4.386   5.572 -1.8451  0.8748  2.8647
 7263SOL     OW33421   1.763   1.287   8.894  1.0420  0.0162  1.1343
 7263SOL    HW133422   1.706   1.276   8.818  1.5427 -1.8930  1.0123
 7263SOL    HW233423   1.839   1.332   8.858  0.3203  1.6581  1.6753
 7264SOL     OW33424   2.277   3.885  14.120  0.1428 -0.1343  0.1076
 7264SOL    HW133425   2.322   3.835  14.188 -0.0199 -0.0075  0.3096
 7264SOL    HW233426   2.201   3.828  14.109 -2.0554  2.5034  1.6457
 7265SOL     OW33427   4.378   3.000   0.996 -0.7800 -0.1581  0.0590
 7265SOL    HW133428   4.295   2.964   0.963  0.5187 -1.3837 -1.9018
 7265SOL    HW233429   4.424   2.917   1.005 -1.0779 -0.5169 -1.6045
 7266SOL     OW33430   1.454   3.400  11.351  0.1248  0.4840 -0.9879
 7266SOL    HW133431   1.428   3.486  11.319  2.7495  1.5879 -0.1855
 7266SOL    HW233432   1.450   3.343  11.275 -0.7369 -1.0249  0.1853
 7267SOL     OW33433   4.118   0.951  14.860  0.1223  0.0445  0.0747
 7267SOL    HW133434   4.195   0.955  14.803  0.6962  2.6433  1.0560
 7267SOL    HW233435   4.065   0.884  14.816  2.0829 -1.3784 -0.1161
 7268SOL     OW33436   2.362   3.849   4.115 -0.1918  0.7236  0.0867
 7268SOL    HW133437   2.371   3.897   4.197  0.7390  0.8169 -0.0602
 7268SOL    HW233438   2.339   3.762   4.146 -0.6777  0.7612 -0.1658
 7269SOL     OW33439   0.722   1.947  13.853  0.2000 -0.4162  0.1349
 7269SOL    HW133440   0.659   1.879  13.876 -0.3751  0.4477  1.1229
 7269SOL    HW233441   0.755   1.948  13.943  1.6951  0.4401 -0.4106
 7270SOL     OW33442   2.465   0.967  16.069 -0.2743  0.3767  0.1755
 7270SOL    HW133443   2.448   0.975  16.163 -0.6643 -1.7047  0.2735
 7270SOL    HW233444   2.476   0.872  16.069 -1.8649  0.1818  0.6745
 7271SOL     OW33445   1.891   4.282   7.066  0.0736  0.4337 -0.3757
 7271SOL    HW133446   1.938   4.303   6.985  2.1955  0.4649  0.8616
 7271SOL    HW233447   1.797   4.287   7.047 -0.3092 -0.9490  1.2057
 7272SOL     OW33448   0.464   1.842  14.632 -0.5169  0.0716  0.5640
 7272SOL    HW133449   0.402   1.906  14.668  0.1217  1.3384 -0.5737
 7272SOL    HW233450   0.539   1.900  14.615  0.9423 -1.8301  0.5562
 7273SOL     OW33451   2.381   2.767   3.373  0.1502  0.1871  0.0678
 7273SOL    HW133452   2.393   2.766   3.468 -0.8077  2.0839  0.2327
 7273SOL    HW233453   2.287   2.749   3.370  0.2635 -0.5787  1.2489
 7274SOL     OW33454   1.577   1.564   9.660 -0.5240  0.1296  0.1234
 7274SOL    HW133455   1.532   1.627   9.715  0.2830  2.0787 -1.4624
 7274SOL    HW233456   1.509   1.513   9.616  1.4774  0.3107 -3.1965
 7275SOL     OW33457   2.744   4.259   5.035 -0.0354  0.0136  0.0160
 7275SOL    HW133458   2.690   4.249   5.113  0.7862 -0.3001  0.5397
 7275SOL    HW233459   2.725   4.184   4.978 -0.8953  2.0955 -2.4445
 7276SOL     OW33460   1.376   4.314  10.003  0.0538  0.4467 -0.2953
 7276SOL    HW133461   1.386   4.344   9.912 -1.3581  0.1823 -0.5307
 7276SOL    HW233462   1.422   4.386  10.048 -0.9987  0.6496  0.4528
 7277SOL     OW33463   1.806   3.799   1.693  0.0760 -0.3362  0.8139
 7277SOL    HW133464   1.732   3.805   1.632 -1.2447  0.4111  2.4689
 7277SOL    HW233465   1.882   3.787   1.636 -0.8306 -2.0287 -0.0571
 7278SOL     OW33466   1.104   0.279   5.440  0.1407  0.2035 -0.7511
 7278SOL    HW133467   1.091   0.210   5.375 -0.3277  0.2385 -0.6999
 7278SOL    HW233468   1.041   0.348   5.418 -0.6609  0.0827  1.1512
 7279SOL     OW33469   0.988   3.540   0.631 -0.1468  0.1592 -0.4085
 7279SOL    HW133470   0.917   3.533   0.695 -0.8287  0.8506 -1.0901
 7279SOL    HW233471   1.055   3.593   0.674  0.0317  1.1215 -1.8984
 7280SOL     OW33472   1.627   3.500   0.037  0.5140  0.6584  0.1195
 7280SOL    HW133473   1.653   3.438   0.105  1.4036  0.1739 -0.6513
 7280SOL    HW233474   1.534   3.479   0.039  0.7062 -0.1678  0.3385
 7281SOL     OW33475   0.833   2.662   4.641 -0.0274  0.1857 -0.3791
 7281SOL    HW133476   0.827   2.643   4.734  1.5660  0.3820 -0.2303
 7281SOL    HW233477   0.770   2.733   4.629 -1.0879 -0.7865 -0.5338
 7282SOL     OW33478   0.154   2.753   4.700 -0.2277 -0.3747 -0.0887
 7282SOL    HW133479   0.187   2.730   4.613  1.9183 -0.7124  0.8310
 7282SOL    HW233480   0.219   2.709   4.754 -1.6272 -1.8516  0.3872
 7283SOL     OW33481   4.024   3.995  11.441  0.5943  0.2704 -0.7806
 7283SOL    HW133482   4.039   3.921  11.382  1.0533 -1.5686  1.6713
 7283SOL    HW233483   4.109   4.007  11.483 -0.4650 -1.6919  1.8796
 7284SOL     OW33484   4.680   0.968  15.435 -0.0451  0.4398  0.6235
 7284SOL    HW133485   4.635   0.885  15.449  0.0020  0.2511 -0.3257
 7284SOL    HW233486   4.638   1.023  15.501 -0.0856  0.1766  0.8150
 7285SOL     OW33487   0.277   4.392   7.417 -0.0535  0.3066 -0.0026
 7285SOL    HW133488   0.314   4.329   7.478 -1.2692  1.0718  1.5172
 7285SOL    HW233489   0.263   4.329   7.346  0.8408 -0.0221  0.1116
 7286SOL     OW33490   3.984   0.004   7.013 -0.0365  0.1784  0.1542
 7286SOL    HW133491   4.070   0.039   6.989  0.3834 -1.1764 -0.2708
 7286SOL    HW233492   3.935   0.077   7.051  1.0445  0.0991  1.6713
 7287SOL     OW33493   4.099   0.746  16.188  0.2775 -0.2476 -0.3103
 7287SOL    HW133494   4.128   0.696  16.112  0.3299  0.4568 -0.7577
 7287SOL    HW233495   4.005   0.735  16.173  0.5162 -3.1834  0.3097
 7288SOL     OW33496   0.977   3.467  17.221  0.3261 -0.1473 -0.5116
 7288SOL    HW133497   1.040   3.395  17.218  0.2474 -0.2707  0.7115
 7288SOL    HW233498   1.000   3.506  17.306 -0.8804  0.9778 -0.6960
 7289SOL     OW33499   1.258   3.157   7.880 -0.3564  0.2501 -0.1077
 7289SOL    HW133500   1.311   3.170   7.801  0.8216 -0.2864  0.5845
 7289SOL    HW233501   1.257   3.242   7.924  0.0894 -0.2692  0.9249
 7290SOL     OW33502   0.265   3.889   0.613 -0.2097  0.2987  0.7020
 7290SOL    HW133503   0.346   3.885   0.663  0.4874  0.6345 -0.4109
 7290SOL    HW233504   0.285   3.954   0.546 -0.4403  0.8642  1.1812
 7291SOL     OW33505   0.605   1.332   8.042 -0.0224 -0.4037  0.2663
 7291SOL    HW133506   0.529   1.289   8.081  0.6036  0.6249  2.6223
 7291SOL    HW233507   0.589   1.328   7.948  1.4370 -0.2257  0.0136
 7292SOL     OW33508   0.608   2.213   1.512 -0.1729 -0.0056  0.0029
 7292SOL    HW133509   0.623   2.212   1.418 -0.2267 -1.3959  0.0173
 7292SOL    HW233510   0.699   2.226   1.539 -0.7326 -1.0691  2.4072
 7293SOL     OW33511   4.228   2.939   6.507 -1.0636 -0.7525 -0.0045
 7293SOL    HW133512   4.224   3.034   6.518  0.4022 -0.5932 -0.7507
 7293SOL    HW233513   4.299   2.934   6.442  0.6304 -0.4318  1.8085
 7294SOL     OW33514   3.852   2.345  16.663  0.2470 -0.2115  0.6172
 7294SOL    HW133515   3.842   2.253  16.639  1.2555 -0.6274  1.8023
 7294SOL    HW233516   3.888   2.352  16.751  0.2047  0.3791  0.5886
 7295SOL     OW33517   3.924   1.050   7.332  0.2614 -0.5444  0.6921
 7295SOL    HW133518   3.887   0.963   7.351  0.7113 -1.1197 -1.0899
 7295SOL    HW233519   4.018   1.032   7.327  0.2657  0.4203 -2.4701
 7296SOL     OW33520   0.155   0.710   3.022  0.1690  0.4061 -0.4586
 7296SOL    HW133521   0.112   0.631   2.989  0.7731 -0.9528  2.0084
 7296SOL    HW233522   0.079   0.753   3.060  0.9490  0.2378  1.2912
 7297SOL     OW33523   4.135   1.125  12.170 -0.1585 -0.0799  0.0942
 7297SOL    HW133524   4.136   1.032  12.147  1.1235 -0.5502  1.9989
 7297SOL    HW233525   4.176   1.123  12.257 -1.1358  1.0185  0.5849
 7298SOL     OW33526   1.937   3.384  16.194  0.0417 -0.5322  0.3461
 7298SOL    HW133527   1.872   3.444  16.231  0.9068  0.8383 -0.3870
 7298SOL    HW233528   1.878   3.310  16.178 -2.7949  1.0142  3.5960
 7299SOL     OW33529   4.491   0.486   5.960  0.0721  0.1944  0.1434
 7299SOL    HW133530   4.469   0.394   5.974  0.0165  0.1213 -0.4381
 7299SOL    HW233531   4.490   0.498   5.865  2.3098  1.6493  0.3277
 7300SOL     OW33532   3.132   2.355   7.209  0.2235  0.5618 -0.1135
 7300SOL    HW133533   3.121   2.405   7.129  1.4722  0.9892 -0.0203
 7300SOL    HW233534   3.227   2.366   7.220 -0.0918  1.3669  1.8154
 7301SOL     OW33535   1.663   0.454   8.058 -0.6176 -0.4364  0.1332
 7301SOL    HW133536   1.696   0.377   8.105 -0.7645 -0.4064  0.2842
 7301SOL    HW233537   1.748   0.494   8.042 -0.2710 -1.1785  0.1405
 7302SOL     OW33538   3.033   1.941  14.002  0.3355  0.0603 -0.9068
 7302SOL    HW133539   3.004   1.860  13.961 -1.4959  1.3795 -2.2017
 7302SOL    HW233540   3.086   1.911  14.076  0.0996  1.3323 -0.2138
 7303SOL     OW33541   1.223   0.253   3.891 -0.1190  0.4920  0.1042
 7303SOL    HW133542   1.304   0.202   3.894  0.3320  1.1709 -0.5438
 7303SOL    HW233543   1.225   0.304   3.810 -1.4609  0.3940  0.0079
 7304SOL     OW33544   2.307   2.072   0.585  0.1991  0.0059 -0.0523
 7304SOL    HW133545   2.297   2.151   0.532 -2.0469 -0.2398 -0.0166
 7304SOL    HW233546   2.221   2.028   0.577 -0.0109  0.6802 -1.5160
 7305SOL     OW33547   1.365   1.867   6.476  0.4512 -0.5355  0.5640
 7305SOL    HW133548   1.295   1.910   6.524  0.9706 -0.0306  0.8630
 7305SOL    HW233549   1.321   1.823   6.403  0.5339 -0.0970  0.2503
 7306SOL     OW33550   1.891   2.282   3.917 -0.2573  0.1391 -0.5257
 7306SOL    HW133551   1.834   2.219   3.961  0.1441 -1.8024 -2.8179
 7306SOL    HW233552   1.843   2.291   3.835  0.7668  1.5700 -0.9743
 7307SOL     OW33553   4.050   2.798   3.687  0.0148 -0.2581 -0.1137
 7307SOL    HW133554   4.032   2.880   3.733 -0.0750 -1.6490  2.3042
 7307SOL    HW233555   4.112   2.825   3.618  2.2106  0.2224  2.0412
 7308SOL     OW33556   2.951   0.780   4.674 -0.0321 -0.3300 -0.6424
 7308SOL    HW133557   2.918   0.696   4.706  0.6761  0.3457  1.8776
 7308SOL    HW233558   2.871   0.832   4.665 -0.1265 -0.4365 -0.4194
 7309SOL     OW33559   1.959   3.111   6.797 -0.1772  0.4813 -0.0421
 7309SOL    HW133560   1.990   3.023   6.816 -0.4311  0.6336  1.1036
 7309SOL    HW233561   1.898   3.129   6.869 -0.4977  2.0298 -0.6811
 7310SOL     OW33562   4.253   4.207   4.193  0.5810  0.1298 -0.1883
 7310SOL    HW133563   4.316   4.173   4.257 -0.7333 -0.5102  0.7614
 7310SOL    HW233564   4.283   4.295   4.169 -1.2586  0.5949 -0.7787
 7311SOL     OW33565   0.821   0.878  12.062  0.0792  0.0854 -0.3284
 7311SOL    HW133566   0.788   0.805  12.011  0.7748 -0.5588  0.1430
 7311SOL    HW233567   0.896   0.905  12.009  1.2547  0.6834  1.6075
 7312SOL     OW33568   3.590   1.213   5.682  0.2149  0.1460  0.1646
 7312SOL    HW133569   3.605   1.163   5.602  0.1636  1.2560 -0.5408
 7312SOL    HW233570   3.545   1.150   5.739 -0.1204  0.8612  0.6898
 7313SOL     OW33571   2.620   0.629   2.190  0.0724 -0.0581  0.7118
 7313SOL    HW133572   2.605   0.629   2.096  3.8930  1.1372  0.0861
 7313SOL    HW233573   2.566   0.705   2.211 -1.7200 -0.4798 -2.4840
 7314SOL     OW33574   4.334   0.849  11.341 -0.0819  0.1661 -0.1654
 7314SOL    HW133575   4.378   0.930  11.368  0.0591 -0.1321  0.5005
 7314SOL    HW233576   4.312   0.880  11.253 -1.6869 -2.0459 -0.5479
 7315SOL     OW33577   2.495   0.221  17.472  0.8047 -0.0303 -0.1086
 7315SOL    HW133578   2.444   0.140  17.471  0.7971 -0.0177 -0.5526
 7315SOL    HW233579   2.473   0.270  17.393  1.2268 -0.9483 -0.8024
 7316SOL     OW33580   1.258   1.612   2.636  0.6676  0.6040  0.5679
 7316SOL    HW133581   1.304   1.671   2.576  1.3980 -0.2612  0.2734
 7316SOL    HW233582   1.237   1.551   2.565 -0.8071  3.1512 -1.1495
 7317SOL     OW33583   2.785   0.973  17.232 -0.3510  0.6219  0.0237
 7317SOL    HW133584   2.803   1.037  17.164  1.1710 -0.5029 -0.6402
 7317SOL    HW233585   2.839   1.010  17.302  0.4169 -0.7433  0.1537
 7318SOL     OW33586   4.475   3.779   7.372 -0.0794 -0.1149  0.5296
 7318SOL    HW133587   4.549   3.839   7.369 -1.6137  1.7076 -0.6136
 7318SOL    HW233588   4.405   3.824   7.325 -0.7640  0.9150  2.5523
 7319SOL     OW33589   1.475   4.719  12.568 -0.5365  0.7465 -0.1786
 7319SOL    HW133590   1.380   4.717  12.566 -0.5617  0.5909  1.0023
 7319SOL    HW233591   1.494   0.068  12.586 -0.1354  0.2877  1.8021
 7320SOL     OW33592   2.040   1.206   3.992 -0.5771 -0.6557  0.0571
 7320SOL    HW133593   1.959   1.224   4.038 -1.1839 -1.0637 -0.8595
 7320SOL    HW233594   2.075   1.294   3.977 -1.5599  0.2382  3.0462
 7321SOL     OW33595   4.030   3.786  11.119  0.4418 -0.5845  0.2204
 7321SOL    HW133596   4.075   3.797  11.035  0.0254  1.9603  0.3148
 7321SOL    HW233597   4.106   3.793  11.176 -0.0339 -2.1658  1.0458
 7322SOL     OW33598   2.505   1.659   6.685  0.1966  0.1399  0.5313
 7322SOL    HW133599   2.516   1.690   6.776  1.5067 -0.7291  0.6591
 7322SOL    HW233600   2.577   1.596   6.684 -0.4323 -0.5578 -0.7785
 7323SOL     OW33601   2.990   1.968   5.406 -0.4596 -0.4061 -0.1271
 7323SOL    HW133602   2.978   1.999   5.496  2.3174  0.2249  0.0398
 7323SOL    HW233603   2.914   1.912   5.392  0.9976 -1.7704 -2.5746
 7324SOL     OW33604   2.727   4.462   5.900  0.5689  0.0727  0.3457
 7324SOL    HW133605   2.780   4.490   5.826 -0.2793  0.0220 -0.2820
 7324SOL    HW233606   2.795   4.420   5.953  3.0379  3.0457 -0.4500
 7325SOL     OW33607   0.603   2.297   5.300 -1.1794 -0.4099 -0.4581
 7325SOL    HW133608   0.561   2.282   5.216  0.3060 -2.2046 -0.8845
 7325SOL    HW233609   0.592   2.391   5.313  0.5297 -0.3768  0.7518
 7326SOL     OW33610   3.698   4.359   8.202 -0.0827  0.4369 -0.1471
 7326SOL    HW133611   3.733   4.308   8.275  1.2423  0.4675 -0.7471
 7326SOL    HW233612   3.608   4.330   8.194 -0.0438  0.8380 -2.1446
 7327SOL     OW33613   2.273   0.100   3.461  0.1607  0.0884 -0.1389
 7327SOL    HW133614   2.283   0.037   3.389  0.4404 -1.5937  1.3914
 7327SOL    HW233615   2.221   0.063   3.532  0.5185  0.7194  0.4468
 7328SOL     OW33616   3.588   0.252   3.354 -0.1467  0.0353 -0.5341
 7328SOL    HW133617   3.638   0.185   3.308  1.1194 -0.0312  0.9440
 7328SOL    HW233618   3.555   0.301   3.278  0.3897 -0.0803 -0.8447
 7329SOL     OW33619   2.041   0.994   4.163  0.3575 -0.0988 -0.0096
 7329SOL    HW133620   1.968   0.944   4.125  1.5186 -1.2365 -0.7104
 7329SOL    HW233621   2.040   1.062   4.096 -0.6842 -0.2395 -0.1467
 7330SOL     OW33622   1.406   2.736   2.165 -0.3790  0.5211 -0.1781
 7330SOL    HW133623   1.393   2.831   2.163  0.5888  0.6592 -0.0019
 7330SOL    HW233624   1.497   2.731   2.136 -0.1935 -1.5853  0.7976
 7331SOL     OW33625   3.920   4.633   8.631  0.0220  0.6106  0.2322
 7331SOL    HW133626   3.945   4.699   8.567  2.8420  2.4933  3.2982
 7331SOL    HW233627   3.958   4.660   8.714 -0.9531  0.9333  0.5674
 7332SOL     OW33628   2.439   3.062   4.341  0.6692 -0.5848  0.2194
 7332SOL    HW133629   2.376   3.021   4.400  2.3669 -0.7279  1.9202
 7332SOL    HW233630   2.426   3.153   4.369  1.4164 -0.7317  1.0127
 7333SOL     OW33631   2.500   2.358  10.908 -0.5929  0.1650  0.3261
 7333SOL    HW133632   2.560   2.417  10.951  0.1616 -0.6765  0.4328
 7333SOL    HW233633   2.561   2.287  10.885 -1.9667 -1.0029  0.2238
 7334SOL     OW33634   2.871   0.956   6.489  0.2504 -0.2503 -0.3685
 7334SOL    HW133635   2.938   0.988   6.549 -0.5970  2.7151 -1.0142
 7334SOL    HW233636   2.856   0.869   6.527  3.4434 -0.8083 -0.4114
 7335SOL     OW33637   4.541   4.003   4.950 -0.0296  0.5537  0.0013
 7335SOL    HW133638   4.561   3.953   5.030 -1.5390  1.5124  0.9875
 7335SOL    HW233639   4.445   4.000   4.952  0.0329 -0.6136  1.8023
 7336SOL     OW33640   0.766   3.009   1.404 -1.1352 -0.0101 -0.3606
 7336SOL    HW133641   0.700   3.070   1.436  0.9153  1.7131  0.6098
 7336SOL    HW233642   0.715   2.949   1.349  1.1657 -2.1849 -0.1228
 7337SOL     OW33643   0.074   3.554   5.323 -0.2030  0.7961  0.2753
 7337SOL    HW133644   0.118   3.595   5.398 -0.4949 -0.1071  0.9455
 7337SOL    HW233645   4.728   3.584   5.333 -0.7478 -0.3639 -1.0520
 7338SOL     OW33646   4.633   0.680   3.614 -0.3914 -0.6497 -0.4689
 7338SOL    HW133647   4.621   0.596   3.657 -0.3884 -0.0573  0.6826
 7338SOL    HW233648   4.563   0.672   3.549 -1.1048 -2.6717  0.5585
 7339SOL     OW33649   0.079   2.730   6.755 -0.3504 -0.3869 -0.4898
 7339SOL    HW133650   0.114   2.650   6.716  1.2225 -0.4627  1.0406
 7339SOL    HW233651   0.154   2.789   6.753  1.4690 -2.5677  2.9028
 7340SOL     OW33652   4.402   4.677  14.838 -0.4082  0.4629 -0.4174
 7340SOL    HW133653   4.338   4.685  14.767  0.8281 -2.0832 -1.8081
 7340SOL    HW233654   4.452   0.014  14.823  1.0150 -0.2572  0.4967
 7341SOL     OW33655   3.055   3.709  10.847  0.1949 -0.0690 -0.1897
 7341SOL    HW133656   3.123   3.742  10.789  0.6330 -1.6905 -0.5917
 7341SOL    HW233657   3.061   3.771  10.920  0.4025 -0.1375 -0.1497
 7342SOL     OW33658   4.196   4.744   3.876  0.4572  0.0952 -0.3893
 7342SOL    HW133659   4.251   4.667   3.864 -1.0194 -1.1205  0.5478
 7342SOL    HW233660   4.109   4.713   3.901  0.3275  0.3352 -0.5463
 7343SOL     OW33661   4.349   2.310  13.606  0.5124 -0.6014 -0.1531
 7343SOL    HW133662   4.277   2.278  13.660 -2.4368  1.6668 -2.6727
 7343SOL    HW233663   4.314   2.398  13.592  3.5557  0.0606 -3.4816
 7344SOL     OW33664   4.641   0.739   6.948  0.1481  0.1002  0.4224
 7344SOL    HW133665   4.669   0.806   6.885  0.1142 -1.8607 -1.6891
 7344SOL    HW233666   4.721   0.697   6.979  0.0054 -1.1006 -0.8415
 7345SOL     OW33667   2.594   2.290   2.916  1.0024 -0.0575  0.0508
 7345SOL    HW133668   2.535   2.245   2.856  1.2989 -0.1789 -0.1506
 7345SOL    HW233669   2.541   2.297   2.995  0.0748 -2.6069 -0.3341
 7346SOL     OW33670   1.091   4.476  10.487  0.5933 -0.2322 -0.5315
 7346SOL    HW133671   1.069   4.419  10.561 -0.4664 -0.4810 -1.0465
 7346SOL    HW233672   1.180   4.509  10.502  0.0910  1.8334 -2.1984
 7347SOL     OW33673   4.450   2.860   5.675  0.2043  0.4449 -0.2685
 7347SOL    HW133674   4.502   2.860   5.594 -0.0684  0.7618 -0.4439
 7347SOL    HW233675   4.359   2.849   5.650 -0.5313 -0.3901  2.7462
 7348SOL     OW33676   0.617   1.800   4.217  0.2244 -0.2430  0.2453
 7348SOL    HW133677   0.627   1.858   4.141  0.2911 -1.7097 -0.8477
 7348SOL    HW233678   0.688   1.836   4.271  1.8778 -0.9441 -1.4406
 7349SOL     OW33679   3.366   4.364   0.775 -0.1602  0.0513  0.1257
 7349SOL    HW133680   3.423   4.302   0.821 -2.9131 -2.0665  0.6611
 7349SOL    HW233681   3.288   4.310   0.760 -1.6992  2.3876 -0.3537
 7350SOL     OW33682   2.787   3.173   8.690  0.3264  0.0159 -0.4385
 7350SOL    HW133683   2.761   3.084   8.716 -1.7167  0.4351 -1.0324
 7350SOL    HW233684   2.868   3.185   8.740 -1.1964 -0.2143  2.1213
 7351SOL     OW33685   0.637   1.524   4.987 -0.1715 -0.0260 -0.8244
 7351SOL    HW133686   0.652   1.525   5.081  0.7128 -0.4532 -0.9579
 7351SOL    HW233687   0.654   1.615   4.964  1.9041 -0.3300 -0.5331
 7352SOL     OW33688   0.301   2.816   6.995 -0.6875  0.1820 -0.1091
 7352SOL    HW133689   0.216   2.773   7.009  0.3391 -2.1400 -0.9988
 7352SOL    HW233690   0.341   2.803   7.081  0.3227 -0.2943 -0.6446
 7353SOL     OW33691   4.388   0.996   7.127 -0.3580  0.2458  0.2360
 7353SOL    HW133692   4.481   0.997   7.103 -0.2120  0.1075  0.7968
 7353SOL    HW233693   4.368   1.082   7.091  1.2098  0.8867  0.8947
 7354SOL     OW33694   0.733   0.504   5.162 -0.3307 -0.6275  0.3875
 7354SOL    HW133695   0.657   0.561   5.157  1.3794  1.6323 -0.3099
 7354SOL    HW233696   0.741   0.483   5.069 -0.6007  0.9156  0.0185
 7355SOL     OW33697   2.258   3.753   7.441 -0.0958 -0.2339 -0.2516
 7355SOL    HW133698   2.280   3.846   7.439 -0.5036 -0.1178  0.6088
 7355SOL    HW233699   2.168   3.760   7.472 -0.5885 -1.9236 -1.3062
 7356SOL     OW33700   3.042   2.783   2.341 -0.1406 -0.4304 -0.7911
 7356SOL    HW133701   2.997   2.867   2.347  1.1953  0.1214  1.3805
 7356SOL    HW233702   2.973   2.731   2.299  0.5417  0.4352 -2.9707
 7357SOL     OW33703   2.450   3.459   4.054  0.0493 -0.0539 -0.0445
 7357SOL    HW133704   2.365   3.478   4.015 -0.4453  0.5731  1.3306
 7357SOL    HW233705   2.438   3.369   4.084  2.0457 -0.8604 -1.6395
 7358SOL     OW33706   3.540   3.250  13.856  0.3724 -0.3105 -0.1003
 7358SOL    HW133707   3.570   3.318  13.916  0.1123  0.2265 -0.5869
 7358SOL    HW233708   3.445   3.251  13.865  0.5110  1.3795  1.1541
 7359SOL     OW33709   4.361   0.694  14.306 -0.4244 -0.3321 -0.1980
 7359SOL    HW133710   4.338   0.628  14.240  0.9493  0.2584 -1.2626
 7359SOL    HW233711   4.287   0.753  14.318 -2.5279 -2.4648 -2.7532
 7360SOL     OW33712   1.095   2.172   9.205 -0.0637  0.4316 -0.1555
 7360SOL    HW133713   1.183   2.198   9.178 -0.9928  1.3843 -2.2777
 7360SOL    HW233714   1.074   2.236   9.273  1.5022  0.4827  0.2675
 7361SOL     OW33715   1.507   2.579  12.808  0.2718 -0.0410 -0.4689
 7361SOL    HW133716   1.514   2.495  12.762  0.0600 -0.5307  0.3959
 7361SOL    HW233717   1.588   2.577  12.858 -0.6937 -0.3945  1.0648
 7362SOL     OW33718   3.907   3.135   5.109  0.0416  0.2206  0.0020
 7362SOL    HW133719   3.828   3.095   5.071  0.5800 -1.8788  1.0679
 7362SOL    HW233720   3.895   3.102   5.198 -0.7207  1.2922  0.2973
 7363SOL     OW33721   1.363   0.569  14.144 -0.3560 -0.1103 -0.0252
 7363SOL    HW133722   1.421   0.493  14.149  1.4428  1.1504 -1.6257
 7363SOL    HW233723   1.288   0.517  14.116  1.3153 -2.4092 -0.3174
 7364SOL     OW33724   4.368   0.205   7.843 -0.1963  0.2517 -0.1054
 7364SOL    HW133725   4.452   0.231   7.881 -0.5216  0.3137  0.5713
 7364SOL    HW233726   4.397   0.140   7.779 -2.3029 -0.2454 -0.5525
 7365SOL     OW33727   0.578   2.987   0.507 -0.4456  0.3410  0.1916
 7365SOL    HW133728   0.589   2.997   0.601  2.0175  3.2338 -0.4154
 7365SOL    HW233729   0.643   2.920   0.487 -0.8119  0.3701 -1.0873
 7366SOL     OW33730   3.633   1.109   8.623 -0.1198  0.3824 -0.4920
 7366SOL    HW133731   3.598   1.171   8.687  1.4880 -0.9265  1.6388
 7366SOL    HW233732   3.605   1.148   8.540 -1.5820  0.1756 -0.0954
 7367SOL     OW33733   4.101   3.775   5.327 -0.4306 -0.4048 -0.3065
 7367SOL    HW133734   4.095   3.711   5.256  0.5501 -1.5741  0.6766
 7367SOL    HW233735   4.045   3.839   5.284 -0.7446  1.3929  2.7513
 7368SOL     OW33736   1.725   2.039  14.826  0.6926 -0.7664 -0.4174
 7368SOL    HW133737   1.700   2.068  14.738 -0.7989 -0.1782  0.1989
 7368SOL    HW233738   1.772   2.111  14.867 -0.1043 -0.6803  0.3396
 7369SOL     OW33739   0.767   1.702  16.068  0.3087  0.9756 -0.4114
 7369SOL    HW133740   0.763   1.798  16.075 -1.3601  0.8879 -0.2201
 7369SOL    HW233741   0.705   1.664  16.130 -1.3746  0.2865 -2.5201
 7370SOL     OW33742   1.819   0.458  14.021  0.1138 -0.2912 -0.3718
 7370SOL    HW133743   1.778   0.543  14.035 -2.9167 -1.7745 -0.3067
 7370SOL    HW233744   1.891   0.464  14.084  1.2758  4.2593 -2.1623
 7371SOL     OW33745   0.266   0.763  16.095 -0.4787  0.2758  0.1337
 7371SOL    HW133746   0.286   0.819  16.170 -0.7139  0.1028  0.3247
 7371SOL    HW233747   0.267   0.826  16.022  0.2971  1.1033  0.8557
 7372SOL     OW33748   3.312   4.648  11.043 -0.3197  0.0414  0.4576
 7372SOL    HW133749   3.295   4.628  10.951  1.9617 -0.9591  0.2605
 7372SOL    HW233750   3.274   4.735  11.054  1.4803  1.2298 -2.6854
 7373SOL     OW33751   0.244   1.695   8.720  0.2292 -0.1772 -0.4087
 7373SOL    HW133752   0.265   1.739   8.802 -1.2769  1.2893 -0.8169
 7373SOL    HW233753   0.165   1.732   8.681 -0.0126 -1.7850 -1.4404
 7374SOL     OW33754   4.549   3.593   0.928 -0.1171  0.8728  0.4395
 7374SOL    HW133755   4.485   3.654   0.891 -1.2770 -3.2440 -4.2541
 7374SOL    HW233756   4.495   3.550   0.994  0.8196 -0.4444  0.3391
 7375SOL     OW33757   1.264   1.986   8.303 -0.1860  0.3356 -0.3565
 7375SOL    HW133758   1.332   1.937   8.256 -1.2169  0.2099 -1.7118
 7375SOL    HW233759   1.208   1.927   8.351  0.3871  0.9240  1.0316
 7376SOL     OW33760   1.860   0.623   8.512  0.4493 -1.1163 -0.0612
 7376SOL    HW133761   1.936   0.576   8.478  2.3071  1.1140  0.9770
 7376SOL    HW233762   1.805   0.545   8.521 -1.0491  0.1333  1.5698
 7377SOL     OW33763   3.283   1.061   0.474 -0.0710 -0.2254  0.1094
 7377SOL    HW133764   3.248   1.043   0.561  1.0134 -0.9909  0.4010
 7377SOL    HW233765   3.216   1.020   0.419 -0.3734 -1.2929  1.2704
 7378SOL     OW33766   1.614   0.572   5.324 -0.1575 -0.1885  0.6771
 7378SOL    HW133767   1.580   0.660   5.305 -0.7589 -0.6810 -0.5495
 7378SOL    HW233768   1.623   0.578   5.419  0.9396  0.9101  0.5085
 7379SOL     OW33769   4.076   2.420   9.409  0.2758  0.0128  0.0327
 7379SOL    HW133770   4.121   2.495   9.448 -0.6480 -0.0279  1.1745
 7379SOL    HW233771   4.146   2.383   9.355 -0.6974  0.2183 -1.3644
 7380SOL     OW33772   1.279   3.483   7.674  0.0029  0.1369 -0.4159
 7380SOL    HW133773   1.220   3.551   7.707  0.6993 -1.0924  3.3949
 7380SOL    HW233774   1.248   3.396   7.700 -3.0481  1.5173  0.6406
 7381SOL     OW33775   2.608   1.297   4.216 -0.2897  0.0749 -0.4109
 7381SOL    HW133776   2.554   1.224   4.248  1.3421 -0.6754  0.6062
 7381SOL    HW233777   2.629   1.338   4.300  1.8610  1.6959 -1.7624
 7382SOL     OW33778   0.213   0.832  12.205  0.1930 -0.0198 -0.1211
 7382SOL    HW133779   0.119   0.833  12.223  0.5400  0.6612  1.7033
 7382SOL    HW233780   0.234   0.925  12.219 -0.2140  0.1164 -0.3982
 7383SOL     OW33781   0.159   3.300  13.870 -0.1627 -0.2401 -0.4103
 7383SOL    HW133782   0.225   3.366  13.852  0.0876 -0.3398  0.1509
 7383SOL    HW233783   0.124   3.279  13.783 -0.7248 -0.6716 -0.0852
 7384SOL     OW33784   0.219   4.705  14.766 -0.4600  0.0863 -0.4978
 7384SOL    HW133785   0.146   4.651  14.796  1.4956 -2.3410 -0.1191
 7384SOL    HW233786   0.237   4.667  14.680 -0.5578 -1.2897  0.0846
 7385SOL     OW33787   4.309   1.683   6.599 -0.4189 -0.1563  0.1863
 7385SOL    HW133788   4.373   1.615   6.622 -1.2916 -1.1151 -0.2322
 7385SOL    HW233789   4.233   1.626   6.610 -1.8229  1.3952 -1.4679
 7386SOL     OW33790   1.116   1.791   8.440  1.0095  0.8376 -0.4352
 7386SOL    HW133791   1.201   1.797   8.482  1.2831 -0.5735 -0.7745
 7386SOL    HW233792   1.060   1.821   8.512  2.4332 -0.0458  1.0130
 7387SOL     OW33793   2.879   0.145   9.350 -0.2298  0.2447  1.0243
 7387SOL    HW133794   2.856   0.073   9.292  1.1798  0.1723  0.5562
 7387SOL    HW233795   2.846   0.122   9.437  1.6525 -1.0385  1.4201
 7388SOL     OW33796   1.432   4.323   0.626 -0.4184 -0.6779 -0.3829
 7388SOL    HW133797   1.464   4.239   0.660  2.8550  0.8514  0.2677
 7388SOL    HW233798   1.500   4.354   0.566 -0.2959  0.2600  0.2487
 7389SOL     OW33799   4.099   1.098   0.948  0.3311  0.7542 -0.0817
 7389SOL    HW133800   4.146   1.016   0.934  0.2245  0.8067 -0.7702
 7389SOL    HW233801   4.100   1.102   1.043 -2.3298 -4.2837  0.1077
 7390SOL     OW33802   1.191   3.862   0.727  0.5130 -0.0691 -0.8647
 7390SOL    HW133803   1.260   3.878   0.792  1.2289  1.3115 -1.9660
 7390SOL    HW233804   1.128   3.933   0.736  1.1355  0.4430 -0.5504
 7391SOL     OW33805   0.237   3.853  15.684  0.4340 -0.3096  0.4818
 7391SOL    HW133806   0.304   3.819  15.624 -0.1909  0.1898 -0.4965
 7391SOL    HW233807   0.240   3.946  15.658  2.0470 -0.5236 -0.0814
 7392SOL     OW33808   2.767   2.277   3.870 -0.1360 -0.2453 -0.2751
 7392SOL    HW133809   2.774   2.335   3.946 -1.4500 -2.1411  1.2928
 7392SOL    HW233810   2.672   2.267   3.875 -0.0767 -1.1479 -0.8812
 7393SOL     OW33811   3.196   2.708  11.737  0.2111 -0.0900  0.1945
 7393SOL    HW133812   3.260   2.700  11.667 -2.1398  0.7903 -2.0722
 7393SOL    HW233813   3.212   2.800  11.755  1.8598  0.3437 -3.4822
 7394SOL     OW33814   0.947   4.265   1.598 -0.4659 -0.6312  0.7589
 7394SOL    HW133815   1.038   4.259   1.572 -0.3156  3.0583  0.4613
 7394SOL    HW233816   0.959   4.249   1.692 -0.8462 -0.1844  0.8875
 7395SOL     OW33817   2.174   3.076   3.422  0.0525 -0.0979 -0.2328
 7395SOL    HW133818   2.183   3.031   3.338 -0.6227  0.2554 -0.4953
 7395SOL    HW233819   2.144   3.164   3.399 -0.4009 -0.4682 -1.0804
 7396SOL     OW33820   4.418   0.399  11.524 -0.4752  0.1045 -0.1303
 7396SOL    HW133821   4.427   0.342  11.601 -2.2460  2.7251  2.0151
 7396SOL    HW233822   4.468   0.341  11.467  0.4026 -1.5232  2.2827
 7397SOL     OW33823   1.364   0.796   5.000 -0.4634 -0.3282  0.2509
 7397SOL    HW133824   1.374   0.705   5.025  0.2401 -0.5203 -0.7186
 7397SOL    HW233825   1.315   0.825   5.076  0.2392  0.3344  0.4475
 7398SOL     OW33826   3.463   4.342   5.958  0.0924  0.1805 -0.1059
 7398SOL    HW133827   3.538   4.396   5.934  0.4239 -0.3563 -0.2942
 7398SOL    HW233828   3.420   4.411   6.007  1.8560  2.1909 -1.4019
 7399SOL     OW33829   0.395   3.662   6.216  0.2901  0.1199 -0.4908
 7399SOL    HW133830   0.431   3.590   6.164 -1.7204 -2.2816  1.4373
 7399SOL    HW233831   0.305   3.633   6.229  0.6627 -0.6984  0.2265
 7400SOL     OW33832   3.081   0.092   2.809  0.2751  0.2529 -0.0353
 7400SOL    HW133833   3.061   0.152   2.737 -3.4810 -0.3669  0.5283
 7400SOL    HW233834   3.013   0.026   2.797  2.0592 -1.8539  1.6024
 7401SOL     OW33835   0.951   1.794   6.672  0.2921 -0.5519 -0.6844
 7401SOL    HW133836   0.977   1.713   6.627  1.6486 -1.1089  1.1004
 7401SOL    HW233837   0.857   1.807   6.665 -0.2652 -3.0492  2.5360
 7402SOL     OW33838   2.002   0.206   6.460 -0.5127  0.9032  0.0315
 7402SOL    HW133839   2.041   0.161   6.385  0.7228 -1.7125  2.2483
 7402SOL    HW233840   2.007   0.300   6.441 -0.0471  0.6505 -1.0991
 7403SOL     OW33841   2.157   4.571  14.849  0.2592  0.0163  0.0564
 7403SOL    HW133842   2.110   4.505  14.798  3.7493 -3.0867  0.8533
 7403SOL    HW233843   2.088   4.593  14.911  0.5298  2.7850 -0.6489
 7404SOL     OW33844   2.866   3.045  16.541  0.3026 -0.2259 -0.1694
 7404SOL    HW133845   2.804   3.115  16.519  0.3446 -0.4062 -0.8597
 7404SOL    HW233846   2.942   3.095  16.512 -0.9158  1.9056  0.2887
 7405SOL     OW33847   1.463   0.966  12.851  0.0735 -0.2771 -0.3012
 7405SOL    HW133848   1.493   0.933  12.767 -2.3556  0.4132 -1.4414
 7405SOL    HW233849   1.539   0.941  12.904  1.4397  2.9775 -0.6987
 7406SOL     OW33850   1.758   1.881  15.547  0.3190 -0.1616 -0.1121
 7406SOL    HW133851   1.704   1.858  15.622 -0.2397  1.3827 -0.0369
 7406SOL    HW233852   1.804   1.798  15.534 -3.6520 -2.0247 -2.2621
 7407SOL     OW33853   2.789   3.529   0.702  0.0509  1.0236 -0.7847
 7407SOL    HW133854   2.847   3.522   0.777 -1.8755 -0.0256  0.5974
 7407SOL    HW233855   2.844   3.489   0.634  2.2313  0.3693  1.3835
 7408SOL     OW33856   1.992   3.236   9.303  0.0853  0.3622  0.5237
 7408SOL    HW133857   1.897   3.239   9.292  0.2302 -0.7470 -1.1644
 7408SOL    HW233858   1.989   3.162   9.363 -1.6734  2.2233  2.7269
 7409SOL     OW33859   2.574   2.988  14.106  0.8167  0.1668  0.1647
 7409SOL    HW133860   2.587   2.973  14.012  1.7264 -1.3386  0.5172
 7409SOL    HW233861   2.633   2.919  14.138  1.3220  0.4806 -0.0954
 7410SOL     OW33862   4.723   2.914  12.064  0.4771 -0.3253 -0.1739
 7410SOL    HW133863   4.695   2.983  12.003  0.5252 -1.1316 -1.1070
 7410SOL    HW233864   4.686   2.835  12.026 -0.9847  0.0738  0.4200
 7411SOL     OW33865   2.563   3.547  15.329 -0.0075  0.4917  0.0780
 7411SOL    HW133866   2.611   3.616  15.282  0.5673  0.5664  0.7828
 7411SOL    HW233867   2.548   3.598  15.408 -2.9443  0.2313 -0.3222
 7412SOL     OW33868   3.772   0.108   0.235  0.1560 -0.1393  0.1009
 7412SOL    HW133869   3.739   0.198   0.229  1.7589  0.4983  0.7552
 7412SOL    HW233870   3.844   0.122   0.174 -0.1151 -0.2298 -0.2368
 7413SOL     OW33871   3.263   1.132   8.174  0.2075 -0.4877 -0.1388
 7413SOL    HW133872   3.210   1.149   8.252  0.9271 -0.3685  0.3245
 7413SOL    HW233873   3.243   1.039   8.163  2.4684 -1.0663  0.6124
 7414SOL     OW33874   3.024   2.049   2.729 -0.1337  0.4847 -0.2328
 7414SOL    HW133875   3.037   2.144   2.728  0.9339  0.3297 -1.0718
 7414SOL    HW233876   2.932   2.046   2.700  0.5067  2.0588 -2.4296
 7415SOL     OW33877   2.984   3.443   9.434  0.1299 -0.0298  0.5674
 7415SOL    HW133878   3.012   3.530   9.407 -0.2230  0.2784  1.1995
 7415SOL    HW233879   3.064   3.403   9.470 -2.0423 -2.0156  3.1657
 7416SOL     OW33880   0.843   4.499   0.811  0.3859 -0.5377 -0.4674
 7416SOL    HW133881   0.858   4.413   0.849  1.6122 -0.4158 -0.6865
 7416SOL    HW233882   0.921   4.538   0.851  0.7340 -1.6002 -0.1177
 7417SOL     OW33883   4.521   2.568   1.647  0.7533 -0.3234 -0.3833
 7417SOL    HW133884   4.482   2.481   1.642  1.2495 -0.6453  1.3788
 7417SOL    HW233885   4.596   2.559   1.587 -0.6911 -0.7207 -2.1550
 7418SOL     OW33886   0.750   1.309  14.932  0.5585  0.1563  0.5370
 7418SOL    HW133887   0.738   1.339  15.022  1.7793  0.1791  0.6951
 7418SOL    HW233888   0.828   1.360  14.910  2.6430 -2.8694  0.8984
 7419SOL     OW33889   3.284   4.513   2.364  0.7174 -0.4373  0.0641
 7419SOL    HW133890   3.201   4.548   2.331  0.2549 -1.7443 -0.1717
 7419SOL    HW233891   3.270   4.543   2.453  2.6533  0.9892 -0.1070
 7420SOL     OW33892   2.210   2.793   2.331  0.0400  0.1100  0.5281
 7420SOL    HW133893   2.249   2.762   2.249  1.0335  0.1199  0.9916
 7420SOL    HW233894   2.125   2.803   2.289 -0.8788  0.3788  2.4779
 7421SOL     OW33895   4.080   4.023  14.158 -0.3681 -0.0672 -0.1300
 7421SOL    HW133896   3.995   4.012  14.117 -1.1122 -0.3549  1.4980
 7421SOL    HW233897   4.129   4.054  14.081  0.4937  0.2418  0.5391
 7422SOL     OW33898   2.321   4.701  14.635  0.0322 -0.0218  0.3288
 7422SOL    HW133899   2.302   0.048  14.659 -2.7721 -0.5656  0.1509
 7422SOL    HW233900   2.276   4.656  14.706 -0.1570 -1.3744 -0.6349
 7423SOL     OW33901   1.316   4.209   8.214 -0.2631 -0.1286  0.0515
 7423SOL    HW133902   1.290   4.245   8.129  2.1904  0.5569 -0.4193
 7423SOL    HW233903   1.408   4.237   8.220 -0.5575  1.0322 -0.8123
 7424SOL     OW33904   0.705   3.356   8.007  0.0490  0.0231 -0.0121
 7424SOL    HW133905   0.644   3.401   8.066 -0.0538 -1.5865  1.1131
 7424SOL    HW233906   0.663   3.269   8.005  0.0985  0.0302 -1.1296
 7425SOL     OW33907   4.693   3.737   4.762  0.2520 -0.0176 -0.0687
 7425SOL    HW133908   4.614   3.778   4.727  1.6571 -0.1278 -3.4279
 7425SOL    HW233909   0.008   3.791   4.708  0.2524  0.8060  0.7590
 7426SOL     OW33910   0.237   1.805   5.646  0.9953  0.5736  0.5974
 7426SOL    HW133911   0.331   1.787   5.649  1.0662  1.4568  3.6470
 7426SOL    HW233912   0.224   1.860   5.724  2.8928  0.5246  0.9576
 7427SOL     OW33913   0.292   0.651   5.703 -0.5480  0.5199  0.1944
 7427SOL    HW133914   0.331   0.581   5.755  1.9931  2.3130  0.7325
 7427SOL    HW233915   0.351   0.727   5.706 -0.3899  0.4304 -0.6524
 7428SOL     OW33916   3.305   0.195   5.930 -0.1256 -0.0156  0.1200
 7428SOL    HW133917   3.311   0.290   5.939 -0.1812 -0.0800  0.8109
 7428SOL    HW233918   3.295   0.158   6.018 -0.1839  0.7533  0.4405
 7429SOL     OW33919   3.887   1.413   1.824  0.2366 -0.7191  0.3642
 7429SOL    HW133920   3.799   1.448   1.810  1.3363  1.0230 -2.0913
 7429SOL    HW233921   3.940   1.419   1.744  0.0724  1.3025  0.4250
 7430SOL     OW33922   4.512   1.063   3.504  0.4196 -0.0373 -0.0998
 7430SOL    HW133923   4.516   1.117   3.583 -0.8201  1.5946 -1.1615
 7430SOL    HW233924   4.597   1.020   3.508  0.6585  0.4517  0.0237
 7431SOL     OW33925   0.688   4.208   5.454 -0.4230 -0.0858 -0.1124
 7431SOL    HW133926   0.685   4.212   5.358  2.4171 -3.4638 -0.3338
 7431SOL    HW233927   0.710   4.301   5.460 -0.0795 -0.1138 -0.9277
 7432SOL     OW33928   0.035   2.537   3.446  0.1381 -0.2503 -0.0515
 7432SOL    HW133929   0.118   2.559   3.404 -1.0194  2.2638 -1.0561
 7432SOL    HW233930   4.716   2.605   3.421 -0.9980 -1.3821 -0.2673
 7433SOL     OW33931   1.708   3.950   4.352 -0.1962  0.4446  0.2650
 7433SOL    HW133932   1.739   4.039   4.373  2.2368 -0.7325  1.7088
 7433SOL    HW233933   1.751   3.899   4.421 -1.9723 -0.9401  0.3370
 7434SOL     OW33934   3.150   1.197   0.739  0.1614  0.0068 -0.0067
 7434SOL    HW133935   3.230   1.243   0.763 -0.5368  0.6512  1.0583
 7434SOL    HW233936   3.132   1.152   0.822  0.0516  1.8926  0.9746
 7435SOL     OW33937   3.392   4.065   5.914  0.1922 -0.7689  0.3932
 7435SOL    HW133938   3.420   4.071   5.823 -0.2432 -0.5892  0.2689
 7435SOL    HW233939   3.381   4.156   5.943 -0.5012 -0.1427 -1.8205
 7436SOL     OW33940   1.091   0.189   7.971  0.0819 -0.1914 -0.0456
 7436SOL    HW133941   1.145   0.122   7.931  1.2745 -0.6964  2.4436
 7436SOL    HW233942   1.140   0.219   8.048 -0.4693  0.8130 -0.0867
 7437SOL     OW33943   2.608   2.215   3.399  0.2250  0.4001 -0.0806
 7437SOL    HW133944   2.520   2.253   3.401 -0.6729 -1.6738 -0.8135
 7437SOL    HW233945   2.621   2.181   3.487  0.0335  2.0034  0.5692
 7438SOL     OW33946   0.189   1.102   2.211  0.0565  0.3017 -0.7663
 7438SOL    HW133947   0.220   1.056   2.133  0.1942  0.3533 -0.7425
 7438SOL    HW233948   0.104   1.125   2.173 -1.0338 -1.7638  0.4522
 7439SOL     OW33949   3.601   2.113   0.126  0.1577 -0.3132 -0.3187
 7439SOL    HW133950   3.604   2.173   0.201 -2.6684  0.0373 -0.4789
 7439SOL    HW233951   3.588   2.027   0.167 -0.9725  0.3218  0.6636
 7440SOL     OW33952   0.230   2.410  16.961 -0.0311 -0.2557  0.7413
 7440SOL    HW133953   0.183   2.464  16.898  0.8127 -1.8033 -1.2281
 7440SOL    HW233954   0.260   2.481  17.017 -2.4415  0.8667  0.5904
 7441SOL     OW33955   1.912   4.610   8.845  0.5760  0.4752  1.1398
 7441SOL    HW133956   1.846   4.554   8.885  1.3704 -0.6482  0.8540
 7441SOL    HW233957   1.990   4.583   8.892 -0.4961 -1.0675  2.0283
 7442SOL     OW33958   3.559   1.431   3.561  0.1684 -0.3810  0.0158
 7442SOL    HW133959   3.576   1.395   3.474  1.1452 -1.9644  0.8496
 7442SOL    HW233960   3.464   1.442   3.566  0.3145  1.0129 -0.2472
 7443SOL     OW33961   1.703   1.147   3.113  0.5893  0.3932 -0.0091
 7443SOL    HW133962   1.663   1.233   3.129  1.0809  0.4133  1.0639
 7443SOL    HW233963   1.752   1.177   3.037 -0.0465 -0.3744 -0.7304
 7444SOL     OW33964   1.553   1.507   7.840 -0.5502  0.4544 -0.0129
 7444SOL    HW133965   1.563   1.447   7.766  2.5435 -0.3672  1.0734
 7444SOL    HW233966   1.578   1.456   7.917 -1.7348  0.8735  0.6662
 7445SOL     OW33967   1.526   4.646   2.775  0.3824 -0.2328  0.0037
 7445SOL    HW133968   1.502   4.555   2.796 -0.0477 -0.0301  0.3826
 7445SOL    HW233969   1.616   4.642   2.808  0.0902 -2.7487  0.5453
 7446SOL     OW33970   2.045   2.559   1.729  0.0286 -0.1958  0.2391
 7446SOL    HW133971   1.987   2.589   1.799  0.8040 -0.0273  0.8162
 7446SOL    HW233972   2.029   2.465   1.723  0.8185 -0.3274  0.2012
 7447SOL     OW33973   3.553   0.863   6.956  0.3879 -0.2635  0.1480
 7447SOL    HW133974   3.604   0.816   6.889 -0.3223  0.3452 -0.8285
 7447SOL    HW233975   3.551   0.951   6.918 -1.5305 -0.3610  0.0188
 7448SOL     OW33976   0.514   3.015   3.257  0.0830  0.1105 -0.2226
 7448SOL    HW133977   0.499   3.087   3.195  1.0421  1.8897  1.6017
 7448SOL    HW233978   0.583   2.967   3.212 -0.1089 -0.4268  0.0669
 7449SOL     OW33979   2.818   1.416   8.583  0.4980 -0.0148 -0.7550
 7449SOL    HW133980   2.857   1.446   8.665  0.1885 -1.4796 -0.0833
 7449SOL    HW233981   2.832   1.322   8.592  0.2731  0.0624  0.3586
 7450SOL     OW33982   1.007   4.305   2.963 -0.3253 -0.3484  0.6434
 7450SOL    HW133983   1.031   4.235   2.903 -0.2962 -0.7929  1.1679
 7450SOL    HW233984   1.090   4.352   2.968 -1.9784  2.1337  4.8501
 7451SOL     OW33985   4.005   0.677   2.978  0.0237 -0.0674  0.2643
 7451SOL    HW133986   4.077   0.739   2.970 -0.1985  0.1383 -0.1337
 7451SOL    HW233987   3.955   0.717   3.049 -1.7477  0.2196 -1.1117
 7452SOL     OW33988   1.221   2.054   1.477 -0.2107  0.0651  0.6417
 7452SOL    HW133989   1.126   2.038   1.475 -0.1113 -0.4493  0.2776
 7452SOL    HW233990   1.229   2.023   1.567  0.7762 -2.5874 -0.3480
 7453SOL     OW33991   2.819   2.895   3.560  0.1240 -0.0571  0.0464
 7453SOL    HW133992   2.825   2.824   3.623  3.2029  0.5763  0.4564
 7453SOL    HW233993   2.775   2.973   3.594  1.3251 -0.0367  1.5475
 7454SOL     OW33994   2.204   1.843   1.905  0.2143 -0.5558  0.4159
 7454SOL    HW133995   2.200   1.800   1.820 -0.3587  1.3179 -0.4962
 7454SOL    HW233996   2.165   1.774   1.958 -0.2094  1.2386  2.4708
 7455SOL     OW33997   1.853   0.277   3.398  0.0581  0.1229  0.0615
 7455SOL    HW133998   1.770   0.244   3.432 -0.4284  0.0496 -1.1890
 7455SOL    HW233999   1.812   0.344   3.342 -0.6006  1.3330  1.9997
 7456SOL     OW34000   0.989   3.078  11.577 -0.0037  0.7895  0.1987
 7456SOL    HW134001   0.972   3.026  11.656  0.3923  0.2379 -0.0795
 7456SOL    HW234002   0.906   3.069  11.530  0.6264 -0.9381 -0.5902
 7457SOL     OW34003   4.382   0.973  11.975  0.4188  0.2464 -0.2480
 7457SOL    HW134004   4.336   0.891  11.996  2.0607 -0.8638 -1.0048
 7457SOL    HW234005   4.468   0.937  11.955 -1.1893 -3.9696  0.2008
 7458SOL     OW34006   2.351   1.983   3.992  0.2944  0.2710 -0.2773
 7458SOL    HW134007   2.400   1.912   4.033  0.0582  0.6938  0.7409
 7458SOL    HW234008   2.373   2.058   4.047  0.0703 -1.2061  1.8510
 7459SOL     OW34009   0.364   3.984   5.339  0.4446 -0.1848 -0.0132
 7459SOL    HW134010   0.407   3.915   5.289 -1.1812 -1.5975  0.5362
 7459SOL    HW234011   0.357   4.055   5.274 -0.1444 -0.1560  0.0787
 7460SOL     OW34012   1.569   1.132   3.805 -0.0388 -0.2887  0.5745
 7460SOL    HW134013   1.503   1.073   3.770 -0.1582 -0.0014  0.3137
 7460SOL    HW234014   1.515   1.189   3.859  0.4718  0.9364 -0.2016
 7461SOL     OW34015   3.691   2.204   8.210  0.0568  0.2477 -0.1246
 7461SOL    HW134016   3.687   2.225   8.117  0.5683  2.7234  0.4175
 7461SOL    HW234017   3.680   2.292   8.247  1.9808  0.5937 -0.4030
 7462SOL     OW34018   1.756   0.188   2.746  0.5337  0.0157  1.0326
 7462SOL    HW134019   1.818   0.211   2.676  1.4246 -1.6874  1.2576
 7462SOL    HW234020   1.789   0.101   2.768  1.2202 -0.7079 -2.8386
 7463SOL     OW34021   1.243   1.098   4.107  0.0767 -0.0794  0.0284
 7463SOL    HW134022   1.223   1.062   4.020  1.7669  0.6656 -0.6619
 7463SOL    HW234023   1.198   1.182   4.103 -1.3134 -0.7765  0.7718
 7464SOL     OW34024   4.349   3.573   6.990 -0.0763  0.0656  0.4393
 7464SOL    HW134025   4.357   3.641   6.924  1.5111  1.0957  1.7012
 7464SOL    HW234026   4.410   3.616   7.049 -0.5637  1.1377  0.1634
 7465SOL     OW34027   0.688   3.970   8.359 -0.1839  0.1003 -0.1576
 7465SOL    HW134028   0.758   4.033   8.339 -1.0601  0.8757 -0.8009
 7465SOL    HW234029   0.615   4.004   8.307 -1.6687 -1.3470  0.9935
 7466SOL     OW34030   4.433   0.151  10.029  0.3748  0.4465 -0.2462
 7466SOL    HW134031   4.468   0.164   9.941  2.9358  1.0781  0.8901
 7466SOL    HW234032   4.342   0.124  10.013  0.2916  0.6988 -0.1930
 7467SOL     OW34033   2.341   4.022   7.871  0.3506 -0.6112 -0.2680
 7467SOL    HW134034   2.428   3.989   7.849  0.1602  0.3820 -2.4557
 7467SOL    HW234035   2.358   4.116   7.864  1.9365 -0.7777  1.2784
 7468SOL     OW34036   3.790   0.996  10.180  0.2956 -0.0721 -0.2530
 7468SOL    HW134037   3.717   1.037  10.133  0.6457  0.1325 -0.6264
 7468SOL    HW234038   3.742   0.972  10.258  1.6687 -0.3011  0.5245
 7469SOL     OW34039   2.872   0.391  16.479  0.4231  0.5877  0.4215
 7469SOL    HW134040   2.879   0.421  16.569  3.2010  1.0848  0.0332
 7469SOL    HW234041   2.833   0.304  16.488 -1.4076  1.3295 -0.2670
 7470SOL     OW34042   3.805   0.637   7.144 -0.3824 -0.2322  0.4863
 7470SOL    HW134043   3.900   0.639   7.158 -0.1632  0.8312 -1.1724
 7470SOL    HW234044   3.775   0.718   7.184  0.1027  0.5143 -0.6865
 7471SOL     OW34045   4.099   1.980   9.121  0.0223 -0.3240  0.0445
 7471SOL    HW134046   4.066   2.059   9.163 -1.8036 -1.0630 -0.0241
 7471SOL    HW234047   4.035   1.967   9.052  0.7508 -0.8399 -0.5396
 7472SOL     OW34048   3.151   2.001   6.582  0.3588 -0.3384  0.3431
 7472SOL    HW134049   3.198   1.981   6.501 -1.7149  0.4634 -1.0573
 7472SOL    HW234050   3.229   2.011   6.637  0.5411 -0.5866  0.1308
 7473SOL     OW34051   0.289   3.977   7.881  0.0253 -0.3196  0.4567
 7473SOL    HW134052   0.207   3.999   7.837  0.6814  3.1674  0.9291
 7473SOL    HW234053   0.335   4.061   7.891 -0.7378  0.2376 -0.7381
 7474SOL     OW34054   0.316   3.495   5.059  0.3447 -0.1495 -0.7890
 7474SOL    HW134055   0.363   3.420   5.024 -0.7333  0.8092 -4.2466
 7474SOL    HW234056   0.346   3.481   5.149  1.2610 -0.4751 -1.1437
 7475SOL     OW34057   0.703   2.055   0.595 -0.4009 -0.8412  0.2490
 7475SOL    HW134058   0.739   2.085   0.512 -0.0277  0.3709  0.8558
 7475SOL    HW234059   0.653   2.131   0.626  0.7403  0.5546 -1.3470
 7476SOL     OW34060   3.179   3.892  12.838  0.1707  0.9435  0.4933
 7476SOL    HW134061   3.248   3.889  12.906 -2.2241  1.5542  2.9410
 7476SOL    HW234062   3.105   3.891  12.898 -1.0488  1.0605 -1.0353
 7477SOL     OW34063   3.932   2.321   1.760  0.7626  0.3374 -0.3562
 7477SOL    HW134064   3.973   2.406   1.772  2.5667 -0.6675  0.5812
 7477SOL    HW234065   3.867   2.345   1.693  2.3662  1.6151 -1.4425
 7478SOL     OW34066   3.806   0.459   8.149 -0.0855 -0.5651  0.1608
 7478SOL    HW134067   3.791   0.365   8.161  0.0439 -0.6158 -0.0792
 7478SOL    HW234068   3.780   0.496   8.233 -0.8066  1.1874 -0.8192
 7479SOL     OW34069   3.628   3.994   7.757 -0.5742 -0.1457 -0.8973
 7479SOL    HW134070   3.644   3.946   7.839  0.8674 -0.9580 -1.6543
 7479SOL    HW234071   3.645   4.083   7.788 -0.6169 -0.4513 -0.0033
 7480SOL     OW34072   3.567   2.677   1.371  0.1857 -0.0244 -0.1952
 7480SOL    HW134073   3.553   2.660   1.464 -1.0215  0.1857 -0.3314
 7480SOL    HW234074   3.582   2.772   1.378  0.2944 -0.2452  2.4536
 7481SOL     OW34075   1.218   3.354   6.490 -0.1981  0.4117 -0.2066
 7481SOL    HW134076   1.169   3.293   6.545 -0.0107  0.4623  0.0170
 7481SOL    HW234077   1.176   3.322   6.410 -2.1616  2.4334  0.0203
 7482SOL     OW34078   1.950   1.995   9.073  0.0367  0.7691  0.3026
 7482SOL    HW134079   1.857   2.004   9.092 -0.3835  0.5025 -1.6128
 7482SOL    HW234080   1.941   1.917   9.018  0.4379  0.9273  0.0130
 7483SOL     OW34081   4.726   3.461  16.335  0.0983 -0.4779 -0.2671
 7483SOL    HW134082   0.052   3.439  16.397 -0.5364  2.8999  1.6383
 7483SOL    HW234083   0.000   3.393  16.270 -3.1810 -0.5250 -1.0930
 7484SOL     OW34084   3.346   0.502  16.619 -0.4821  0.4734  0.2033
 7484SOL    HW134085   3.271   0.523  16.563  0.5415  0.3179 -1.2152
 7484SOL    HW234086   3.352   0.572  16.684 -0.4535  1.0674 -0.4315
 7485SOL     OW34087   0.674   0.733  10.016 -0.3856  0.3229 -0.2580
 7485SOL    HW134088   0.701   0.682  10.092 -2.6286 -0.3765  0.0686
 7485SOL    HW234089   0.748   0.713   9.958 -0.2432 -0.3619  0.1516
 7486SOL     OW34090   3.983   2.207   4.047 -0.4178 -0.0659  0.4976
 7486SOL    HW134091   3.962   2.229   3.956  2.4735 -0.4038 -0.2478
 7486SOL    HW234092   3.999   2.112   4.042 -0.7152 -0.2718  3.2841
 7487SOL     OW34093   4.676   3.978  11.693  0.4788 -0.6975 -0.4266
 7487SOL    HW134094   4.691   4.065  11.731 -3.1170 -0.2509 -0.1070
 7487SOL    HW234095   0.021   3.942  11.682  0.5590 -0.2360 -1.2694
 7488SOL     OW34096   4.230   3.367   7.965 -0.3215 -0.0958 -0.3515
 7488SOL    HW134097   4.180   3.448   7.976 -0.0268 -0.5147  4.0172
 7488SOL    HW234098   4.293   3.390   8.033 -2.1899 -0.6647  1.5967
 7489SOL     OW34099   2.542   1.530  16.914 -0.3666  0.0364  0.2670
 7489SOL    HW134100   2.480   1.459  16.929 -0.0994 -0.3991 -0.6989
 7489SOL    HW234101   2.578   1.509  16.827  0.5792  1.7177  0.2433
 7490SOL     OW34102   1.233   0.195   8.527 -0.0100 -0.0910  0.0288
 7490SOL    HW134103   1.307   0.255   8.517  1.7833 -1.8482  2.3744
 7490SOL    HW234104   1.172   0.227   8.461  0.5657  1.0312  0.0473
 7491SOL     OW34105   3.773   2.930   7.631  0.2130  0.1222  0.0502
 7491SOL    HW134106   3.726   2.864   7.579  0.1930  0.8723 -0.8806
 7491SOL    HW234107   3.719   2.923   7.710  1.0624  0.6799  0.6700
 7492SOL     OW34108   3.547   3.506   1.415 -0.1006 -0.2274  0.6927
 7492SOL    HW134109   3.566   3.600   1.415 -1.5039  0.0648 -0.1442
 7492SOL    HW234110   3.616   3.490   1.352 -1.0063  1.1060 -0.6353
 7493SOL     OW34111   0.932   1.333   5.155  0.5236  0.0796  0.4633
 7493SOL    HW134112   0.911   1.244   5.183  0.0145 -0.4514 -1.5674
 7493SOL    HW234113   0.919   1.327   5.060  0.7348  0.1370  0.4316
 7494SOL     OW34114   2.955   3.280   2.482  0.1585 -0.4199 -0.2756
 7494SOL    HW134115   2.915   3.322   2.558 -0.0619  1.1763 -1.2812
 7494SOL    HW234116   3.037   3.330   2.479  0.3928 -0.6450  2.8181
 7495SOL     OW34117   2.897   3.844   7.688  0.0542 -0.1108 -0.1447
 7495SOL    HW134118   2.884   3.792   7.609 -1.0635 -1.7596  1.1373
 7495SOL    HW234119   2.992   3.834   7.696 -0.0196 -0.5192  0.1979
 7496SOL     OW34120   0.722   3.023   2.846 -0.2541  0.3624  0.0475
 7496SOL    HW134121   0.708   3.002   2.938 -2.0128  1.6576  0.0846
 7496SOL    HW234122   0.727   3.119   2.853  0.9507  0.2252  1.0972
 7497SOL     OW34123   2.765   3.831  15.949  0.2768 -0.5020 -0.1555
 7497SOL    HW134124   2.839   3.775  15.928  0.4538 -0.5101  0.5098
 7497SOL    HW234125   2.811   3.913  15.966 -0.4819  0.0573 -0.7564
 7498SOL     OW34126   3.505   4.450   3.194 -0.2632  0.2432  0.2240
 7498SOL    HW134127   3.575   4.399   3.154 -3.3779  0.2806 -5.2924
 7498SOL    HW234128   3.442   4.423   3.127  0.8960  0.0250 -0.7756
 7499SOL     OW34129   3.347   3.144   7.921  0.0258 -0.0911 -0.1455
 7499SOL    HW134130   3.436   3.132   7.953 -0.5012  1.6703  2.0459
 7499SOL    HW234131   3.305   3.159   8.006 -1.3579  2.7508 -1.2966
 7500SOL     OW34132   4.552   2.159   2.723 -0.0263 -0.1972 -0.7286
 7500SOL    HW134133   4.489   2.121   2.662 -1.6984  2.1268 -0.4513
 7500SOL    HW234134   4.605   2.081   2.737 -0.0985 -0.3626 -1.3763
 7501SOL     OW34135   3.316   1.578  13.856 -0.0674 -0.7357  0.4104
 7501SOL    HW134136   3.314   1.512  13.787 -4.9000  0.5561 -0.6799
 7501SOL    HW234137   3.349   1.650  13.802 -0.2671 -2.4647 -1.9899
 7502SOL     OW34138   3.236   2.027   8.867 -0.4749  0.2774 -0.2274
 7502SOL    HW134139   3.143   2.007   8.868 -0.2693 -0.6582  0.4837
 7502SOL    HW234140   3.235   2.113   8.825  0.8820  1.0222  1.2400
 7503SOL     OW34141   3.011   2.548  12.895 -0.4435 -0.2331 -0.5765
 7503SOL    HW134142   2.999   2.494  12.817 -0.3917  0.0633 -0.7899
 7503SOL    HW234143   3.088   2.601  12.872 -0.0304  0.7296  2.8711
 7504SOL     OW34144   3.725   4.029   7.201  0.2843  0.3726  0.4331
 7504SOL    HW134145   3.692   4.055   7.287  0.7671  0.7799  0.4918
 7504SOL    HW234146   3.687   4.082   7.132 -1.6906  2.1448  2.8817
 7505SOL     OW34147   4.405   2.065   2.505  0.1406 -1.1419  0.5976
 7505SOL    HW134148   4.391   2.043   2.413  0.4628  1.9662 -0.2123
 7505SOL    HW234149   4.325   2.038   2.549  0.1965 -1.8046  0.2949
 7506SOL     OW34150   3.125   3.955   5.838 -0.0726 -0.8411  0.0935
 7506SOL    HW134151   3.173   4.022   5.886  1.0675 -1.9602  0.5093
 7506SOL    HW234152   3.108   3.881   5.896 -1.2614 -0.8361 -0.2458
 7507SOL     OW34153   0.521   4.175   1.853 -0.2343  0.1871  0.0960
 7507SOL    HW134154   0.487   4.119   1.922  0.1009  0.3924  0.4298
 7507SOL    HW234155   0.601   4.133   1.822 -0.1549  1.3226 -1.2842
 7508SOL     OW34156   0.051   4.350   2.335  0.1324  0.0628 -0.1537
 7508SOL    HW134157   0.130   4.349   2.389 -1.0636  2.7917  1.6657
 7508SOL    HW234158   4.721   4.359   2.395 -0.3566  0.1777 -0.7776
 7509SOL     OW34159   4.412   4.636   7.564 -0.1938 -0.3119 -0.0609
 7509SOL    HW134160   4.409   4.542   7.584  1.9821 -0.0329  1.5557
 7509SOL    HW234161   4.430   4.678   7.648  0.5715 -2.0598  0.6562
 7510SOL     OW34162   4.326   1.836   9.995 -0.1880  0.1707 -0.4336
 7510SOL    HW134163   4.321   1.893  10.071  1.7211  1.6185 -1.4154
 7510SOL    HW234164   4.413   1.806  10.019 -1.4436 -3.6156 -0.5639
 7511SOL     OW34165   4.226   0.407   7.046  0.4469  0.2715 -0.1323
 7511SOL    HW134166   4.322   0.400   7.048  0.4496  0.2570 -0.2901
 7511SOL    HW234167   4.203   0.438   7.133 -1.7918 -1.0690 -0.2416
 7512SOL     OW34168   0.642   2.361  12.688 -0.1680  0.4045  0.4311
 7512SOL    HW134169   0.716   2.381  12.746  0.7617  0.4526 -0.7645
 7512SOL    HW234170   0.682   2.375  12.602  0.2730  0.0671  0.5802
 7513SOL     OW34171   0.501   1.179   2.748  0.2845  0.0365 -0.1702
 7513SOL    HW134172   0.501   1.264   2.793  1.2547 -0.4410  0.7307
 7513SOL    HW234173   0.487   1.215   2.660  1.7990  0.0862 -0.3897
 7514SOL     OW34174   3.342   3.333   3.186  0.0398  0.0294  0.0630
 7514SOL    HW134175   3.339   3.426   3.208  1.6002  0.2403 -0.5623
 7514SOL    HW234176   3.431   3.327   3.151 -0.4023 -3.8485 -0.4139
 7515SOL     OW34177   3.692   0.393  13.591 -0.5160  0.3343  0.1618
 7515SOL    HW134178   3.671   0.349  13.508 -1.9538  0.8280  0.2591
 7515SOL    HW234179   3.740   0.317  13.625  0.4801 -0.0436 -2.0484
 7516SOL     OW34180   1.161   2.889   4.913 -0.2295 -0.2525 -0.2354
 7516SOL    HW134181   1.233   2.949   4.891 -1.3157  0.3528 -2.0866
 7516SOL    HW234182   1.202   2.802   4.911 -2.1595 -1.1518 -0.0524
 7517SOL     OW34183   1.820   2.196   8.382  0.1716  0.0275 -0.8817
 7517SOL    HW134184   1.735   2.239   8.384  0.1952 -0.0704  1.2887
 7517SOL    HW234185   1.872   2.275   8.393 -0.5867  0.4907 -0.6727
 7518SOL     OW34186   0.061   0.373  10.947  0.1863 -0.3526  0.0717
 7518SOL    HW134187   0.082   0.301  11.007  3.3587 -0.9219 -1.7619
 7518SOL    HW234188   0.119   0.359  10.873  1.2603 -2.4003  1.3183
 7519SOL     OW34189   1.875   3.862   6.955 -0.4006 -0.1524 -0.2917
 7519SOL    HW134190   1.817   3.920   6.907 -2.4666 -2.9990 -1.2127
 7519SOL    HW234191   1.851   3.883   7.046  0.0003  1.6891 -0.6023
 7520SOL     OW34192   0.821   4.564  13.009  0.0208  0.1456 -0.1402
 7520SOL    HW134193   0.782   4.632  13.063 -1.1149 -0.5479 -0.1044
 7520SOL    HW234194   0.787   4.489  13.058 -0.5730  0.9699  0.6948
 7521SOL     OW34195   3.387   0.161   7.286  0.0826 -0.1129 -0.5358
 7521SOL    HW134196   3.333   0.085   7.311  1.1491 -0.9074 -0.6542
 7521SOL    HW234197   3.417   0.138   7.199 -1.1454 -0.9596 -0.7430
 7522SOL     OW34198   4.718   3.869   6.704  0.4723  0.0051 -0.1022
 7522SOL    HW134199   4.666   3.949   6.693  2.2826  1.5905  3.0611
 7522SOL    HW234200   0.025   3.871   6.623 -0.9997 -1.2886 -1.0600
 7523SOL     OW34201   1.623   1.470   7.305  0.2691  0.4467 -0.2856
 7523SOL    HW134202   1.542   1.520   7.315 -0.6376 -0.9718 -0.5762
 7523SOL    HW234203   1.591   1.381   7.291  0.7485  0.1245  0.6826
 7524SOL     OW34204   3.416   0.791   5.834  0.0646  0.0008  0.6281
 7524SOL    HW134205   3.410   0.791   5.739  0.6706  0.9364  0.5910
 7524SOL    HW234206   3.509   0.791   5.856  0.3941 -1.2800 -0.7223
 7525SOL     OW34207   4.197   2.482   6.969 -0.1484  0.5557  0.2970
 7525SOL    HW134208   4.249   2.540   6.914  0.5421  0.4281  0.8081
 7525SOL    HW234209   4.231   2.501   7.057  0.5340  1.6238 -0.2006
 7526SOL     OW34210   4.146   4.686   3.393 -0.3672  0.1916 -0.0128
 7526SOL    HW134211   4.077   4.621   3.407  1.8608 -2.0841  0.5132
 7526SOL    HW234212   4.122   0.011   3.455 -1.1163  0.0285 -0.1176
 7527SOL     OW34213   0.670   0.382   7.829 -0.1423  0.2063 -0.3551
 7527SOL    HW134214   0.759   0.399   7.799 -0.7317 -2.0126 -3.3215
 7527SOL    HW234215   0.687   0.393   7.923 -1.0114 -0.0084 -0.1715
 7528SOL     OW34216   2.365   1.104   4.333  0.4645  0.6594  0.2929
 7528SOL    HW134217   2.314   1.082   4.255 -1.7025  3.3583  0.9544
 7528SOL    HW234218   2.325   1.045   4.396 -0.4261 -0.6190 -1.4808
 7529SOL     OW34219   1.578   4.494   6.320 -0.1265 -0.3149 -0.2979
 7529SOL    HW134220   1.650   4.435   6.300 -0.7328 -1.2927  0.4164
 7529SOL    HW234221   1.523   4.435   6.372 -2.7220  0.1614 -2.5013
 7530SOL     OW34222   4.740   4.474   9.579 -0.5100  0.0141  0.2871
 7530SOL    HW134223   4.742   4.541   9.511  0.7039  0.2942  0.6006
 7530SOL    HW234224   4.661   4.497   9.627 -0.7217  0.3011 -0.2019
 7531SOL     OW34225   3.340   3.842  13.051 -0.1333 -0.1375  0.5672
 7531SOL    HW134226   3.410   3.887  13.098  1.6657 -2.3110 -0.0234
 7531SOL    HW234227   3.365   3.751  13.066 -1.9346 -0.5679  1.0190
 7532SOL     OW34228   3.276   4.133   1.354  0.6830 -0.8731 -0.2877
 7532SOL    HW134229   3.312   4.208   1.400  1.5088 -0.7443 -1.1298
 7532SOL    HW234230   3.315   4.059   1.399 -0.1880  0.8487  3.2681
 7533SOL     OW34231   1.930   0.739   4.704  1.0418 -0.0343  0.2241
 7533SOL    HW134232   1.908   0.683   4.630  1.6232 -1.2900  1.0042
 7533SOL    HW234233   1.854   0.796   4.721  1.1514 -0.0176  0.6595
 7534SOL     OW34234   4.716   4.402   1.698  0.2873  0.2353  0.0946
 7534SOL    HW134235   0.004   4.312   1.690 -1.3004 -0.3716  0.7505
 7534SOL    HW234236   4.698   4.404   1.792  0.4868  0.7968  0.1237
 7535SOL     OW34237   2.112   2.910   9.045 -0.6216  0.0813  0.6736
 7535SOL    HW134238   2.184   2.864   9.088 -1.0709 -1.3045 -0.0544
 7535SOL    HW234239   2.066   2.943   9.123  0.4239  0.1453  1.2575
 7536SOL     OW34240   0.525   0.631   7.824 -0.0941  0.3423 -0.3501
 7536SOL    HW134241   0.604   0.650   7.874 -0.4711 -3.4857  1.7411
 7536SOL    HW234242   0.579   0.593   7.755  1.8317  2.1651  0.1475
 7537SOL     OW34243   1.847   0.019   5.977  0.2481  0.6943  0.1110
 7537SOL    HW134244   1.820   4.672   5.992  1.2921  0.5378  1.0377
 7537SOL    HW234245   1.941   0.005   5.962 -0.1341 -0.0179 -1.6640
 7538SOL     OW34246   3.786   3.375   6.091  0.3279 -0.3170 -0.4044
 7538SOL    HW134247   3.837   3.379   6.010 -0.8595 -0.0495 -1.1298
 7538SOL    HW234248   3.714   3.317   6.065  0.4170  0.3980 -2.2277
 7539SOL     OW34249   0.880   0.805   3.791 -0.2607 -0.4584 -0.4409
 7539SOL    HW134250   0.787   0.783   3.797 -0.1304 -0.6409  0.8557
 7539SOL    HW234251   0.876   0.875   3.857 -1.5294 -0.1421 -0.8433
 7540SOL     OW34252   1.762   2.167   7.879  0.5727  0.6996  0.0727
 7540SOL    HW134253   1.813   2.136   7.804  1.5123  2.6008 -0.0600
 7540SOL    HW234254   1.825   2.159   7.950 -1.5448  0.4576  1.9349
 7541SOL     OW34255   3.828   4.635   4.644 -0.6744  0.5392  0.3707
 7541SOL    HW134256   3.911   4.604   4.678  1.0443  0.5789 -3.7859
 7541SOL    HW234257   3.865   4.684   4.571  0.3262 -0.2815  0.3289
 7542SOL     OW34258   0.592   0.947  11.189 -0.2182 -0.3494 -0.0883
 7542SOL    HW134259   0.539   0.894  11.249  0.3161 -0.3953  0.3410
 7542SOL    HW234260   0.676   0.911  11.217 -0.5644 -0.6784  0.5417
 7543SOL     OW34261   4.619   2.818   5.433  0.3931 -0.5274 -0.2397
 7543SOL    HW134262   4.551   2.868   5.387  1.8495  1.0433 -0.6648
 7543SOL    HW234263   4.679   2.811   5.359 -1.7418 -0.9106 -1.9326
 7544SOL     OW34264   0.850   3.767   5.560 -0.9424 -0.1409  0.4279
 7544SOL    HW134265   0.883   3.679   5.542  1.9571  1.0429 -0.0494
 7544SOL    HW234266   0.882   3.775   5.650 -0.6744  0.3827  0.2810
 7545SOL     OW34267   1.043   1.472   8.403  0.1585  0.0257 -0.5168
 7545SOL    HW134268   1.122   1.525   8.394 -0.6134  0.7930 -2.6446
 7545SOL    HW234269   1.056   1.413   8.330 -0.3145 -0.1026 -0.4932
 7546SOL     OW34270   1.837   0.737   9.321 -0.1119  0.1638  0.3964
 7546SOL    HW134271   1.876   0.722   9.407 -0.0652 -0.0378  0.3393
 7546SOL    HW234272   1.882   0.676   9.263 -1.0133  1.1091 -1.3127
 7547SOL     OW34273   3.133   3.141  16.612  0.4641  1.0601 -0.4526
 7547SOL    HW134274   3.199   3.175  16.552  1.0316  0.2479 -0.2855
 7547SOL    HW234275   3.123   3.220  16.665 -1.6750  1.3263 -1.2659
 7548SOL     OW34276   1.827   1.893   6.081  0.4409  0.1346 -0.4705
 7548SOL    HW134277   1.795   1.865   6.167 -0.6792  1.0148 -0.6126
 7548SOL    HW234278   1.824   1.809   6.034 -0.5959 -0.5016  0.7236
 7549SOL     OW34279   2.269   0.862   6.837 -0.8028  0.3517  0.1014
 7549SOL    HW134280   2.278   0.845   6.931  3.2682  1.1991 -0.1525
 7549SOL    HW234281   2.308   0.949   6.828  1.0362 -0.6979 -1.9658
 7550SOL     OW34282   3.282   4.006   4.363  0.1797 -0.1874  0.1663
 7550SOL    HW134283   3.250   3.931   4.413  0.7132 -0.3045  0.3408
 7550SOL    HW234284   3.313   4.058   4.437 -1.6734  0.1172  0.7167
 7551SOL     OW34285   0.905   2.217   2.058 -0.5487 -1.2480  0.2992
 7551SOL    HW134286   0.867   2.142   2.105  0.2733 -1.0464  1.2707
 7551SOL    HW234287   0.848   2.238   1.984 -1.3960 -0.4065  1.2002
 7552SOL     OW34288   4.582   2.761   2.686  0.1892 -0.6561  0.1516
 7552SOL    HW134289   4.488   2.753   2.700  0.0372  0.8268  0.0463
 7552SOL    HW234290   4.571   2.744   2.592  0.5782 -0.6808  0.1115
 7553SOL     OW34291   3.036   3.615  14.130 -0.3641  0.1079 -0.1563
 7553SOL    HW134292   3.054   3.695  14.180  1.4225 -0.1969 -0.2968
 7553SOL    HW234293   3.126   3.585  14.140 -0.8138 -1.2358 -0.1665
 7554SOL     OW34294   0.852   2.126   5.173 -0.0223  0.5239 -0.3198
 7554SOL    HW134295   0.900   2.068   5.232  0.5410 -0.3874 -1.6726
 7554SOL    HW234296   0.782   2.147   5.235  0.7547 -3.1358  1.7614
 7555SOL     OW34297   4.290   2.268   9.302  0.0165 -0.3787  0.6989
 7555SOL    HW134298   4.369   2.237   9.257  0.5193  0.5395  0.9500
 7555SOL    HW234299   4.243   2.185   9.299 -0.5009 -0.1008  1.0953
 7556SOL     OW34300   0.239   0.697   3.832  0.1850  0.4138  0.0638
 7556SOL    HW134301   0.227   0.750   3.753 -0.7591  0.6063  0.3388
 7556SOL    HW234302   0.271   0.612   3.801  1.4197  1.1003 -0.5267
 7557SOL     OW34303   2.736   0.396  13.153  0.7139  0.4482 -0.0235
 7557SOL    HW134304   2.748   0.447  13.233 -0.4228  1.7197 -0.6687
 7557SOL    HW234305   2.810   0.335  13.162 -0.7795 -1.4910 -0.8531
 7558SOL     OW34306   2.023   3.980   4.456 -0.1520 -0.5841 -0.0896
 7558SOL    HW134307   2.033   3.995   4.362 -1.5860  0.0353 -0.1338
 7558SOL    HW234308   1.975   4.049   4.502  1.0333  0.9466 -1.1772
 7559SOL     OW34309   3.403   1.816   5.242  0.1949  0.3482 -0.6105
 7559SOL    HW134310   3.477   1.773   5.285 -0.2434  0.0396 -0.1629
 7559SOL    HW234311   3.327   1.765   5.268  0.2956  0.0493 -0.9030
 7560SOL     OW34312   4.730   0.258  12.078  0.1590  0.4687 -0.4343
 7560SOL    HW134313   0.076   0.262  12.045  0.7722 -1.3148  0.9939
 7560SOL    HW234314   4.721   0.164  12.093 -1.2724  0.3614 -2.0576
 7561SOL     OW34315   1.822   2.784  15.135 -0.6916 -0.3282 -0.0458
 7561SOL    HW134316   1.794   2.872  15.109  1.7446  0.0690 -1.2850
 7561SOL    HW234317   1.754   2.729  15.096 -0.1140 -0.6514 -0.5921
 7562SOL     OW34318   4.155   4.020   7.665 -0.0755  0.1372 -0.5184
 7562SOL    HW134319   4.215   3.946   7.657 -0.3582 -0.1547  0.0300
 7562SOL    HW234320   4.159   4.053   7.576  1.1904 -0.2932 -0.6147
 7563SOL     OW34321   3.036   2.259   7.456 -0.0884 -0.1484  0.3484
 7563SOL    HW134322   3.124   2.274   7.489  0.2177 -0.1664 -0.4513
 7563SOL    HW234323   3.033   2.307   7.373 -1.2717 -0.3697  0.2667
 7564SOL     OW34324   3.350   2.074   7.652  0.2076 -0.3707 -0.1177
 7564SOL    HW134325   3.383   2.112   7.733 -0.4597 -0.4101  0.1657
 7564SOL    HW234326   3.307   1.997   7.689 -2.4283  0.4338 -1.4885
 7565SOL     OW34327   0.628   4.444   9.876 -0.4188  0.8307  0.6727
 7565SOL    HW134328   0.687   4.379   9.914  0.9242  1.9840  0.5979
 7565SOL    HW234329   0.574   4.457   9.954 -0.7829 -1.7712  0.8545
 7566SOL     OW34330   0.926   1.369   7.903  0.7921  0.0985  0.4418
 7566SOL    HW134331   0.933   1.347   7.811  1.0144  1.3899  0.1402
 7566SOL    HW234332   0.870   1.447   7.904  0.0573 -0.4573  3.4268
 7567SOL     OW34333   0.239   0.699  12.992  0.3203 -0.3307  0.1098
 7567SOL    HW134334   0.274   0.747  13.067 -1.1608 -2.5991  2.2344
 7567SOL    HW234335   0.296   0.623  12.987 -2.4748 -2.3707 -0.5970
 7568SOL     OW34336   4.269   2.367   6.040  0.5397 -0.2782  0.2365
 7568SOL    HW134337   4.305   2.425   5.973 -0.5049  2.5630  2.1291
 7568SOL    HW234338   4.180   2.358   6.006  0.4133 -2.4817  1.1138
 7569SOL     OW34339   1.047   3.215   9.042  0.4465  0.6640  0.2912
 7569SOL    HW134340   1.005   3.211   8.956 -0.0620 -0.7329  0.5965
 7569SOL    HW234341   1.043   3.121   9.062 -0.0760  0.8338  0.9947
 7570SOL     OW34342   0.904   4.318   7.180 -0.0310  0.2234 -0.0638
 7570SOL    HW134343   0.856   4.371   7.244 -0.6676 -1.3162  0.7177
 7570SOL    HW234344   0.952   4.246   7.220  1.0517  1.6832  1.2468
 7571SOL     OW34345   3.759   0.135   9.967 -0.1472 -0.0428  0.1599
 7571SOL    HW134346   3.769   0.202   9.900 -1.1894  1.0108  1.0344
 7571SOL    HW234347   3.840   0.149  10.016 -1.0218 -0.7935  1.8511
 7572SOL     OW34348   2.315   2.705   2.586 -0.4957  0.0374 -1.0317
 7572SOL    HW134349   2.280   2.723   2.499 -0.3200  1.2046 -0.8542
 7572SOL    HW234350   2.239   2.743   2.631  0.3909 -1.2832  1.5407
 7573SOL     OW34351   1.976   3.511   7.613  0.3374  0.0685  0.7058
 7573SOL    HW134352   1.992   3.572   7.684 -1.2114  1.9153 -0.5166
 7573SOL    HW234353   1.896   3.553   7.580  0.5966 -1.2547 -1.6496
 7574SOL     OW34354   4.081   4.439   0.091 -0.3754  0.0893 -0.0743
 7574SOL    HW134355   4.075   4.514   0.151 -1.2493 -0.5103  0.5816
 7574SOL    HW234356   4.102   4.492   0.014  0.5131 -1.2982 -0.7843
 7575SOL     OW34357   3.245   2.100   9.155  0.3388  0.1682 -0.2613
 7575SOL    HW134358   3.327   2.115   9.201  0.1656 -0.7395  0.3336
 7575SOL    HW234359   3.275   2.080   9.066 -0.7524 -0.0379 -0.5770
 7576SOL     OW34360   4.039   4.105  14.420  0.0802 -0.6371 -0.0290
 7576SOL    HW134361   3.977   4.177  14.405  0.1834 -0.6596 -0.5570
 7576SOL    HW234362   4.058   4.070  14.333 -0.2644  0.2558 -0.4640
 7577SOL     OW34363   0.522   3.043   3.850  0.3233 -0.0830 -0.2445
 7577SOL    HW134364   0.427   3.040   3.836  0.5205 -2.3953 -1.1204
 7577SOL    HW234365   0.545   2.964   3.801 -1.3990 -2.0672  2.1420
 7578SOL     OW34366   3.088   1.691   8.579 -0.1835  0.4633 -0.4905
 7578SOL    HW134367   3.054   1.642   8.653 -0.3120  1.4444  0.0967
 7578SOL    HW234368   3.016   1.744   8.546  0.5257  1.6939 -0.0565
 7579SOL     OW34369   2.186   2.061   7.614  0.4297  0.3100 -0.0996
 7579SOL    HW134370   2.196   1.974   7.652 -0.6077  0.2411  0.0216
 7579SOL    HW234371   2.275   2.094   7.625  0.5793 -0.6103  1.3763
 7580SOL     OW34372   3.817   3.607   8.081 -0.0744 -0.0403 -0.0882
 7580SOL    HW134373   3.742   3.571   8.034 -0.8890  1.4383  0.0618
 7580SOL    HW234374   3.775   3.597   8.166 -0.3548 -0.0613 -0.2298
 7581SOL     OW34375   0.935   1.714   9.788 -0.6535  0.0632  0.6141
 7581SOL    HW134376   0.973   1.682   9.706 -0.6430 -0.6206  0.8894
 7581SOL    HW234377   0.923   1.807   9.769  0.9463  0.0351 -0.4776
 7582SOL     OW34378   1.641   2.719   8.516 -0.1549  0.5862 -0.1586
 7582SOL    HW134379   1.651   2.713   8.611  0.4350  1.6013 -0.1611
 7582SOL    HW234380   1.572   2.654   8.500 -0.7068  0.9353  0.8007
 7583SOL     OW34381   2.997   1.603   4.321 -0.4416  0.1240  0.3071
 7583SOL    HW134382   2.977   1.536   4.387  0.5029  0.7931  1.2709
 7583SOL    HW234383   3.092   1.606   4.324 -0.3688 -2.2731  0.2746
 7584SOL     OW34384   2.679   2.516   7.558 -0.1234 -0.1732 -0.1149
 7584SOL    HW134385   2.774   2.530   7.557  0.3270 -3.1754 -0.2032
 7584SOL    HW234386   2.689   2.443   7.497  2.1052 -0.5771  0.7419
 7585SOL     OW34387   2.969   3.088   6.560  0.4597 -0.2873  0.4869
 7585SOL    HW134388   2.894   3.073   6.503 -0.0004  0.6811  0.8262
 7585SOL    HW234389   2.947   3.046   6.644 -0.2022 -1.1777 -0.1385
 7586SOL     OW34390   1.723   2.258  14.648 -0.1038  0.3903 -0.1112
 7586SOL    HW134391   1.701   2.289  14.560 -1.9396  1.7664  0.8450
 7586SOL    HW234392   1.809   2.301  14.642 -0.5329  1.0497 -1.4986
 7587SOL     OW34393   4.158   0.406   4.545 -0.3414 -0.0371 -0.0087
 7587SOL    HW134394   4.170   0.365   4.459 -1.0471 -0.5365  0.1395
 7587SOL    HW234395   4.171   0.499   4.525 -1.2182  0.0812 -0.0359
 7588SOL     OW34396   0.400   4.643   8.652  0.2029 -0.3042 -0.2579
 7588SOL    HW134397   0.466   4.649   8.720 -2.4868  2.6805  2.0960
 7588SOL    HW234398   0.352   4.568   8.689  1.3914 -1.1251 -0.3663
 7589SOL     OW34399   4.511   4.239   0.352 -0.1885 -0.3599 -0.7045
 7589SOL    HW134400   4.499   4.325   0.313 -1.0779 -0.2546 -0.2027
 7589SOL    HW234401   4.421   4.225   0.383 -0.0232  3.0105  1.3220
 7590SOL     OW34402   0.877   3.149   5.423 -0.2032  0.4065  0.1182
 7590SOL    HW134403   0.899   3.217   5.360 -1.2001 -1.6731 -2.4716
 7590SOL    HW234404   0.932   3.077   5.391 -0.0326  1.5268 -2.1388
 7591SOL     OW34405   1.123   1.378  12.133  0.2453 -0.9312  0.6538
 7591SOL    HW134406   1.112   1.411  12.222  1.0441 -0.5234  0.6059
 7591SOL    HW234407   1.184   1.442  12.096 -0.9268 -1.6625 -2.5467
 7592SOL     OW34408   4.696   3.210  14.054 -0.0061  0.4234  0.3942
 7592SOL    HW134409   0.019   3.249  13.997  0.1565  0.9828  0.9673
 7592SOL    HW234410   4.695   3.123  14.013  0.8684  0.6297 -0.0610
 7593SOL     OW34411   2.993   4.107   2.694  0.1293  0.1694  0.4118
 7593SOL    HW134412   3.013   4.196   2.724 -1.1144  1.0746 -1.5032
 7593SOL    HW234413   2.902   4.093   2.721 -0.4882 -0.3318 -1.9847
 7594SOL     OW34414   4.202   0.041  11.789 -0.0311  0.4411 -0.4300
 7594SOL    HW134415   4.288   0.041  11.747  0.4432  2.4282  0.5775
 7594SOL    HW234416   4.198   0.135  11.802  1.5809  0.1237  2.2087
 7595SOL     OW34417   3.353   1.867   4.962 -0.0313 -0.2952 -0.1588
 7595SOL    HW134418   3.363   1.880   5.056 -0.9094  3.0702 -0.5438
 7595SOL    HW234419   3.351   1.957   4.930  2.1432 -0.2842 -0.2611
 7596SOL     OW34420   3.046   3.740   1.505  0.3568  0.7851  0.1517
 7596SOL    HW134421   3.006   3.778   1.583 -0.2311  0.7501 -0.1325
 7596SOL    HW234422   2.970   3.704   1.460  1.4969 -0.6312 -0.6673
 7597SOL     OW34423   0.387   1.852  12.294 -0.1740  0.5481  0.2073
 7597SOL    HW134424   0.483   1.860  12.292  0.0461 -2.1093  1.1020
 7597SOL    HW234425   0.385   1.757  12.299  2.9922  0.4605  0.0439
 7598SOL     OW34426   1.232   1.115   3.161  0.1146 -0.1411 -0.1625
 7598SOL    HW134427   1.276   1.129   3.078  0.1521  0.6072 -0.0232
 7598SOL    HW234428   1.242   1.020   3.158 -0.9684 -0.3218  1.8212
 7599SOL     OW34429   0.871   1.175   5.977 -0.5992  0.2887  0.4689
 7599SOL    HW134430   0.853   1.219   6.060  0.5605 -2.1916  2.0426
 7599SOL    HW234431   0.830   1.228   5.908  0.2559 -1.6448 -1.5234
 7600SOL     OW34432   0.257   0.432   1.639 -0.1414  0.5367  0.4392
 7600SOL    HW134433   0.175   0.466   1.604  1.3814  1.4755 -2.2734
 7600SOL    HW234434   0.229   0.341   1.640 -0.3008  0.6023  1.6474
 7601SOL     OW34435   4.210   3.983   6.383 -0.0363  0.5045 -0.0508
 7601SOL    HW134436   4.169   3.951   6.303  1.5828 -0.1314 -0.6287
 7601SOL    HW234437   4.129   4.010   6.426  0.3763  1.7407 -0.0490
 7602SOL     OW34438   2.704   3.983   4.369 -0.1058 -0.0932  0.3023
 7602SOL    HW134439   2.642   3.930   4.317 -0.1648  0.2366  0.0382
 7602SOL    HW234440   2.699   4.066   4.323  0.9821  0.5653  1.4032
 7603SOL     OW34441   0.848   0.213   7.141 -0.6479  0.1345 -0.4251
 7603SOL    HW134442   0.752   0.210   7.150 -0.6410  1.1931  0.0752
 7603SOL    HW234443   0.856   0.269   7.064 -0.7281 -0.8132 -1.1184
 7604SOL     OW34444   1.047   4.031   3.338  0.3697 -0.4542 -0.2182
 7604SOL    HW134445   1.021   3.967   3.404 -0.6991 -1.0182 -1.1809
 7604SOL    HW234446   1.103   3.981   3.280 -0.0826  0.2537 -1.2773
 7605SOL     OW34447   2.448   0.915   0.813  0.8219 -0.3892  0.0846
 7605SOL    HW134448   2.513   0.850   0.783  0.5527 -1.5035  1.9361
 7605SOL    HW234449   2.441   0.892   0.906 -3.1568  0.3649 -0.0334
 7606SOL     OW34450   4.628   0.447   9.742 -0.2217 -0.4249  0.5605
 7606SOL    HW134451   4.612   0.482   9.829 -0.8197  0.1607  0.2212
 7606SOL    HW234452   4.694   0.378   9.750  1.1599  0.9741  1.3619
 7607SOL     OW34453   1.983   0.496  14.312 -0.5750  0.3107  0.0246
 7607SOL    HW134454   1.984   0.466  14.403 -1.0059 -0.1920 -0.1375
 7607SOL    HW234455   2.013   0.419  14.263  1.5961  0.7749  0.6085
 7608SOL     OW34456   0.231   3.369   5.891 -0.2715 -0.4035 -0.5403
 7608SOL    HW134457   0.263   3.376   5.801  1.0002  0.6555  0.0033
 7608SOL    HW234458   0.153   3.423   5.877 -0.0650  0.1527  0.5298
 7609SOL     OW34459   3.475   2.745   8.866  0.1192  0.6606 -0.5923
 7609SOL    HW134460   3.497   2.838   8.879 -3.4688  1.2955  0.8825
 7609SOL    HW234461   3.390   2.760   8.825  0.4089 -1.4835 -1.9991
 7610SOL     OW34462   3.349   2.769   8.438 -0.0979  0.2161 -0.4045
 7610SOL    HW134463   3.289   2.791   8.366  1.0108 -1.3763 -1.8092
 7610SOL    HW234464   3.430   2.787   8.391  1.2252  2.8508  2.9150
 7611SOL     OW34465   0.484   1.592   3.677  0.3383 -0.4602  0.0146
 7611SOL    HW134466   0.405   1.567   3.726  1.2695 -0.8280  1.3371
 7611SOL    HW234467   0.467   1.538   3.600  0.1176 -1.6208  0.8693
 7612SOL     OW34468   2.822   4.393   3.519 -0.0575  0.1371 -0.4049
 7612SOL    HW134469   2.916   4.398   3.505  0.0781  0.3270  0.5810
 7612SOL    HW234470   2.812   4.395   3.614 -1.2962 -0.2427 -0.5254
 7613SOL     OW34471   0.366   3.130  17.543  0.3919 -0.0292 -0.5240
 7613SOL    HW134472   0.396   3.175  17.465  2.1402 -1.1254 -0.4754
 7613SOL    HW234473   0.291   3.086  17.503  1.7041 -2.7117 -0.0394
 7614SOL     OW34474   3.388   3.049  15.975 -0.4076 -0.2560 -0.6707
 7614SOL    HW134475   3.296   3.026  15.971 -0.5694  0.3018 -0.1227
 7614SOL    HW234476   3.385   3.115  16.044 -0.0065 -1.5567  0.5769
 7615SOL     OW34477   3.759   1.010   3.482  0.7109  0.1419  0.4039
 7615SOL    HW134478   3.838   0.957   3.469  0.4724 -0.3434  0.8930
 7615SOL    HW234479   3.740   0.991   3.574 -2.3787 -2.4708 -0.7885
 7616SOL     OW34480   0.668   2.654  17.700  0.0970 -0.2424 -0.0063
 7616SOL    HW134481   0.631   2.725  17.647  1.5792 -1.5205 -2.7334
 7616SOL    HW234482   0.608   2.583  17.677 -1.2283  0.7939  0.2417
 7617SOL     OW34483   3.782   3.430   7.692 -0.0365  0.7006 -0.4964
 7617SOL    HW134484   3.706   3.385   7.655  1.5008 -0.2343 -2.5025
 7617SOL    HW234485   3.806   3.487   7.619  0.0501 -0.1770 -1.1502
 7618SOL     OW34486   3.530   3.842   5.216 -0.1921  0.4198  0.3229
 7618SOL    HW134487   3.484   3.910   5.265 -0.1245  1.5288 -1.1791
 7618SOL    HW234488   3.621   3.848   5.247  0.0078 -0.6223 -0.0806
 7619SOL     OW34489   2.489   1.374   6.336 -0.3191 -0.4202  0.6604
 7619SOL    HW134490   2.499   1.469   6.339 -0.1305 -0.4465  0.8416
 7619SOL    HW234491   2.539   1.360   6.256 -1.3609 -0.2216 -0.0285
 7620SOL     OW34492   0.523   2.873   8.589 -0.2017 -0.3228 -0.0259
 7620SOL    HW134493   0.566   2.789   8.598 -0.5041 -0.3228  1.3625
 7620SOL    HW234494   0.431   2.845   8.587 -0.0927 -0.6720 -0.1199
 7621SOL     OW34495   1.336   3.074   1.574  0.4140 -0.3969  0.0428
 7621SOL    HW134496   1.311   3.146   1.516 -2.4207 -2.3601 -1.1687
 7621SOL    HW234497   1.273   3.003   1.564 -0.8975  0.8508 -0.5503
 7622SOL     OW34498   4.283   0.894   2.126  0.2977 -0.1166 -0.0400
 7622SOL    HW134499   4.325   0.840   2.193  1.0120 -0.3217 -0.6489
 7622SOL    HW234500   4.299   0.982   2.159  0.8043 -0.5734  0.9425
 7623SOL     OW34501   0.070   3.644  17.644  0.3917  0.3630  0.2523
 7623SOL    HW134502   0.056   3.564  17.594  1.2563 -0.3675  1.1564
 7623SOL    HW234503   0.011   3.628  17.717 -0.3294  0.2653 -0.3543
 7624SOL     OW34504   0.787   4.680  14.498  0.0581  0.6554  0.3012
 7624SOL    HW134505   0.851   4.644  14.560  0.9416 -0.1965 -1.1035
 7624SOL    HW234506   0.710   4.622  14.504  0.9553 -0.3949  1.8448
 7625SOL     OW34507   1.112   4.545   1.699  0.4013  0.2332 -0.1521
 7625SOL    HW134508   1.154   4.487   1.762  1.3618  1.3983  0.2849
 7625SOL    HW234509   1.181   4.611   1.703  2.6633 -2.3373  3.7275
 7626SOL     OW34510   4.494   0.801   4.347  0.4486  0.3795 -0.8993
 7626SOL    HW134511   4.541   0.840   4.420 -0.9810  0.9423 -0.2826
 7626SOL    HW234512   4.504   0.875   4.286 -1.0923 -0.5770 -2.3073
 7627SOL     OW34513   2.066   2.514   8.739  0.0149  0.7646  0.4372
 7627SOL    HW134514   2.015   2.446   8.694  1.3201  0.0860 -0.0080
 7627SOL    HW234515   2.080   2.572   8.664  2.6522 -0.1911  0.1753
 7628SOL     OW34516   1.344   2.701   1.133  0.0114 -0.1906  0.2155
 7628SOL    HW134517   1.421   2.725   1.183 -0.0211 -1.3761  0.8354
 7628SOL    HW234518   1.286   2.777   1.137  0.0015 -0.1050 -1.5924
 7629SOL     OW34519   0.810   1.899   6.216  0.1499  0.2951  0.5666
 7629SOL    HW134520   0.847   1.820   6.176  1.7632  1.9104 -1.0918
 7629SOL    HW234521   0.718   1.883   6.195  0.1114 -1.6667  2.2208
 7630SOL     OW34522   3.449   3.488  14.317  0.3664  0.0834  0.3311
 7630SOL    HW134523   3.534   3.491  14.361 -0.8173  1.3474  2.5058
 7630SOL    HW234524   3.462   3.578  14.286  0.2236  0.2106  0.6527
 7631SOL     OW34525   4.679   3.562  13.049 -0.1967  0.3798 -0.4853
 7631SOL    HW134526   4.668   3.576  12.955 -0.6204  0.0394 -0.4879
 7631SOL    HW234527   0.030   3.573  13.053 -0.5759  3.6825 -0.2714
 7632SOL     OW34528   1.548   0.707  13.489 -0.1652  0.0891  0.6809
 7632SOL    HW134529   1.477   0.763  13.457 -0.5621 -0.8458 -0.0751
 7632SOL    HW234530   1.499   0.634  13.528 -0.5591  0.5580  1.0698
 7633SOL     OW34531   3.541   4.578  12.696 -0.5508 -0.3308  0.1716
 7633SOL    HW134532   3.635   4.591  12.703 -0.7630  1.9482 -0.8657
 7633SOL    HW234533   3.522   4.580  12.602 -1.2314  0.3189  0.3205
 7634SOL     OW34534   2.071   0.088   7.750  0.0204  0.5057 -0.0819
 7634SOL    HW134535   2.065   0.037   7.669 -1.9186  0.9236 -0.2212
 7634SOL    HW234536   2.164   0.109   7.755  0.3416 -0.3696 -2.6284
 7635SOL     OW34537   1.058   0.244   3.310 -0.0770  0.2541 -0.2849
 7635SOL    HW134538   1.006   0.204   3.380  0.0050  0.9460  0.1670
 7635SOL    HW234539   1.104   0.312   3.358 -1.6073  1.8369 -1.0414
 7636SOL     OW34540   1.164   1.367   2.818 -0.8102  0.3775  0.0853
 7636SOL    HW134541   1.200   1.400   2.736 -1.7628  3.0915  0.7802
 7636SOL    HW234542   1.125   1.284   2.788  0.9617  0.0582 -1.3104
 7637SOL     OW34543   2.916   0.969  10.509  0.7114  0.6054 -0.5622
 7637SOL    HW134544   2.969   0.949  10.587 -1.1525 -1.4992  0.1637
 7637SOL    HW234545   2.918   1.064  10.515  0.9665  0.4656  1.5020
 7638SOL     OW34546   1.153   3.731   1.455  0.1159  0.3975 -0.1360
 7638SOL    HW134547   1.195   3.727   1.369 -0.5993 -4.0432 -0.2631
 7638SOL    HW234548   1.192   3.814   1.484 -1.0965  0.3066  1.7700
 7639SOL     OW34549   0.436   0.581  17.428 -0.1747 -0.5456 -0.0265
 7639SOL    HW134550   0.476   0.544  17.350  0.6749 -0.7245  0.4863
 7639SOL    HW234551   0.343   0.560  17.422  0.1435 -1.6474 -0.9369
 7640SOL     OW34552   2.983   3.205   9.137 -0.3484  0.2485  0.0542
 7640SOL    HW134553   3.011   3.135   9.195 -1.0777 -0.1959 -0.1292
 7640SOL    HW234554   2.987   3.279   9.197  2.1455  0.9449 -0.9747
 7641SOL     OW34555   3.148   1.234   6.010  0.5342  0.1508  0.2112
 7641SOL    HW134556   3.174   1.221   5.918 -1.0501 -3.8400  0.3288
 7641SOL    HW234557   3.120   1.146   6.037  1.2480 -0.5560 -1.3559
 7642SOL     OW34558   2.051   3.349   2.498 -0.2969  0.3228 -0.0864
 7642SOL    HW134559   2.057   3.441   2.524  1.7790  0.6995 -1.8808
 7642SOL    HW234560   2.086   3.354   2.409  0.3955  0.5659  0.1937
 7643SOL     OW34561   4.254   0.590   2.425  0.6742 -0.2694 -0.1399
 7643SOL    HW134562   4.335   0.544   2.403  1.3434  0.3593  1.0363
 7643SOL    HW234563   4.246   0.634   2.341 -4.2526 -1.9768 -0.5986
 7644SOL     OW34564   3.537   1.801   6.563 -0.2676  0.0336  0.1268
 7644SOL    HW134565   3.558   1.733   6.627  2.9249 -0.9020 -1.9060
 7644SOL    HW234566   3.583   1.875   6.603 -2.4179  0.2447  2.2049
 7645SOL     OW34567   1.203   2.550  13.606  0.6259  0.1862  0.1348
 7645SOL    HW134568   1.164   2.589  13.684  0.5631 -2.7323  1.5703
 7645SOL    HW234569   1.274   2.610  13.583 -0.2366 -0.2796 -3.6658
 7646SOL     OW34570   0.165   3.189   3.849  0.7641 -0.0998 -0.5655
 7646SOL    HW134571   0.203   3.106   3.875  5.2015  1.9595 -0.3656
 7646SOL    HW234572   0.176   3.230   3.935 -2.0201  2.8483 -1.5820
 7647SOL     OW34573   0.810   4.627   2.130  0.2854 -0.4411 -0.3563
 7647SOL    HW134574   0.753   4.697   2.099 -0.5169 -0.6578  0.6117
 7647SOL    HW234575   0.775   4.602   2.216  1.8793 -1.9208 -0.1405
 7648SOL     OW34576   3.748   2.689   2.112  0.0225  0.6996 -0.1998
 7648SOL    HW134577   3.750   2.669   2.018 -0.2645  0.0963 -0.0795
 7648SOL    HW234578   3.838   2.675   2.142  0.0951  0.6274 -0.4494
 7649SOL     OW34579   1.385   2.523   8.900 -0.2543  0.8516 -0.1476
 7649SOL    HW134580   1.453   2.484   8.954 -0.5968 -0.8437 -0.9374
 7649SOL    HW234581   1.421   2.611   8.891 -0.9366  1.0682 -0.7648
 7650SOL     OW34582   1.209   1.279   8.291  0.0903 -0.4092 -0.0054
 7650SOL    HW134583   1.267   1.316   8.357 -0.8526  2.0341 -0.5627
 7650SOL    HW234584   1.178   1.203   8.341  1.2947 -1.5250 -0.9591
 7651SOL     OW34585   4.626   2.449   5.639  0.1798  0.3226 -0.2789
 7651SOL    HW134586   4.564   2.477   5.572  1.0106  2.1272 -0.2812
 7651SOL    HW234587   4.658   2.378   5.584  0.2233  1.3946 -1.6285
 7652SOL     OW34588   1.462   1.334  15.924 -0.4366  0.1725  0.1521
 7652SOL    HW134589   1.449   1.298  16.012  0.3475 -1.5731 -0.4471
 7652SOL    HW234590   1.548   1.376  15.932  0.1192 -1.1045  0.9334
 7653SOL     OW34591   1.856   4.446   6.024 -0.1797  0.3697 -0.8417
 7653SOL    HW134592   1.911   4.409   5.955  0.6822  0.9554 -0.4826
 7653SOL    HW234593   1.866   4.374   6.086 -0.7869 -1.8958 -3.4262
 7654SOL     OW34594   2.958   3.574   7.940 -0.0032 -0.2857 -0.6891
 7654SOL    HW134595   2.965   3.516   8.016 -3.0260 -0.3402 -0.4429
 7654SOL    HW234596   3.043   3.568   7.896 -0.0628 -1.5719 -0.6259
 7655SOL     OW34597   1.186   4.691   2.555 -0.0016 -0.0847  0.4652
 7655SOL    HW134598   1.111   4.644   2.518  1.6108 -2.2753 -0.0224
 7655SOL    HW234599   1.194   0.009   2.482 -0.2709  0.9213  1.2776
 7656SOL     OW34600   1.459   0.947  14.727  0.2111 -0.7335  0.2658
 7656SOL    HW134601   1.387   0.997  14.689  1.8485 -0.4554 -2.4875
 7656SOL    HW234602   1.499   0.902  14.652 -0.4297 -0.0295 -0.4981
 7657SOL     OW34603   2.347   1.533   5.720 -0.3839 -0.3101  0.2757
 7657SOL    HW134604   2.358   1.591   5.645 -0.1781 -0.7095 -0.0023
 7657SOL    HW234605   2.284   1.471   5.683 -0.8189  0.2087  0.1304
 7658SOL     OW34606   4.576   0.114   1.922 -0.1840  0.6355  0.2384
 7658SOL    HW134607   4.545   0.118   2.012  2.2498  1.1243  1.0277
 7658SOL    HW234608   4.505   0.164   1.882 -1.2135 -0.1733  1.0338
 7659SOL     OW34609   3.486   2.205   3.671  0.2576  0.0045  0.6326
 7659SOL    HW134610   3.499   2.209   3.577  1.1240 -3.2076  0.6091
 7659SOL    HW234611   3.415   2.142   3.684 -1.1025  1.7311  1.5454
 7660SOL     OW34612   1.419   0.984   9.781  0.2465 -0.4809  0.3550
 7660SOL    HW134613   1.400   1.068   9.739 -1.5002 -1.7433 -1.3941
 7660SOL    HW234614   1.388   0.936   9.704 -1.2623  0.6098  0.2872
 7661SOL     OW34615   3.340   4.408   2.960  0.0500 -0.3562 -0.1691
 7661SOL    HW134616   3.245   4.399   2.958  0.2037 -2.4384  1.5074
 7661SOL    HW234617   3.358   4.502   2.960 -2.2099  0.0799 -0.6643
 7662SOL     OW34618   2.860   0.415   5.293  0.4452 -0.4292  0.3771
 7662SOL    HW134619   2.868   0.472   5.217  0.7550 -2.1456 -0.9037
 7662SOL    HW234620   2.936   0.442   5.345  0.8723 -1.1678  0.1453
 7663SOL     OW34621   3.171   4.394  15.214  0.0194 -0.2736 -0.0132
 7663SOL    HW134622   3.227   4.317  15.228  0.0431 -0.2424  0.0674
 7663SOL    HW234623   3.206   4.414  15.127  0.7572 -2.2491 -0.1720
 7664SOL     OW34624   4.513   4.582   9.667  0.4896  0.1223 -0.2569
 7664SOL    HW134625   4.427   4.543   9.681  0.0752  0.2407 -2.3884
 7664SOL    HW234626   4.508   4.639   9.590 -1.0277  2.2411  1.3937
 7665SOL     OW34627   4.401   2.222   8.517 -0.4554 -0.2882 -0.0897
 7665SOL    HW134628   4.415   2.296   8.458 -0.7562 -0.1613 -0.0007
 7665SOL    HW234629   4.367   2.258   8.599  0.7883 -1.7551  1.0628
 7666SOL     OW34630   0.764   3.114   6.973  0.2776 -0.4141 -0.1528
 7666SOL    HW134631   0.703   3.057   6.926  2.8046 -2.8352 -0.5078
 7666SOL    HW234632   0.827   3.052   7.010 -0.6790 -1.4696 -0.3308
 7667SOL     OW34633   1.915   3.544  11.840  0.3754 -0.0003  0.0084
 7667SOL    HW134634   1.898   3.582  11.926 -1.7892  0.1418 -0.4875
 7667SOL    HW234635   1.872   3.610  11.785  1.4012 -0.9817 -1.9785
 7668SOL     OW34636   3.925   0.453   6.017  0.4475 -0.8990 -0.0107
 7668SOL    HW134637   3.957   0.543   6.012 -0.8276 -0.4248  0.1959
 7668SOL    HW234638   3.839   0.453   5.973 -1.0275  2.7604  2.8433
 7669SOL     OW34639   0.836   1.859   5.374 -0.0960  0.3168 -0.1735
 7669SOL    HW134640   0.882   1.794   5.322  2.5703  1.2194  1.0391
 7669SOL    HW234641   0.885   1.850   5.456 -1.1984  0.9661  0.5575
 7670SOL     OW34642   2.310   2.394  13.466 -0.2020 -0.3371  0.1398
 7670SOL    HW134643   2.355   2.360  13.389  0.9545  0.9594  0.2393
 7670SOL    HW234644   2.311   2.319  13.525  2.2488 -2.4485 -2.5896
 7671SOL     OW34645   2.644   1.389   0.811 -0.2295 -0.4508  0.0644
 7671SOL    HW134646   2.601   1.461   0.764  1.2815  0.3365 -0.1272
 7671SOL    HW234647   2.612   1.313   0.763 -2.0574  1.4447 -1.7197
 7672SOL     OW34648   3.722   0.463   4.785 -0.2169 -0.1776  0.4503
 7672SOL    HW134649   3.652   0.405   4.816 -1.8234  0.9044 -1.2146
 7672SOL    HW234650   3.785   0.469   4.857  0.3730 -1.9874  0.0913
 7673SOL     OW34651   0.837   4.031   0.534 -0.7313 -0.7587 -0.3211
 7673SOL    HW134652   0.828   4.028   0.438  3.7378  1.8538 -0.8263
 7673SOL    HW234653   0.822   3.940   0.557 -1.6194 -0.8171 -1.1391
 7674SOL     OW34654   1.656   4.355   2.852  0.2672 -0.1034 -0.0296
 7674SOL    HW134655   1.711   4.356   2.773  2.2725  0.2954  1.3915
 7674SOL    HW234656   1.617   4.269   2.841 -0.8430  0.4861 -0.7705
 7675SOL     OW34657   2.596   3.242  13.643  0.8383  0.4844 -0.0049
 7675SOL    HW134658   2.628   3.199  13.564 -0.8362  0.3121 -0.6003
 7675SOL    HW234659   2.589   3.170  13.707  0.4401  1.6239  1.2415
 7676SOL     OW34660   0.383   3.802   4.019 -0.4264  0.2076  0.4395
 7676SOL    HW134661   0.377   3.869   4.088  1.7697  1.8506 -0.9840
 7676SOL    HW234662   0.293   3.771   4.027 -0.7042  0.7511 -0.6042
 7677SOL     OW34663   0.565   2.243  15.951 -0.0064 -0.5314  0.0438
 7677SOL    HW134664   0.586   2.150  15.964  1.1649 -0.5707 -2.0252
 7677SOL    HW234665   0.480   2.256  15.993  0.5457  0.6806  0.7708
 7678SOL     OW34666   2.751   1.191   1.694 -0.1536  0.5572  0.2139
 7678SOL    HW134667   2.666   1.150   1.681 -1.5444  2.6956  2.5589
 7678SOL    HW234668   2.802   1.112   1.710  1.5654  1.3373 -1.2969
 7679SOL     OW34669   2.837   3.034   7.003  0.1187  0.6518 -0.3971
 7679SOL    HW134670   2.880   3.102   6.952 -0.0023  2.6222  2.1196
 7679SOL    HW234671   2.776   3.000   6.937  0.0782  3.0444 -1.5801
 7680SOL     OW34672   4.675   4.278   6.111  0.3529  0.2356 -0.1939
 7680SOL    HW134673   4.692   4.187   6.087 -0.5048 -0.0220  0.1674
 7680SOL    HW234674   4.596   4.296   6.060 -0.2457 -0.4230  0.5087
 7681SOL     OW34675   3.595   3.939   3.955  0.2810 -0.5558 -0.8183
 7681SOL    HW134676   3.522   3.896   4.000  0.5055 -0.1630 -0.0820
 7681SOL    HW234677   3.674   3.898   3.990  1.6180  1.7644 -1.0913
 7682SOL     OW34678   3.764   4.316   4.594  0.4141  0.0390 -0.2853
 7682SOL    HW134679   3.778   4.336   4.502  0.7769 -1.1321 -0.4749
 7682SOL    HW234680   3.703   4.384   4.624 -0.3331 -1.7852  2.3715
 7683SOL     OW34681   1.398   2.525   4.298  0.0559  0.6208  0.0336
 7683SOL    HW134682   1.415   2.616   4.272  1.8130  0.3825  0.3306
 7683SOL    HW234683   1.482   2.481   4.285 -1.3471 -1.9072 -0.4782
 7684SOL     OW34684   3.557   3.081   3.085 -0.2937  0.6861  0.3542
 7684SOL    HW134685   3.523   2.999   3.121  2.2526 -0.0576  1.0702
 7684SOL    HW234686   3.621   3.101   3.153  1.1747 -1.2992 -0.4344
 7685SOL     OW34687   3.044   3.442   3.720 -0.8073  0.9211  0.5217
 7685SOL    HW134688   3.138   3.457   3.734 -1.1009  2.5735  0.6348
 7685SOL    HW234689   3.056   3.379   3.648  0.1324  2.2649 -0.4950
 7686SOL     OW34690   2.106   2.694   8.546  0.5886 -0.3279 -0.0212
 7686SOL    HW134691   2.154   2.773   8.521 -0.0790 -0.3949 -1.5118
 7686SOL    HW234692   2.047   2.679   8.472 -0.5112 -0.4625  0.8751
 7687SOL     OW34693   2.215   4.242  15.848 -0.4839 -0.0465 -0.9192
 7687SOL    HW134694   2.298   4.219  15.806  0.8800  3.5636 -0.1964
 7687SOL    HW234695   2.215   4.338  15.854  0.3001 -0.0895 -0.2447
 7688SOL     OW34696   2.397   1.627  15.157 -0.5188 -0.0056 -0.1435
 7688SOL    HW134697   2.329   1.562  15.169  0.2970 -0.9138 -0.4222
 7688SOL    HW234698   2.371   1.681  15.083  1.0431 -2.1089 -2.2400
 7689SOL     OW34699   4.155   4.146   5.599  0.0520 -0.3172 -0.1772
 7689SOL    HW134700   4.146   4.235   5.635  3.3483 -0.7305  1.6725
 7689SOL    HW234701   4.246   4.155   5.570 -0.5832  2.9793 -1.1828
 7690SOL     OW34702   4.336   4.350   6.258  0.1180  0.0930 -0.1461
 7690SOL    HW134703   4.272   4.325   6.324 -1.4575 -1.5036 -2.2648
 7690SOL    HW234704   4.407   4.285   6.264 -0.9152 -0.8339  1.9313
 7691SOL     OW34705   2.592   0.438   3.078  0.7739  0.2487 -0.0402
 7691SOL    HW134706   2.537   0.453   3.155 -3.0674  1.4671 -3.0490
 7691SOL    HW234707   2.528   0.428   3.008 -0.1002 -3.0071  1.2086
 7692SOL     OW34708   0.974   1.701  15.083 -0.0257  0.5718 -0.0311
 7692SOL    HW134709   0.995   1.612  15.055 -0.8824  0.3406  0.0762
 7692SOL    HW234710   0.897   1.729  15.034  0.7372  1.9282 -0.4498
 7693SOL     OW34711   1.589   3.275   7.464  0.2010 -0.2124  0.1073
 7693SOL    HW134712   1.645   3.300   7.537 -2.5052  2.3462  1.3404
 7693SOL    HW234713   1.590   3.352   7.407  1.9915 -2.1859 -2.5399
 7694SOL     OW34714   1.640   1.972   8.130  0.5070  0.1303  0.0995
 7694SOL    HW134715   1.702   1.899   8.140  1.9891  1.7054  2.4253
 7694SOL    HW234716   1.704   2.040   8.108 -1.0873  1.2873 -0.9652
 7695SOL     OW34717   1.007   2.309  11.653 -0.1604 -0.2991  0.0449
 7695SOL    HW134718   1.025   2.385  11.709 -2.5767  0.1104  0.2825
 7695SOL    HW234719   1.005   2.232  11.709  0.6233 -0.0444  0.4240
 7696SOL     OW34720   3.869   3.881   4.009  0.3430  0.0370  0.3601
 7696SOL    HW134721   3.939   3.815   4.015  1.0349  0.6918 -0.4777
 7696SOL    HW234722   3.912   3.966   4.019 -1.5673  1.1857 -1.1382
 7697SOL     OW34723   4.356   2.842   8.895 -0.3482  0.6321  0.1426
 7697SOL    HW134724   4.341   2.749   8.908  2.6307  0.3115  1.1911
 7697SOL    HW234725   4.443   2.854   8.931  1.5694 -1.7885 -3.6959
 7698SOL     OW34726   1.689   0.174   1.218 -0.1627  0.8606  0.5401
 7698SOL    HW134727   1.761   0.237   1.220  0.0034  0.6819  0.0967
 7698SOL    HW234728   1.686   0.152   1.125  2.6357  4.2462 -0.3615
 7699SOL     OW34729   4.346   3.871   7.122  0.2353  0.0377 -0.4158
 7699SOL    HW134730   4.361   3.848   7.030  1.1825  0.0482 -0.2584
 7699SOL    HW234731   4.404   3.945   7.137  0.2574 -0.6764  3.0855
 7700SOL     OW34732   3.307   0.783   8.270 -0.1898 -0.7178  0.3552
 7700SOL    HW134733   3.235   0.832   8.230  1.5925  0.5412 -1.2924
 7700SOL    HW234734   3.280   0.692   8.260 -1.2781 -0.4165  0.6024
 7701SOL     OW34735   1.426   2.009   6.908 -0.5773  1.0249  0.1942
 7701SOL    HW134736   1.381   1.924   6.905 -1.8753  1.7321 -0.5775
 7701SOL    HW234737   1.442   2.021   6.814 -1.7259  2.1125  0.1348
 7702SOL     OW34738   3.890   1.741  11.909  0.8106  0.6958  0.2162
 7702SOL    HW134739   3.860   1.747  11.818  0.0386 -3.0693  0.2480
 7702SOL    HW234740   3.942   1.661  11.907  0.1608  0.2176  2.6213
 7703SOL     OW34741   1.090   4.638   5.564  0.0928 -0.0459  0.0047
 7703SOL    HW134742   0.997   4.653   5.580 -0.5561 -3.2345 -0.7286
 7703SOL    HW234743   1.136   4.708   5.609  1.0608 -0.6980  0.0440
 7704SOL     OW34744   1.211   1.873   2.194  0.0293 -0.0868 -0.8266
 7704SOL    HW134745   1.184   1.964   2.207  3.3365  0.6214  1.1068
 7704SOL    HW234746   1.134   1.828   2.228  1.2077 -2.0891 -0.8257
 7705SOL     OW34747   0.003   2.931   4.838 -0.0208  0.5021 -0.6757
 7705SOL    HW134748   4.669   2.954   4.787  0.2748 -1.1226 -1.8438
 7705SOL    HW234749   0.041   2.864   4.782 -1.1591 -2.0207  1.5657
 7706SOL     OW34750   2.589   2.416   5.296  0.1754 -0.2623 -0.3177
 7706SOL    HW134751   2.599   2.402   5.201 -2.7777 -3.6917 -0.1285
 7706SOL    HW234752   2.509   2.468   5.298  0.4802  0.1611  0.5575
 7707SOL     OW34753   2.559   1.638   3.854  0.5285  0.6175  0.3807
 7707SOL    HW134754   2.609   1.670   3.929  0.3160 -1.9258  1.5947
 7707SOL    HW234755   2.481   1.608   3.901 -1.1677  1.9271 -1.6007
 7708SOL     OW34756   0.968   3.681   0.387  0.0591  0.3346  0.4766
 7708SOL    HW134757   1.039   3.745   0.383  1.1203 -0.6722  3.0186
 7708SOL    HW234758   0.983   3.639   0.472  4.0440 -2.5794 -1.6690
 7709SOL     OW34759   1.141   1.983   6.596  0.0143 -0.4284  0.1716
 7709SOL    HW134760   1.091   1.904   6.617  0.1202 -0.2235  1.1895
 7709SOL    HW234761   1.127   2.035   6.675 -1.5122 -1.8765  0.8502
 7710SOL     OW34762   3.217   1.828   6.852 -0.7035 -0.7486  0.1210
 7710SOL    HW134763   3.248   1.875   6.929  0.3843 -2.5928  0.8022
 7710SOL    HW234764   3.158   1.886   6.803 -1.5025 -0.5821  1.2991
 7711SOL     OW34765   1.361   0.816  13.994  0.0816 -0.8186  0.0622
 7711SOL    HW134766   1.441   0.864  14.013 -0.8516 -0.1769  2.3818
 7711SOL    HW234767   1.380   0.728  14.028 -0.0749 -1.2719 -1.0174
 7712SOL     OW34768   2.603   1.017   7.995 -0.0672 -0.0951 -0.8336
 7712SOL    HW134769   2.602   1.109   7.968 -0.2117 -0.0528 -0.6800
 7712SOL    HW234770   2.634   0.985   7.910 -2.1394 -1.6580 -1.0050
 7713SOL     OW34771   3.999   1.323   1.194  0.3430 -0.4586 -0.3189
 7713SOL    HW134772   3.998   1.318   1.099 -1.3256  2.3282 -0.4642
 7713SOL    HW234773   4.093   1.317   1.211 -0.3579 -2.1106  3.0842
 7714SOL     OW34774   2.309   1.167   3.303  0.0751  0.2025  0.3061
 7714SOL    HW134775   2.333   1.170   3.210  0.8839 -0.7094  0.4805
 7714SOL    HW234776   2.303   1.258   3.333  1.1278  0.8502 -1.4676
 7715SOL     OW34777   4.294   2.128   5.817  0.6039  0.0156  0.0883
 7715SOL    HW134778   4.218   2.087   5.857  0.4265 -2.9151 -3.2090
 7715SOL    HW234779   4.362   2.105   5.881  1.4789  1.5250 -0.2876
 7716SOL     OW34780   2.516   4.184   5.190  0.0806  0.1653 -0.1129
 7716SOL    HW134781   2.472   4.247   5.248 -1.8101 -0.1787 -1.1734
 7716SOL    HW234782   2.487   4.221   5.107 -0.4721  0.1780  0.0876
 7717SOL     OW34783   2.212   2.896   4.808  0.5092  0.4506  0.0179
 7717SOL    HW134784   2.140   2.877   4.867  0.9754  0.2898  0.5422
 7717SOL    HW234785   2.285   2.857   4.856  2.0101  1.9570 -1.0364
 7718SOL     OW34786   3.613   1.952   7.425 -0.0980  0.0703  0.2143
 7718SOL    HW134787   3.700   1.931   7.393 -1.1516 -1.1403 -1.8567
 7718SOL    HW234788   3.624   1.920   7.515  2.3460 -1.3481 -0.5831
 7719SOL     OW34789   2.305   0.417  14.543 -0.4485  0.0317  0.1817
 7719SOL    HW134790   2.359   0.495  14.553  1.4634 -1.0165 -1.7975
 7719SOL    HW234791   2.355   0.372  14.475 -0.3754  0.4564 -0.0504
 7720SOL     OW34792   3.738   1.840   9.133 -0.0934 -0.3506 -0.1923
 7720SOL    HW134793   3.709   1.785   9.061  1.7274 -1.9153  0.2558
 7720SOL    HW234794   3.795   1.900   9.085 -1.7883 -0.4089 -2.2392
 7721SOL     OW34795   1.363   0.014   1.145 -0.1546 -0.3556 -0.4615
 7721SOL    HW134796   1.358   4.694   1.073 -1.1499 -0.3668 -0.3789
 7721SOL    HW234797   1.409   0.088   1.104 -0.7703  0.2271 -0.0943
 7722SOL     OW34798   1.298   0.608   2.145 -0.3550 -0.3308  0.1460
 7722SOL    HW134799   1.269   0.695   2.174 -0.9468 -0.3241 -0.4571
 7722SOL    HW234800   1.387   0.606   2.180  0.1210 -0.0686 -1.0259
 7723SOL     OW34801   1.626   2.731   6.830 -0.6693  0.2868  0.1283
 7723SOL    HW134802   1.604   2.754   6.920  1.8241  1.2653  0.4884
 7723SOL    HW234803   1.633   2.635   6.833  0.3714  0.2751 -3.1855
 7724SOL     OW34804   1.598   2.770   3.616 -0.5933 -0.2891  0.5600
 7724SOL    HW134805   1.522   2.786   3.672  0.0754 -0.2386  1.4498
 7724SOL    HW234806   1.612   2.858   3.580  1.8457  0.1744  2.6733
 7725SOL     OW34807   0.887   4.249  12.216  0.0615 -0.1359  0.0632
 7725SOL    HW134808   0.916   4.198  12.292  1.4150  1.7159  0.7872
 7725SOL    HW234809   0.860   4.170  12.169 -0.3563 -1.5824  2.7225
 7726SOL     OW34810   4.089   1.473   7.278 -0.1480 -0.2606  0.0741
 7726SOL    HW134811   4.085   1.390   7.325 -0.9618 -0.9537 -1.1860
 7726SOL    HW234812   3.999   1.469   7.244 -0.4364 -3.4793  1.1848
 7727SOL     OW34813   1.688   3.639  14.164 -0.6111 -0.1088 -0.7765
 7727SOL    HW134814   1.756   3.626  14.098  1.2408  0.1796  1.0387
 7727SOL    HW234815   1.619   3.577  14.142 -1.7566  0.2555  1.8177
 7728SOL     OW34816   4.075   2.155   8.180  0.4301  0.0994 -0.0473
 7728SOL    HW134817   4.154   2.209   8.179  0.4224  0.1226  0.6330
 7728SOL    HW234818   4.030   2.168   8.096 -1.0898  0.4860  0.8435
 7729SOL     OW34819   2.665   3.420  12.384 -0.4858  0.8722 -0.0674
 7729SOL    HW134820   2.710   3.445  12.465 -0.3571  1.1190 -0.2181
 7729SOL    HW234821   2.612   3.499  12.376  0.0551  1.5522  2.8115
 7730SOL     OW34822   0.288   2.445  14.354 -0.6983 -0.3619  0.1554
 7730SOL    HW134823   0.332   2.499  14.419 -1.1522 -1.4043  1.3155
 7730SOL    HW234824   0.362   2.393  14.321 -1.6103 -1.7666  0.3404
 7731SOL     OW34825   1.042   1.126   7.065 -0.0922 -0.2564  0.5705
 7731SOL    HW134826   1.132   1.138   7.035  0.7713  1.0838  3.7078
 7731SOL    HW234827   1.005   1.099   6.981 -0.8961  4.5506 -0.6071
 7732SOL     OW34828   4.047   0.315  10.856 -0.2489 -0.4484 -0.1988
 7732SOL    HW134829   3.955   0.339  10.846  0.0181  0.6493 -0.0380
 7732SOL    HW234830   4.045   0.273  10.942 -0.4800 -0.7491 -0.3498
 7733SOL     OW34831   0.729   1.422   3.770  0.5530  0.2873  0.4832
 7733SOL    HW134832   0.703   1.330   3.778  2.5067 -0.2249  0.9385
 7733SOL    HW234833   0.676   1.451   3.696  0.7263 -0.5103  0.0506
 7734SOL     OW34834   4.433   1.077  10.491  0.4504 -0.2888  0.8902
 7734SOL    HW134835   4.471   1.055  10.407  2.0315  1.4877  1.1701
 7734SOL    HW234836   4.475   1.008  10.542  0.5993 -0.5623  0.3925
 7735SOL     OW34837   0.557   2.375   4.273 -0.5022  0.0830 -0.4952
 7735SOL    HW134838   0.587   2.402   4.360  1.0708  0.4182 -1.1576
 7735SOL    HW234839   0.621   2.307   4.254 -0.1769  0.3673 -0.4171
 7736SOL     OW34840   0.966   2.400  15.755 -0.2653 -0.2423 -0.4046
 7736SOL    HW134841   0.917   2.482  15.757  0.5825  0.2490  0.1959
 7736SOL    HW234842   0.909   2.372  15.683  2.3402  1.3106 -3.0784
 7737SOL     OW34843   3.139   2.776   2.630 -0.1123 -0.1984 -0.0326
 7737SOL    HW134844   3.052   2.757   2.665  0.1123 -1.0628  0.0545
 7737SOL    HW234845   3.108   2.783   2.540 -0.3500  3.0149  0.2865
 7738SOL     OW34846   1.236   4.156   8.778 -0.0948 -0.1788  0.3850
 7738SOL    HW134847   1.207   4.118   8.695  0.0647 -0.1740  0.3288
 7738SOL    HW234848   1.172   4.227   8.790  0.9813  0.7303  0.7014
 7739SOL     OW34849   0.689   0.949   1.497  0.2999 -0.1347 -0.3311
 7739SOL    HW134850   0.773   0.988   1.472  1.0476 -0.6618  1.2954
 7739SOL    HW234851   0.723   0.869   1.537  0.9146 -0.0217 -0.6269
 7740SOL     OW34852   1.385   0.052   8.970 -0.7092 -0.1841 -0.2175
 7740SOL    HW134853   1.361   0.015   9.055 -2.3621  1.7584  0.1980
 7740SOL    HW234854   1.426   0.133   9.001 -1.9781  0.6487 -0.7203
 7741SOL     OW34855   3.823   1.558   3.313  0.4065  0.0168 -0.4053
 7741SOL    HW134856   3.747   1.575   3.257 -0.7039  0.4425  1.2317
 7741SOL    HW234857   3.852   1.469   3.290 -3.2158 -0.7076 -2.1352
 7742SOL     OW34858   1.469   3.300   5.226 -0.0004  0.5256 -0.1360
 7742SOL    HW134859   1.377   3.328   5.226  0.2081  1.2521  1.8320
 7742SOL    HW234860   1.502   3.347   5.303  0.8227 -0.8082  0.3274
 7743SOL     OW34861   3.359   2.144   6.779 -0.7023  0.3017  0.3941
 7743SOL    HW134862   3.335   2.237   6.778 -0.8979  0.2403 -0.7226
 7743SOL    HW234863   3.334   2.119   6.868  0.7109  0.3652  0.8092
 7744SOL     OW34864   4.181   1.121   4.377  0.5778 -0.0964 -0.3870
 7744SOL    HW134865   4.178   1.044   4.321 -0.1221  1.3995 -2.4113
 7744SOL    HW234866   4.276   1.127   4.386  0.7877 -1.1582 -1.8757
 7745SOL     OW34867   4.248   4.105   3.274 -0.1627  0.1085  0.2890
 7745SOL    HW134868   4.159   4.113   3.241 -0.6861 -1.0894  1.4202
 7745SOL    HW234869   4.277   4.054   3.198  0.1935  2.8513 -1.4235
 7746SOL     OW34870   2.210   3.369   7.275 -0.0394  0.2026 -0.0868
 7746SOL    HW134871   2.230   3.367   7.368  2.1958  0.8103 -0.5533
 7746SOL    HW234872   2.260   3.447   7.250  0.6290  0.4275  1.9804
 7747SOL     OW34873   3.637   1.797  10.864 -0.1976  0.0486 -0.5264
 7747SOL    HW134874   3.580   1.720  10.863 -1.1290  0.7011  3.4032
 7747SOL    HW234875   3.725   1.758  10.863 -0.0941  0.2821 -0.4827
 7748SOL     OW34876   0.724   0.804   5.741  0.2626  0.2861 -0.1192
 7748SOL    HW134877   0.789   0.733   5.743  0.4440  0.3822 -2.8985
 7748SOL    HW234878   0.669   0.776   5.668  0.3626 -1.1105  0.3285
 7749SOL     OW34879   1.672   3.360   1.539 -0.2329  0.0184 -0.0432
 7749SOL    HW134880   1.697   3.343   1.629  1.5008  0.7867 -0.3751
 7749SOL    HW234881   1.581   3.390   1.546  0.2439  1.5352 -0.3641
 7750SOL     OW34882   1.022   3.720   9.115 -0.3409  0.4516  0.5761
 7750SOL    HW134883   0.940   3.747   9.073 -1.2868 -0.6444  1.7042
 7750SOL    HW234884   1.032   3.635   9.074 -1.0274  1.4346 -1.6309
 7751SOL     OW34885   0.771   3.615   1.056  0.1833 -0.6631  0.0102
 7751SOL    HW134886   0.827   3.634   1.132  0.3373  1.1692 -0.5691
 7751SOL    HW234887   0.694   3.579   1.101 -0.8296  0.8318 -0.5072
 7752SOL     OW34888   1.489   1.434   8.229  0.1389 -0.4909 -0.2039
 7752SOL    HW134889   1.565   1.406   8.280 -0.2155 -1.3200 -0.1385
 7752SOL    HW234890   1.529   1.412   8.144 -1.4285 -4.0308  0.0119
 7753SOL     OW34891   2.680   2.809   2.990 -0.2231 -0.3340  0.2608
 7753SOL    HW134892   2.613   2.864   3.031 -1.7632 -1.0859 -1.2557
 7753SOL    HW234893   2.678   2.736   3.051  0.3762 -0.1114  0.5508
 7754SOL     OW34894   4.682   4.163  15.656 -0.0490  0.3533 -0.5762
 7754SOL    HW134895   4.698   4.088  15.713  0.9477  0.9860 -0.0296
 7754SOL    HW234896   0.020   4.212  15.651 -1.1277  2.0268 -2.0097
 7755SOL     OW34897   1.810   1.887  16.807 -0.0854  0.0073 -0.0039
 7755SOL    HW134898   1.817   1.886  16.711 -1.6627 -1.2041 -0.1219
 7755SOL    HW234899   1.803   1.795  16.833 -2.4291  0.1249 -0.1851
 7756SOL     OW34900   4.724   4.404   1.302  0.5969  0.4050 -0.1278
 7756SOL    HW134901   0.048   4.415   1.369 -0.0601 -0.3522  0.6546
 7756SOL    HW234902   0.033   4.381   1.226 -0.2945  3.7780 -1.7690
 7757SOL     OW34903   3.385   4.517   7.003 -0.1406 -0.1823  0.1284
 7757SOL    HW134904   3.315   4.570   7.042 -0.2365 -1.1300  1.2330
 7757SOL    HW234905   3.422   4.474   7.081 -1.5500  0.6091  1.2379
 7758SOL     OW34906   2.429   2.127   6.570 -0.0483  0.1922  0.6704
 7758SOL    HW134907   2.424   2.101   6.662 -1.4484  1.1780  0.8639
 7758SOL    HW234908   2.461   2.046   6.529  0.9752  0.9117  0.0334
 7759SOL     OW34909   3.991   0.941   5.924 -0.6201 -0.0393  0.1432
 7759SOL    HW134910   3.979   1.024   5.877 -2.7141 -1.1331 -1.2898
 7759SOL    HW234911   3.932   0.951   5.998 -0.4610 -0.3017  0.3064
 7760SOL     OW34912   1.618   0.986   5.711  0.0385  0.9729 -0.1195
 7760SOL    HW134913   1.536   0.956   5.750  0.5479  0.2231  0.3849
 7760SOL    HW234914   1.682   0.955   5.775  0.5316  0.8705 -0.6596
 7761SOL     OW34915   2.495   2.312   3.801  0.2780  0.1498 -0.1615
 7761SOL    HW134916   2.444   2.234   3.780 -0.7689  0.8786 -0.3305
 7761SOL    HW234917   2.435   2.359   3.860 -2.1688 -1.3189 -1.4663
 7762SOL     OW34918   3.897   2.677   5.509  0.0733  0.4143  0.0145
 7762SOL    HW134919   3.847   2.611   5.462  0.2253  0.9255 -0.8673
 7762SOL    HW234920   3.842   2.676   5.587 -2.6524  0.3597 -1.9081
 7763SOL     OW34921   3.076   1.490  17.577 -0.1607  0.2189  0.2125
 7763SOL    HW134922   3.161   1.516  17.612  0.7487 -3.9128  1.0542
 7763SOL    HW234923   3.101   1.501  17.485 -1.0315  0.6044  0.0195
 7764SOL     OW34924   0.589   2.799   9.052 -0.1188  0.0794 -0.3391
 7764SOL    HW134925   0.644   2.746   8.994  0.5781 -1.2282  1.4865
 7764SOL    HW234926   0.535   2.729   9.090  1.5711 -0.5634  0.8704
 7765SOL     OW34927   0.325   1.036   6.426 -0.5109 -0.4502 -0.1550
 7765SOL    HW134928   0.305   1.121   6.465 -0.2417 -0.8108  0.7701
 7765SOL    HW234929   0.315   0.986   6.507  2.1445  0.2556  0.6121
 7766SOL     OW34930   3.092   3.463  13.607 -0.0938  0.2120  0.7468
 7766SOL    HW134931   3.010   3.492  13.648 -2.0076 -1.3631 -1.9276
 7766SOL    HW234932   3.053   3.449  13.521  0.1602 -0.4576  0.7390
 7767SOL     OW34933   1.398   0.106   6.261  0.9102  0.4761  0.5656
 7767SOL    HW134934   1.452   0.140   6.332  2.1424  0.3680 -0.3265
 7767SOL    HW234935   1.329   0.065   6.312 -0.4673  1.4132 -0.5143
 7768SOL     OW34936   4.178   3.898  12.934 -0.0058 -0.3371 -0.1617
 7768SOL    HW134937   4.087   3.926  12.935 -0.1242 -0.6827 -1.2256
 7768SOL    HW234938   4.184   3.883  13.029 -3.3305  0.0114  0.1006
 7769SOL     OW34939   0.870   2.095   4.895  1.1683  0.0300 -0.4379
 7769SOL    HW134940   0.880   2.088   4.990 -0.3958 -1.3039 -0.3692
 7769SOL    HW234941   0.775   2.103   4.893  1.1937  1.0094  2.9519
 7770SOL     OW34942   3.635   2.942   2.637 -0.0532  0.1868  0.3010
 7770SOL    HW134943   3.660   2.896   2.557 -0.3363  0.3336  0.1279
 7770SOL    HW234944   3.543   2.920   2.656  0.1317 -2.3363 -1.7995
 7771SOL     OW34945   4.312   4.513  15.326  0.9540  0.0683 -0.3978
 7771SOL    HW134946   4.367   4.436  15.335  1.1257  0.3265  0.7013
 7771SOL    HW234947   4.365   4.585  15.360 -1.1568  0.5802  1.7450
 7772SOL     OW34948   1.734   1.101   9.564 -0.0800  0.1316  0.6877
 7772SOL    HW134949   1.812   1.105   9.619  0.6436 -1.3132 -0.2233
 7772SOL    HW234950   1.678   1.163   9.610 -1.4991  0.2751 -1.2357
 7773SOL     OW34951   0.106   4.491   6.686  0.0085  0.5463 -0.0121
 7773SOL    HW134952   0.184   4.528   6.727 -1.2386  2.2370  0.8054
 7773SOL    HW234953   0.068   4.555   6.626  1.2817  0.3838 -0.9829
 7774SOL     OW34954   3.702   4.730   9.735  0.2097 -0.0355 -0.4953
 7774SOL    HW134955   3.718   0.020   9.823 -1.2845  1.5689 -0.8270
 7774SOL    HW234956   3.622   0.032   9.707  0.9574  1.0025 -0.9195
 7775SOL     OW34957   4.394   0.478  12.368  0.2073  0.2893 -0.1248
 7775SOL    HW134958   4.461   0.415  12.341 -0.3133 -0.5817  0.6500
 7775SOL    HW234959   4.436   0.564  12.356 -2.5312  1.4715 -1.2250
 7776SOL     OW34960   3.712   1.135   4.553 -0.4654 -0.4799  0.3508
 7776SOL    HW134961   3.754   1.206   4.601 -1.2897  0.4894 -0.3565
 7776SOL    HW234962   3.654   1.177   4.490  0.0583  2.9525  2.1700
 7777SOL     OW34963   1.274   3.158  12.453 -0.6708  0.2149  0.8345
 7777SOL    HW134964   1.238   3.217  12.519 -0.6879  1.6931 -0.5070
 7777SOL    HW234965   1.345   3.206  12.411  0.0503 -2.3895 -0.9100
 7778SOL     OW34966   3.173   3.624   6.447  0.1680  0.5422 -0.0472
 7778SOL    HW134967   3.258   3.593   6.478 -0.1196 -0.0295  0.1504
 7778SOL    HW234968   3.167   3.574   6.366 -0.5463  0.0899  0.2871
 7779SOL     OW34969   0.851   4.241   4.692 -0.1763  1.0772  0.0491
 7779SOL    HW134970   0.801   4.223   4.612 -0.2173  3.9356 -0.5708
 7779SOL    HW234971   0.922   4.180   4.673  0.1921  1.6606 -0.4656
 7780SOL     OW34972   4.522   3.014   9.606  0.7311  0.0336  0.3247
 7780SOL    HW134973   4.581   3.061   9.664 -0.8333  1.2576  0.9181
 7780SOL    HW234974   4.472   2.962   9.669 -2.0933  1.3143 -0.8701
 7781SOL     OW34975   0.799   4.029   7.681 -0.0988  0.2177  0.1804
 7781SOL    HW134976   0.800   4.010   7.587  0.8213 -0.1485  0.2681
 7781SOL    HW234977   0.887   4.015   7.716  0.4824 -0.2509 -1.4247
 7782SOL     OW34978   2.193   1.287  16.049 -0.2905  0.5017  0.2642
 7782SOL    HW134979   2.284   1.267  16.071  0.0802  1.2084 -0.6708
 7782SOL    HW234980   2.156   1.300  16.136 -0.7556  1.8510 -0.1424
 7783SOL     OW34981   0.417   1.137  16.946  0.4874  0.0805  0.0751
 7783SOL    HW134982   0.419   1.046  16.918 -0.6869  0.4887 -1.2992
 7783SOL    HW234983   0.510   1.149  16.962  1.0966 -2.0374 -1.8791
 7784SOL     OW34984   2.932   4.597  10.135  0.7290  0.2034 -0.2036
 7784SOL    HW134985   2.967   4.684  10.154 -0.8946  0.8681 -0.2467
 7784SOL    HW234986   3.005   4.542  10.106  1.9095  1.6270  0.0950
 7785SOL     OW34987   2.484   1.959  12.620  0.0813  0.4967 -0.4933
 7785SOL    HW134988   2.481   1.884  12.561  0.2960  0.5380 -0.5566
 7785SOL    HW234989   2.579   1.975  12.618 -0.2878  2.9627  1.6573
 7786SOL     OW34990   1.785   4.469   3.675 -0.2997  0.5406  0.0358
 7786SOL    HW134991   1.861   4.433   3.627 -0.6488 -0.7207  0.4158
 7786SOL    HW234992   1.711   4.411   3.657  2.0699 -2.6093  0.4345
 7787SOL     OW34993   3.351   2.308   7.510  0.2026  0.2357 -0.2575
 7787SOL    HW134994   3.362   2.236   7.572 -0.0808 -0.1943 -0.7031
 7787SOL    HW234995   3.427   2.287   7.454  0.0244 -1.5721  0.1657
 7788SOL     OW34996   1.941   4.212  15.845 -0.4667  0.2308 -0.4464
 7788SOL    HW134997   1.914   4.263  15.769 -0.5722 -0.5693 -0.9425
 7788SOL    HW234998   2.035   4.221  15.829 -0.4733  0.8072 -0.1606
 7789SOL     OW34999   3.359   0.136  14.464 -0.7193  0.5885  0.4971
 7789SOL    HW135000   3.265   0.118  14.472 -0.9927  0.3855 -3.1608
 7789SOL    HW235001   3.355   0.221  14.421  0.8594  1.1362  1.4643
 7790SOL     OW35002   4.368   4.177   2.028  0.0287  0.4467  0.7013
 7790SOL    HW135003   4.288   4.138   2.065 -0.1596 -0.0393 -0.2211
 7790SOL    HW235004   4.433   4.132   2.083 -1.3116 -0.8791  1.2181
 7791SOL     OW35005   2.873   3.837  11.386 -0.1318 -0.1240  0.1886
 7791SOL    HW135006   2.965   3.853  11.406 -0.2963  3.1454 -1.7288
 7791SOL    HW235007   2.828   3.913  11.422 -0.6293 -0.3134 -0.0393
 7792SOL     OW35008   2.451   1.257   1.021  0.8907  0.2505  0.4828
 7792SOL    HW135009   2.434   1.328   1.083 -0.5954 -1.2232  1.7657
 7792SOL    HW235010   2.530   1.299   0.989  0.6335 -0.2242 -0.7748
 7793SOL     OW35011   0.801   4.156  16.857  0.2063  0.3288  0.1657
 7793SOL    HW135012   0.757   4.073  16.837  2.4326 -0.2936 -2.2604
 7793SOL    HW235013   0.727   4.215  16.848 -0.4725 -0.2710  1.8298
 7794SOL     OW35014   4.210   3.127  10.164 -0.0434  0.0357  0.3124
 7794SOL    HW135015   4.298   3.161  10.182 -0.5069  0.4972  1.6979
 7794SOL    HW235016   4.157   3.205  10.179  0.1352  0.2314 -0.0739
 7795SOL     OW35017   1.718   4.130   7.890 -0.0712  0.0820  0.4952
 7795SOL    HW135018   1.724   4.179   7.808  2.0671 -2.3512 -0.8216
 7795SOL    HW235019   1.707   4.203   7.951 -0.0301 -0.0685  0.6823
 7796SOL     OW35020   0.096   4.119   4.319 -0.2525  0.6191 -0.0317
 7796SOL    HW135021   0.032   4.089   4.383 -0.9233  2.8662  0.3466
 7796SOL    HW235022   0.032   4.151   4.256  0.3390 -0.7026 -1.3073
 7797SOL     OW35023   2.811   3.577   4.250 -0.3063 -1.4195 -0.5545
 7797SOL    HW135024   2.815   3.611   4.161 -1.0377 -2.0825 -0.8438
 7797SOL    HW235025   2.874   3.638   4.288 -2.5855 -0.0365  0.9753
 7798SOL     OW35026   4.354   2.545  17.099 -0.1615 -0.2592 -0.2357
 7798SOL    HW135027   4.405   2.572  17.022  1.1086  0.8362  0.9788
 7798SOL    HW235028   4.417   2.578  17.163 -0.9453 -0.2507  0.5231
 7799SOL     OW35029   1.208   2.381  16.947  0.5727 -0.0601  0.5085
 7799SOL    HW135030   1.129   2.435  16.955  1.3413  0.7639  2.6358
 7799SOL    HW235031   1.238   2.386  17.038  4.2882  1.0627 -0.7918
 7800SOL     OW35032   2.846   2.389   7.177 -0.1386 -0.5303  0.1580
 7800SOL    HW135033   2.807   2.382   7.089  1.8291  0.6518 -0.8076
 7800SOL    HW235034   2.941   2.385   7.172 -0.0358  1.4587  0.4687
 7801SOL     OW35035   0.123   3.710  12.695 -0.1582 -0.1552 -0.8214
 7801SOL    HW135036   0.040   3.687  12.736 -1.6919  2.6129 -2.4019
 7801SOL    HW235037   0.099   3.730  12.605  0.6477 -0.3309 -1.0725
 7802SOL     OW35038   0.308   2.713  14.275  0.2589 -0.6154  0.0592
 7802SOL    HW135039   0.301   2.619  14.292 -0.8743 -0.1393  2.1832
 7802SOL    HW235040   0.227   2.749  14.309  2.1384  2.9489  0.6859
 7803SOL     OW35041   0.241   0.499   6.455  0.2042 -0.0670 -0.1375
 7803SOL    HW135042   0.232   0.404   6.450  1.5672 -0.2626  1.0232
 7803SOL    HW235043   0.210   0.520   6.543  0.3195 -0.4071 -0.0147
 7804SOL     OW35044   2.647   2.636  12.847 -0.5991  0.5046 -0.0569
 7804SOL    HW135045   2.613   2.556  12.807  1.0445  1.0190 -2.4992
 7804SOL    HW235046   2.595   2.696  12.794 -2.1581 -1.1135 -0.3641
 7805SOL     OW35047   0.442   4.293   1.557  0.2384  0.1583  0.1333
 7805SOL    HW135048   0.455   4.201   1.532  0.4984  0.2692 -0.1361
 7805SOL    HW235049   0.520   4.332   1.518  1.2565 -3.2282 -1.2727
 7806SOL     OW35050   3.541   2.326   8.648 -0.3389 -0.3307 -0.1748
 7806SOL    HW135051   3.515   2.398   8.591 -1.0784 -0.9396 -0.6033
 7806SOL    HW235052   3.516   2.352   8.737 -1.2819 -1.3099 -0.1578
 7807SOL     OW35053   4.496   1.549  17.261 -0.4608 -0.1106  0.2578
 7807SOL    HW135054   4.533   1.626  17.219 -0.6953 -1.1476 -1.8167
 7807SOL    HW235055   4.543   1.478  17.218  1.1314  1.6326 -0.8876
 7808SOL     OW35056   0.018   2.966   8.607  0.2834 -0.6415 -0.1198
 7808SOL    HW135057   0.019   3.041   8.666 -0.2502 -0.0229 -0.8994
 7808SOL    HW235058   0.025   3.020   8.529 -1.8356 -1.3472 -0.7968
 7809SOL     OW35059   2.722   4.513   0.088  0.3003  0.1734  0.6765
 7809SOL    HW135060   2.676   4.553   0.014  0.3004 -0.6196  0.2517
 7809SOL    HW235061   2.806   4.559   0.083 -0.3949  1.5389  1.4893
 7810SOL     OW35062   4.573   3.542   4.108  0.2414 -0.0798  0.1110
 7810SOL    HW135063   4.573   3.552   4.203 -0.1272  1.7895 -0.1019
 7810SOL    HW235064   4.629   3.464   4.102  0.8122  0.2805  0.8432
 7811SOL     OW35065   0.177   3.535   6.322  0.3622 -0.1349  0.3778
 7811SOL    HW135066   0.147   3.537   6.413 -0.3496 -0.3954  0.1423
 7811SOL    HW235067   0.133   3.453   6.303 -2.6812  1.1335  1.9569
 7812SOL     OW35068   4.035   3.862   6.213 -0.1443 -0.1340  0.0440
 7812SOL    HW135069   3.948   3.891   6.241 -0.9170 -0.6330 -1.8750
 7812SOL    HW235070   4.023   3.844   6.120 -0.5800 -0.8160  0.2254
 7813SOL     OW35071   2.334   4.295   7.881 -0.2204 -0.4019  0.0808
 7813SOL    HW135072   2.348   4.375   7.830  0.3289 -0.3626  0.2913
 7813SOL    HW235073   2.382   4.317   7.961 -1.0187 -0.4833  0.5889
 7814SOL     OW35074   1.130   1.831   3.126  0.1860  0.8577 -0.7093
 7814SOL    HW135075   1.157   1.759   3.069 -0.0633 -1.4895  2.0837
 7814SOL    HW235076   1.035   1.820   3.136  0.4902 -0.3944  0.7851
 7815SOL     OW35077   2.204   2.604   7.006  0.4169 -0.2183 -0.2019
 7815SOL    HW135078   2.232   2.677   7.062 -1.9680  0.0170  0.6969
 7815SOL    HW235079   2.135   2.579   7.067 -0.6745  1.4381 -0.7383
 7816SOL     OW35080   3.045   1.560   0.082  0.0646 -0.0491 -0.6913
 7816SOL    HW135081   3.035   1.497   0.011 -2.7708 -1.8253  1.2725
 7816SOL    HW235082   3.060   1.640   0.032 -0.1075  0.3326 -0.1335
 7817SOL     OW35083   2.709   1.429   8.921  0.1237  0.2153 -0.0715
 7817SOL    HW135084   2.800   1.425   8.950 -0.1733 -0.9572  0.7373
 7817SOL    HW235085   2.690   1.346   8.876  1.5431 -0.3015  0.2947
 7818SOL     OW35086   3.260   4.350   9.423 -0.1091  0.1361 -0.3613
 7818SOL    HW135087   3.239   4.303   9.343  2.3037  0.1504 -0.9873
 7818SOL    HW235088   3.197   4.303   9.479 -0.6974 -0.4592 -1.5320
 7819SOL     OW35089   3.552   2.450   7.817 -0.3579  0.3498  0.0385
 7819SOL    HW135090   3.619   2.431   7.751  0.3733 -1.3563  1.3022
 7819SOL    HW235091   3.509   2.370   7.847 -0.5150 -0.1718 -1.5786
 7820SOL     OW35092   1.218   2.399  10.406  0.4751  0.5557  0.3195
 7820SOL    HW135093   1.241   2.471  10.464 -1.0047  1.1233  0.1954
 7820SOL    HW235094   1.154   2.443  10.350  2.1984  0.6629 -1.5654
 7821SOL     OW35095   3.599   2.351   4.383  0.0298  0.0216  0.6976
 7821SOL    HW135096   3.554   2.304   4.313  2.6496  0.9719 -1.6150
 7821SOL    HW235097   3.689   2.330   4.358 -0.9777  0.4830 -3.2485
 7822SOL     OW35098   2.800   1.790  11.474  0.0928 -0.3200  0.8299
 7822SOL    HW135099   2.875   1.840  11.443 -0.1217 -0.2277  0.4563
 7822SOL    HW235100   2.751   1.865  11.509 -0.2902 -0.5769  0.8466
 7823SOL     OW35101   2.974   0.424   4.512  0.4973  0.0891 -0.0999
 7823SOL    HW135102   2.932   0.357   4.458 -1.0712 -0.4406  1.7461
 7823SOL    HW235103   3.037   0.375   4.565 -1.2915 -0.0412  1.8904
 7824SOL     OW35104   1.597   1.935   7.753  0.1561  0.2535 -0.1769
 7824SOL    HW135105   1.571   1.991   7.680 -2.4635  0.0293  0.5865
 7824SOL    HW235106   1.611   2.003   7.820 -0.1375 -1.1928  1.3430
 7825SOL     OW35107   2.796   3.107   0.821  0.1712 -0.5399  0.8046
 7825SOL    HW135108   2.736   3.084   0.892 -2.7306  0.1354 -1.4383
 7825SOL    HW235109   2.783   3.202   0.818  0.0982 -0.6120 -0.9217
 7826SOL     OW35110   3.594   0.114   4.293 -0.1309  0.8235 -0.2432
 7826SOL    HW135111   3.588   0.041   4.354  1.3219  1.7254  0.9738
 7826SOL    HW235112   3.630   0.070   4.216  2.6507 -0.2821  1.7066
 7827SOL     OW35113   3.553   3.623  11.147 -0.3133 -0.3087  0.0909
 7827SOL    HW135114   3.510   3.540  11.165 -0.4643 -0.2439  0.0303
 7827SOL    HW235115   3.545   3.659  11.235 -1.7681 -0.7267  0.1327
 7828SOL     OW35116   3.032   3.027   3.723  0.0378 -0.0616  0.3070
 7828SOL    HW135117   3.083   3.099   3.686 -1.1322  0.6010 -0.0405
 7828SOL    HW235118   3.008   2.974   3.647  0.3382  1.0188 -0.5448
 7829SOL     OW35119   0.871   3.481  10.289  0.1624  0.1950 -0.1412
 7829SOL    HW135120   0.965   3.495  10.280  0.1569  1.0578  1.0846
 7829SOL    HW235121   0.863   3.408  10.351 -0.2104 -0.5452 -1.0676
 7830SOL     OW35122   3.877   4.523   7.153 -0.0794  0.3053 -0.2403
 7830SOL    HW135123   3.897   4.464   7.080  1.1135 -1.5216  1.5546
 7830SOL    HW235124   3.905   4.601   7.106 -0.1062  1.1711  1.1714
 7831SOL     OW35125   1.946   1.167  13.849  0.5505  0.0347 -0.0492
 7831SOL    HW135126   1.977   1.255  13.871 -0.3037  0.3519 -0.1150
 7831SOL    HW235127   1.900   1.189  13.768  2.5541 -0.2401 -1.2661
 7832SOL     OW35128   4.690   1.927   2.712 -0.3105  0.4067 -0.0452
 7832SOL    HW135129   4.609   1.881   2.688 -0.3834 -0.5767  2.1429
 7832SOL    HW235130   4.735   1.853   2.751  1.2207  2.8546  2.7582
 7833SOL     OW35131   2.584   4.604   2.704 -0.1216 -0.2312 -0.0674
 7833SOL    HW135132   2.643   4.664   2.658  0.0211 -0.9573 -0.8164
 7833SOL    HW235133   2.496   4.634   2.680  0.1573  1.6247  1.1801
 7834SOL     OW35134   1.380   2.551   3.045 -0.1412 -0.0263  0.8294
 7834SOL    HW135135   1.365   2.476   3.102 -2.2468  0.2535  0.6514
 7834SOL    HW235136   1.442   2.520   2.979 -2.0095 -0.2751 -0.8148
 7835SOL     OW35137   1.655   4.312   2.039 -0.0172 -0.7453  0.1653
 7835SOL    HW135138   1.728   4.366   2.069 -0.6625 -1.3020  2.6986
 7835SOL    HW235139   1.688   4.225   2.062 -3.4711 -0.9925  4.1708
 7836SOL     OW35140   3.847   2.118   3.300  0.2581  0.3670  0.8172
 7836SOL    HW135141   3.841   2.034   3.346 -1.3193  0.3403  0.5651
 7836SOL    HW235142   3.781   2.129   3.231  0.6490 -1.4890  0.1418
 7837SOL     OW35143   0.369   3.276   6.600 -0.6978 -0.0843 -0.5238
 7837SOL    HW135144   0.385   3.238   6.514 -0.7373 -0.5986 -0.3048
 7837SOL    HW235145   0.274   3.263   6.604 -0.9172  1.8333  0.6381
 7838SOL     OW35146   1.417   4.438   5.475 -0.4236 -0.5686 -0.7826
 7838SOL    HW135147   1.452   4.403   5.558  1.8058  1.6460 -0.8115
 7838SOL    HW235148   1.344   4.496   5.498 -0.9122 -1.4381 -0.0995
 7839SOL     OW35149   3.753   3.440   6.867 -0.3378 -0.1613  0.0551
 7839SOL    HW135150   3.821   3.461   6.802 -1.1735 -2.2088 -1.4769
 7839SOL    HW235151   3.811   3.393   6.927  0.9273 -0.0117 -1.0541
 7840SOL     OW35152   4.335   1.382  14.895  0.1723 -0.0019 -0.3223
 7840SOL    HW135153   4.378   1.302  14.866 -4.3249 -1.7313 -2.2179
 7840SOL    HW235154   4.253   1.346  14.930  0.2019  0.5617  0.3257
 7841SOL     OW35155   2.064   2.048   4.648  0.5726  0.3452 -0.2090
 7841SOL    HW135156   2.133   2.052   4.713 -0.4389 -0.2432  0.8868
 7841SOL    HW235157   2.098   2.114   4.587  0.6686 -0.0794 -0.6175
 7842SOL     OW35158   1.321   2.037   7.408  0.2406 -0.0596 -0.3189
 7842SOL    HW135159   1.248   1.992   7.451  0.3312 -0.9875 -1.1299
 7842SOL    HW235160   1.299   2.012   7.318  0.7377 -1.8455  0.0679
 7843SOL     OW35161   2.005   0.059   8.200  0.1751 -0.1453  0.2955
 7843SOL    HW135162   2.005   0.069   8.105 -0.8580  1.8423  0.4974
 7843SOL    HW235163   2.095   0.087   8.217  0.3368 -0.0715 -0.6883
 7844SOL     OW35164   0.124   1.721  12.266  0.1906 -0.0105 -0.4243
 7844SOL    HW135165   0.192   1.786  12.248  1.7996 -1.2224  1.2011
 7844SOL    HW235166   0.124   1.668  12.186  2.6131  0.7847 -0.9565
 7845SOL     OW35167   1.190   3.589  11.678 -0.4040 -0.1209 -0.0449
 7845SOL    HW135168   1.097   3.605  11.691 -0.0196  3.2603 -1.4814
 7845SOL    HW235169   1.196   3.495  11.662  1.5799  0.1778 -1.0896
 7846SOL     OW35170   2.821   0.928  17.731  0.0959  0.0939  0.8028
 7846SOL    HW135171   2.758   0.981  17.681  0.8274 -1.1922 -1.4692
 7846SOL    HW235172   2.801   0.958   0.049 -1.8672 -1.8539  1.0111
 7847SOL     OW35173   0.979   2.228  15.981  0.1741 -0.2150  0.2656
 7847SOL    HW135174   1.063   2.269  16.003 -0.0630 -0.0302  0.8287
 7847SOL    HW235175   0.959   2.268  15.897  1.3214 -0.0756  0.0641
 7848SOL     OW35176   0.986   3.283   0.542  0.1297 -0.6273  0.3361
 7848SOL    HW135177   1.001   3.373   0.570 -1.3784 -0.2006 -0.2264
 7848SOL    HW235178   0.892   3.263   0.536  0.3668 -1.1413 -1.6200
 7849SOL     OW35179   0.015   0.344   5.443  0.8523  0.2693 -0.3348
 7849SOL    HW135180   0.106   0.349   5.414  2.1059 -0.0226  3.5611
 7849SOL    HW235181   0.015   0.378   5.532  2.2737  1.4631 -0.8065
 7850SOL     OW35182   2.274   4.343   2.795 -0.1866  0.1548  0.0555
 7850SOL    HW135183   2.244   4.356   2.885  0.9546 -0.8783  0.5854
 7850SOL    HW235184   2.211   4.394   2.745 -1.6143 -0.9865  0.6796
 7851SOL     OW35185   0.720   4.655   6.642  0.2344 -0.9873  0.2902
 7851SOL    HW135186   0.736   4.563   6.663  0.3445 -0.7772  1.1326
 7851SOL    HW235187   0.687   4.650   6.552  2.2358 -1.9453 -0.3954
 7852SOL     OW35188   1.041   1.595  13.209 -0.2696  0.5824 -0.2530
 7852SOL    HW135189   1.115   1.649  13.183  0.4371 -0.5896 -0.6690
 7852SOL    HW235190   1.016   1.540  13.135 -0.7963 -1.0241  1.1030
 7853SOL     OW35191   4.186   1.094  12.445  0.2755  0.7553 -0.1877
 7853SOL    HW135192   4.109   1.072  12.498 -0.6737  1.6217 -1.1839
 7853SOL    HW235193   4.247   1.024  12.465 -1.2655 -0.0189  1.7775
 7854SOL     OW35194   1.943   2.251   5.424 -0.1264  0.3601  0.3751
 7854SOL    HW135195   2.021   2.307   5.426 -0.2781  0.5569  0.8779
 7854SOL    HW235196   1.947   2.229   5.517 -1.1487 -0.3114  0.2567
 7855SOL     OW35197   1.289   1.187   6.931 -0.0370 -0.0705 -0.1518
 7855SOL    HW135198   1.363   1.163   6.875 -1.0576  0.4366 -1.7267
 7855SOL    HW235199   1.330   1.201   7.017  1.1690 -2.6304 -0.2849
 7856SOL     OW35200   2.545   0.291  17.748 -0.3449 -0.2192 -0.1572
 7856SOL    HW135201   2.504   0.207  17.768 -0.8045 -0.7658 -3.2643
 7856SOL    HW235202   2.514   0.301  17.658  0.4599  2.3671 -0.1364
 7857SOL     OW35203   2.955   4.375  17.204  0.2657  0.8661  0.4349
 7857SOL    HW135204   3.020   4.396  17.137  0.5612 -0.6040  0.2421
 7857SOL    HW235205   2.911   4.295  17.175  2.2426 -0.1516  0.2031
 7858SOL     OW35206   1.537   0.839   3.927 -0.0787 -0.0469 -0.6743
 7858SOL    HW135207   1.594   0.861   4.001 -0.9153  0.2458 -0.1142
 7858SOL    HW235208   1.549   0.921   3.879 -0.3774  0.3167 -0.1277
 7859SOL     OW35209   1.017   0.657   1.452 -0.0951 -0.2782  0.0642
 7859SOL    HW135210   1.081   0.647   1.523  0.4118  0.0381 -0.3425
 7859SOL    HW235211   0.943   0.603   1.480  0.3055 -0.6755  0.3527
 7860SOL     OW35212   3.354   4.349   4.725 -0.3938 -0.0290  0.3121
 7860SOL    HW135213   3.432   4.405   4.731 -1.8496  1.9155  1.1249
 7860SOL    HW235214   3.289   4.418   4.740 -0.2041  0.4103 -0.9251
 7861SOL     OW35215   1.668   3.196   2.194 -0.5879 -0.3341  0.2939
 7861SOL    HW135216   1.581   3.167   2.167 -0.4568 -0.1661 -0.3231
 7861SOL    HW235217   1.717   3.114   2.186  2.2956  1.2901  1.1030
 7862SOL     OW35218   2.880   1.428  17.001  0.4697 -0.4662 -0.7507
 7862SOL    HW135219   2.956   1.479  16.973  1.1051 -0.6389  0.6548
 7862SOL    HW235220   2.824   1.492  17.045 -0.9145 -1.6539 -0.8077
 7863SOL     OW35221   2.223   4.135   8.483 -0.2641  0.0625 -0.2612
 7863SOL    HW135222   2.288   4.067   8.499 -0.3314 -0.4678 -2.2442
 7863SOL    HW235223   2.150   4.084   8.520  0.0222 -1.1199 -1.3118
 7864SOL     OW35224   4.618   1.665   7.467  0.0049 -0.5782  0.1817
 7864SOL    HW135225   4.706   1.645   7.500  1.1154  1.3842 -1.5848
 7864SOL    HW235226   4.607   1.591   7.407  2.4937 -1.1142  0.4023
 7865SOL     OW35227   3.881   0.489   5.404 -0.3623  0.1863 -0.1105
 7865SOL    HW135228   3.959   0.480   5.350  0.3489 -0.2320  0.9820
 7865SOL    HW235229   3.853   0.578   5.386  2.9429  1.1253 -0.4650
 7866SOL     OW35230   4.280   2.332  16.680 -0.4274 -0.0507  0.0538
 7866SOL    HW135231   4.237   2.414  16.702  0.5104  0.2788  0.6684
 7866SOL    HW235232   4.347   2.340  16.748 -1.8504  0.4493  1.4013
 7867SOL     OW35233   3.376   0.772   7.366 -0.8412  0.1286  0.6119
 7867SOL    HW135234   3.434   0.829   7.416  1.4284 -2.8825  1.4211
 7867SOL    HW235235   3.354   0.820   7.287  1.9335 -0.4853 -0.5304
 7868SOL     OW35236   2.852   1.518   7.470 -0.4597  0.4414 -0.1028
 7868SOL    HW135237   2.834   1.520   7.376 -2.2820 -1.3125  0.2164
 7868SOL    HW235238   2.760   1.513   7.495 -0.6460 -1.2172 -1.1025
 7869SOL     OW35239   4.344   1.070   7.795  0.5139  0.5490  0.5507
 7869SOL    HW135240   4.405   1.075   7.722 -1.1456 -0.3146 -0.8873
 7869SOL    HW235241   4.390   1.063   7.879  1.5752 -2.8879 -0.3208
 7870SOL     OW35242   2.005   0.535   9.202  0.0321 -0.1490  0.5068
 7870SOL    HW135243   1.946   0.471   9.160 -1.3834  1.0315  0.7079
 7870SOL    HW235244   2.049   0.477   9.264 -1.2165 -1.7957 -0.1315
 7871SOL     OW35245   2.746   1.664   1.252  0.2458  0.2849  0.0809
 7871SOL    HW135246   2.762   1.642   1.343  1.8424  2.1299  0.2450
 7871SOL    HW235247   2.712   1.753   1.260 -0.3623  0.2744 -2.3488
 7872SOL     OW35248   0.723   3.458  14.085  0.8766 -0.2122  0.1447
 7872SOL    HW135249   0.773   3.501  14.155  1.4934 -0.8670  0.0995
 7872SOL    HW235250   0.644   3.513  14.089  1.2828  0.3383  0.6425
 7873SOL     OW35251   2.921   0.681  12.203 -0.1403 -0.3343 -0.0088
 7873SOL    HW135252   2.897   0.747  12.137  1.4404  0.0081 -0.2402
 7873SOL    HW235253   2.879   0.602  12.169 -0.6037  0.1261 -0.5154
 7874SOL     OW35254   2.584   1.520   5.063  0.1263  0.0174  0.1481
 7874SOL    HW135255   2.676   1.502   5.043 -0.0349  0.2396 -0.7570
 7874SOL    HW235256   2.582   1.537   5.158 -0.1002  0.1061  0.1286
 7875SOL     OW35257   4.191   4.410  15.112  0.4258  0.3678 -0.4081
 7875SOL    HW135258   4.105   4.443  15.137  1.2823  3.1525 -1.0645
 7875SOL    HW235259   4.239   4.446  15.186 -0.9986 -1.1093  1.2384
 7876SOL     OW35260   4.475   4.289   5.199  0.0345  0.5067  0.4117
 7876SOL    HW135261   4.392   4.336   5.205 -0.4947 -0.2208 -1.3084
 7876SOL    HW235262   4.443   4.199   5.200  2.8326 -0.4999 -1.8686
 7877SOL     OW35263   4.456   2.038   8.989 -0.1179 -0.2312  0.3907
 7877SOL    HW135264   4.391   1.972   9.014 -0.9046  0.8978  1.3447
 7877SOL    HW235265   4.521   1.975   8.960 -0.1509 -0.4854  0.8714
 7878SOL     OW35266   0.548   2.964  17.134 -0.0857  0.2678  0.4980
 7878SOL    HW135267   0.601   3.039  17.108  1.5094 -0.8125  0.5887
 7878SOL    HW235268   0.501   2.948  17.052 -0.6098 -1.1277  1.0746
 7879SOL     OW35269   4.213   0.485   2.989 -0.6583  0.1860  0.3979
 7879SOL    HW135270   4.144   0.426   3.020 -1.8028  1.0849 -0.4160
 7879SOL    HW235271   4.165   0.561   2.955 -3.1165 -2.4438 -2.0557
 7880SOL     OW35272   2.397   1.961   7.434  0.3963 -0.0552 -0.7096
 7880SOL    HW135273   2.445   1.943   7.514  1.6464 -2.0366 -1.8918
 7880SOL    HW235274   2.475   1.972   7.379  0.5294 -1.4098 -0.7736
 7881SOL     OW35275   0.367   4.114   7.305  0.7457  0.5112  0.1371
 7881SOL    HW135276   0.278   4.089   7.333  0.5419 -0.0361 -1.0008
 7881SOL    HW235277   0.359   4.098   7.211  2.2600 -1.2306  0.3113
 7882SOL     OW35278   1.129   1.194   0.551 -0.1831 -0.0294 -0.2146
 7882SOL    HW135279   1.217   1.181   0.518  0.8158 -0.3579  2.5702
 7882SOL    HW235280   1.145   1.234   0.637  1.3719  2.1546 -1.5355
 7883SOL     OW35281   1.889   1.623   3.972  0.4622 -0.8586  0.0287
 7883SOL    HW135282   1.914   1.712   3.996 -1.8357 -1.0949  3.3079
 7883SOL    HW235283   1.976   1.584   3.982  0.4946 -0.8290 -0.1523
 7884SOL     OW35284   4.590   3.056   7.328 -0.1946  0.1628  0.3149
 7884SOL    HW135285   4.550   3.109   7.259 -1.7954 -0.4468  0.7785
 7884SOL    HW235286   4.609   3.125   7.392 -2.5472  1.4165 -0.3713
 7885SOL     OW35287   1.244   2.767   7.408  0.2528 -0.2307  0.6536
 7885SOL    HW135288   1.158   2.805   7.390  0.6034  0.8444  1.2806
 7885SOL    HW235289   1.259   2.774   7.502  0.0491 -1.5625  0.7839
 7886SOL     OW35290   0.280   0.278  12.024 -0.6764 -0.2991 -0.5280
 7886SOL    HW135291   0.272   0.343  12.094 -0.0486 -0.3126 -0.4411
 7886SOL    HW235292   0.369   0.277  11.988 -0.1176  0.6211  0.8229
 7887SOL     OW35293   2.906   1.693   4.733  0.1470  0.1286  0.3114
 7887SOL    HW135294   2.921   1.783   4.704  0.0070 -0.5901 -2.0238
 7887SOL    HW235295   2.926   1.645   4.653 -1.0349  1.7438 -0.9395
 7888SOL     OW35296   2.453   0.212  13.968  0.0905  0.9314  0.3707
 7888SOL    HW135297   2.407   0.232  14.050  0.9284 -2.5578  1.6659
 7888SOL    HW235298   2.538   0.249  13.993  0.2379  1.2451 -0.6179
 7889SOL     OW35299   1.101   2.713   5.728  0.0387 -0.5465 -0.2066
 7889SOL    HW135300   1.135   2.635   5.772 -2.2122 -1.4795 -0.1659
 7889SOL    HW235301   1.100   2.784   5.792  3.4652 -2.3476  1.8339
 7890SOL     OW35302   0.220   0.408  16.289 -0.2736 -0.1592  0.5576
 7890SOL    HW135303   0.257   0.325  16.260  1.3224  0.7556 -0.0111
 7890SOL    HW235304   0.140   0.374  16.329  0.9046 -1.1986  2.0297
 7891SOL     OW35305   2.168   3.700   6.673 -0.6125 -0.0715  0.4330
 7891SOL    HW135306   2.165   3.793   6.694  1.3071  0.3021 -1.0042
 7891SOL    HW235307   2.081   3.683   6.638  0.0262  0.8136 -1.6002
 7892SOL     OW35308   0.773   2.780   5.178 -0.1634  0.2002 -0.8332
 7892SOL    HW135309   0.802   2.849   5.119 -1.6217  0.7706 -0.8816
 7892SOL    HW235310   0.754   2.834   5.255  0.6395 -0.5147 -0.1364
 7893SOL     OW35311   2.776   3.675   5.170 -0.0788 -0.1732 -0.1555
 7893SOL    HW135312   2.810   3.695   5.083 -0.8856 -0.1179 -0.4535
 7893SOL    HW235313   2.687   3.704   5.153 -0.1596  0.0776  0.7075
 7894SOL     OW35314   0.984   1.262   3.949 -0.3256 -0.0699  0.4544
 7894SOL    HW135315   0.894   1.292   3.965 -0.6380 -0.6857 -0.1631
 7894SOL    HW235316   1.031   1.308   4.018  1.4646 -1.0972 -0.0965
 7895SOL     OW35317   0.586   3.840  15.295 -0.0217  0.4676  0.5526
 7895SOL    HW135318   0.577   3.786  15.216  0.4777  0.4071  0.5403
 7895SOL    HW235319   0.655   3.806  15.351  0.3959  2.6053  1.3579
 7896SOL     OW35320   4.012   1.117   8.072 -0.1814  0.3122  0.6660
 7896SOL    HW135321   3.953   1.055   8.029  0.9640 -1.4149  1.5708
 7896SOL    HW235322   3.947   1.172   8.115 -0.0131  0.0629  1.2412
 7897SOL     OW35323   2.139   1.471   3.958  0.6762 -0.1283  0.2073
 7897SOL    HW135324   2.178   1.548   3.918 -0.3562  0.5033  0.4174
 7897SOL    HW235325   2.215   1.427   3.995  0.6640 -0.3179  0.0048
 7898SOL     OW35326   2.332   4.308  11.417  0.1556  0.1411  0.0203
 7898SOL    HW135327   2.377   4.224  11.408 -1.1496 -0.4781 -0.5996
 7898SOL    HW235328   2.243   4.275  11.415  0.7507 -1.2299 -2.6561
 7899SOL     OW35329   4.531   0.778   8.298  0.2958  0.2529 -0.5686
 7899SOL    HW135330   4.562   0.695   8.335 -1.6832 -0.6082 -0.8054
 7899SOL    HW235331   4.520   0.831   8.376 -0.5501  1.5356 -1.5560
 7900SOL     OW35332   3.843   0.727   1.946  0.3029 -0.2643 -0.1166
 7900SOL    HW135333   3.769   0.668   1.959  0.1812  0.5072  2.6701
 7900SOL    HW235334   3.870   0.736   2.037 -2.8057  3.8154  0.3768
 7901SOL     OW35335   0.151   3.911   4.672 -0.0519 -0.1353  0.2813
 7901SOL    HW135336   0.198   3.977   4.621  0.9801 -1.1187 -0.0320
 7901SOL    HW235337   0.226   3.855   4.691  1.0635  0.5722 -1.9974
 7902SOL     OW35338   0.209   4.665   1.319 -0.5477 -0.0756  0.2008
 7902SOL    HW135339   0.192   4.575   1.346  1.7148 -0.9444 -1.2370
 7902SOL    HW235340   0.257   4.699   1.395 -2.5282  0.7760  1.0944
 7903SOL     OW35341   3.287   1.763   4.641 -0.0009  0.0291  0.4515
 7903SOL    HW135342   3.226   1.748   4.569 -1.5023  1.1345  1.4861
 7903SOL    HW235343   3.263   1.850   4.671 -0.3566  0.1158 -0.0765
 7904SOL     OW35344   2.975   3.611   6.077  0.0900 -0.0121 -0.3816
 7904SOL    HW135345   3.033   3.659   6.135 -2.1085  1.0476  0.9568
 7904SOL    HW235346   3.011   3.633   5.991 -0.1174 -1.1681 -0.7649
 7905SOL     OW35347   3.825   1.220   6.422 -1.1643  0.0605  0.4569
 7905SOL    HW135348   3.734   1.243   6.442 -1.4260  0.0743 -0.7801
 7905SOL    HW235349   3.827   1.125   6.415 -0.2109  0.2411 -1.6451
 7906SOL     OW35350   3.608   4.107   4.711 -0.3693 -0.5328  0.9941
 7906SOL    HW135351   3.686   4.149   4.674  0.0910 -3.4158 -1.2676
 7906SOL    HW235352   3.647   4.020   4.719 -1.5845 -1.2968 -1.3617
 7907SOL     OW35353   1.889   2.234  14.902 -0.1520  0.1939 -0.4424
 7907SOL    HW135354   1.945   2.256  14.827 -1.2577  0.1738 -1.2825
 7907SOL    HW235355   1.902   2.311  14.957  0.7424 -0.1252 -0.2122
 7908SOL     OW35356   3.930   3.920   7.460 -0.3727  0.2723 -0.3166
 7908SOL    HW135357   4.005   3.887   7.510 -1.8126 -0.3568  1.4518
 7908SOL    HW235358   3.971   3.966   7.387  1.7015 -0.0614  0.6684
 7909SOL     OW35359   1.003   1.894   5.607  0.3164 -0.6493 -0.1191
 7909SOL    HW135360   0.974   1.968   5.660 -0.2156 -0.3691 -0.8106
 7909SOL    HW235361   1.098   1.890   5.624  0.2684  1.1456  0.6227
 7910SOL     OW35362   0.559   1.546   2.605 -0.0766 -0.2117 -0.6422
 7910SOL    HW135363   0.467   1.546   2.577 -0.2168  1.1017 -0.1895
 7910SOL    HW235364   0.560   1.455   2.637 -0.8598  0.2295  0.6424
 7911SOL     OW35365   1.664   2.433   6.851 -0.1296  0.3675 -0.4010
 7911SOL    HW135366   1.600   2.392   6.910  1.1584 -0.7705  0.2271
 7911SOL    HW235367   1.673   2.360   6.790  2.0621  0.5883 -0.3245
 7912SOL     OW35368   0.588   4.571   3.399 -0.2231  0.2928 -0.3610
 7912SOL    HW135369   0.507   4.553   3.352 -1.2733 -0.0262  1.6074
 7912SOL    HW235370   0.594   4.496   3.459 -1.0983  0.8660  0.4331
 7913SOL     OW35371   1.065   2.612  14.763  0.4972  0.0188  0.5756
 7913SOL    HW135372   1.150   2.569  14.767  0.2559 -0.3797  1.5840
 7913SOL    HW235373   1.027   2.620  14.851 -0.7167  0.8285 -0.0255
 7914SOL     OW35374   4.711   0.385  16.386 -0.7039 -0.3734  0.5557
 7914SOL    HW135375   4.710   0.412  16.478 -1.2313  1.3582  0.0439
 7914SOL    HW235376   4.657   0.450  16.343 -0.4982 -0.3006  0.4110
 7915SOL     OW35377   1.880   2.106   8.126 -0.2456 -0.4591  0.1352
 7915SOL    HW135378   1.857   2.134   8.215 -0.3368  0.5020 -0.1929
 7915SOL    HW235379   1.975   2.112   8.135 -0.2031  0.8407 -1.3512
 7916SOL     OW35380   2.918   0.197   4.847  0.0836  0.2429 -0.3244
 7916SOL    HW135381   2.974   0.237   4.781 -0.4993 -1.3047 -1.7696
 7916SOL    HW235382   2.830   0.216   4.814 -0.6342 -1.8182  0.4095
 7917SOL     OW35383   1.423   3.878   6.785 -0.6426  0.2071 -0.3297
 7917SOL    HW135384   1.467   3.892   6.869  2.2700  0.4346 -1.9377
 7917SOL    HW235385   1.347   3.823   6.808  0.1299 -0.3672  0.8264
 7918SOL     OW35386   4.127   0.111   7.961  0.4274 -0.4792  0.5937
 7918SOL    HW135387   4.088   0.073   7.882  2.4457 -1.3626  0.0322
 7918SOL    HW235388   4.205   0.154   7.925 -0.8251  0.5769 -0.8603
 7919SOL     OW35389   2.873   3.498  16.415 -0.2582  0.6366  0.1543
 7919SOL    HW135390   2.938   3.503  16.486  0.3707 -0.7609 -0.3223
 7919SOL    HW235391   2.808   3.564  16.439 -0.2642  0.5235  0.4456
 7920SOL     OW35392   1.776   0.119  16.864  0.1707 -0.0778  0.2608
 7920SOL    HW135393   1.780   0.203  16.909 -1.7237  0.7978 -1.1946
 7920SOL    HW235394   1.682   0.100  16.853 -0.0107  0.9854 -0.1051
 7921SOL     OW35395   1.293   0.745  10.396 -0.5618 -1.0683 -0.0583
 7921SOL    HW135396   1.299   0.689  10.472  2.5673 -1.2824 -0.4692
 7921SOL    HW235397   1.244   0.820  10.430 -0.7935 -1.5254  0.5906
 7922SOL     OW35398   3.327   4.298   6.832 -0.4487 -0.7882  0.0743
 7922SOL    HW135399   3.350   4.357   6.904  1.5027 -0.0278 -1.1711
 7922SOL    HW235400   3.303   4.221   6.882  2.4530 -1.7227  0.0143
 7923SOL     OW35401   0.862   3.096  17.464 -0.2831  0.2445  0.5080
 7923SOL    HW135402   0.792   3.143  17.419  0.4025 -1.4359 -2.3357
 7923SOL    HW235403   0.940   3.137  17.425 -1.3774 -0.0682 -2.0581
 7924SOL     OW35404   2.681   2.938   8.780 -0.1630 -0.9125 -0.3093
 7924SOL    HW135405   2.596   2.912   8.746 -0.3495  0.9574 -1.2860
 7924SOL    HW235406   2.670   2.906   8.869  2.4424 -0.8339  0.0580
 7925SOL     OW35407   1.083   4.314  10.080  0.1033 -0.3511 -0.6849
 7925SOL    HW135408   1.060   4.406  10.068 -1.5224 -0.6184  0.3109
 7925SOL    HW235409   1.171   4.308  10.044  1.2040 -0.6208  2.0026
 7926SOL     OW35410   0.025   2.553   2.579 -0.3883 -0.4603 -0.5121
 7926SOL    HW135411   4.741   2.462   2.569 -0.7755 -0.3188 -0.7101
 7926SOL    HW235412   4.699   2.598   2.533  0.0340 -2.1380 -2.7764
 7927SOL     OW35413   2.372   3.840  15.340 -0.6495 -0.2642 -0.2328
 7927SOL    HW135414   2.403   3.844  15.431  0.7342  1.4002 -0.7807
 7927SOL    HW235415   2.446   3.789  15.307  0.7559  1.2124  0.5890
 7928SOL     OW35416   0.930   3.812   0.915 -0.5323  0.5823  0.8943
 7928SOL    HW135417   0.866   3.769   0.972  0.9554 -1.6003  0.9087
 7928SOL    HW235418   1.007   3.760   0.937 -0.5741  0.0306 -0.2327
 7929SOL     OW35419   2.189   1.617   3.062  0.1796 -0.2283  0.1351
 7929SOL    HW135420   2.175   1.562   3.139  0.3359  0.4815  0.6644
 7929SOL    HW235421   2.251   1.571   3.005  0.6456 -0.0113  0.4753
 7930SOL     OW35422   0.730   4.138  13.773 -0.3155  0.2125  0.2982
 7930SOL    HW135423   0.805   4.116  13.829  1.4611  1.3014 -1.6364
 7930SOL    HW235424   0.660   4.165  13.831 -2.1433 -3.7312 -0.1066
 7931SOL     OW35425   1.848   1.743   3.724 -0.0348  0.7214  0.0264
 7931SOL    HW135426   1.848   1.677   3.793 -0.6292  0.0566 -0.6036
 7931SOL    HW235427   1.841   1.699   3.639 -2.6540 -1.5811  1.4468
 7932SOL     OW35428   1.529   0.208   5.836  0.5123 -0.2396  0.7058
 7932SOL    HW135429   1.452   0.164   5.872  0.2967 -1.4944 -1.2881
 7932SOL    HW235430   1.492   0.251   5.758  1.9058  0.0093  0.1851
 7933SOL     OW35431   4.003   2.873  14.740 -0.1671 -0.4119  0.3231
 7933SOL    HW135432   3.993   2.779  14.755  1.0137 -0.1152  3.0934
 7933SOL    HW235433   4.000   2.901  14.832  1.2725  0.3964  0.1265
 7934SOL     OW35434   3.042   2.692   8.080  0.4362 -0.2528 -0.1478
 7934SOL    HW135435   2.959   2.722   8.118  0.8371 -0.2454  0.7195
 7934SOL    HW235436   3.021   2.693   7.987  0.7630 -0.0721 -0.2196
 7935SOL     OW35437   1.648   0.168   0.629 -0.2319 -0.5607  0.5912
 7935SOL    HW135438   1.735   0.163   0.670 -0.1066 -0.7478  0.2984
 7935SOL    HW235439   1.626   0.079   0.658 -1.7139  0.1117  1.5506
 7936SOL     OW35440   0.124   0.329   6.971  0.1471  0.0705  0.3577
 7936SOL    HW135441   0.045   0.281   6.945  0.0651 -0.6857  1.9496
 7936SOL    HW235442   0.182   0.256   6.953 -1.3573 -1.2965  1.0659
 7937SOL     OW35443   0.310   1.075   3.326 -0.1673  0.0390  0.5473
 7937SOL    HW135444   0.295   1.144   3.390 -0.3147  1.3699 -0.9268
 7937SOL    HW235445   0.324   1.132   3.250 -0.0947 -1.6654 -0.7284
 7938SOL     OW35446   0.985   3.016   1.018  0.7886 -0.3073  0.4838
 7938SOL    HW135447   0.897   3.054   1.026  0.6860  0.1370 -2.7461
 7938SOL    HW235448   1.042   3.089   0.990  0.6112  0.0109  0.9502
 7939SOL     OW35449   1.368   0.851   5.744 -0.0898 -0.1217  0.2604
 7939SOL    HW135450   1.361   0.794   5.667  0.2604  0.4119 -0.1636
 7939SOL    HW235451   1.411   0.788   5.803 -0.9874 -1.0558 -0.0838
 7940SOL     OW35452   1.598   4.724   8.514 -0.4747  0.0018 -0.4375
 7940SOL    HW135453   1.589   4.739   8.608 -4.3574 -0.8454 -0.6731
 7940SOL    HW235454   1.690   0.003   8.496  0.1980 -0.6535  2.1128
 7941SOL     OW35455   1.567   4.371   8.508 -0.0005 -0.3266 -0.1086
 7941SOL    HW135456   1.619   4.332   8.578  0.4777  1.2838  0.4257
 7941SOL    HW235457   1.513   4.434   8.555  2.6957  1.2964  0.7978
 7942SOL     OW35458   3.731   3.887   9.367 -0.1208  0.0711  0.1064
 7942SOL    HW135459   3.669   3.910   9.297  2.4273  3.1944 -1.0996
 7942SOL    HW235460   3.800   3.835   9.327 -1.5227 -2.0569  0.4705
 7943SOL     OW35461   3.524   0.090   0.387  0.2275 -0.9918 -0.7570
 7943SOL    HW135462   3.520   4.738   0.386 -0.5452 -0.9658 -0.2873
 7943SOL    HW235463   3.503   0.101   0.294  2.3404 -0.3619 -1.1684
 7944SOL     OW35464   3.628   2.039   6.674  0.5322 -0.3374 -0.4222
 7944SOL    HW135465   3.552   2.071   6.722  0.8805 -1.5565  0.9508
 7944SOL    HW235466   3.701   2.073   6.726 -0.6294  1.4339  0.0736
 7945SOL     OW35467   0.694   0.335   1.089  0.0159 -0.1706  0.3194
 7945SOL    HW135468   0.648   0.332   1.005 -1.8625  1.1202  1.3046
 7945SOL    HW235469   0.630   0.384   1.141 -1.9911 -0.0104 -2.2833
 7946SOL     OW35470   0.078   2.741  12.468 -0.2139 -0.3641  0.1707
 7946SOL    HW135471   0.128   2.672  12.512 -0.4617 -1.1337 -0.7573
 7946SOL    HW235472   0.013   2.750  12.537  0.9898 -0.0065  1.2607
 7947SOL     OW35473   2.055   2.858   6.864  0.5394 -0.0536 -0.3525
 7947SOL    HW135474   2.018   2.773   6.841 -1.4579  0.5509  0.6625
 7947SOL    HW235475   2.030   2.860   6.957 -0.5573  0.8371 -0.6749
 7948SOL     OW35476   2.863   1.831   9.626 -0.1555  0.1734 -0.2676
 7948SOL    HW135477   2.865   1.804   9.534 -0.3959  0.2298 -0.2871
 7948SOL    HW235478   2.779   1.805   9.663  0.1592 -0.4370  0.0331
 7949SOL     OW35479   1.825   1.696  11.945 -0.2236  0.1151 -0.0583
 7949SOL    HW135480   1.846   1.683  11.853  1.1744 -0.1715  0.2980
 7949SOL    HW235481   1.812   1.791  11.943  0.4074  0.2071  0.1252
 7950SOL     OW35482   1.680   2.536   5.288 -0.4953  0.0329 -0.2039
 7950SOL    HW135483   1.658   2.596   5.217  0.5960 -0.2237 -0.7632
 7950SOL    HW235484   1.751   2.586   5.328  0.4038 -1.5481  0.1723
 7951SOL     OW35485   3.849   0.910  17.658  0.6283 -0.4136 -0.3279
 7951SOL    HW135486   3.868   0.958  17.739 -0.1200 -0.7561  0.0506
 7951SOL    HW235487   3.773   0.857  17.681  0.3147 -0.3241 -1.1492
 7952SOL     OW35488   1.338   0.475   5.345 -0.1212 -0.1148 -0.1139
 7952SOL    HW135489   1.272   0.406   5.337 -2.1630  1.6012  1.7465
 7952SOL    HW235490   1.417   0.435   5.309  2.0381  1.6179  2.6974
 7953SOL     OW35491   2.006   2.974  10.662  0.4894 -0.1158 -0.1266
 7953SOL    HW135492   1.919   2.971  10.701  1.4559  1.3797  2.1697
 7953SOL    HW235493   2.008   2.885  10.629 -2.8432 -0.0937 -0.3517
 7954SOL     OW35494   4.459   0.694   0.266 -0.1637  0.5046 -0.1259
 7954SOL    HW135495   4.546   0.670   0.233 -0.3843 -2.0684  1.1706
 7954SOL    HW235496   4.483   0.732   0.350  0.0202  2.0254 -0.8664
 7955SOL     OW35497   1.472   1.054   7.359  0.3102 -0.6796 -0.7007
 7955SOL    HW135498   1.408   1.054   7.287 -0.8119 -0.2390  0.2921
 7955SOL    HW235499   1.447   0.966   7.388 -0.4580 -0.6765 -1.3304
 7956SOL     OW35500   2.702   3.272   5.122  0.7291  0.1928  0.2841
 7956SOL    HW135501   2.760   3.327   5.070 -1.7457  0.5228 -2.1269
 7956SOL    HW235502   2.654   3.317   5.191  0.0217 -0.4180  0.1956
 7957SOL     OW35503   3.939   4.020   7.028 -0.1963  0.4117  0.3312
 7957SOL    HW135504   3.998   3.952   7.060 -1.4312  1.4401  4.7564
 7957SOL    HW235505   3.878   4.019   7.102 -1.1213  2.9894 -0.4137
 7958SOL     OW35506   1.870   3.106   1.679  0.3094  0.1627  0.1928
 7958SOL    HW135507   1.780   3.080   1.696  0.5132 -0.2413  0.6453
 7958SOL    HW235508   1.863   3.135   1.588  2.2052  2.2003  0.6959
 7959SOL     OW35509   4.643   3.229   2.003 -0.1015  0.1365  0.1856
 7959SOL    HW135510   4.628   3.155   1.944 -0.2761 -0.0092  0.4122
 7959SOL    HW235511   4.554   3.234   2.038 -1.4382 -0.0296 -3.1706
 7960SOL     OW35512   2.578   3.565   7.336 -0.5276 -0.2096  0.3378
 7960SOL    HW135513   2.604   3.473   7.332 -0.6371 -0.2856  1.4374
 7960SOL    HW235514   2.490   3.563   7.299 -0.3811  1.3159 -0.0755
 7961SOL     OW35515   3.980   0.690   0.238  0.2030 -0.4474  0.0551
 7961SOL    HW135516   3.951   0.605   0.271 -0.2373  0.4132  1.8727
 7961SOL    HW235517   3.908   0.748   0.263  0.1929 -0.5775  0.3364
 7962SOL     OW35518   1.877   3.109   3.533  0.0221  0.3325  0.0953
 7962SOL    HW135519   1.845   3.060   3.458 -1.0609 -0.3681  1.0345
 7962SOL    HW235520   1.969   3.109   3.505  0.7972  0.5369  2.6406
 7963SOL     OW35521   2.727   4.068  11.484  0.1349  0.7271 -0.6332
 7963SOL    HW135522   2.676   4.095  11.561  0.5816 -2.2965  0.7290
 7963SOL    HW235523   2.676   4.118  11.420  0.5050 -0.0181 -1.4911
 7964SOL     OW35524   2.191   0.337  10.231  0.2856 -0.0766 -0.3501
 7964SOL    HW135525   2.135   0.304  10.301 -0.8738 -1.2450 -1.8394
 7964SOL    HW235526   2.132   0.403  10.195  0.3920 -0.5471 -1.3895
 7965SOL     OW35527   0.087   2.514   3.139  0.4518 -0.6322 -0.2241
 7965SOL    HW135528   0.053   2.604   3.143  0.7574 -0.5768  0.8646
 7965SOL    HW235529   0.181   2.530   3.141  0.1061  1.8592 -2.9333
 7966SOL     OW35530   0.964   0.951  13.616  0.6150 -0.0865  0.3139
 7966SOL    HW135531   1.019   1.025  13.592  1.4843 -0.9012 -0.1848
 7966SOL    HW235532   0.927   0.974  13.702 -0.6164 -0.2569 -0.1607
 7967SOL     OW35533   1.194   1.556  15.746 -0.5885 -0.3194 -0.2157
 7967SOL    HW135534   1.102   1.529  15.739 -0.8483  0.5227 -0.0768
 7967SOL    HW235535   1.203   1.635  15.693 -1.5820 -0.4000 -0.5090
 7968SOL     OW35536   2.365   2.922   6.981 -0.2215  0.1740  0.0181
 7968SOL    HW135537   2.326   2.969   7.054 -1.5069  2.6552 -2.2786
 7968SOL    HW235538   2.411   2.848   7.023  0.0146 -0.0469 -0.6240
 7969SOL     OW35539   2.226   2.395   7.511  0.3463 -0.0102  0.7417
 7969SOL    HW135540   2.225   2.474   7.458 -1.9413  0.0487  0.8711
 7969SOL    HW235541   2.307   2.355   7.480 -0.2528 -0.9735  0.3964
 7970SOL     OW35542   0.647   3.745   8.729 -0.3293 -0.6167  0.3562
 7970SOL    HW135543   0.718   3.809   8.733 -2.0763  1.3350  0.4258
 7970SOL    HW235544   0.590   3.775   8.800 -1.5457  3.1351 -2.1760
 7971SOL     OW35545   1.922   4.719  16.714 -0.0626 -0.2756  0.1413
 7971SOL    HW135546   1.873   4.730  16.632  1.8545  2.3033 -0.6266
 7971SOL    HW235547   1.878   0.040  16.768  2.6307  1.2372  0.5054
 7972SOL     OW35548   4.683   2.712   8.761  0.0743  0.0262 -0.0758
 7972SOL    HW135549   4.611   2.650   8.748  2.4878 -2.7955  0.1883
 7972SOL    HW235550   4.681   2.759   8.677 -1.1326  1.2516  0.6324
 7973SOL     OW35551   1.575   1.330   6.897 -0.1565 -0.0282 -0.2174
 7973SOL    HW135552   1.542   1.325   6.987 -2.2097 -1.1298 -1.0294
 7973SOL    HW235553   1.662   1.299   6.923 -1.6095 -3.3277  0.7696
 7974SOL     OW35554   0.974   3.510   6.567  0.2346  0.0600 -0.0452
 7974SOL    HW135555   0.994   3.549   6.481 -0.5019 -0.8410 -0.6199
 7974SOL    HW235556   1.006   3.420   6.557 -0.7823 -0.3762  0.7131
 7975SOL     OW35557   0.112   2.627   5.594  0.5773 -0.2919  0.0760
 7975SOL    HW135558   0.027   2.584   5.591  0.2953  0.2815 -0.3238
 7975SOL    HW235559   0.086   2.719   5.588 -0.6041 -0.6175  0.2504
 7976SOL     OW35560   2.275   0.680   4.466  0.1596 -0.1553 -0.4691
 7976SOL    HW135561   2.360   0.695   4.505  0.1887  1.8534 -1.3018
 7976SOL    HW235562   2.252   0.589   4.486 -0.1681 -0.2758 -1.3811
 7977SOL     OW35563   1.539   1.486   6.392 -0.2538 -0.0290 -0.3641
 7977SOL    HW135564   1.478   1.498   6.465 -0.1415  0.9475 -0.4431
 7977SOL    HW235565   1.605   1.425   6.425  2.1019  1.0921 -3.0181
 7978SOL     OW35566   0.223   4.189   5.901  0.2649  0.3538  0.1739
 7978SOL    HW135567   0.283   4.262   5.919 -0.4942  1.5448 -2.0508
 7978SOL    HW235568   0.209   4.186   5.806 -0.8592  1.8278  0.2775
 7979SOL     OW35569   0.448   2.919   7.409 -0.1030 -0.2395 -0.4122
 7979SOL    HW135570   0.390   2.955   7.476  1.3447  1.4149 -0.0216
 7979SOL    HW235571   0.409   2.972   7.339  1.4538 -0.5992 -1.5505
 7980SOL     OW35572   0.620   3.564   1.595 -1.1755 -0.1848  0.2523
 7980SOL    HW135573   0.542   3.569   1.650 -2.3204  3.5743 -1.6572
 7980SOL    HW235574   0.583   3.534   1.512  0.4016  0.1728 -0.5810
 7981SOL     OW35575   2.982   4.450   9.826  0.5962 -0.5656  0.3570
 7981SOL    HW135576   3.020   4.519   9.772  0.5881  0.2590  1.4050
 7981SOL    HW235577   3.035   4.463   9.905  3.5313 -1.8201 -1.3980
 7982SOL     OW35578   0.687   2.136   6.997  0.1302  0.3554 -0.0271
 7982SOL    HW135579   0.694   2.102   7.086 -3.4957  2.5766  1.1255
 7982SOL    HW235580   0.755   2.087   6.951  0.9377  0.8108  0.6936
 7983SOL     OW35581   0.002   4.534  14.851 -0.2187 -0.3261 -0.0884
 7983SOL    HW135582   4.674   4.516  14.911 -2.5110  0.3451 -2.6523
 7983SOL    HW235583   4.709   4.505  14.768 -0.4047  1.5544 -0.6706
 7984SOL     OW35584   0.642   0.720   5.470 -0.0298  0.0598 -0.1474
 7984SOL    HW135585   0.596   0.636   5.477  1.4232 -0.9279 -2.4479
 7984SOL    HW235586   0.621   0.747   5.381 -1.8072  1.4470  0.6831
 7985SOL     OW35587   4.282   0.953   3.600  0.1632  0.0205  0.0800
 7985SOL    HW135588   4.223   1.028   3.604 -0.1723 -0.2721  0.5793
 7985SOL    HW235589   4.365   1.001   3.591 -0.2782  0.7117 -0.3013
 7986SOL     OW35590   2.607   2.065   0.448 -0.6141 -0.2631 -0.2600
 7986SOL    HW135591   2.554   2.088   0.372  0.0634  0.6241 -0.4588
 7986SOL    HW235592   2.690   2.039   0.408 -0.0581  0.4916  0.4041
 7987SOL     OW35593   3.760   0.688   9.455  0.4291  0.0386  0.1743
 7987SOL    HW135594   3.719   0.760   9.406 -1.0568 -0.0489  1.2828
 7987SOL    HW235595   3.708   0.624   9.406  0.5281 -0.6693  0.9936
 7988SOL     OW35596   0.738   0.389   2.652  0.3032 -0.4810 -0.0370
 7988SOL    HW135597   0.717   0.436   2.733  0.2809  0.9821 -0.8996
 7988SOL    HW235598   0.830   0.415   2.652  0.4530 -0.9975 -0.8655
 7989SOL     OW35599   0.831   2.275   4.223 -0.3534 -0.7888 -0.2686
 7989SOL    HW135600   0.867   2.195   4.184 -1.2149 -1.2995 -0.0153
 7989SOL    HW235601   0.861   2.269   4.314 -1.4355 -0.1765  0.1276
 7990SOL     OW35602   2.936   3.938   2.291 -0.4052 -0.0203  0.0129
 7990SOL    HW135603   2.841   3.936   2.302 -0.1541 -1.6591  1.8344
 7990SOL    HW235604   2.956   3.849   2.322 -2.3076 -0.7081 -0.7460
 7991SOL     OW35605   1.830   2.284   6.428  0.1967  0.1840 -0.1980
 7991SOL    HW135606   1.787   2.249   6.350 -1.7049  3.4038 -0.5739
 7991SOL    HW235607   1.791   2.371   6.431  0.3874  0.2895 -0.7764
 7992SOL     OW35608   0.469   1.544  10.683  0.2757  1.2120  0.1818
 7992SOL    HW135609   0.380   1.508  10.681  0.3310  1.1250 -0.6656
 7992SOL    HW235610   0.477   1.601  10.606 -1.7843  0.5936 -0.4873
 7993SOL     OW35611   4.683   4.313   3.831  0.7076 -0.5337  0.8506
 7993SOL    HW135612   4.696   4.327   3.737  0.8290  0.2457  0.9896
 7993SOL    HW235613   4.671   4.402   3.863 -1.0731 -0.7857  0.9101
 7994SOL     OW35614   4.473   0.281   3.525 -0.1769  0.4959 -0.1067
 7994SOL    HW135615   4.424   0.211   3.568  0.8155 -0.4182 -0.4602
 7994SOL    HW235616   4.409   0.303   3.457 -0.8743 -0.7571  0.1592
 7995SOL     OW35617   3.471   4.668   8.715  0.1506 -0.1331 -0.4329
 7995SOL    HW135618   3.497   4.627   8.632 -0.7992 -0.0275 -0.7839
 7995SOL    HW235619   3.376   4.658   8.701  0.5069 -0.2076 -2.8225
 7996SOL     OW35620   3.161   1.541  14.071 -0.9539 -0.4694 -0.1314
 7996SOL    HW135621   3.232   1.583  14.022 -1.8836  0.4743 -0.6623
 7996SOL    HW235622   3.090   1.605  14.060 -0.5242  0.2482  1.2466
 7997SOL     OW35623   2.705   4.654   7.694 -0.4196  0.3864 -0.1113
 7997SOL    HW135624   2.720   4.628   7.603 -1.2915  0.3317 -0.2405
 7997SOL    HW235625   2.612   4.630   7.695 -0.5947  1.1451  1.6653
 7998SOL     OW35626   1.343   3.063   3.076  0.1445 -0.1178 -0.1427
 7998SOL    HW135627   1.434   3.051   3.049  0.1558  0.3881 -0.3258
 7998SOL    HW235628   1.357   3.061   3.171 -1.1723 -0.0455  0.0599
 7999SOL     OW35629   2.671   4.252   0.080 -0.1076  0.5502 -0.6301
 7999SOL    HW135630   2.697   4.341   0.056 -0.6976  0.7630 -0.4774
 7999SOL    HW235631   2.682   4.271   0.173  2.3185 -1.9950 -0.4106
 8000SOL     OW35632   0.548   2.243   9.426  0.2198  0.3276 -0.1180
 8000SOL    HW135633   0.537   2.336   9.447  0.3637  0.0764  1.0457
 8000SOL    HW235634   0.532   2.199   9.509 -2.1011 -2.0578 -1.8294
 8001SOL     OW35635   0.418   3.180   6.338 -0.2389 -0.1467  0.4949
 8001SOL    HW135636   0.482   3.113   6.359 -0.3473 -1.2498 -2.6747
 8001SOL    HW235637   0.403   3.148   6.249 -0.4994 -1.2983  0.9544
 8002SOL     OW35638   3.834   0.408   3.041 -0.2711 -0.3937 -0.0622
 8002SOL    HW135639   3.901   0.404   2.973 -1.8422 -1.4724 -1.5317
 8002SOL    HW235640   3.842   0.500   3.066 -1.2818  0.1881 -1.8669
 8003SOL     OW35641   0.992   0.695   8.122 -0.8012 -0.3883 -0.2454
 8003SOL    HW135642   1.009   0.781   8.085  1.9125 -1.3760 -1.3023
 8003SOL    HW235643   1.080   0.656   8.115 -0.5332  0.5618 -2.1397
 8004SOL     OW35644   4.160   0.420   6.349 -0.1543 -0.1206  0.5422
 8004SOL    HW135645   4.254   0.428   6.337  0.1318 -2.0051  1.5721
 8004SOL    HW235646   4.128   0.509   6.332  0.9746  0.2378  0.3080
 8005SOL     OW35647   3.714   0.693   6.786  0.3303 -0.2971  0.2382
 8005SOL    HW135648   3.742   0.612   6.830  1.1921  0.3534  0.8798
 8005SOL    HW235649   3.794   0.741   6.769  0.3061 -0.6438 -0.8700
 8006SOL     OW35650   3.792   3.285   4.587 -0.2992 -0.0930  0.3510
 8006SOL    HW135651   3.861   3.258   4.526 -0.7665  0.2571 -0.3324
 8006SOL    HW235652   3.844   3.337   4.647 -1.0857 -0.3622  1.2704
 8007SOL     OW35653   2.606   0.223   5.674 -0.0172  0.5098  0.4539
 8007SOL    HW135654   2.656   0.254   5.598 -2.5379  2.3803 -0.4482
 8007SOL    HW235655   2.514   0.223   5.646  0.1097 -1.1550  0.0439
 8008SOL     OW35656   0.644   1.979   7.903  0.0546  0.1224  0.7022
 8008SOL    HW135657   0.729   2.018   7.879  0.5775  0.0059  2.3621
 8008SOL    HW235658   0.675   1.937   7.983 -0.0754 -0.2534  0.5528
 8009SOL     OW35659   1.063   1.346  15.180 -0.0991  0.3255  0.3601
 8009SOL    HW135660   1.080   1.411  15.248 -1.8780  0.9862  0.1853
 8009SOL    HW235661   1.137   1.291  15.205  1.0746  0.1429 -3.4509
 8010SOL     OW35662   1.409   2.560   8.450  0.0110  0.1230 -0.4008
 8010SOL    HW135663   1.358   2.506   8.389 -0.3397 -1.5845  1.4061
 8010SOL    HW235664   1.344   2.623   8.481  0.6057  0.0323  1.0465
 8011SOL     OW35665   3.618   4.553   5.891  0.4418 -0.3703  0.2781
 8011SOL    HW135666   3.597   4.584   5.802 -0.2526 -0.6072  0.3622
 8011SOL    HW235667   3.610   4.638   5.934  0.0410  0.7136 -1.9160
 8012SOL     OW35668   2.549   2.133  16.748  0.4602 -0.0679 -0.2702
 8012SOL    HW135669   2.561   2.073  16.674  0.4136 -1.4303  0.8230
 8012SOL    HW235670   2.580   2.087  16.826  0.9248  1.8203  0.6394
 8013SOL     OW35671   1.352   2.387   6.034  0.5698  0.0100  0.1277
 8013SOL    HW135672   1.341   2.319   6.101  0.7464 -2.3151 -2.2192
 8013SOL    HW235673   1.371   2.456   6.097  2.1264  0.2333 -0.5701
 8014SOL     OW35674   1.018   2.400   7.373  0.1007  0.0572 -0.0487
 8014SOL    HW135675   0.955   2.469   7.391  1.3518  1.3812 -0.7915
 8014SOL    HW235676   1.086   2.418   7.437  1.1819 -0.8266 -0.9367
 8015SOL     OW35677   4.474   1.773   1.728 -0.0298  0.8531 -0.1038
 8015SOL    HW135678   4.410   1.755   1.798  3.0404 -0.6387  2.3040
 8015SOL    HW235679   4.442   1.854   1.688 -1.0608  0.6921  0.3793
 8016SOL     OW35680   2.178   1.437  12.422 -0.3861  0.4068  0.3894
 8016SOL    HW135681   2.271   1.460  12.419 -0.0112 -1.2256 -0.5847
 8016SOL    HW235682   2.161   1.510  12.481 -1.7888  1.5216 -1.3749
 8017SOL     OW35683   2.004   4.651   2.106 -0.0575  0.6821  0.3003
 8017SOL    HW135684   1.998   4.720   2.039 -1.5704  0.5589  0.2999
 8017SOL    HW235685   2.099   4.641   2.108 -0.3204 -2.2625 -2.1976
 8018SOL     OW35686   1.883   3.249   1.413 -0.2963 -0.4886 -0.7663
 8018SOL    HW135687   1.797   3.272   1.449 -0.2771 -1.7300  0.0916
 8018SOL    HW235688   1.894   3.328   1.360  0.5937 -0.5006 -0.6002
 8019SOL     OW35689   4.228   4.458  12.655  0.2483  0.8317 -0.4316
 8019SOL    HW135690   4.251   4.528  12.716  0.5142  0.6915 -0.3729
 8019SOL    HW235691   4.165   4.502  12.598 -0.7347  1.7072  1.3479
 8020SOL     OW35692   2.774   0.193   5.428 -0.0386 -0.3033 -0.1808
 8020SOL    HW135693   2.783   0.287   5.410 -1.3351 -0.0527  0.4768
 8020SOL    HW235694   2.862   0.170   5.457  0.4683  0.1209 -1.3904
 8021SOL     OW35695   2.183   2.947   1.245  0.1188  0.2905  1.0908
 8021SOL    HW135696   2.242   2.900   1.304  0.2724  1.0730  1.5718
 8021SOL    HW235697   2.141   3.001   1.313 -2.0004  1.2301 -0.9630
 8022SOL     OW35698   1.861   0.077   8.449  0.0355 -0.2804 -0.4762
 8022SOL    HW135699   1.930   0.050   8.510 -1.2434 -1.3235  0.4879
 8022SOL    HW235700   1.900   0.060   8.363 -0.4616 -2.6313 -0.2450
 8023SOL     OW35701   0.746   1.324   2.238 -0.0549  0.4690 -0.4529
 8023SOL    HW135702   0.673   1.293   2.184  1.8232 -1.8356 -1.6809
 8023SOL    HW235703   0.741   1.420   2.232 -0.3064  0.6320  2.2289
 8024SOL     OW35704   1.713   4.566   5.375  0.1463 -0.8505 -0.0152
 8024SOL    HW135705   1.745   4.499   5.435 -1.3813  0.1972  1.9981
 8024SOL    HW235706   1.631   4.584   5.422  0.9194  1.9202  0.2612
 8025SOL     OW35707   1.450   1.135   5.331  0.5755 -0.2354 -0.1298
 8025SOL    HW135708   1.422   1.221   5.298 -0.2255 -0.0266  1.0890
 8025SOL    HW235709   1.525   1.162   5.385 -0.3597 -1.8315  1.9675
 8026SOL     OW35710   0.804   2.524   3.467 -0.2077  0.1224  0.1057
 8026SOL    HW135711   0.808   2.445   3.413  0.6009 -0.3819  0.8968
 8026SOL    HW235712   0.839   2.591   3.408 -2.2439  0.8146 -0.3446
 8027SOL     OW35713   3.151   2.395   1.047  0.0280  0.2433 -0.0145
 8027SOL    HW135714   3.220   2.444   1.003 -0.7010  0.5583 -0.8044
 8027SOL    HW235715   3.086   2.397   0.976  0.4335 -3.4803 -0.4670
 8028SOL     OW35716   1.001   4.066   6.229  0.5408  0.8018 -0.2407
 8028SOL    HW135717   0.988   4.033   6.141 -0.8231 -0.6148  0.4908
 8028SOL    HW235718   1.097   4.064   6.234  0.4843  0.8927  0.9701
 8029SOL     OW35719   2.408   0.173   8.535 -0.2301 -0.1837  0.0688
 8029SOL    HW135720   2.472   0.135   8.475  1.5033  1.9614  0.5492
 8029SOL    HW235721   2.405   0.265   8.508 -2.2779 -0.4722 -0.7253
 8030SOL     OW35722   4.201   1.496  11.546  0.3651  0.0811  1.1899
 8030SOL    HW135723   4.256   1.569  11.575 -0.6034  1.2511  0.0785
 8030SOL    HW235724   4.124   1.539  11.509  0.4546 -0.0042  0.9001
 8031SOL     OW35725   3.329   1.278   2.374 -0.2513 -0.2972  0.2282
 8031SOL    HW135726   3.382   1.345   2.331  0.2662 -1.9149 -1.6394
 8031SOL    HW235727   3.357   1.298   2.464  1.2320 -0.4734 -0.1947
 8032SOL     OW35728   2.313   1.069   7.717 -0.3252 -0.6216 -0.2356
 8032SOL    HW135729   2.377   0.999   7.709  0.7332  0.2048  1.0066
 8032SOL    HW235730   2.245   1.034   7.659 -1.4485 -2.3539  2.1436
 8033SOL     OW35731   2.040   1.918   5.533  0.6915  0.1967  0.1784
 8033SOL    HW135732   2.134   1.935   5.526  0.6377  0.6882  0.7211
 8033SOL    HW235733   2.044   1.903   5.627  3.3106 -0.4295 -0.0223
 8034SOL     OW35734   0.498   4.096   1.402  0.6387  0.4222 -0.2506
 8034SOL    HW135735   0.466   4.014   1.438 -2.0039  1.7131  0.3304
 8034SOL    HW235736   0.592   4.077   1.397  0.2958 -1.6623  1.9363
 8035SOL     OW35737   3.864   2.114   4.571  0.1995  0.5845 -0.2840
 8035SOL    HW135738   3.850   2.209   4.570  1.6295  0.8046  0.3728
 8035SOL    HW235739   3.957   2.107   4.551  0.1411  0.8406 -0.6397
 8036SOL     OW35740   0.977   3.413   8.539 -0.5434  0.0011  0.0995
 8036SOL    HW135741   0.895   3.376   8.573 -0.7952  0.2908 -0.1927
 8036SOL    HW235742   0.962   3.508   8.529 -0.8426 -0.1387 -0.7848
 8037SOL     OW35743   1.153   0.976  17.237  0.2347  0.2887  0.1010
 8037SOL    HW135744   1.060   0.997  17.241  0.6822  2.0686  1.1530
 8037SOL    HW235745   1.155   0.904  17.301 -0.6409  1.4314  1.3975
 8038SOL     OW35746   0.110   2.398  17.671 -0.0921  0.3583  0.0456
 8038SOL    HW135747   0.097   2.446  17.589 -0.9643  0.2247  0.1024
 8038SOL    HW235748   0.171   2.453  17.719 -0.6350  2.3241 -1.5433
 8039SOL     OW35749   1.353   3.699   7.232 -0.1521  0.4156  0.3791
 8039SOL    HW135750   1.320   3.630   7.288 -0.8410 -1.0438 -1.8112
 8039SOL    HW235751   1.272   3.743   7.204  0.7105  0.3111 -2.3313
 8040SOL     OW35752   0.906   4.610   8.618  0.3360  0.0467 -0.8535
 8040SOL    HW135753   0.996   4.587   8.596 -0.1218 -0.1175 -2.5589
 8040SOL    HW235754   0.897   4.680   8.554  0.9730  0.2247 -0.7506
 8041SOL     OW35755   0.530   3.120   2.496 -0.6220 -0.3797  0.4595
 8041SOL    HW135756   0.479   3.166   2.430 -0.3344 -1.1861 -0.3330
 8041SOL    HW235757   0.594   3.074   2.442 -2.0534  0.8240 -2.2603
 8042SOL     OW35758   4.292   3.537   7.646  0.0526 -0.1854 -0.1101
 8042SOL    HW135759   4.376   3.540   7.599  0.4556  1.4727  0.7062
 8042SOL    HW235760   4.305   3.463   7.706 -3.8492  0.1622  1.1844
 8043SOL     OW35761   4.578   0.598  16.377  0.3049 -0.3726  0.4531
 8043SOL    HW135762   4.661   0.620  16.335  0.7535  1.1210  2.1149
 8043SOL    HW235763   4.553   0.685  16.408  2.1905  0.9133 -1.5979
 8044SOL     OW35764   1.354   3.824   7.565 -0.2275 -0.0740 -0.3361
 8044SOL    HW135765   1.412   3.836   7.641  0.0690  1.8479 -0.8746
 8044SOL    HW235766   1.414   3.775   7.510 -1.3911  1.5930 -3.0576
 8045SOL     OW35767   1.944   4.148   8.182  0.3502 -0.1938 -0.2012
 8045SOL    HW135768   1.875   4.116   8.123 -0.2520  0.6404  0.0573
 8045SOL    HW235769   2.009   4.078   8.180 -0.5284 -1.0752  2.0352
 8046SOL     OW35770   3.608   3.361   0.190 -0.3399  0.5569 -0.1245
 8046SOL    HW135771   3.532   3.303   0.194  0.9533 -1.3450 -2.7473
 8046SOL    HW235772   3.645   3.338   0.105 -0.0037 -1.3658  0.5314
 8047SOL     OW35773   0.979   1.155   4.886 -0.0145  0.0651 -0.5265
 8047SOL    HW135774   0.906   1.203   4.848 -1.3586 -0.2663  1.6532
 8047SOL    HW235775   0.958   1.063   4.870 -3.0065  0.5516  0.7424
 8048SOL     OW35776   1.604   4.211   6.463  0.3908  0.0304  0.4601
 8048SOL    HW135777   1.671   4.199   6.530  0.8977  1.2298  0.1755
 8048SOL    HW235778   1.526   4.174   6.505  1.2282  0.3913  2.3165
 8049SOL     OW35779   3.230   4.349  11.828 -0.6357  0.0835  0.6628
 8049SOL    HW135780   3.296   4.288  11.863 -0.1977  0.4377  0.4490
 8049SOL    HW235781   3.290   4.415  11.795 -0.3808 -0.4575  0.0321
 8050SOL     OW35782   4.668   2.641   7.438  0.0856  0.2103 -0.0551
 8050SOL    HW135783   4.694   2.690   7.516  2.0097  0.2038 -0.6850
 8050SOL    HW235784   4.586   2.680   7.409  0.3736  2.1623  1.7941
 8051SOL     OW35785   2.438   4.078   2.984 -0.3044 -0.2138  0.7189
 8051SOL    HW135786   2.514   4.052   2.931  0.4271 -1.1904  2.2534
 8051SOL    HW235787   2.361   4.043   2.939 -1.2616  0.3772  1.8941
 8052SOL     OW35788   0.797   3.175   3.766  0.3270 -0.2149  0.3177
 8052SOL    HW135789   0.790   3.254   3.713 -4.1576 -0.0739  1.1476
 8052SOL    HW235790   0.722   3.130   3.728  0.9907 -2.3963  1.6014
 8053SOL     OW35791   1.199   4.148  12.984  0.1349  0.1830 -0.2315
 8053SOL    HW135792   1.177   4.080  13.048  2.2473  1.3863  1.7747
 8053SOL    HW235793   1.143   4.118  12.913  0.2254  1.7928 -0.9636
 8054SOL     OW35794   0.690   2.899   4.042 -0.1825 -0.2221  0.0371
 8054SOL    HW135795   0.640   2.960   3.988 -0.1670 -0.0835  0.1772
 8054SOL    HW235796   0.612   2.868   4.088 -0.8971 -0.7359 -1.5074
 8055SOL     OW35797   2.578   4.158   4.564  0.2911 -0.2076 -0.1915
 8055SOL    HW135798   2.484   4.171   4.558  0.3131 -0.7447 -1.7792
 8055SOL    HW235799   2.600   4.098   4.492 -2.9988  1.0425 -2.2462
 8056SOL     OW35800   4.487   0.845   8.846  0.0834  0.7333  0.5729
 8056SOL    HW135801   4.563   0.789   8.830 -0.7140 -0.4267  0.8196
 8056SOL    HW235802   4.502   0.879   8.935  2.7368  0.5450  0.2042
 8057SOL     OW35803   1.241   1.570   8.780 -0.3223 -0.4891 -0.0433
 8057SOL    HW135804   1.207   1.481   8.775  0.2229 -0.8290  2.1470
 8057SOL    HW235805   1.190   1.606   8.853  2.1821  0.4337  1.2858
 8058SOL     OW35806   0.062   2.655   7.813  0.4417  0.2354 -0.1087
 8058SOL    HW135807   0.140   2.710   7.803  0.1987  0.3275 -1.3628
 8058SOL    HW235808   0.085   2.582   7.755 -2.3304  0.8507 -1.9355
 8059SOL     OW35809   3.687   4.556   8.522 -0.0349  0.0643 -0.0218
 8059SOL    HW135810   3.769   4.600   8.546 -0.7519  0.7920  1.1338
 8059SOL    HW235811   3.668   4.596   8.438 -1.5864 -0.0119  0.2959
 8060SOL     OW35812   0.726   2.468  12.014 -0.3689  0.4883  0.1283
 8060SOL    HW135813   0.819   2.446  12.010 -0.1720  1.2731  0.4165
 8060SOL    HW235814   0.697   2.405  12.080  1.1181 -0.1931  0.1366
 8061SOL     OW35815   2.373   1.636   2.177  0.1915  0.4224 -0.8644
 8061SOL    HW135816   2.431   1.602   2.109 -0.7731  0.0772 -1.5099
 8061SOL    HW235817   2.405   1.592   2.256 -2.2942  0.0289 -0.0765
 8062SOL     OW35818   0.036   0.850   8.618  0.0730 -0.7728 -0.1263
 8062SOL    HW135819   0.031   0.943   8.640 -2.1452 -0.9222  0.0225
 8062SOL    HW235820   0.011   0.804   8.699  2.2733  0.1839  1.1117
 8063SOL     OW35821   1.365   2.068   0.878 -0.2181  0.5617  0.0462
 8063SOL    HW135822   1.364   2.018   0.960 -0.5116 -0.4468 -0.5672
 8063SOL    HW235823   1.423   2.142   0.894  2.2052 -0.8327 -2.2416
 8064SOL     OW35824   0.228   3.872   7.483  0.0331 -0.3020 -0.5697
 8064SOL    HW135825   0.257   3.826   7.404  0.9327 -1.7917  0.6264
 8064SOL    HW235826   0.294   3.940   7.495 -0.4098  0.3280 -1.7596
 8065SOL     OW35827   2.277   1.219   4.731  0.1398 -0.2552  0.5133
 8065SOL    HW135828   2.300   1.301   4.688  2.8573 -1.0100  0.5477
 8065SOL    HW235829   2.182   1.219   4.742 -0.1300  3.2213 -1.9519
 8066SOL     OW35830   3.945   0.269   6.233  0.5469  0.0543 -0.3314
 8066SOL    HW135831   4.023   0.304   6.276  0.0737 -2.0113  2.1935
 8066SOL    HW235832   3.937   0.307   6.146 -0.7946 -0.9979 -0.6710
 8067SOL     OW35833   4.698   3.157   5.713  0.2455  0.3254  0.5722
 8067SOL    HW135834   4.701   3.252   5.712  0.4444  0.3114 -0.1939
 8067SOL    HW235835   4.604   3.153   5.698  0.3168  0.7286  0.0159
 8068SOL     OW35836   1.341   4.325   6.440 -0.3414  0.6295 -0.7100
 8068SOL    HW135837   1.334   4.254   6.377  1.4167  0.7804 -1.0791
 8068SOL    HW235838   1.417   4.307   6.495 -2.0893 -2.5273  0.6573
 8069SOL     OW35839   4.013   3.724   1.632  0.4548 -0.3589  0.5705
 8069SOL    HW135840   3.964   3.649   1.666  0.3784 -0.4949  0.1613
 8069SOL    HW235841   3.990   3.729   1.539 -1.6707 -1.3062  1.0429
 8070SOL     OW35842   1.665   4.014   7.454  0.8623  0.6036  0.3227
 8070SOL    HW135843   1.740   4.022   7.513  0.1553  1.7270  1.0588
 8070SOL    HW235844   1.672   4.098   7.410 -0.2533  1.2948  1.4816
 8071SOL     OW35845   4.427   4.350  15.700  0.4501 -0.1267  0.1116
 8071SOL    HW135846   4.397   4.440  15.710 -0.9338 -0.3252 -2.2614
 8071SOL    HW235847   4.499   4.378  15.643  1.2465 -1.7840  0.2941
 8072SOL     OW35848   4.314   2.546   4.577  0.0772  0.2201  0.0661
 8072SOL    HW135849   4.373   2.601   4.525 -0.6797  0.6735 -0.3022
 8072SOL    HW235850   4.246   2.529   4.511 -2.0176 -2.0867  2.8356
 8073SOL     OW35851   3.436   4.268  13.602  0.4965  0.0914 -0.0016
 8073SOL    HW135852   3.380   4.303  13.532  1.1216 -0.2122 -0.6523
 8073SOL    HW235853   3.410   4.320  13.678 -0.8022 -1.5559  0.6685
 8074SOL     OW35854   3.225   4.361   3.676 -0.2352  1.0151  0.7742
 8074SOL    HW135855   3.171   4.399   3.607  1.3778  0.0131 -1.0503
 8074SOL    HW235856   3.160   4.307   3.719  1.2917 -2.5010 -1.2679
 8075SOL     OW35857   1.893   2.522   6.100  0.1950  0.1353  0.4456
 8075SOL    HW135858   1.983   2.493   6.084  0.1413  0.2124  0.0095
 8075SOL    HW235859   1.846   2.451   6.056  1.5027 -0.2770 -0.2730
 8076SOL     OW35860   0.298   2.561   8.493  0.4438  0.4257 -0.9969
 8076SOL    HW135861   0.285   2.629   8.559 -1.7207 -1.8392  0.8983
 8076SOL    HW235862   0.376   2.515   8.524 -0.0689 -0.0692 -0.4615
 8077SOL     OW35863   3.662   0.905   4.460  0.6895  0.2603 -0.2565
 8077SOL    HW135864   3.711   0.823   4.469  1.1663  0.3144 -2.3877
 8077SOL    HW235865   3.724   0.969   4.493  0.1190  1.2562 -1.1384
 8078SOL     OW35866   3.667   2.280   9.066 -0.1311  0.1261 -0.5391
 8078SOL    HW135867   3.689   2.220   8.995 -1.8695  0.7878 -1.6676
 8078SOL    HW235868   3.604   2.337   9.021  1.1650  1.5397 -0.5760
 8079SOL     OW35869   4.274   3.447   4.515 -0.0924  0.8598  0.0942
 8079SOL    HW135870   4.332   3.518   4.486 -0.4309  0.8716 -0.5434
 8079SOL    HW235871   4.282   3.471   4.608 -0.8573  2.1027 -0.1592
 8080SOL     OW35872   0.414   0.131   5.791  0.0213  0.0554  0.5669
 8080SOL    HW135873   0.335   0.143   5.739  0.1946 -1.6106 -0.1054
 8080SOL    HW235874   0.409   0.037   5.809 -2.5600  0.1857  0.3976
 8081SOL     OW35875   2.204   0.499   7.707  0.8203  0.0253 -0.3037
 8081SOL    HW135876   2.283   0.552   7.718 -0.4551  1.8641  0.2007
 8081SOL    HW235877   2.193   0.482   7.614  2.0723 -0.6152 -0.3263
 8082SOL     OW35878   3.870   0.313  17.485 -0.5183 -0.1918 -0.4484
 8082SOL    HW135879   3.809   0.386  17.490 -1.6703 -1.1301 -0.8774
 8082SOL    HW235880   3.953   0.358  17.466  0.4848 -1.8651 -0.0340
 8083SOL     OW35881   2.515   0.886   5.351 -0.2537 -0.1787  1.0787
 8083SOL    HW135882   2.448   0.818   5.351 -0.8688  0.4415  1.4383
 8083SOL    HW235883   2.568   0.858   5.426  1.5729  1.9286  0.5868
 8084SOL     OW35884   0.392   4.381   5.882  0.0071 -0.2721 -0.5941
 8084SOL    HW135885   0.384   4.461   5.829 -0.4224 -0.5458 -0.9482
 8084SOL    HW235886   0.464   4.402   5.941 -1.6104  1.5247  0.7327
 8085SOL     OW35887   3.931   0.811   3.451 -0.5888  0.6889  0.6140
 8085SOL    HW135888   3.859   0.770   3.499 -0.4183 -1.3085 -0.8274
 8085SOL    HW235889   4.003   0.750   3.466  0.3455  1.4113 -0.8232
 8086SOL     OW35890   0.354   2.509   3.002  0.3883  0.7935  0.1061
 8086SOL    HW135891   0.358   2.449   3.077 -0.3255  0.3145 -0.2316
 8086SOL    HW235892   0.287   2.464   2.950 -0.2431  1.8881 -0.0245
 8087SOL     OW35893   1.717   0.473  13.058  0.2299  0.3424 -1.0071
 8087SOL    HW135894   1.783   0.404  13.064 -0.4826 -0.4170 -1.8650
 8087SOL    HW235895   1.745   0.526  13.133 -1.7507  0.8002 -0.6009
 8088SOL     OW35896   0.540   3.405   2.597 -0.4040  0.2533  0.4524
 8088SOL    HW135897   0.556   3.312   2.583 -3.5567 -0.0835 -1.0306
 8088SOL    HW235898   0.628   3.442   2.601 -0.9352  1.6139 -0.3959
 8089SOL     OW35899   1.964   3.076   2.332  0.2164  0.4441 -0.3638
 8089SOL    HW135900   1.946   3.109   2.420 -1.0956  2.3163 -1.3353
 8089SOL    HW235901   2.029   3.138   2.297  0.2990 -0.2668 -1.4569
 8090SOL     OW35902   1.255   3.115   7.114 -0.2959  0.2259  0.0767
 8090SOL    HW135903   1.350   3.129   7.120 -0.1885 -0.1649 -0.7311
 8090SOL    HW235904   1.236   3.180   7.046 -0.9777  1.7572  1.7160
 8091SOL     OW35905   2.292   1.955   3.296 -0.4487  0.2993  1.0719
 8091SOL    HW135906   2.290   2.038   3.345  0.4278  2.0231 -1.8088
 8091SOL    HW235907   2.212   1.953   3.244  0.8150 -2.9670 -0.7557
 8092SOL     OW35908   4.686   1.215   0.193 -0.0063 -0.0961 -0.1750
 8092SOL    HW135909   4.670   1.122   0.207 -1.1750  0.2145  0.5363
 8092SOL    HW235910   4.638   1.228   0.112  1.4479 -2.0562 -1.3449
 8093SOL     OW35911   2.319   0.434   0.312 -0.1686  0.0585 -0.0193
 8093SOL    HW135912   2.393   0.375   0.321 -2.1380 -2.2470  1.2891
 8093SOL    HW235913   2.333   0.496   0.383 -0.4668 -0.9010  0.8888
 8094SOL     OW35914   1.904   3.762  12.844  0.1989  0.1217  0.5483
 8094SOL    HW135915   1.963   3.830  12.874 -1.2306  1.6823 -0.1733
 8094SOL    HW235916   1.838   3.823  12.810  0.3013 -0.4483 -0.6682
 8095SOL     OW35917   1.871   3.802   8.173 -0.1410  0.0158  0.0463
 8095SOL    HW135918   1.780   3.831   8.186  0.1755  1.3588 -0.6505
 8095SOL    HW235919   1.864   3.707   8.181  1.0571  0.0571  1.5145
 8096SOL     OW35920   0.627   4.087   8.629 -0.5672 -0.0051 -0.1040
 8096SOL    HW135921   0.705   4.136   8.601  2.6592 -2.7355  3.9982
 8096SOL    HW235922   0.610   4.026   8.558 -0.5124  1.9125 -1.7390
 8097SOL     OW35923   1.517   0.479   9.245  0.1000  0.1311  0.2902
 8097SOL    HW135924   1.583   0.424   9.287  0.3987  0.7075  0.5760
 8097SOL    HW235925   1.536   0.570   9.271 -0.4904  0.6034 -0.9846
 8098SOL     OW35926   0.417   2.050   7.388  0.3889 -0.4758  0.0707
 8098SOL    HW135927   0.425   1.968   7.438 -2.9585 -0.5070  0.6059
 8098SOL    HW235928   0.345   2.025   7.330 -0.3415  1.5180  0.1033
 8099SOL     OW35929   2.365   4.538   3.597 -0.4496 -0.4208 -0.0985
 8099SOL    HW135930   2.292   4.598   3.613  1.1481  0.9596  2.0094
 8099SOL    HW235931   2.331   4.480   3.529  1.1537 -0.3943 -0.9153
 8100SOL     OW35932   2.124   4.237   9.151  0.3492 -0.0604  0.2306
 8100SOL    HW135933   2.179   4.309   9.183 -1.7797  0.4733  2.7004
 8100SOL    HW235934   2.085   4.201   9.231 -0.8910  0.3587 -0.1725
 8101SOL     OW35935   1.737   4.118   4.747  0.5827 -0.2267 -0.7352
 8101SOL    HW135936   1.710   4.199   4.790 -0.2565 -1.1057  0.3861
 8101SOL    HW235937   1.655   4.089   4.706 -1.2391  1.1217  1.9453
 8102SOL     OW35938   0.422   3.859  12.566  0.3520 -0.8954 -0.5055
 8102SOL    HW135939   0.371   3.817  12.635  1.9019  0.1240  1.2760
 8102SOL    HW235940   0.361   3.878  12.495  0.1929 -0.5498 -0.2769
 8103SOL     OW35941   2.521   3.809   5.101 -0.6198  0.2347  0.2358
 8103SOL    HW135942   2.472   3.882   5.063  1.5590  0.2132 -2.5550
 8103SOL    HW235943   2.571   3.852   5.171  1.4151 -2.3504  0.3752
 8104SOL     OW35944   3.664   0.428   5.959 -0.0036  0.2839  0.2796
 8104SOL    HW135945   3.673   0.350   5.904 -0.8266  2.5800 -3.1205
 8104SOL    HW235946   3.631   0.392   6.041 -1.7926 -1.9560 -1.4226
 8105SOL     OW35947   1.570   3.187   1.297  0.4938  0.1637  0.5160
 8105SOL    HW135948   1.620   3.209   1.376 -0.7070 -0.7270  1.5195
 8105SOL    HW235949   1.607   3.101   1.278  0.8831  0.4190  0.1155
 8106SOL     OW35950   2.940   2.586   7.563 -0.1200  0.9665  0.3713
 8106SOL    HW135951   2.929   2.659   7.501  0.9977  0.7587 -0.0746
 8106SOL    HW235952   3.030   2.556   7.553 -0.4664  0.1363 -0.2469
 8107SOL     OW35953   3.307   3.698  14.129  0.3774 -0.3250 -0.0909
 8107SOL    HW135954   3.277   3.785  14.101 -1.1324 -0.6539  0.5194
 8107SOL    HW235955   3.396   3.717  14.160  0.6047  1.2442 -1.7078
 8108SOL     OW35956   4.592   2.326   4.022 -0.1111 -0.1078 -0.3188
 8108SOL    HW135957   4.555   2.319   3.934 -1.6765  0.7681  0.2615
 8108SOL    HW235958   4.559   2.412   4.046  1.9670  0.4861  0.3596
 8109SOL     OW35959   1.637   1.025   4.122  0.0223 -0.2146 -0.0499
 8109SOL    HW135960   1.545   1.051   4.125  0.8982  2.5877  2.6215
 8109SOL    HW235961   1.686   1.107   4.130  1.4632 -0.9248 -1.4799
 8110SOL     OW35962   3.759   2.153   6.175  0.0704  0.0562 -0.9278
 8110SOL    HW135963   3.664   2.148   6.163  0.1005  1.6513 -1.9540
 8110SOL    HW235964   3.763   2.235   6.224 -0.9490  0.4587 -1.5092
 8111SOL     OW35965   3.659   4.144  11.806 -0.5139  0.3959 -0.2245
 8111SOL    HW135966   3.730   4.174  11.750  0.1414 -1.6391 -0.4755
 8111SOL    HW235967   3.691   4.066  11.851  1.6548  1.5784  0.2792
 8112SOL     OW35968   3.582   3.910   5.671  0.0027  0.3714  0.0650
 8112SOL    HW135969   3.625   3.853   5.606  0.6497  0.4748  0.4036
 8112SOL    HW235970   3.499   3.923   5.625 -0.3477  0.4094  0.7090
 8113SOL     OW35971   2.914   3.293   1.604  0.3037 -0.2921  0.3456
 8113SOL    HW135972   2.822   3.317   1.593  1.0430  1.4220 -2.1969
 8113SOL    HW235973   2.943   3.256   1.521  1.9137  0.2853  0.6356
 8114SOL     OW35974   1.306   0.527  16.570 -0.4345 -0.2063 -0.0002
 8114SOL    HW135975   1.331   0.453  16.514  0.9662 -0.2543  0.6777
 8114SOL    HW235976   1.374   0.592  16.550 -0.5351  0.9482  3.4671
 8115SOL     OW35977   1.436   3.684  12.283 -0.0137  0.0353  0.0921
 8115SOL    HW135978   1.360   3.724  12.325  0.3794 -0.5872  1.3972
 8115SOL    HW235979   1.413   3.709  12.193 -2.1043  1.5698  1.0549
 8116SOL     OW35980   3.942   3.365   7.063  0.3873 -0.2646 -0.2773
 8116SOL    HW135981   3.975   3.300   7.125  1.1132  0.3387 -0.0306
 8116SOL    HW235982   4.016   3.425   7.052  0.5095 -0.7126 -1.9115
 8117SOL     OW35983   0.628   1.783   4.594 -0.3985  0.4077  0.7307
 8117SOL    HW135984   0.664   1.863   4.556 -1.1608 -0.5566 -2.0254
 8117SOL    HW235985   0.534   1.801   4.593 -0.5466 -0.4440 -4.4277
 8118SOL     OW35986   1.306   3.853   8.058  0.2405 -0.2750  0.4298
 8118SOL    HW135987   1.346   3.783   8.007  1.4240 -0.4078  1.5560
 8118SOL    HW235988   1.331   3.931   8.008 -0.4734  0.3872  1.0844
 8119SOL     OW35989   1.046   0.366  11.887  0.0258  0.2196 -0.1100
 8119SOL    HW135990   0.961   0.325  11.872 -0.4810  1.2299  0.0238
 8119SOL    HW235991   1.038   0.397  11.977  3.6420 -0.6384  0.5134
 8120SOL     OW35992   1.338   2.294   3.096 -0.3379 -0.0269 -0.9039
 8120SOL    HW135993   1.363   2.217   3.046 -0.9936  0.0409 -1.3315
 8120SOL    HW235994   1.381   2.278   3.180  0.6365  3.4837 -0.7429
 8121SOL     OW35995   3.788   1.784  12.190 -0.3802 -0.2599 -0.3434
 8121SOL    HW135996   3.810   1.793  12.097 -0.9237 -0.8992 -0.5327
 8121SOL    HW235997   3.698   1.815  12.199 -0.7093 -1.3263  0.0357
 8122SOL     OW35998   1.601   1.341   4.579  0.0963  0.2373 -0.9326
 8122SOL    HW135999   1.654   1.358   4.501  1.8925 -0.9459  0.0019
 8122SOL    HW236000   1.644   1.392   4.648 -0.8686 -0.8388  0.4822
 8123SOL     OW36001   2.598   0.410   8.828 -0.6211  0.4602 -0.0692
 8123SOL    HW136002   2.577   0.323   8.794 -4.1748  1.5593 -0.7362
 8123SOL    HW236003   2.664   0.384   8.892  0.3642 -0.0428 -1.2996
 8124SOL     OW36004   0.451   2.182   6.363 -0.0692 -0.1806 -0.7657
 8124SOL    HW136005   0.473   2.136   6.282  1.1735 -0.0907 -0.4716
 8124SOL    HW236006   0.519   2.149   6.421 -0.2812 -0.6788 -0.8052
 8125SOL     OW36007   0.140   3.395   3.655 -0.1476 -0.3084  0.1575
 8125SOL    HW136008   0.125   3.318   3.710  1.4050 -0.1934  0.7481
 8125SOL    HW236009   0.171   3.356   3.573 -0.2268 -2.1211  0.9795
 8126SOL     OW36010   0.118   1.327  11.705  0.1439  0.0200 -0.2633
 8126SOL    HW136011   0.198   1.288  11.741  0.4229 -1.5041 -2.5233
 8126SOL    HW236012   0.097   1.263  11.637  1.4943  0.7972 -1.4274
 8127SOL     OW36013   2.454   0.926   9.140 -0.8117  0.2472  0.1844
 8127SOL    HW136014   2.444   1.010   9.185 -0.6808  0.9697 -1.1488
 8127SOL    HW236015   2.455   0.939   9.045  1.7047 -2.7445 -0.2017
 8128SOL     OW36016   1.968   1.901  11.412  0.1218 -0.3821 -0.0238
 8128SOL    HW136017   2.047   1.945  11.445  0.5283 -0.4894 -0.8297
 8128SOL    HW236018   2.013   1.817  11.397 -2.7269 -2.1677  1.4455
 8129SOL     OW36019   3.818   4.166   7.903 -0.1114  0.0929 -0.6036
 8129SOL    HW136020   3.877   4.225   7.951 -0.6727  0.6586 -0.6104
 8129SOL    HW236021   3.825   4.082   7.948 -3.0746  0.0486 -0.2088
 8130SOL     OW36022   0.040   0.035   4.764 -0.4287  0.1987  0.2452
 8130SOL    HW136023   0.068   4.689   4.779  0.4516  0.6947  1.4818
 8130SOL    HW236024   4.724   0.021   4.690  0.6926  0.0226 -0.6206
 8131SOL     OW36025   1.491   3.006  10.065  0.1643  0.0737  0.0830
 8131SOL    HW136026   1.405   3.010  10.108 -0.9285  0.9568 -2.1862
 8131SOL    HW236027   1.476   2.974   9.977 -1.7881  1.8056 -0.2146
 8132SOL     OW36028   1.609   4.563  10.098  0.8508  0.0945  0.3299
 8132SOL    HW136029   1.622   4.518  10.182 -4.9478  1.8585  2.2003
 8132SOL    HW236030   1.587   4.651  10.129  1.4820 -0.2173  1.6515
 8133SOL     OW36031   1.097   1.604   6.556 -0.4550 -0.1891  0.4133
 8133SOL    HW136032   1.085   1.537   6.623  0.7934 -0.7148  0.1040
 8133SOL    HW236033   1.170   1.575   6.501  0.9310 -0.5797  2.4772
 8134SOL     OW36034   3.477   2.481   9.341 -0.1479 -0.4213 -0.8229
 8134SOL    HW136035   3.414   2.552   9.351  1.0003  0.0031  3.2779
 8134SOL    HW236036   3.542   2.529   9.290  0.8592  1.3324  2.0971
 8135SOL     OW36037   0.875   4.656   1.726 -0.0002 -0.2927  0.3080
 8135SOL    HW136038   0.945   4.591   1.713 -1.6412 -2.1368  0.6997
 8135SOL    HW236039   0.930   4.718   1.774 -1.3469  0.2341  1.1755
 8136SOL     OW36040   3.625   0.479   1.693  0.6153 -0.1659  0.2147
 8136SOL    HW136041   3.584   0.436   1.768 -2.0228  1.3408 -0.3619
 8136SOL    HW236042   3.569   0.552   1.667  0.4325 -0.5147 -0.3740
 8137SOL     OW36043   3.027   2.816   8.391 -0.2458 -0.5212  0.2445
 8137SOL    HW136044   2.963   2.759   8.348  1.6334 -2.4013 -0.0594
 8137SOL    HW236045   2.999   2.906   8.374  0.5801 -0.5518 -1.3360
 8138SOL     OW36046   4.438   4.474   0.274 -0.7095 -0.3046 -0.0852
 8138SOL    HW136047   4.383   4.550   0.290 -0.4517  0.0401 -0.8467
 8138SOL    HW236048   4.453   4.464   0.180 -0.4333  1.1604 -0.1988
 8139SOL     OW36049   4.514   3.846  17.157 -0.0427  0.0540 -0.2678
 8139SOL    HW136050   4.423   3.840  17.184  0.6863  1.0676  2.3618
 8139SOL    HW236051   4.566   3.868  17.234 -0.7705 -0.5960  0.4076
 8140SOL     OW36052   2.803   1.164   6.794 -0.3565  0.3267 -0.1912
 8140SOL    HW136053   2.718   1.122   6.806  0.8510 -2.4247 -1.2469
 8140SOL    HW236054   2.808   1.186   6.701 -0.8286 -1.1600 -0.5646
 8141SOL     OW36055   2.570   4.130  11.736  0.1543 -0.1275 -0.3539
 8141SOL    HW136056   2.614   4.171  11.810 -0.2869  0.2978 -0.3244
 8141SOL    HW236057   2.519   4.207  11.711 -0.1234 -0.1731  0.0769
 8142SOL     OW36058   1.587   2.363  14.894  0.0800 -0.0911  0.1481
 8142SOL    HW136059   1.619   2.318  14.816 -2.2893 -0.7482 -0.4685
 8142SOL    HW236060   1.562   2.293  14.954  1.0352  0.1852  0.8659
 8143SOL     OW36061   1.277   0.183  13.478 -0.0097 -0.0927 -0.0621
 8143SOL    HW136062   1.365   0.192  13.441  1.4896  0.5128  3.6742
 8143SOL    HW236063   1.222   0.164  13.402 -1.1077 -0.7531  0.8934
 8144SOL     OW36064   3.449   4.581   3.425  0.5273 -0.0001 -0.0230
 8144SOL    HW136065   3.371   4.621   3.387 -0.0959 -2.5921 -1.5060
 8144SOL    HW236066   3.465   4.517   3.355  0.9412  0.3721 -0.2638
 8145SOL     OW36067   2.207   1.993  11.570 -0.5045 -0.2944 -1.0395
 8145SOL    HW136068   2.286   2.047  11.561  1.7734 -3.4939 -0.1763
 8145SOL    HW236069   2.254   1.910  11.576 -0.5885 -0.2025  0.8469
 8146SOL     OW36070   0.495   3.836   3.120 -0.1123 -0.3979 -0.3343
 8146SOL    HW136071   0.487   3.837   3.025  0.8308  0.8534 -0.3996
 8146SOL    HW236072   0.587   3.858   3.132 -0.7227  2.0707 -0.2066
 8147SOL     OW36073   4.644   1.096   6.155 -0.3631 -0.1254  0.4769
 8147SOL    HW136074   4.558   1.057   6.170 -0.8492  0.0377 -1.8240
 8147SOL    HW236075   4.700   1.021   6.176 -1.0433 -0.9680 -0.7055
 8148SOL     OW36076   0.398   2.028  15.062  0.1353  0.0969  0.0505
 8148SOL    HW136077   0.462   2.095  15.035  1.4250 -0.8799  0.6648
 8148SOL    HW236078   0.401   2.024  15.157 -0.4453  2.5950  0.1900
 8149SOL     OW36079   3.333   1.395   7.658  0.6455  0.2283  0.0504
 8149SOL    HW136080   3.283   1.418   7.580  0.5661  1.4000  0.4510
 8149SOL    HW236081   3.374   1.479   7.674 -1.9674  1.5525 -0.1673
 8150SOL     OW36082   0.693   3.606   0.768 -0.7303  0.3455  0.5535
 8150SOL    HW136083   0.626   3.550   0.727  0.2923 -0.7821  0.4248
 8150SOL    HW236084   0.702   3.575   0.858 -1.3605 -0.0052  0.4936
 8151SOL     OW36085   0.538   2.424   4.716  0.7563 -0.2038 -0.4877
 8151SOL    HW136086   0.566   2.479   4.789  0.1302  1.7458 -1.7360
 8151SOL    HW236087   0.523   2.337   4.755  0.8748  0.0555  0.1382
 8152SOL     OW36088   1.557   1.949   3.203 -0.4000  0.4162 -0.5109
 8152SOL    HW136089   1.523   1.977   3.288 -0.2880  0.3877 -0.4577
 8152SOL    HW236090   1.509   1.866   3.204  1.8017 -0.8179  0.7742
 8153SOL     OW36091   0.853   3.366   0.902 -0.4066 -0.4979 -0.0385
 8153SOL    HW136092   0.761   3.342   0.890 -0.5603  0.8425 -1.5893
 8153SOL    HW236093   0.866   3.352   0.995  0.4187 -0.3572 -0.1340
 8154SOL     OW36094   1.342   0.676   5.520  0.4737  0.5293  0.2753
 8154SOL    HW136095   1.384   0.743   5.466  0.0476  1.3580  0.9792
 8154SOL    HW236096   1.338   0.607   5.454  1.5740  0.9412 -0.2350
 8155SOL     OW36097   0.546   1.845   7.602  0.1881  0.3652 -0.1398
 8155SOL    HW136098   0.640   1.856   7.620  0.2763  2.7200 -2.0238
 8155SOL    HW236099   0.503   1.857   7.687  1.1559 -1.0294  0.5418
 8156SOL     OW36100   2.036   3.366  16.858 -0.6491  0.1689  0.2913
 8156SOL    HW136101   2.069   3.316  16.783 -1.2397  0.4620 -0.1615
 8156SOL    HW236102   2.034   3.302  16.929  0.5680  1.3412  1.3946
 8157SOL     OW36103   3.406   1.274  17.547 -0.4018 -0.2887  0.0370
 8157SOL    HW136104   3.465   1.246  17.616 -0.7622 -2.9032 -0.7115
 8157SOL    HW236105   3.427   1.215  17.475  1.3910 -1.2117  1.3513
 8158SOL     OW36106   0.913   2.030   3.403  0.1486  0.2536  0.3839
 8158SOL    HW136107   0.935   2.030   3.497 -1.2043  0.5664  0.6978
 8158SOL    HW236108   0.975   2.095   3.371 -2.9931  3.9480  1.7607
 8159SOL     OW36109   1.721   3.198  16.196  0.2112  0.6805  0.7774
 8159SOL    HW136110   1.628   3.221  16.194  0.0938  0.1864  0.6056
 8159SOL    HW236111   1.723   3.109  16.232 -2.0925  0.9875  1.6733
 8160SOL     OW36112   1.573   4.577   8.289  0.5755  0.4424  0.2658
 8160SOL    HW136113   1.564   4.662   8.332  1.0134  0.3212  0.5981
 8160SOL    HW236114   1.581   4.510   8.357 -0.3568 -0.8577 -0.9060
 8161SOL     OW36115   3.327   2.231   5.204 -0.1033  0.1245  0.1584
 8161SOL    HW136116   3.257   2.169   5.185 -2.0654  2.1594  0.7882
 8161SOL    HW236117   3.307   2.306   5.148  2.4225 -0.2529 -1.2535
 8162SOL     OW36118   3.646   1.213  10.052  0.2435  0.5609 -0.2337
 8162SOL    HW136119   3.698   1.257  10.119 -1.0239  1.9539 -0.1750
 8162SOL    HW236120   3.572   1.273  10.055  1.6630  2.2640  0.8408
 8163SOL     OW36121   2.270   4.675   1.755  0.2805 -0.2648 -0.1936
 8163SOL    HW136122   2.342   4.736   1.739 -0.6344  0.5273 -1.3271
 8163SOL    HW236123   2.270   4.674   1.850 -0.0549 -0.3356 -0.1934
 8164SOL     OW36124   1.704   4.516   6.750 -0.0433  0.3199 -0.2836
 8164SOL    HW136125   1.698   4.611   6.740  1.9210  0.4297 -0.3261
 8164SOL    HW236126   1.618   4.499   6.788  0.8504 -2.1539  0.6186
 8165SOL     OW36127   0.094   2.184  17.005  0.4209 -0.0202 -0.2844
 8165SOL    HW136128   0.135   2.271  17.000  1.4633 -0.4128  1.3801
 8165SOL    HW236129   0.006   2.220  17.009  0.5265  0.3448 -1.1587
 8166SOL     OW36130   2.429   2.213   1.733  0.4613  0.1221 -0.6735
 8166SOL    HW136131   2.443   2.125   1.768  2.7425  0.7164 -0.0820
 8166SOL    HW236132   2.481   2.203   1.654  2.0849  1.1284  0.2621
 8167SOL     OW36133   2.055   3.863   4.085  0.4684  0.6456  0.5329
 8167SOL    HW136134   2.069   3.871   3.991  1.9146 -0.3234  0.6492
 8167SOL    HW236135   2.023   3.773   4.088  0.6105  0.5922  0.4350
 8168SOL     OW36136   4.198   0.449  10.493 -0.1459  0.0552 -0.0322
 8168SOL    HW136137   4.178   0.537  10.460  1.5697  0.8932  1.1552
 8168SOL    HW236138   4.272   0.440  10.433  1.0441  2.0545  1.1216
 8169SOL     OW36139   2.583   4.315  12.865 -0.0783 -0.1588  0.4549
 8169SOL    HW136140   2.506   4.369  12.847  0.5018  0.0180 -1.5221
 8169SOL    HW236141   2.626   4.366  12.933 -1.2256  0.2573  0.8669
 8170SOL     OW36142   3.839   3.693  12.065  0.0189  0.9015  0.1731
 8170SOL    HW136143   3.762   3.727  12.110 -0.3613  0.3121 -0.0264
 8170SOL    HW236144   3.910   3.679  12.127 -1.0462  0.2701  1.2399
 8171SOL     OW36145   2.844   2.102  11.877  0.2490 -0.7077 -0.4480
 8171SOL    HW136146   2.904   2.166  11.839 -1.6813  3.3155  3.2829
 8171SOL    HW236147   2.906   2.043  11.920  2.3057  0.3873 -1.8989
 8172SOL     OW36148   2.028   0.208  17.266  0.0717 -0.7480 -0.9416
 8172SOL    HW136149   2.117   0.198  17.299  1.0507 -0.7682 -3.6302
 8172SOL    HW236150   2.037   0.135  17.205  1.7783  0.2568 -1.8854
 8173SOL     OW36151   1.377   3.456  14.394  0.3129 -0.5706  0.4112
 8173SOL    HW136152   1.372   3.373  14.347 -1.6161  0.1018 -0.5872
 8173SOL    HW236153   1.354   3.515  14.321  1.6776  0.1328  0.5443
 8174SOL     OW36154   0.143   2.152   3.756  0.1270  0.1208  0.1902
 8174SOL    HW136155   0.109   2.204   3.683 -2.0381 -1.7331 -0.1083
 8174SOL    HW236156   0.153   2.071   3.706 -0.4287  1.3378 -1.8653
 8175SOL     OW36157   1.024   2.952   9.072  0.0607 -0.1045  0.0466
 8175SOL    HW136158   1.069   2.869   9.087 -0.6294 -0.3873  0.5426
 8175SOL    HW236159   0.937   2.935   9.108  0.2503 -0.4894  0.3209
 8176SOL     OW36160   1.313   2.637  16.864  0.4546  0.9152  0.0618
 8176SOL    HW136161   1.266   2.557  16.839 -1.8831  1.5134  2.6019
 8176SOL    HW236162   1.406   2.612  16.865 -0.3430 -2.1574 -1.0915
 8177SOL     OW36163   2.544   3.646   2.741 -0.0990  0.5059 -0.2708
 8177SOL    HW136164   2.481   3.640   2.813  0.6895 -0.9360  0.3024
 8177SOL    HW236165   2.545   3.556   2.709  0.1786  0.5055 -0.2621
 8178SOL     OW36166   3.603   4.068  11.454  0.1052  0.3885  0.2985
 8178SOL    HW136167   3.561   3.989  11.488  1.3932  0.0009  0.9765
 8178SOL    HW236168   3.599   4.125  11.532  0.7381  1.6225 -0.5652
 8179SOL     OW36169   2.762   0.306   9.694 -0.7494 -0.2772 -0.2182
 8179SOL    HW136170   2.775   0.361   9.617 -0.1351  1.7798  1.3489
 8179SOL    HW236171   2.691   0.352   9.740 -1.3107 -2.5360  1.1669
 8180SOL     OW36172   1.828   3.521   8.181 -0.2871 -0.5168 -0.0156
 8180SOL    HW136173   1.893   3.521   8.110  0.6818  0.6310  0.8659
 8180SOL    HW236174   1.755   3.467   8.151 -0.4628  1.7354 -3.7008
 8181SOL     OW36175   2.285   2.125   4.295  0.1866  1.0069  0.5621
 8181SOL    HW136176   2.224   2.163   4.358 -0.4391 -0.0497  0.5993
 8181SOL    HW236177   2.240   2.132   4.211  2.3877 -0.5559 -0.7715
 8182SOL     OW36178   1.920   2.976  12.482 -0.2349 -0.2935  0.1790
 8182SOL    HW136179   1.845   3.036  12.486  0.4961  0.8013 -3.1125
 8182SOL    HW236180   1.959   2.999  12.566  1.1334 -2.8611  0.2746
 8183SOL     OW36181   0.481   3.974   5.984 -0.6299  0.3407 -0.0250
 8183SOL    HW136182   0.568   4.013   5.990 -1.0642  0.9137  2.7323
 8183SOL    HW236183   0.480   3.920   6.063 -2.0372  1.7099  0.9042
 8184SOL     OW36184   2.014   1.880   5.807 -0.2152  0.0657 -0.1783
 8184SOL    HW136185   1.933   1.844   5.843 -0.4084  1.2115  0.5496
 8184SOL    HW236186   2.061   1.880   5.890 -1.0653  1.6055  0.3153
 8185SOL     OW36187   0.920   2.280   5.967  0.1808  0.3401  0.5754
 8185SOL    HW136188   0.851   2.279   5.901  0.9333 -2.7612 -0.1294
 8185SOL    HW236189   0.883   2.244   6.048 -0.4957 -0.3110 -0.0302
 8186SOL     OW36190   2.685   4.468   5.284  0.1949  0.9987 -0.3607
 8186SOL    HW136191   2.741   4.535   5.246 -0.7172  1.6386 -0.5823
 8186SOL    HW236192   2.747   4.414   5.332  0.4764  2.4597  0.9300
 8187SOL     OW36193   3.484   2.936  16.610 -0.0586  0.2855  0.5682
 8187SOL    HW136194   3.404   2.896  16.576 -1.0653  1.5838  1.4239
 8187SOL    HW236195   3.554   2.898  16.556 -0.5280  0.0926  0.0996
 8188SOL     OW36196   4.432   3.875   6.843  0.0898 -0.2099  0.3577
 8188SOL    HW136197   4.376   3.905   6.772  1.2883 -0.9469 -0.8964
 8188SOL    HW236198   4.516   3.921   6.834  0.1503 -0.9202 -2.7137
 8189SOL     OW36199   0.532   1.969   5.196 -0.6803  0.6447  0.3450
 8189SOL    HW136200   0.492   1.982   5.282  0.4940 -2.9634  1.4556
 8189SOL    HW236201   0.613   1.919   5.205 -3.0565 -3.6911 -2.0598
 8190SOL     OW36202   4.099   0.095   9.206  0.4998 -0.5409 -0.3513
 8190SOL    HW136203   4.167   0.159   9.180 -0.0002 -0.0926 -0.5538
 8190SOL    HW236204   4.036   0.096   9.134 -1.9741  0.7368  1.8247
 8191SOL     OW36205   0.507   0.949   2.266 -0.1503 -0.5280 -0.1993
 8191SOL    HW136206   0.425   0.910   2.297 -0.6306 -1.4101 -2.6224
 8191SOL    HW236207   0.555   0.974   2.345  0.3051  0.7995 -0.9113
 8192SOL     OW36208   3.845   3.581   9.745 -0.4073 -0.0153 -0.4132
 8192SOL    HW136209   3.800   3.625   9.817 -2.1471 -0.7041 -1.0572
 8192SOL    HW236210   3.927   3.549   9.782 -0.3856  1.2510  0.6185
 8193SOL     OW36211   2.348   3.686   2.922  0.4031 -0.0882  0.2574
 8193SOL    HW136212   2.267   3.688   2.870  0.6608 -1.1772 -0.1856
 8193SOL    HW236213   2.347   3.777   2.952  1.9805  0.1856 -0.5155
 8194SOL     OW36214   3.944   3.039   5.952  0.7149  0.0229 -0.3005
 8194SOL    HW136215   3.863   3.075   5.989  0.6910  0.6657 -0.9693
 8194SOL    HW236216   3.928   2.951   5.919 -2.2632 -0.1304  1.5783
 8195SOL     OW36217   0.053   0.937   3.271  0.8040 -0.3170  0.0180
 8195SOL    HW136218   0.061   0.861   3.330 -0.4711  0.2791  0.9604
 8195SOL    HW236219   0.131   0.980   3.307  1.1341 -1.8633  1.1940
 8196SOL     OW36220   0.134   4.455   8.637 -0.6506 -0.0071 -0.2139
 8196SOL    HW136221   0.092   4.374   8.663 -0.0501 -0.2286  0.0699
 8196SOL    HW236222   0.214   4.411   8.607 -1.0599 -0.3611 -0.7709
 8197SOL     OW36223   3.732   0.064   7.527 -0.3216  0.2276  0.6546
 8197SOL    HW136224   3.712   4.724   7.570 -0.1437 -0.4709 -0.6193
 8197SOL    HW236225   3.693   0.051   7.440  0.3378  2.4647  0.0263
 8198SOL     OW36226   1.524   3.683   3.297  0.5745  0.0034 -0.2203
 8198SOL    HW136227   1.550   3.640   3.215 -1.4552 -0.8945 -0.3998
 8198SOL    HW236228   1.610   3.714   3.323  0.9946 -0.1909 -1.3850
 8199SOL     OW36229   3.372   2.544   6.208 -0.2423 -0.8599  0.5501
 8199SOL    HW136230   3.371   2.451   6.232  0.7736 -0.6587  1.3653
 8199SOL    HW236231   3.298   2.555   6.148  0.4797 -1.0703 -0.3726
 8200SOL     OW36232   3.356   0.165   3.478 -0.7656  0.6241  0.0148
 8200SOL    HW136233   3.353   0.122   3.564  1.6856 -1.8262 -1.1390
 8200SOL    HW236234   3.439   0.212   3.481  0.6296 -1.7691 -1.1461
 8201SOL     OW36235   2.209   0.637  13.472 -0.1504 -0.8814 -0.4305
 8201SOL    HW136236   2.161   0.702  13.524  0.6634  1.5618 -2.7419
 8201SOL    HW236237   2.141   0.569  13.472 -0.0771 -0.9506  2.4602
 8202SOL     OW36238   0.311   0.870  16.323  0.4079  0.3122  0.0708
 8202SOL    HW136239   0.401   0.902  16.315  0.1312  0.7211 -1.2826
 8202SOL    HW236240   0.303   0.871  16.419  0.2542  1.8598  0.0405
 8203SOL     OW36241   4.115   2.503   3.194  0.1320 -0.1916 -0.4978
 8203SOL    HW136242   4.131   2.408   3.195  2.0638  0.1760  2.6942
 8203SOL    HW236243   4.056   2.505   3.119 -1.0116  1.0782  0.4445
 8204SOL     OW36244   3.345   0.055   6.991  0.2930 -0.6020  0.1845
 8204SOL    HW136245   3.413   0.013   6.938  1.2004  1.2262 -0.0937
 8204SOL    HW236246   3.333   0.127   6.930  1.6201 -0.9150 -0.4545
 8205SOL     OW36247   0.845   1.626   6.098 -0.9095 -0.8715 -0.5488
 8205SOL    HW136248   0.934   1.591   6.109 -0.1288  1.7081  1.3302
 8205SOL    HW236249   0.796   1.568   6.157 -1.6610 -0.3280 -0.6461
 8206SOL     OW36250   1.624   0.966   0.161  0.4522 -0.4760 -0.6470
 8206SOL    HW136251   1.587   1.015   0.235  0.1112  0.0987 -1.1953
 8206SOL    HW236252   1.614   0.875   0.189 -1.9526  0.0876  0.3298
 8207SOL     OW36253   3.165   3.961   7.973  0.2238  0.2645 -0.0582
 8207SOL    HW136254   3.081   4.007   7.964  0.5424  1.0127  0.8658
 8207SOL    HW236255   3.148   3.884   7.919  1.5557  0.2742 -0.4729
 8208SOL     OW36256   4.324   1.595   9.269  0.3474 -0.5178  0.3097
 8208SOL    HW136257   4.240   1.554   9.250 -0.3245  1.0859 -0.1973
 8208SOL    HW236258   4.303   1.672   9.323  0.1618 -0.4362  0.1202
 8209SOL     OW36259   4.517   2.098   4.650 -0.5891  0.2792 -0.0683
 8209SOL    HW136260   4.484   2.095   4.560 -2.1544  3.6547  0.4012
 8209SOL    HW236261   4.527   2.189   4.677  1.7174  0.1756 -0.5334
 8210SOL     OW36262   3.969   1.339  14.366 -0.0687  0.2044  0.3681
 8210SOL    HW136263   4.009   1.426  14.368  0.2906  0.0675 -0.9100
 8210SOL    HW236264   4.003   1.313  14.452 -1.3078  1.6426  1.3042
 8211SOL     OW36265   0.440   0.860   5.733 -0.1450 -0.1489 -0.2624
 8211SOL    HW136266   0.502   0.918   5.777 -3.2794  2.4969  0.6283
 8211SOL    HW236267   0.356   0.904   5.746  0.4571  1.2223 -0.9166
 8212SOL     OW36268   3.762   1.819   5.498 -0.1183  0.0152 -0.1637
 8212SOL    HW136269   3.690   1.760   5.477  1.2367 -1.6285 -0.1644
 8212SOL    HW236270   3.734   1.896   5.448 -3.6065 -0.0701  1.6628
 8213SOL     OW36271   1.239   2.734   8.554  0.9014  0.3788 -0.5227
 8213SOL    HW136272   1.276   2.802   8.497  1.2296  0.6038 -0.0465
 8213SOL    HW236273   1.256   2.767   8.642 -2.2150 -1.4145  0.7468
 8214SOL     OW36274   1.134   3.666   6.066 -0.4995  0.0109 -0.1412
 8214SOL    HW136275   1.118   3.754   6.033  1.5506  0.5563  0.3602
 8214SOL    HW236276   1.202   3.646   6.002 -0.6294 -2.5357  0.5199
 8215SOL     OW36277   0.306   4.427   2.100 -0.0325 -0.0920 -0.1340
 8215SOL    HW136278   0.221   4.438   2.057 -1.3206  0.3692  2.5713
 8215SOL    HW236279   0.331   4.518   2.115  1.4260 -0.1007 -2.4685
 8216SOL     OW36280   2.157   1.481   2.735 -0.1031  0.0523 -0.4473
 8216SOL    HW136281   2.126   1.415   2.797  1.2718 -0.8339 -0.7194
 8216SOL    HW236282   2.225   1.425   2.698 -0.6947 -0.6642 -0.4486
 8217SOL     OW36283   3.604   2.340  15.039 -0.3985  0.0649 -0.4409
 8217SOL    HW136284   3.556   2.420  15.021 -1.2408 -0.0366  1.4156
 8217SOL    HW236285   3.641   2.358  15.126  1.6093 -0.8849 -1.0806
 8218SOL     OW36286   4.609   0.803  11.995  0.1664 -0.4733  0.3556
 8218SOL    HW136287   4.632   0.756  11.916 -0.8203  0.7200 -0.6323
 8218SOL    HW236288   4.659   0.758  12.063  1.0291 -0.0081  0.0357
 8219SOL     OW36289   2.728   4.596   4.516 -0.1743 -0.2093 -0.0854
 8219SOL    HW136290   2.727   4.528   4.583  0.0707 -1.2734 -1.1707
 8219SOL    HW236291   2.790   4.547   4.462 -0.2332  1.6719 -1.8596
 8220SOL     OW36292   4.047   0.116   3.585  0.2213 -0.1452  0.2639
 8220SOL    HW136293   3.979   0.182   3.596  1.1297  0.5313  1.7053
 8220SOL    HW236294   4.048   0.059   3.662  1.9994  0.6133  0.7828
 8221SOL     OW36295   0.963   1.450   6.239 -0.1236  0.3750  0.2714
 8221SOL    HW136296   1.034   1.421   6.296 -1.1463  1.4487  2.0773
 8221SOL    HW236297   0.910   1.370   6.233  0.4864  0.0650 -1.1271
 8222SOL     OW36298   0.451   4.482   7.945  0.2079  0.3924  0.3206
 8222SOL    HW136299   0.450   4.550   8.012  1.6225 -0.3935  1.1483
 8222SOL    HW236300   0.454   4.527   7.861  1.2013  2.0545  1.2573
 8223SOL     OW36301   2.880   0.601  17.443  0.7323 -0.4840 -0.0688
 8223SOL    HW136302   2.810   0.649  17.398  1.0777  0.0277 -0.0582
 8223SOL    HW236303   2.899   0.533  17.379  3.7259  1.1152 -0.8927
 8224SOL     OW36304   0.722   4.733   1.428 -0.5256 -0.0754  0.6464
 8224SOL    HW136305   0.667   0.067   1.423  1.9772  1.3998 -3.8153
 8224SOL    HW236306   0.729   4.727   1.523 -0.3357 -3.5770  0.4114
 8225SOL     OW36307   0.878   1.971  16.080 -0.4168  0.3511  0.7240
 8225SOL    HW136308   0.907   2.058  16.051 -2.3133  0.0805 -2.0849
 8225SOL    HW236309   0.945   1.944  16.142  1.2089  1.3175 -0.6157
 8226SOL     OW36310   0.836   1.973   0.854 -0.1696  0.3125 -0.1125
 8226SOL    HW136311   0.927   1.990   0.829  0.1684 -0.3124  0.6687
 8226SOL    HW236312   0.787   2.018   0.786 -1.2346 -0.4055  0.1862
 8227SOL     OW36313   0.522   3.546   7.447  0.2856  0.1347  0.0641
 8227SOL    HW136314   0.601   3.600   7.453  1.0342 -1.0525  0.7566
 8227SOL    HW236315   0.512   3.546   7.351 -3.3976  1.1432  0.4310
 8228SOL     OW36316   3.551   0.146   5.728  0.2968 -0.7287 -0.4121
 8228SOL    HW136317   3.522   0.171   5.816 -1.0241 -2.5422 -0.3232
 8228SOL    HW236318   3.642   0.124   5.751  0.3894 -0.7231 -0.7758
 8229SOL     OW36319   0.228   3.536   8.874  0.5019 -0.5032 -0.8012
 8229SOL    HW136320   0.210   3.524   8.781 -1.8173 -3.0944 -0.0215
 8229SOL    HW236321   0.275   3.454   8.890 -2.0770 -1.6475  0.9408
 8230SOL     OW36322   0.779   1.024  14.846  0.4300 -0.3106  0.0571
 8230SOL    HW136323   0.817   1.095  14.794  1.7210 -1.2379 -0.2524
 8230SOL    HW236324   0.804   1.052  14.934 -0.3816  0.3696  0.0715
 8231SOL     OW36325   4.186   0.056   9.983  0.0373 -0.1246  0.3208
 8231SOL    HW136326   4.112   0.091  10.032 -0.5500  0.9007 -1.2764
 8231SOL    HW236327   4.154   0.086   9.898 -0.7080 -1.8349 -0.0080
 8232SOL     OW36328   2.303   3.580   8.429 -0.1928 -0.4613  0.3477
 8232SOL    HW136329   2.360   3.593   8.354  1.2444  1.4448  1.7766
 8232SOL    HW236330   2.236   3.526   8.386 -1.3587 -0.0397  1.6151
 8233SOL     OW36331   1.772   1.367  15.710 -0.5014  0.0069 -0.5280
 8233SOL    HW136332   1.752   1.274  15.715  1.6207 -0.4182  0.1950
 8233SOL    HW236333   1.686   1.406  15.694 -0.8553 -0.0919  1.1255
 8234SOL     OW36334   4.112   4.343  14.822 -0.2618  0.8739  0.3324
 8234SOL    HW136335   4.132   4.353  14.915  3.3279  0.6159 -0.4228
 8234SOL    HW236336   4.079   4.431  14.804  0.7293  0.9463 -1.1730
 8235SOL     OW36337   1.281   3.352  11.550 -0.3739 -0.2566  0.2057
 8235SOL    HW136338   1.348   3.375  11.486 -1.5646 -2.2916 -1.7614
 8235SOL    HW236339   1.255   3.266  11.518 -1.5969  1.0698 -2.3352
 8236SOL     OW36340   2.523   4.499   2.233  0.4780 -0.6113 -0.2298
 8236SOL    HW136341   2.455   4.542   2.286  0.7542  1.3754 -1.4941
 8236SOL    HW236342   2.565   4.435   2.291  0.8378 -0.4313 -0.2916
 8237SOL     OW36343   2.870   4.486   4.321 -0.3168  0.3559  0.1810
 8237SOL    HW136344   2.909   4.411   4.276  0.9364  0.0372  1.8114
 8237SOL    HW236345   2.814   4.502   4.246 -0.1516  0.2347  0.0311
 8238SOL     OW36346   2.330   0.952   8.785  0.4955  0.1304 -0.1465
 8238SOL    HW136347   2.288   0.872   8.755  2.1765 -1.0238  0.5965
 8238SOL    HW236348   2.391   0.968   8.713  0.5777 -1.0826 -0.3451
 8239SOL     OW36349   3.538   3.919   1.724  0.3617  0.7192 -0.1855
 8239SOL    HW136350   3.620   3.955   1.758  0.1078  0.0432  1.1706
 8239SOL    HW236351   3.507   3.892   1.811 -2.1871  0.0612 -1.2968
 8240SOL     OW36352   4.102   3.613   5.094 -0.2986 -0.2856 -0.6765
 8240SOL    HW136353   4.149   3.529   5.098  0.7330  0.3714  1.3763
 8240SOL    HW236354   4.156   3.651   5.025 -0.2855 -1.5989 -1.3865
 8241SOL     OW36355   3.270   0.217   4.877  0.6990 -0.0481 -0.0290
 8241SOL    HW136356   3.276   0.138   4.931  0.3009 -0.6101 -0.8051
 8241SOL    HW236357   3.359   0.252   4.880  0.6548 -0.0012  0.7222
 8242SOL     OW36358   0.853   4.498   2.721  0.3394 -0.6134 -0.2061
 8242SOL    HW136359   0.880   4.464   2.806  1.1945  0.6954  0.0410
 8242SOL    HW236360   0.837   4.589   2.747 -1.6828 -0.9853 -0.1251
 8243SOL     OW36361   0.136   1.317   3.734  0.2278 -0.2127  0.4629
 8243SOL    HW136362   0.045   1.313   3.762  0.5464 -1.4440  1.3253
 8243SOL    HW236363   0.153   1.227   3.763 -0.5535 -0.9786 -1.4718
 8244SOL     OW36364   2.868   1.105   0.779 -0.5867  0.3306 -0.6204
 8244SOL    HW136365   2.930   1.178   0.781 -1.4057  0.9788  1.4853
 8244SOL    HW236366   2.909   1.031   0.735 -1.2085 -0.0121 -0.6320
 8245SOL     OW36367   2.505   2.597   2.394  0.3444 -0.4449 -0.5679
 8245SOL    HW136368   2.448   2.635   2.461  3.9852  3.2489  0.4060
 8245SOL    HW236369   2.524   2.516   2.442  1.5687  0.3791  0.3377
 8246SOL     OW36370   1.720   1.555   1.326 -0.4154  0.4211  0.3980
 8246SOL    HW136371   1.775   1.602   1.388  0.0784  1.2412 -0.6540
 8246SOL    HW236372   1.691   1.624   1.266  0.7075  0.5441 -0.0077
 8247SOL     OW36373   2.753   3.438  11.985  0.1086 -0.0529 -0.1172
 8247SOL    HW136374   2.819   3.462  12.050  0.1358 -1.2955  0.3125
 8247SOL    HW236375   2.675   3.461  12.036  0.0807  0.9537 -0.6110
 8248SOL     OW36376   0.339   0.585   9.209  0.0976 -0.2947 -0.1618
 8248SOL    HW136377   0.410   0.647   9.226 -1.6801  1.2634  1.6121
 8248SOL    HW236378   0.384   0.515   9.161 -2.5540 -2.4633  0.5290
 8249SOL     OW36379   2.364   1.059  15.591  0.0057 -0.1133  0.0887
 8249SOL    HW136380   2.366   1.091  15.680  2.4942 -0.6732  0.2504
 8249SOL    HW236381   2.454   1.027  15.596 -0.3149 -1.1900 -0.9069
 8250SOL     OW36382   1.920   0.455  10.236  0.2012 -0.2513  1.0626
 8250SOL    HW136383   1.891   0.439  10.146 -1.2886  2.5279  1.0550
 8250SOL    HW236384   1.927   0.550  10.239  0.4016 -0.1867 -1.9437
 8251SOL     OW36385   4.668   2.680   0.526  0.1188 -0.1406  0.0727
 8251SOL    HW136386   4.580   2.643   0.519  1.2270 -2.7455  0.1270
 8251SOL    HW236387   4.694   2.643   0.610 -0.7821  0.5919  0.6851
 8252SOL     OW36388   3.996   0.087   6.585  0.5870  0.4503  0.1299
 8252SOL    HW136389   4.038   0.040   6.657  0.7659 -0.5529 -0.6254
 8252SOL    HW236390   3.924   0.135   6.626  0.6910 -0.3458  1.2320
 8253SOL     OW36391   4.328   2.119  10.984 -0.1509 -0.1518  0.3863
 8253SOL    HW136392   4.301   2.147  10.896 -0.8494 -1.3756  0.2221
 8253SOL    HW236393   4.245   2.086  11.018 -0.5871  0.7058  0.1722
 8254SOL     OW36394   0.077   0.936   9.209 -0.0995 -0.5583 -0.2934
 8254SOL    HW136395   0.132   0.859   9.226  3.1858  1.7181 -0.4802
 8254SOL    HW236396   0.004   0.907   9.264  0.7043  2.5819  2.4409
 8255SOL     OW36397   2.931   1.654   7.730  0.1240 -0.0110 -0.0681
 8255SOL    HW136398   2.845   1.629   7.763 -0.2426 -1.5836 -2.1725
 8255SOL    HW236399   2.935   1.629   7.637 -0.5523 -1.7856  0.3744
 8256SOL     OW36400   1.321   1.825   1.931  0.6306 -0.3907  0.0014
 8256SOL    HW136401   1.337   1.731   1.927  3.3353  0.1758 -2.6619
 8256SOL    HW236402   1.282   1.842   2.016  0.4773  3.6371 -0.8496
 8257SOL     OW36403   1.934   4.157  12.750 -0.2521 -0.2044  0.4656
 8257SOL    HW136404   1.968   4.171  12.661 -0.3481 -0.7805  0.3375
 8257SOL    HW236405   1.839   4.167  12.739 -0.4966 -2.2141  0.6666
 8258SOL     OW36406   0.842   0.954   8.546  0.2200 -0.4534  0.1580
 8258SOL    HW136407   0.833   0.892   8.474 -0.8916 -0.6594  0.4800
 8258SOL    HW236408   0.747   0.967   8.549  0.0491 -1.8815  1.0006
 8259SOL     OW36409   4.566   2.221   6.639 -0.1839 -0.2050 -0.6388
 8259SOL    HW136410   4.529   2.153   6.583  0.1101  0.0063 -1.0804
 8259SOL    HW236411   4.517   2.183   6.712 -0.4325  0.9300 -0.2219
 8260SOL     OW36412   3.438   0.923   9.393 -0.2574 -0.1323  0.4763
 8260SOL    HW136413   3.508   0.966   9.442  0.3920  0.5152 -1.0002
 8260SOL    HW236414   3.451   0.944   9.300 -0.0253  0.7993  0.7173
 8261SOL     OW36415   2.264   2.521  15.474 -0.2302  0.4956  0.8268
 8261SOL    HW136416   2.246   2.435  15.437  0.5871  1.5793 -2.0570
 8261SOL    HW236417   2.292   2.576  15.401 -0.4466 -0.5089 -0.0007
 8262SOL     OW36418   4.005   1.707  11.509  0.4585 -0.1608 -0.1990
 8262SOL    HW136419   3.952   1.729  11.585  0.6947  0.0795 -0.1026
 8262SOL    HW236420   3.995   1.791  11.464  1.1754  0.4517  0.7756
 8263SOL     OW36421   4.178   0.254   9.474 -0.5144  0.2815 -0.2247
 8263SOL    HW136422   4.115   0.323   9.491 -0.4400  0.0747  0.8612
 8263SOL    HW236423   4.164   0.239   9.380 -1.7061  1.0930 -0.1691
 8264SOL     OW36424   1.258   1.361   5.501 -0.5551  0.2993 -0.4088
 8264SOL    HW136425   1.319   1.369   5.427 -1.2820  1.4184 -0.9025
 8264SOL    HW236426   1.172   1.358   5.459  0.1002 -0.2537 -1.7095
 8265SOL     OW36427   4.260   1.838   5.417  0.4496  0.7351  0.1206
 8265SOL    HW136428   4.214   1.917   5.442 -3.0314 -1.0771 -0.5122
 8265SOL    HW236429   4.307   1.860   5.336  0.7366 -1.1190 -0.2263
 8266SOL     OW36430   4.192   3.751  10.021 -0.2563 -1.0217  0.2008
 8266SOL    HW136431   4.234   3.778  10.102 -0.8105  1.7854 -0.4425
 8266SOL    HW236432   4.137   3.829  10.010 -0.0729 -1.4636 -3.6111
 8267SOL     OW36433   4.331   0.909   5.259 -0.0069 -0.5921  0.3500
 8267SOL    HW136434   4.248   0.918   5.211  0.4873  1.7396 -0.0142
 8267SOL    HW236435   4.303   0.853   5.332 -1.5720  0.2902  0.4258
 8268SOL     OW36436   3.167   0.796   3.355 -0.0481 -0.3097 -0.4644
 8268SOL    HW136437   3.220   0.720   3.379 -1.7478 -1.4460 -0.3139
 8268SOL    HW236438   3.219   0.854   3.300  0.4897  1.0913  1.5237
 8269SOL     OW36439   3.029   3.034   3.153 -0.2952 -0.2227  0.2799
 8269SOL    HW136440   3.000   2.949   3.120  0.8519 -0.7678  0.6704
 8269SOL    HW236441   2.963   3.093   3.117  1.1241 -0.5455 -2.8650
 8270SOL     OW36442   2.675   4.552   8.886  0.5785 -0.3710 -0.3773
 8270SOL    HW136443   2.744   4.585   8.830  1.3375 -1.5032 -0.1081
 8270SOL    HW236444   2.699   4.460   8.874  1.6940 -0.3383  1.6385
 8271SOL     OW36445   1.492   3.795   2.083 -0.2311  0.1570  0.2269
 8271SOL    HW136446   1.540   3.722   2.120  0.5201 -0.5145 -2.0589
 8271SOL    HW236447   1.427   3.815   2.151 -0.3150  0.0341  0.1832
 8272SOL     OW36448   1.887   1.116   1.472  0.6163  0.3519 -0.0055
 8272SOL    HW136449   1.900   1.074   1.387 -0.3484  1.1192 -0.5376
 8272SOL    HW236450   1.843   1.190   1.429 -0.2793 -0.4014 -0.3828
 8273SOL     OW36451   1.499   3.341   8.297 -0.4381  0.2909  0.0189
 8273SOL    HW136452   1.472   3.339   8.389  0.8539  2.0656  0.4478
 8273SOL    HW236453   1.432   3.398   8.261 -1.5116 -1.4557 -0.7369
 8274SOL     OW36454   3.871   0.470   0.351  0.4908  0.4344 -0.3040
 8274SOL    HW136455   3.858   0.417   0.272 -1.2497  0.6723 -0.1739
 8274SOL    HW236456   3.891   0.406   0.419 -0.3486  1.2011  0.6674
 8275SOL     OW36457   1.130   3.701   8.191 -0.5849  0.1128 -0.4268
 8275SOL    HW136458   1.181   3.770   8.148  0.8936  0.2032  1.5336
 8275SOL    HW236459   1.054   3.693   8.132 -0.8211  2.2409 -0.4185
 8276SOL     OW36460   2.224   2.099   2.164 -0.0966 -0.5048  0.6099
 8276SOL    HW136461   2.159   2.074   2.229 -0.6365  0.8452  0.5766
 8276SOL    HW236462   2.181   2.084   2.080  0.2812  1.2251  0.1138
 8277SOL     OW36463   3.424   1.472   2.197 -0.1465 -0.0321  0.3748
 8277SOL    HW136464   3.366   1.526   2.143 -0.9887 -0.0074  1.3128
 8277SOL    HW236465   3.476   1.434   2.126  0.3625  1.2296  0.0642
 8278SOL     OW36466   4.276   4.606   2.341  0.1897  0.2323 -0.2555
 8278SOL    HW136467   4.275   4.674   2.274 -2.2621  1.7078  1.2463
 8278SOL    HW236468   4.360   4.633   2.378  1.6336 -3.0111 -1.1970
 8279SOL     OW36469   4.054   0.596   9.063  0.1859  0.4972  0.6678
 8279SOL    HW136470   4.048   0.669   9.001  0.4982 -1.2825 -1.4482
 8279SOL    HW236471   3.965   0.566   9.080  0.6729 -1.4033 -0.1565
 8280SOL     OW36472   3.071   4.104   8.754  0.5505  0.1624 -0.0420
 8280SOL    HW136473   2.999   4.069   8.702 -0.9538 -0.3539  2.3540
 8280SOL    HW236474   3.059   4.050   8.832 -0.1952  0.3197 -0.0541
 8281SOL     OW36475   2.773   2.422   1.844 -0.0072  0.6730  0.0707
 8281SOL    HW136476   2.789   2.419   1.939 -0.9284 -2.5405  0.1295
 8281SOL    HW236477   2.681   2.448   1.847 -0.3742 -0.7054  0.8730
 8282SOL     OW36478   3.981   4.008   9.145 -0.2648  0.3282 -0.4787
 8282SOL    HW136479   3.950   4.078   9.202  2.5011  0.3947  0.9145
 8282SOL    HW236480   3.960   3.938   9.208  3.3382 -0.6866 -0.4273
 8283SOL     OW36481   3.852   1.554   6.528 -0.7279  0.0618  0.4911
 8283SOL    HW136482   3.812   1.517   6.449 -0.2819 -0.8694  0.6936
 8283SOL    HW236483   3.793   1.528   6.599  0.3241 -1.4881  0.8226
 8284SOL     OW36484   1.148   4.365   2.027 -0.1549  0.3540 -0.3457
 8284SOL    HW136485   1.224   4.405   1.984 -1.3903  0.6976 -2.2027
 8284SOL    HW236486   1.128   4.423   2.100 -0.0653 -0.6150  0.4385
 8285SOL     OW36487   0.478   0.643   6.565  0.2611 -0.2245 -0.2893
 8285SOL    HW136488   0.569   0.665   6.548 -0.4497  2.2147 -0.9104
 8285SOL    HW236489   0.478   0.549   6.544 -2.1870 -0.4471  0.6872
 8286SOL     OW36490   1.793   0.637  15.844  0.2978 -0.5573 -0.1014
 8286SOL    HW136491   1.877   0.596  15.822  0.6605 -0.2453  0.7243
 8286SOL    HW236492   1.802   0.722  15.800  0.1587 -0.5192 -0.0556
 8287SOL     OW36493   3.085   3.263   3.528 -0.3688  0.0388  0.1104
 8287SOL    HW136494   3.169   3.221   3.510 -0.0009  1.4237 -1.3987
 8287SOL    HW236495   3.052   3.289   3.442 -2.2140 -3.1780 -0.1697
 8288SOL     OW36496   4.420   4.532   4.745 -0.1950 -0.1780 -0.4130
 8288SOL    HW136497   4.372   4.477   4.683 -3.4752  2.3183 -0.0412
 8288SOL    HW236498   4.455   4.458   4.794 -1.6783  0.6646  1.9100
 8289SOL     OW36499   0.737   0.277   1.361 -0.2735 -0.5264 -0.5800
 8289SOL    HW136500   0.714   0.307   1.272  1.9989 -1.2090 -1.3989
 8289SOL    HW236501   0.827   0.249   1.346  0.8699  2.5678  0.4111
 8290SOL     OW36502   1.261   0.888   2.907  0.3321  0.9195  0.4014
 8290SOL    HW136503   1.203   0.880   2.983  0.5501 -2.2212  0.2076
 8290SOL    HW236504   1.201   0.882   2.833 -0.2970 -1.8715  1.1179
 8291SOL     OW36505   1.108   1.878   2.545  0.3117  0.5609 -0.5053
 8291SOL    HW136506   1.110   1.967   2.580  0.6504 -0.1244  1.1986
 8291SOL    HW236507   1.202   1.861   2.549  0.1042 -0.6725 -0.9187
 8292SOL     OW36508   0.291   0.018   6.775  0.3515  0.3000  0.0961
 8292SOL    HW136509   0.269   4.718   6.858  0.1779  2.3449  1.1376
 8292SOL    HW236510   0.204   0.055   6.762 -0.1673  0.0370  2.6895
 8293SOL     OW36511   2.409   3.937   8.564  0.0515 -0.1777 -0.5468
 8293SOL    HW136512   2.347   3.875   8.603 -1.4708 -0.1736 -2.9588
 8293SOL    HW236513   2.480   3.889   8.522  0.1277 -1.2421  0.7888
 8294SOL     OW36514   3.939   0.930   6.693 -0.2800  0.0305  0.1156
 8294SOL    HW136515   3.972   0.992   6.758  2.1285 -1.5152  0.3836
 8294SOL    HW236516   4.020   0.896   6.655  0.4228  1.0482  0.6930
 8295SOL     OW36517   2.319   3.668   3.583  0.4765  0.2456 -0.2265
 8295SOL    HW136518   2.302   3.714   3.665  0.9477  0.3508 -0.1892
 8295SOL    HW236519   2.351   3.582   3.610  0.9655  0.6096  0.3421
 8296SOL     OW36520   0.737   1.123   4.574 -0.1362  0.3640 -0.7368
 8296SOL    HW136521   0.732   1.094   4.665 -0.8169 -2.0165 -1.5316
 8296SOL    HW236522   0.705   1.045   4.528  0.4580 -1.2268  1.5444
 8297SOL     OW36523   1.393   0.790  11.095  0.0015 -0.1588 -0.3572
 8297SOL    HW136524   1.375   0.860  11.158  1.8549  0.2446 -0.2818
 8297SOL    HW236525   1.368   0.713  11.147 -1.7957  1.8448  1.7612
 8298SOL     OW36526   2.919   2.565  16.926 -0.0360 -0.6476 -0.4925
 8298SOL    HW136527   2.845   2.535  16.980  0.7902 -2.6087 -0.4649
 8298SOL    HW236528   2.883   2.544  16.840  1.3825 -1.3130 -0.9187
 8299SOL     OW36529   4.649   3.112   1.239 -0.4771  0.5349 -0.0886
 8299SOL    HW136530   4.692   3.037   1.198 -1.4519 -0.0589 -0.0190
 8299SOL    HW236531   4.563   3.073   1.256 -1.0688  2.4328  1.3765
 8300SOL     OW36532   1.992   2.358  14.673 -0.7028 -0.3147  0.6184
 8300SOL    HW136533   2.067   2.401  14.631 -0.2803 -1.9498 -0.2829
 8300SOL    HW236534   2.003   2.265  14.657  0.4637  0.0539 -0.7541
 8301SOL     OW36535   2.876   4.683  14.384  0.1988 -0.0870  0.2378
 8301SOL    HW136536   2.810   4.633  14.431 -0.9971  1.3795  0.1311
 8301SOL    HW236537   2.910   4.618  14.322 -0.2640  0.0999 -0.2132
 8302SOL     OW36538   4.562   4.712   7.808 -0.4580  0.0433  0.0756
 8302SOL    HW136539   4.566   4.629   7.855 -0.3998  0.0911  0.1548
 8302SOL    HW236540   4.609   0.025   7.870 -1.2576 -1.1738  1.7951
 8303SOL     OW36541   2.190   0.217   6.714 -0.0778 -0.0253  0.2977
 8303SOL    HW136542   2.220   0.307   6.703  0.9400 -0.2292  1.3413
 8303SOL    HW236543   2.139   0.202   6.635  0.3648 -0.4812  0.0936
 8304SOL     OW36544   2.659   2.796   1.890  0.2913 -0.5942 -0.6169
 8304SOL    HW136545   2.692   2.874   1.845 -2.0675  1.4456  1.1938
 8304SOL    HW236546   2.610   2.831   1.965 -1.6932 -2.4422 -1.0822
 8305SOL     OW36547   3.448   0.785   1.939 -0.4709 -0.7925  0.1435
 8305SOL    HW136548   3.378   0.744   1.990 -0.9072  1.7930  1.6231
 8305SOL    HW236549   3.518   0.746   1.992  0.5539  1.4481  0.4314
 8306SOL     OW36550   1.097   3.631  17.439  0.0940 -0.5691  0.3223
 8306SOL    HW136551   1.030   3.681  17.486  0.1156 -1.4864  1.3477
 8306SOL    HW236552   1.162   3.633  17.510  1.8204 -0.0676 -1.2825
 8307SOL     OW36553   0.291   3.655   4.815  0.2602  0.0849  0.3469
 8307SOL    HW136554   0.377   3.695   4.825  0.7281 -0.6447 -0.7432
 8307SOL    HW236555   0.289   3.629   4.907 -2.6748  0.2783  0.3377
 8308SOL     OW36556   2.994   4.016   0.409  0.4740  0.0977 -0.5041
 8308SOL    HW136557   2.935   3.941   0.410  2.1089 -1.1922 -0.1026
 8308SOL    HW236558   2.950   4.072   0.473  0.6714  0.9608 -1.1241
 8309SOL     OW36559   1.812   1.007   2.383 -0.2041 -0.4767  0.1253
 8309SOL    HW136560   1.843   1.063   2.312 -0.3767 -0.3393  0.1604
 8309SOL    HW236561   1.739   1.059   2.415 -1.6502 -1.2024 -1.9540
 8310SOL     OW36562   1.861   2.400   4.476 -0.4852  0.5128 -0.5895
 8310SOL    HW136563   1.802   2.368   4.408 -1.5527  0.4915  0.3366
 8310SOL    HW236564   1.797   2.412   4.547  0.9833 -0.3096  0.8781
 8311SOL     OW36565   2.175   3.888   2.082  0.0044 -0.0503  0.1664
 8311SOL    HW136566   2.165   3.906   2.175  0.3963 -1.4197  0.4698
 8311SOL    HW236567   2.103   3.829   2.063  0.6370 -0.9057  0.4311
 8312SOL     OW36568   3.309   3.258  14.209  0.2801  0.4757 -0.1717
 8312SOL    HW136569   3.350   3.336  14.247 -0.2771 -0.1135  1.6757
 8312SOL    HW236570   3.229   3.251  14.261 -0.9117  0.8505 -1.9613
 8313SOL     OW36571   3.192   2.058  16.252 -0.2606 -0.5161 -0.4420
 8313SOL    HW136572   3.227   2.051  16.163  2.0949  0.3077  0.4159
 8313SOL    HW236573   3.266   2.105  16.290 -0.1032 -1.0841 -0.0520
 8314SOL     OW36574   1.158   1.448   4.414 -0.2847 -0.1511 -0.6697
 8314SOL    HW136575   1.099   1.373   4.412  0.1962 -0.5618  1.1189
 8314SOL    HW236576   1.213   1.431   4.490 -0.6934 -2.3231 -0.8726
 8315SOL     OW36577   3.859   2.089  16.615  0.2684  0.1645 -0.6605
 8315SOL    HW136578   3.934   2.076  16.672  0.0064  2.5916  0.2607
 8315SOL    HW236579   3.892   2.055  16.532 -2.7965 -1.1518 -1.3420
 8316SOL     OW36580   0.987   2.974   7.060  0.3711 -0.2758 -0.0817
 8316SOL    HW136581   1.046   3.044   7.089 -0.8097  0.5975  0.1770
 8316SOL    HW236582   1.056   2.930   7.010  0.9604  0.3646  0.1716
 8317SOL     OW36583   2.999   4.385   2.798 -0.3902  0.1953 -0.5058
 8317SOL    HW136584   2.967   4.469   2.765  0.1159  1.0941  1.3363
 8317SOL    HW236585   2.986   4.385   2.893 -0.3206  1.0312 -0.4972
 8318SOL     OW36586   2.853   0.400   8.709  0.3061 -0.0730 -0.3341
 8318SOL    HW136587   2.759   0.418   8.718  0.3632 -0.1900  0.4735
 8318SOL    HW236588   2.880   0.465   8.644 -1.3230 -1.0373 -2.0100
 8319SOL     OW36589   0.865   0.332   8.257 -0.3679  0.1538  0.0211
 8319SOL    HW136590   0.905   0.393   8.319 -1.9910  0.2410  1.0025
 8319SOL    HW236591   0.817   0.398   8.206 -1.2231  1.0876  2.0433
 8320SOL     OW36592   4.449   2.341  14.479  0.6167  0.3886  0.1559
 8320SOL    HW136593   4.429   2.269  14.538 -0.3788  0.9178  0.4628
 8320SOL    HW236594   4.536   2.316  14.447  1.0631 -1.7619  3.1264
 8321SOL     OW36595   3.264   1.604   4.348  0.3555  0.0197 -0.5720
 8321SOL    HW136596   3.343   1.635   4.391 -2.3642  3.3302  2.1194
 8321SOL    HW236597   3.267   1.512   4.374 -1.6205  0.1792  0.2575
 8322SOL     OW36598   2.063   2.278   7.925  0.1385  0.1985  0.0914
 8322SOL    HW136599   2.128   2.327   7.874  1.7982 -0.8787  1.1705
 8322SOL    HW236600   2.124   2.223   7.974  1.8266  2.0849  0.0642
 8323SOL     OW36601   1.751   4.082   6.822  0.7275 -0.2240  0.3188
 8323SOL    HW136602   1.709   4.132   6.892 -0.8445  0.0020 -0.7727
 8323SOL    HW236603   1.757   4.143   6.748  1.2312 -2.2702 -1.3304
 8324SOL     OW36604   0.689   4.543   4.357  0.8652  0.4279 -0.4738
 8324SOL    HW136605   0.726   4.532   4.445 -1.6630  1.4477  0.6974
 8324SOL    HW236606   0.749   4.608   4.319 -0.2416  0.9676 -1.2694
 8325SOL     OW36607   3.073   3.753   4.286  0.5460 -0.2994 -0.2729
 8325SOL    HW136608   3.094   3.662   4.306  1.4818 -0.3091 -1.2637
 8325SOL    HW236609   3.134   3.790   4.351 -1.7929 -0.7956  2.2103
 8326SOL     OW36610   2.499   3.667   8.823  0.1623 -0.0200 -0.4240
 8326SOL    HW136611   2.420   3.721   8.820  1.3762  1.8760  2.1116
 8326SOL    HW236612   2.461   3.579   8.819 -1.7792  0.7310  1.6301
 8327SOL     OW36613   3.109   3.588   3.999 -0.3723 -0.3596 -0.0741
 8327SOL    HW136614   3.156   3.668   4.024  2.9762 -1.7645 -1.8549
 8327SOL    HW236615   3.178   3.554   3.942  1.2894  2.8347  0.0124
 8328SOL     OW36616   3.723   2.472   5.915  0.4907 -0.4026  0.0939
 8328SOL    HW136617   3.644   2.510   5.877  0.1532 -0.5759  0.6357
 8328SOL    HW236618   3.712   2.385   5.876 -0.3565 -0.0678 -0.4140
 8329SOL     OW36619   3.546   0.307   7.052  0.3241 -0.4841 -0.0691
 8329SOL    HW136620   3.572   0.310   7.144  1.4696  0.5125 -0.4250
 8329SOL    HW236621   3.504   0.392   7.039 -0.7341 -1.1121 -0.7102
 8330SOL     OW36622   1.961   4.189   4.610  0.7036 -0.1426 -0.4483
 8330SOL    HW136623   1.879   4.171   4.656  1.3855 -1.1367  0.3809
 8330SOL    HW236624   1.987   4.270   4.655 -1.4547  1.1689 -1.5921
 8331SOL     OW36625   4.241   3.860  15.154  0.5018 -0.0605  0.2887
 8331SOL    HW136626   4.220   3.767  15.144 -1.3827  0.2530  1.3348
 8331SOL    HW236627   4.163   3.913  15.138  0.5539  0.8624  3.0702
 8332SOL     OW36628   2.758   2.478   6.934  0.5356 -0.1103 -0.5051
 8332SOL    HW136629   2.769   2.442   6.846  0.7035  0.1175 -0.5777
 8332SOL    HW236630   2.709   2.558   6.914 -0.3868 -0.5741 -0.1034
 8333SOL     OW36631   1.090   3.441   3.485  0.6281  0.1006 -0.3514
 8333SOL    HW136632   1.091   3.470   3.576  0.2941 -2.2198  0.3918
 8333SOL    HW236633   1.182   3.426   3.465  0.0382 -2.0628 -1.4848
 8334SOL     OW36634   3.643   0.245   4.003  0.1746 -0.0327  0.3450
 8334SOL    HW136635   3.554   0.260   4.034  0.0838  0.9014 -0.3677
 8334SOL    HW236636   3.653   0.153   4.026 -0.6014 -0.1759  0.1028
 8335SOL     OW36637   0.692   3.852  12.559 -0.1424 -0.0920  0.2233
 8335SOL    HW136638   0.602   3.876  12.536  0.2751  0.9925 -0.2663
 8335SOL    HW236639   0.668   3.768  12.596  1.3766 -0.0700  1.2483
 8336SOL     OW36640   2.071   1.180   2.620  0.4905 -0.5490  0.5393
 8336SOL    HW136641   2.143   1.118   2.619 -1.2752 -2.6158  1.7264
 8336SOL    HW236642   2.107   1.231   2.547 -1.2883 -1.9297 -1.3221
 8337SOL     OW36643   1.878   3.175  12.228 -1.0030 -0.6453 -0.0384
 8337SOL    HW136644   1.851   3.154  12.317  0.9200 -0.7347  0.5199
 8337SOL    HW236645   1.800   3.207  12.183 -1.3316 -0.6301  0.5398
 8338SOL     OW36646   2.153   0.229   8.599 -0.0651  1.0394  0.7931
 8338SOL    HW136647   2.247   0.216   8.583 -0.5630  1.3268 -2.5265
 8338SOL    HW236648   2.124   0.140   8.615 -0.1964  1.3272  2.1623
 8339SOL     OW36649   4.535   3.149   2.838 -0.0805  0.3083  0.6010
 8339SOL    HW136650   4.500   3.199   2.912 -1.9030  1.9425 -1.3490
 8339SOL    HW236651   4.584   3.079   2.881 -1.6321 -0.8592  0.4465
 8340SOL     OW36652   2.213   3.947   2.877  0.5478  0.3291  0.2798
 8340SOL    HW136653   2.143   4.008   2.899 -1.5236 -1.8018 -0.4532
 8340SOL    HW236654   2.220   3.976   2.786  0.7492 -2.7370 -0.6697
 8341SOL     OW36655   4.567   3.019   1.814 -0.0206  0.1359  0.2310
 8341SOL    HW136656   4.475   2.997   1.802  0.1629  1.0928 -3.0961
 8341SOL    HW236657   4.606   2.931   1.815 -1.2041 -0.4376 -2.6217
 8342SOL     OW36658   1.214   3.346   8.078  0.2720  0.2934  0.3158
 8342SOL    HW136659   1.196   3.336   8.171 -1.4123 -1.9104 -0.2368
 8342SOL    HW236660   1.141   3.401   8.050 -0.2508 -1.1513 -1.1924
 8343SOL     OW36661   4.562   4.300   8.193  0.4848  0.6750  0.0192
 8343SOL    HW136662   4.522   4.213   8.200  0.9527  0.4111 -0.6366
 8343SOL    HW236663   4.512   4.340   8.264 -1.7039 -1.4335 -0.3186
 8344SOL     OW36664   4.216   0.303   2.143  0.2625 -0.0576  0.0750
 8344SOL    HW136665   4.127   0.292   2.176  0.0773 -3.2267 -1.4797
 8344SOL    HW236666   4.211   0.398   2.129  1.8134  0.2833  1.9056
 8345SOL     OW36667   0.973   4.363   0.551  0.2053 -0.5574  0.6037
 8345SOL    HW136668   0.910   4.400   0.612 -0.9109 -1.4326 -0.0283
 8345SOL    HW236669   1.049   4.365   0.609  0.7448 -0.8373 -0.0835
 8346SOL     OW36670   2.627   0.127  15.872 -0.5061  0.4965 -0.0983
 8346SOL    HW136671   2.538   0.119  15.907  0.3262  0.4684  2.0034
 8346SOL    HW236672   2.677   0.189  15.924 -1.6990  1.9614 -0.7017
 8347SOL     OW36673   0.484   4.741  12.049 -0.4090 -0.2590 -0.1424
 8347SOL    HW136674   0.412   4.679  12.060 -2.5326  1.8441 -2.0184
 8347SOL    HW236675   0.460   0.053  12.123 -0.1796  0.0019 -0.2636
 8348SOL     OW36676   1.859   1.634   3.198 -0.3646 -0.4012 -0.1376
 8348SOL    HW136677   1.824   1.706   3.250 -0.5738 -2.7634  2.9339
 8348SOL    HW236678   1.890   1.679   3.119  0.2163 -0.6382 -0.0455
 8349SOL     OW36679   0.014   3.105  16.484  0.0011  0.0627 -0.0519
 8349SOL    HW136680   0.080   3.170  16.458 -2.4817  2.2899 -0.7790
 8349SOL    HW236681   0.007   3.054  16.403 -1.8549 -1.6316  1.1741
 8350SOL     OW36682   0.920   0.590   3.614 -0.2206  0.4820 -0.2336
 8350SOL    HW136683   0.877   0.641   3.683  0.0704  1.4343 -0.7506
 8350SOL    HW236684   0.894   0.639   3.535 -0.6840  1.4226  0.4986
 8351SOL     OW36685   0.692   3.745   9.505  0.1593 -0.5414 -0.0347
 8351SOL    HW136686   0.740   3.701   9.575  0.3216  1.2642  1.0081
 8351SOL    HW236687   0.650   3.671   9.462 -1.7012 -0.8232  2.2979
 8352SOL     OW36688   4.384   0.950   6.191 -0.0327 -0.0906  0.0483
 8352SOL    HW136689   4.300   0.905   6.176  0.2862 -0.4625 -0.6503
 8352SOL    HW236690   4.420   0.885   6.251  0.5063  0.1372 -0.0254
 8353SOL     OW36691   2.091   1.219  15.791 -0.2185 -0.8360 -0.6212
 8353SOL    HW136692   2.072   1.126  15.780  0.0894 -0.8235 -1.2542
 8353SOL    HW236693   2.139   1.202  15.872 -0.1293 -0.0123 -0.4966
 8354SOL     OW36694   2.505   2.840  10.598  0.1194  0.0223 -0.0789
 8354SOL    HW136695   2.548   2.767  10.643 -1.2755  0.3886  1.8766
 8354SOL    HW236696   2.410   2.825  10.604  0.0977 -0.2868 -1.2841
 8355SOL     OW36697   3.258   3.629   2.703 -0.2786 -0.0530 -0.1995
 8355SOL    HW136698   3.208   3.693   2.752 -0.1793 -0.2214  0.1178
 8355SOL    HW236699   3.348   3.644   2.731 -0.8359 -2.3301  2.8264
 8356SOL     OW36700   1.904   0.467  13.756 -0.0770  0.5887 -0.3739
 8356SOL    HW136701   1.889   0.459  13.851  0.5250  1.4131 -0.2156
 8356SOL    HW236702   1.833   0.409  13.731  0.5795  0.4044 -1.7993
 8357SOL     OW36703   3.119   3.544   9.174  0.1221 -0.3629  0.2617
 8357SOL    HW136704   3.042   3.598   9.159 -0.8186 -1.3891  1.4394
 8357SOL    HW236705   3.183   3.602   9.215  0.2885 -0.8164  0.6424
 8358SOL     OW36706   4.741   2.869   6.507 -0.5171  0.3051  0.2545
 8358SOL    HW136707   0.054   2.818   6.449  0.8203  1.7941  0.2593
 8358SOL    HW236708   0.035   2.854   6.594 -0.1099 -0.9267 -0.1326
 8359SOL     OW36709   1.830   3.314  14.184 -0.3878  0.1581  0.3113
 8359SOL    HW136710   1.861   3.260  14.111 -0.7079 -0.8873  0.9673
 8359SOL    HW236711   1.763   3.363  14.137 -0.3667  0.5872  0.7309
 8360SOL     OW36712   0.651   2.611  16.544 -0.3037  0.0161  0.4199
 8360SOL    HW136713   0.648   2.517  16.561  3.1150 -0.1349  0.2345
 8360SOL    HW236714   0.608   2.607  16.458 -0.1608  0.1917  0.3397
 8361SOL     OW36715   1.604   4.569   4.058 -0.1790 -0.6422  0.6900
 8361SOL    HW136716   1.671   4.634   4.035 -0.5880  0.0365  1.4025
 8361SOL    HW236717   1.642   4.486   4.031  2.3628 -0.0802  2.5470
 8362SOL     OW36718   2.993   4.177  15.291  0.7180 -0.1692  0.2701
 8362SOL    HW136719   3.062   4.239  15.266  0.2890  0.8805  1.6900
 8362SOL    HW236720   2.934   4.237  15.336  0.9302  0.3459 -0.1457
 8363SOL     OW36721   0.580   3.179   7.182  0.1029  0.3788  0.7466
 8363SOL    HW136722   0.652   3.170   7.120 -0.9283  1.1132 -0.5598
 8363SOL    HW236723   0.509   3.144   7.129  0.8988 -0.1900  0.0594
 8364SOL     OW36724   2.121   0.931   4.760  0.5040  0.5028 -0.0715
 8364SOL    HW136725   2.060   0.862   4.733 -0.0310  0.4326  1.3288
 8364SOL    HW236726   2.193   0.878   4.795 -1.6103 -1.8737  0.7266
 8365SOL     OW36727   3.846   1.951   7.237 -0.1122 -0.1317 -0.3880
 8365SOL    HW136728   3.923   2.006   7.228 -1.0140  1.0783 -0.6547
 8365SOL    HW236729   3.805   1.966   7.152  1.5013 -2.5440 -1.6128
 8366SOL     OW36730   3.099   0.081  14.116  0.4592 -0.6348 -0.2514
 8366SOL    HW136731   3.056   0.119  14.039  0.4256 -0.0819  0.0402
 8366SOL    HW236732   3.188   0.115  14.109  1.8564 -4.1380  0.5208
 8367SOL     OW36733   4.012   2.601  16.102 -0.3882  0.6834  0.2371
 8367SOL    HW136734   4.103   2.581  16.082 -0.2335  1.1438  0.4665
 8367SOL    HW236735   3.980   2.513  16.122 -0.1927  0.0483 -2.3122
 8368SOL     OW36736   3.168   1.782   7.753 -0.1290  0.1822  0.1221
 8368SOL    HW136737   3.129   1.856   7.799 -2.2968  0.8740 -2.8170
 8368SOL    HW236738   3.094   1.723   7.753 -0.7950  1.0264  1.0917
 8369SOL     OW36739   0.216   2.422   0.992  0.1534  0.5397 -0.0525
 8369SOL    HW136740   0.266   2.397   0.914  2.7704 -0.1464  1.8374
 8369SOL    HW236741   0.265   2.382   1.064 -1.6676  2.9210  2.4888
 8370SOL     OW36742   1.735   4.195   5.690  0.4789 -0.6701 -0.4806
 8370SOL    HW136743   1.709   4.156   5.773 -3.8853 -0.6516 -1.7791
 8370SOL    HW236744   1.683   4.276   5.691  0.3700 -0.7263 -1.1513
 8371SOL     OW36745   3.275   0.182  11.716 -0.0454 -0.1657  0.0756
 8371SOL    HW136746   3.198   0.238  11.727 -1.1182 -0.8061 -4.1630
 8371SOL    HW236747   3.337   0.254  11.723 -2.0801  1.6491 -0.7687
 8372SOL     OW36748   2.101   1.777   5.303  0.0577 -0.4901  0.2049
 8372SOL    HW136749   2.065   1.822   5.380  1.9513 -0.2687  0.9710
 8372SOL    HW236750   2.118   1.852   5.245  1.0909 -0.2546  0.8120
 8373SOL     OW36751   1.859   1.487   8.564 -1.0052 -0.1170  0.1124
 8373SOL    HW136752   1.887   1.511   8.653 -0.8688 -0.4412  0.1582
 8373SOL    HW236753   1.926   1.531   8.511  0.0306  1.3429  2.6407
 8374SOL     OW36754   1.582   2.900   2.424  0.2696 -0.0342 -0.8787
 8374SOL    HW136755   1.493   2.876   2.450  0.6471 -1.4022 -0.8694
 8374SOL    HW236756   1.633   2.825   2.454  0.5908 -0.1074 -1.6285
 8375SOL     OW36757   2.775   0.604   1.711  0.7141 -0.3144 -0.1000
 8375SOL    HW136758   2.741   0.666   1.646  1.0961 -0.9305 -0.8844
 8375SOL    HW236759   2.829   0.550   1.654 -0.2059 -0.3261 -0.9560
 8376SOL     OW36760   0.524   2.181  14.564  0.0324  0.0641 -0.0462
 8376SOL    HW136761   0.503   2.148  14.476  0.2280 -0.0836 -0.0376
 8376SOL    HW236762   0.604   2.232  14.550 -1.6405  3.0332  1.3084
 8377SOL     OW36763   0.072   0.498   7.643 -0.1070  0.8468 -0.4013
 8377SOL    HW136764   0.138   0.475   7.577 -0.6267 -1.3340 -0.1624
 8377SOL    HW236765   0.126   0.461   7.713  1.3222  1.0835 -1.3622
 8378SOL     OW36766   0.072   1.019  16.309 -0.2412  0.0773 -0.5920
 8378SOL    HW136767   0.014   0.980  16.375 -0.6475 -0.5045 -1.2903
 8378SOL    HW236768   0.150   0.963  16.305 -2.6253 -3.4045  1.7031
 8379SOL     OW36769   1.850   4.189   3.441 -0.4594  0.4107  0.2993
 8379SOL    HW136770   1.825   4.115   3.386  4.0112 -1.1585  0.3638
 8379SOL    HW236771   1.786   4.249   3.401 -2.5689 -1.6566  0.6122
 8380SOL     OW36772   1.342   4.556   0.963  0.0057 -0.3067  0.0802
 8380SOL    HW136773   1.331   4.463   0.980 -1.6008 -0.3747 -1.3682
 8380SOL    HW236774   1.292   4.573   0.884  0.7223  1.6180  0.0464
 8381SOL     OW36775   2.381   1.285   2.749  0.4301  0.6808  0.0839
 8381SOL    HW136776   2.424   1.208   2.713 -0.0927 -1.3518  3.8982
 8381SOL    HW236777   2.457   1.341   2.761 -1.1177  2.6205  0.9766
 8382SOL     OW36778   2.555   4.091   2.142 -0.3866  0.5455 -0.7258
 8382SOL    HW136779   2.525   4.030   2.075 -0.9421  1.6487 -1.4706
 8382SOL    HW236780   2.473   4.138   2.154 -0.8993 -0.2781 -0.9418
 8383SOL     OW36781   3.569   3.500   3.613 -0.0247  0.4208 -0.0680
 8383SOL    HW136782   3.579   3.589   3.580  2.5759  0.1633 -0.0005
 8383SOL    HW236783   3.645   3.494   3.671 -2.2227 -0.1046  2.7882
 8384SOL     OW36784   4.266   4.021   3.961  0.3721  0.5038  0.2167
 8384SOL    HW136785   4.225   4.074   4.029 -1.6289 -0.1064 -0.5246
 8384SOL    HW236786   4.302   4.084   3.898  0.2224 -0.1243 -0.5047
 8385SOL     OW36787   2.481   4.334   4.825 -0.1658  0.0742 -0.2125
 8385SOL    HW136788   2.552   4.397   4.807 -0.0137  0.6336  2.3570
 8385SOL    HW236789   2.527   4.251   4.840 -0.9792 -0.4699 -0.7927
 8386SOL     OW36790   1.251   0.439   9.263  0.3975  0.9376  0.5929
 8386SOL    HW136791   1.339   0.459   9.232  0.0244  0.1113 -0.9704
 8386SOL    HW236792   1.265   0.352   9.301 -1.6332 -0.7292 -2.4680
 8387SOL     OW36793   2.258   1.064  13.352  0.0643  0.3830  0.3773
 8387SOL    HW136794   2.250   0.991  13.290  2.3504 -0.1375  0.7100
 8387SOL    HW236795   2.214   1.030  13.430 -1.6759  0.9059 -0.3529
 8388SOL     OW36796   0.158   1.952   3.093 -0.0822 -0.5220 -0.0063
 8388SOL    HW136797   0.211   2.017   3.047 -0.7200 -0.6592 -0.9312
 8388SOL    HW236798   0.222   1.920   3.156  0.9930 -0.0342 -0.8547
 8389SOL     OW36799   4.523   1.227   3.716 -0.0947  0.0460 -0.2160
 8389SOL    HW136800   4.561   1.286   3.781  0.3256 -0.2560 -0.1867
 8389SOL    HW236801   4.449   1.286   3.705  0.0283  0.4978  1.3816
 8390SOL     OW36802   0.338   1.846   6.670 -0.2569 -0.1045  0.3527
 8390SOL    HW136803   0.382   1.783   6.612 -1.5948 -0.1573 -0.6132
 8390SOL    HW236804   0.279   1.886   6.606 -0.0684 -1.3210 -0.5991
 8391SOL     OW36805   3.234   1.586   0.290 -0.3511 -0.2093  0.2781
 8391SOL    HW136806   3.230   1.491   0.299 -0.1325 -0.1493  1.0618
 8391SOL    HW236807   3.162   1.587   0.228  1.3073  2.5066 -1.5705
 8392SOL     OW36808   0.437   0.179   8.902  0.2900 -0.0171  0.3613
 8392SOL    HW136809   0.357   0.175   8.849 -0.0881 -1.8646  1.0771
 8392SOL    HW236810   0.463   0.087   8.900  2.0076  0.4575  0.8982
 8393SOL     OW36811   0.147   2.666   9.658  0.4241  0.4726 -0.0660
 8393SOL    HW136812   0.239   2.693   9.650  0.1439  0.6079 -2.7458
 8393SOL    HW236813   0.132   2.615   9.578 -2.3985  0.5637  0.4345
 8394SOL     OW36814   3.654   4.450   2.779 -0.1453 -0.6339  0.2236
 8394SOL    HW136815   3.596   4.486   2.846  0.0827 -0.0813  0.1255
 8394SOL    HW236816   3.732   4.503   2.796  1.1434 -2.5527  0.2851
 8395SOL     OW36817   1.832   3.139   6.092 -0.0513 -0.2532  0.0049
 8395SOL    HW136818   1.894   3.109   6.025 -0.2997 -2.5738  0.8016
 8395SOL    HW236819   1.778   3.059   6.094  0.8212 -0.8294  0.5397
 8396SOL     OW36820   2.522   0.216  11.784  0.2416  0.3983 -0.3109
 8396SOL    HW136821   2.536   0.228  11.878 -1.4992 -1.4806  0.2048
 8396SOL    HW236822   2.451   0.278  11.766 -0.6046 -0.4469  0.0684
 8397SOL     OW36823   0.396   1.543   8.285 -0.0618  0.3631  0.3677
 8397SOL    HW136824   0.344   1.621   8.265  2.3964  1.7385 -0.6635
 8397SOL    HW236825   0.374   1.537   8.378 -1.2604  3.2003  0.2621
 8398SOL     OW36826   1.875   1.554   4.661  0.3211 -0.2969  0.2002
 8398SOL    HW136827   1.926   1.533   4.739 -1.8755 -1.9993  1.1816
 8398SOL    HW236828   1.915   1.636   4.632 -0.9324  0.3714  0.3559
 8399SOL     OW36829   0.143   2.222   4.763 -0.0264  0.1156 -0.3686
 8399SOL    HW136830   0.093   2.189   4.689 -0.3521  0.9155 -0.5050
 8399SOL    HW236831   0.097   2.179   4.835  1.7940  1.3868  1.5676
 8400SOL     OW36832   4.176   3.009   7.011 -0.2252 -0.2511  0.4966
 8400SOL    HW136833   4.233   3.055   7.073  1.1443  1.0013 -1.6709
 8400SOL    HW236834   4.241   3.007   6.940 -0.6706  2.0069  0.0250
 8401SOL     OW36835   0.098   3.074  11.040  0.0385 -0.9032  0.4909
 8401SOL    HW136836   0.088   3.090  11.134  1.2164  3.6448 -0.1782
 8401SOL    HW236837   0.189   3.046  11.046  0.4421  0.7540  2.1444
 8402SOL     OW36838   2.675   3.990   4.043  0.0397 -0.1708 -0.8187
 8402SOL    HW136839   2.721   3.985   3.959  0.8352  0.1298 -0.4015
 8402SOL    HW236840   2.589   3.959   4.014 -0.1417 -1.0924  0.7313
 8403SOL     OW36841   1.453   0.462   6.219 -0.4704 -0.2326 -0.1705
 8403SOL    HW136842   1.420   0.479   6.307 -0.3104 -0.0233 -0.1509
 8403SOL    HW236843   1.368   0.458   6.175 -0.2120  3.5922 -1.0537
 8404SOL     OW36844   0.607   1.312   6.488 -0.2080 -0.2751 -0.1888
 8404SOL    HW136845   0.603   1.383   6.552 -1.0805  0.4046 -1.0012
 8404SOL    HW236846   0.561   1.246   6.540  1.2634  0.2236  1.7427
 8405SOL     OW36847   0.827   0.153   4.037 -0.4287  0.0609 -0.4795
 8405SOL    HW136848   0.761   0.085   4.049 -0.1399  0.2210  1.9926
 8405SOL    HW236849   0.859   0.169   4.126 -2.6554  0.8759  0.1763
 8406SOL     OW36850   2.799   0.754   8.184  0.6097 -0.3169  0.5175
 8406SOL    HW136851   2.822   0.842   8.156  1.2367 -0.9330 -0.8787
 8406SOL    HW236852   2.771   0.772   8.274 -1.0291  0.7981 -0.2281
 8407SOL     OW36853   2.026   2.728  15.295 -0.1132  0.0503 -0.7101
 8407SOL    HW136854   2.049   2.821  15.301  1.3364 -0.1763 -2.4600
 8407SOL    HW236855   1.948   2.742  15.242 -0.7759 -0.6600  0.0752
 8408SOL     OW36856   0.564   3.500   0.076 -0.3733 -0.1316  0.5505
 8408SOL    HW136857   0.615   3.419   0.072 -0.8861 -0.5013  1.5937
 8408SOL    HW236858   0.505   3.463   0.142  1.7867 -0.8316  2.0852
 8409SOL     OW36859   1.712   1.143  15.202  0.4196  0.0003  0.4746
 8409SOL    HW136860   1.702   1.053  15.232  2.0488 -0.2601  0.2391
 8409SOL    HW236861   1.668   1.141  15.117  1.2135 -1.5874  0.1045
 8410SOL     OW36862   2.885   2.282   7.804 -0.0217  0.1517  0.6957
 8410SOL    HW136863   2.811   2.317   7.854 -0.7125 -3.2194  2.0170
 8410SOL    HW236864   2.825   2.254   7.735  1.4601 -1.5150  0.0812
 8411SOL     OW36865   3.738   2.385   3.025 -0.4896 -0.7384  0.0025
 8411SOL    HW136866   3.652   2.411   2.992  0.6279  1.5149 -1.1521
 8411SOL    HW236867   3.711   2.295   3.043 -2.0156  0.0218  1.4843
 8412SOL     OW36868   0.791   0.257   9.007 -0.6762  0.3473 -0.3751
 8412SOL    HW136869   0.784   0.348   8.980  0.0714  0.9939  1.5568
 8412SOL    HW236870   0.827   0.213   8.930  1.8034  2.7677 -0.5840
 8413SOL     OW36871   2.280   2.249  10.295  0.1134 -0.2938  0.0442
 8413SOL    HW136872   2.270   2.341  10.319  1.5735 -0.3230  0.7938
 8413SOL    HW236873   2.324   2.266  10.211  0.5550  0.7483  0.4817
 8414SOL     OW36874   4.280   2.643  10.847  0.8554  0.1820 -0.3863
 8414SOL    HW136875   4.334   2.623  10.771  2.3450  2.0577  0.1718
 8414SOL    HW236876   4.268   2.735  10.826  1.6875 -0.5182 -3.9135
 8415SOL     OW36877   4.585   1.783  17.172 -0.2526 -0.2855 -0.0281
 8415SOL    HW136878   4.609   1.828  17.253 -0.5703 -1.6426  0.8101
 8415SOL    HW236879   4.539   1.857  17.133  1.4350  0.4034 -0.7359
 8416SOL     OW36880   2.282   0.948   4.085  0.0482  0.5477  0.0836
 8416SOL    HW136881   2.271   0.945   3.990 -0.0710  0.3832  0.1028
 8416SOL    HW236882   2.189   0.941   4.106  0.6504  3.6097  3.9114
 8417SOL     OW36883   3.389   0.659   3.142 -0.0787 -0.1077 -0.0827
 8417SOL    HW136884   3.300   0.630   3.123  0.4026 -1.4957 -0.2085
 8417SOL    HW236885   3.394   0.651   3.238  1.1864 -1.5567 -0.2764
 8418SOL     OW36886   3.924   3.576   3.950 -0.2104  0.3540  0.0971
 8418SOL    HW136887   3.972   3.512   3.898  0.0926 -0.3693  1.2638
 8418SOL    HW236888   3.974   3.655   3.929 -0.8806  0.5039 -0.9475
 8419SOL     OW36889   3.320   0.885  17.190 -0.1994 -0.0877 -0.2567
 8419SOL    HW136890   3.225   0.874  17.184  0.1919 -2.0480 -2.6487
 8419SOL    HW236891   3.326   0.959  17.251  0.4218 -0.5424  0.2422
 8420SOL     OW36892   2.020   2.493   4.001 -0.1333 -0.4219 -0.1397
 8420SOL    HW136893   1.959   2.565   4.018 -1.2884 -1.6942  1.1035
 8420SOL    HW236894   1.961   2.432   3.955 -1.5429  1.2711 -0.5617
 8421SOL     OW36895   1.887   2.041   3.502  0.2362 -0.2924 -0.2081
 8421SOL    HW136896   1.871   2.042   3.596 -2.9102 -0.5895 -0.7515
 8421SOL    HW236897   1.840   1.962   3.476  0.9372 -1.0473  0.8159
 8422SOL     OW36898   0.638   2.793   2.664  0.5551  0.4528 -0.0295
 8422SOL    HW136899   0.580   2.771   2.737 -1.2454 -0.5387 -1.7608
 8422SOL    HW236900   0.683   2.866   2.707 -0.2991  1.7834 -1.4122
 8423SOL     OW36901   3.549   0.972   4.731  0.4849  0.6833 -0.1447
 8423SOL    HW136902   3.539   0.879   4.711  1.1433  0.1452  2.1368
 8423SOL    HW236903   3.619   0.997   4.670  1.0288 -4.4215 -1.6296
 8424SOL     OW36904   3.174   1.552   5.018  0.3364  0.4072 -0.2720
 8424SOL    HW136905   3.213   1.558   4.931 -0.5424  1.3026 -0.6078
 8424SOL    HW236906   3.147   1.641   5.041 -0.0709  0.6106 -1.5479
 8425SOL     OW36907   0.424   0.789   1.595 -0.1205 -0.0896  0.6108
 8425SOL    HW136908   0.389   0.859   1.540 -0.8248 -1.1542 -0.2796
 8425SOL    HW236909   0.341   0.745   1.610  1.0842 -1.9151  1.9992
 8426SOL     OW36910   0.912   3.229   8.789 -0.4037  0.0203  0.1553
 8426SOL    HW136911   0.872   3.143   8.804 -2.8170  1.0946 -0.1252
 8426SOL    HW236912   0.854   3.272   8.726 -0.4417 -2.1940 -1.3271
 8427SOL     OW36913   0.982   0.909   5.953 -0.0154  0.7037  0.1710
 8427SOL    HW136914   0.937   0.994   5.953  1.4904  1.5009 -0.3242
 8427SOL    HW236915   0.930   0.866   6.020  0.3176 -1.1436 -0.7420
 8428SOL     OW36916   2.016   2.913   5.059 -0.0651 -0.1848  0.2373
 8428SOL    HW136917   2.029   3.008   5.064 -0.1072 -0.1971  0.5422
 8428SOL    HW236918   2.074   2.879   5.126  0.4629  0.3320  0.0423
 8429SOL     OW36919   1.037   0.726  15.727  0.0871 -0.1949  0.2336
 8429SOL    HW136920   1.012   0.660  15.792 -1.8686 -0.5288 -0.8537
 8429SOL    HW236921   1.058   0.663  15.657 -2.3851  0.2677 -0.9254
 8430SOL     OW36922   4.629   1.449  11.455 -0.2795  0.1113  0.7349
 8430SOL    HW136923   4.591   1.420  11.538 -1.4105  0.9343  0.5038
 8430SOL    HW236924   4.611   1.543  11.465 -1.2281  0.0240 -0.2395
 8431SOL     OW36925   0.071   2.589  14.574 -0.2887 -0.1214 -0.3080
 8431SOL    HW136926   0.090   2.654  14.506  1.1620  1.1044  1.2522
 8431SOL    HW236927   0.112   2.510  14.540 -1.3270 -1.1987  0.9483
 8432SOL     OW36928   1.244   0.457   3.420  0.7545  0.2780 -0.6009
 8432SOL    HW136929   1.269   0.469   3.512  0.4066 -0.0468 -0.4622
 8432SOL    HW236930   1.324   0.471   3.370 -0.2358  2.2918 -1.5807
 8433SOL     OW36931   2.150   1.862   4.321 -0.6226 -0.1142  0.0044
 8433SOL    HW136932   2.206   1.940   4.322 -1.4897  0.5312 -2.7761
 8433SOL    HW236933   2.206   1.806   4.374 -1.0772 -0.4814  0.1026
 8434SOL     OW36934   1.232   3.545   7.402  0.2543 -0.4173  0.2408
 8434SOL    HW136935   1.147   3.504   7.385 -0.2395  0.8834 -0.3992
 8434SOL    HW236936   1.249   3.515   7.491  2.8139 -0.6555 -0.3139
 8435SOL     OW36937   2.703   2.081  17.440 -0.8030  0.3429 -0.2072
 8435SOL    HW136938   2.768   2.132  17.488 -0.5244 -1.0945  0.9649
 8435SOL    HW236939   2.707   2.123  17.355 -2.2162 -0.9998 -0.9340
 8436SOL     OW36940   3.565   1.756   4.069 -0.2026 -0.1406 -0.9195
 8436SOL    HW136941   3.572   1.744   4.164  0.5065 -0.0202 -0.9523
 8436SOL    HW236942   3.596   1.846   4.058 -0.9743  0.5103  1.9930
 8437SOL     OW36943   2.098   4.432  17.124  0.2932  0.8980  0.1324
 8437SOL    HW136944   2.027   4.394  17.176  1.1604 -1.9532 -0.7843
 8437SOL    HW236945   2.059   4.447  17.038 -0.0708  1.1115  0.3325
 8438SOL     OW36946   0.904   1.089  15.095 -0.9059 -0.4131  0.2418
 8438SOL    HW136947   0.992   1.122  15.116 -0.1951 -1.7883 -0.6109
 8438SOL    HW236948   0.857   1.172  15.085  2.4082  1.3363 -0.8728
 8439SOL     OW36949   0.466   4.330   4.681 -0.4180 -0.5617 -0.1991
 8439SOL    HW136950   0.547   4.355   4.636 -1.3538  2.0469 -0.3922
 8439SOL    HW236951   0.457   4.415   4.723  3.7988  0.4506 -1.3300
 8440SOL     OW36952   0.501   2.064  15.420 -0.3092 -0.0410 -0.3914
 8440SOL    HW136953   0.475   1.976  15.447  0.5785 -0.2054 -0.0536
 8440SOL    HW236954   0.568   2.089  15.484 -1.1444 -0.2465  0.5505
 8441SOL     OW36955   0.389   1.781   2.319 -0.6768 -0.3764 -0.0944
 8441SOL    HW136956   0.429   1.827   2.393 -2.2980  1.0789 -0.1014
 8441SOL    HW236957   0.308   1.749   2.359 -0.5299  0.1388  0.6153
 8442SOL     OW36958   4.542   1.442   2.470  0.3456  0.3018 -0.0527
 8442SOL    HW136959   4.574   1.370   2.416 -1.7469  1.2877 -2.6013
 8442SOL    HW236960   4.450   1.418   2.479  0.6630 -0.9531 -0.2060
 8443SOL     OW36961   1.437   1.998   3.447 -0.3298 -0.1531 -0.5739
 8443SOL    HW136962   1.403   2.051   3.519 -0.4302  0.8450 -1.3724
 8443SOL    HW236963   1.368   2.001   3.382  0.7086  0.7634 -1.6396
 8444SOL     OW36964   3.699   2.835   9.702  0.7608  0.5765 -0.4116
 8444SOL    HW136965   3.677   2.822   9.794 -2.5532 -0.4148 -1.3614
 8444SOL    HW236966   3.788   2.800   9.694  0.5836 -0.1236  0.7239
 8445SOL     OW36967   3.700   1.595   1.733  0.1564  0.0324  0.2124
 8445SOL    HW136968   3.672   1.589   1.641 -0.8326  1.6180  0.4077
 8445SOL    HW236969   3.749   1.677   1.730  0.8941 -0.3924  0.7891
 8446SOL     OW36970   1.599   3.584   8.424  0.1835 -0.3482 -0.4722
 8446SOL    HW136971   1.580   3.541   8.341 -1.1715 -1.2828  0.3361
 8446SOL    HW236972   1.605   3.670   8.382 -0.3846 -0.9437 -1.7469
 8447SOL     OW36973   4.126   2.933   9.549  0.1472 -0.1971  0.4442
 8447SOL    HW136974   4.123   2.867   9.480  0.1273  1.4724 -1.1508
 8447SOL    HW236975   4.143   3.016   9.505 -0.6516  0.7075  1.8276
 8448SOL     OW36976   0.809   1.176   2.473 -0.3080  0.5077 -0.3225
 8448SOL    HW136977   0.779   1.236   2.405  0.3973  0.7825 -0.3894
 8448SOL    HW236978   0.725   1.130   2.468 -0.7654  1.1588  1.6973
 8449SOL     OW36979   1.918   1.037   1.218  0.3379  0.2534  0.0490
 8449SOL    HW136980   1.921   0.954   1.169  0.8019  0.6586 -0.5966
 8449SOL    HW236981   1.974   1.088   1.160 -0.6401  1.3617  0.0861
 8450SOL     OW36982   3.016   2.016   6.015  0.3123  0.0561 -0.4674
 8450SOL    HW136983   3.072   2.034   5.939 -0.8906  0.4971 -1.2535
 8450SOL    HW236984   2.996   2.104   6.047  0.3285 -0.2289  0.3179
 8451SOL     OW36985   1.747   2.668   1.538  0.1995 -0.5407  0.0532
 8451SOL    HW136986   1.842   2.669   1.524  0.0895  0.6270 -0.6412
 8451SOL    HW236987   1.727   2.576   1.520 -0.7594 -0.5932  1.4105
 8452SOL     OW36988   1.487   0.323   4.558 -0.2030  0.1038  0.4144
 8452SOL    HW136989   1.539   0.286   4.629 -0.8260  1.8833  1.7802
 8452SOL    HW236990   1.514   0.257   4.494  2.0646  1.0993  0.3185
 8453SOL     OW36991   0.846   0.529   5.689 -0.0748 -0.0695  0.3723
 8453SOL    HW136992   0.932   0.568   5.670  0.2967 -0.9239  0.3001
 8453SOL    HW236993   0.850   0.465   5.618  2.1218 -0.7781  1.1365
 8454SOL     OW36994   1.427   3.688   3.815 -0.0412  0.2893 -0.5276
 8454SOL    HW136995   1.519   3.714   3.822 -0.3187  1.8163 -2.5713
 8454SOL    HW236996   1.408   3.737   3.735 -0.4356  0.2296 -0.4734
 8455SOL     OW36997   0.109   0.148   9.470  0.1545  0.4361  0.4588
 8455SOL    HW136998   0.075   0.148   9.559  1.0580  0.8291  0.8017
 8455SOL    HW236999   0.129   0.055   9.467  1.1527  0.6278  1.5700
 8456SOL     OW37000   4.457   1.584  14.721  0.2231 -0.1474  0.7859
 8456SOL    HW137001   4.471   1.649  14.790 -1.2934  0.0841  0.8740
 8456SOL    HW237002   4.399   1.523  14.766 -0.3210  0.7135  1.2555
 8457SOL     OW37003   3.867   1.538   3.592  0.9111 -0.0665  0.1489
 8457SOL    HW137004   3.844   1.549   3.500 -0.8757 -1.6102  0.4078
 8457SOL    HW237005   3.817   1.461   3.619  4.0504 -1.2764  2.5327
 8458SOL     OW37006   0.759   3.888  17.608  0.3169  0.1211 -0.1258
 8458SOL    HW137007   0.816   3.961  17.587  0.8708 -0.7148 -1.5337
 8458SOL    HW237008   0.705   3.924  17.679  0.0089 -0.4344 -0.0735
 8459SOL     OW37009   3.711   1.368  10.877 -0.0187 -0.6777 -0.3514
 8459SOL    HW137010   3.676   1.457  10.886  0.8493 -0.3600  0.0001
 8459SOL    HW237011   3.805   1.380  10.892 -0.3745  1.7238 -0.0274
 8460SOL     OW37012   0.103   3.646   3.104  0.2466 -0.0635  0.0346
 8460SOL    HW137013   0.040   3.663   3.034  1.7395 -1.5785 -1.6742
 8460SOL    HW237014   0.141   3.564   3.071  1.6737  0.4509  0.4181
 8461SOL     OW37015   3.386   0.950   0.942 -0.3146 -0.3227 -0.1483
 8461SOL    HW137016   3.330   1.017   0.982 -0.9582 -0.6800 -0.4539
 8461SOL    HW237017   3.470   0.996   0.942  0.4331 -1.6717  0.8547
 8462SOL     OW37018   1.939   4.442   9.449  0.0289 -0.7280 -0.3070
 8462SOL    HW137019   1.971   4.528   9.478 -0.2172 -0.5954 -0.4277
 8462SOL    HW237020   1.910   4.466   9.361  1.2559  0.6949 -0.3206
 8463SOL     OW37021   3.347   4.743   5.053  0.1550  0.2657  0.1878
 8463SOL    HW137022   3.287   4.676   5.085  0.2523  0.2344  0.3035
 8463SOL    HW237023   3.432   4.702   5.036  0.0483 -0.4483  1.4332
 8464SOL     OW37024   3.268   3.950   0.179  0.0206 -0.8802 -0.3635
 8464SOL    HW137025   3.298   3.861   0.201  1.0697 -0.5136 -0.3017
 8464SOL    HW237026   3.280   3.988   0.266  1.7501 -0.1050 -0.9356
 8465SOL     OW37027   0.633   4.668   6.383 -0.0454 -0.6258 -0.9105
 8465SOL    HW137028   0.710   4.671   6.325  0.4439  0.1315 -0.2194
 8465SOL    HW237029   0.585   0.000   6.349  1.2831  0.6550  0.0690
 8466SOL     OW37030   2.079   0.669   3.338 -0.3611  0.3733  0.1675
 8466SOL    HW137031   2.115   0.756   3.359 -4.3806  2.0551  0.0458
 8466SOL    HW237032   2.077   0.675   3.243 -1.5600 -0.2982  0.1541
 8467SOL     OW37033   4.092   2.366  10.839  0.2237 -0.1214 -0.1813
 8467SOL    HW137034   4.058   2.437  10.784 -0.9245  0.4658  1.2629
 8467SOL    HW237035   4.147   2.305  10.790  0.0588 -0.5353  0.1472
 8468SOL     OW37036   4.449   2.443   8.316  0.3460  0.3189 -0.1193
 8468SOL    HW137037   4.540   2.428   8.288  0.0195 -0.6807 -0.6417
 8468SOL    HW237038   4.400   2.405   8.242  1.9476 -2.5722  0.2936
 8469SOL     OW37039   2.118   1.821   6.079 -0.0764 -0.3688  0.8705
 8469SOL    HW137040   2.087   1.838   6.168 -0.8333  1.6194  0.2232
 8469SOL    HW237041   2.168   1.739   6.086 -0.2866 -0.7424 -2.0119
 8470SOL     OW37042   0.314   1.236   6.620 -0.1093  0.1686 -0.1152
 8470SOL    HW137043   0.342   1.327   6.611 -1.3384  0.7912  2.4515
 8470SOL    HW237044   0.334   1.221   6.712 -2.5658  2.6257  0.7924
 8471SOL     OW37045   0.994   4.323   4.159  0.2302 -0.1645 -0.7980
 8471SOL    HW137046   1.007   4.239   4.115  0.0830 -0.2212 -0.7333
 8471SOL    HW237047   1.009   4.288   4.247  1.5945  2.2467 -0.0532
 8472SOL     OW37048   0.457   4.636   0.499  0.5634  0.0239  0.2891
 8472SOL    HW137049   0.499   4.601   0.420  0.5430 -1.3087  0.8710
 8472SOL    HW237050   0.524   4.651   0.565  0.1003  2.3933  0.2131
 8473SOL     OW37051   3.432   0.007   7.899  0.3443 -0.2772  0.4215
 8473SOL    HW137052   3.509   0.018   7.843  1.2166 -1.9613  1.2736
 8473SOL    HW237053   3.445   4.658   7.920 -1.9958 -0.6822 -0.0098
 8474SOL     OW37054   4.446   1.197   3.285 -0.3607 -0.2200  0.2549
 8474SOL    HW137055   4.441   1.151   3.369  0.9456  0.8674  0.9207
 8474SOL    HW237056   4.540   1.189   3.272 -0.1528  0.3407  1.3607
 8475SOL     OW37057   3.625   4.189   2.735 -0.2595 -0.2016 -0.0881
 8475SOL    HW137058   3.659   4.186   2.645 -0.3730 -1.2558 -0.1009
 8475SOL    HW237059   3.624   4.285   2.736 -1.0364 -0.1991 -1.0285
 8476SOL     OW37060   1.477   2.091  15.966 -0.2132  0.0126 -0.3657
 8476SOL    HW137061   1.505   2.133  16.047 -0.8972  0.1321 -0.1966
 8476SOL    HW237062   1.511   2.158  15.907 -1.3207  0.2239 -0.7612
 8477SOL     OW37063   2.095   1.959   6.896 -0.0741  0.4404  0.5575
 8477SOL    HW137064   2.137   1.915   6.970 -0.0382 -1.1688 -0.4196
 8477SOL    HW237065   2.036   2.009   6.952 -0.5954  1.5680 -0.9858
 8478SOL     OW37066   3.866   3.512   1.707 -0.2645  0.2695 -0.0194
 8478SOL    HW137067   3.824   3.511   1.793  1.8396  1.0354  1.0339
 8478SOL    HW237068   3.946   3.466   1.732 -0.6003  0.7860  2.0160
 8479SOL     OW37069   1.584   1.590   9.363  0.1653  0.0330  0.1599
 8479SOL    HW137070   1.617   1.574   9.452  1.4392 -0.4725 -0.4123
 8479SOL    HW237071   1.623   1.523   9.307 -0.7563 -0.1583 -0.2492
 8480SOL     OW37072   2.194   3.547   9.474 -0.4998  0.1080  0.5072
 8480SOL    HW137073   2.162   3.552   9.384  0.1202  1.0642  0.3403
 8480SOL    HW237074   2.234   3.460   9.476  0.6770  0.6731  1.4513
 8481SOL     OW37075   0.642   3.715  14.168 -0.3738  0.1778  0.4604
 8481SOL    HW137076   0.634   3.810  14.171 -1.1863  0.1248  0.0995
 8481SOL    HW237077   0.734   3.703  14.189 -0.7496  0.5728  2.3110
 8482SOL     OW37078   1.579   2.628   9.717  0.1733 -0.2596 -0.3717
 8482SOL    HW137079   1.629   2.686   9.774 -2.7098  2.7544 -0.9258
 8482SOL    HW237080   1.540   2.578   9.789 -1.3028 -0.1988 -1.1431
 8483SOL     OW37081   1.105   3.382   6.045  0.3735 -0.0164  0.1256
 8483SOL    HW137082   1.096   3.470   6.080 -0.6135  0.5031 -1.4348
 8483SOL    HW237083   1.025   3.371   5.993  2.0193 -0.3037 -2.3434
 8484SOL     OW37084   3.882   1.335   4.045  0.4034 -0.7868  0.5366
 8484SOL    HW137085   3.800   1.287   4.062  1.0014 -1.4964  1.4002
 8484SOL    HW237086   3.943   1.311   4.114  0.8890 -0.9088  0.0637
 8485SOL     OW37087   1.876   4.638  17.484 -0.0291  0.3148 -0.0578
 8485SOL    HW137088   1.848   4.713  17.432  2.7570 -0.0659 -2.1179
 8485SOL    HW237089   1.800   4.612  17.536  0.7253 -0.5844  0.5927
 8486SOL     OW37090   2.294   2.205  14.363  0.6216  0.8606  0.4738
 8486SOL    HW137091   2.200   2.211  14.380  0.4732  0.4096 -0.1973
 8486SOL    HW237092   2.325   2.129  14.413  0.9904  0.5602 -0.2162
 8487SOL     OW37093   4.211   0.481   2.668  0.0754  0.5112 -0.5814
 8487SOL    HW137094   4.208   0.519   2.581 -0.4558 -1.3329 -1.3720
 8487SOL    HW237095   4.211   0.391   2.636 -2.7878  0.6086 -0.8140
 8488SOL     OW37096   0.187   0.550   5.193  0.0028  0.2604  0.0021
 8488SOL    HW137097   0.168   0.536   5.285  1.2958 -0.3302  0.1778
 8488SOL    HW237098   0.100   0.537   5.154  0.1506 -2.1927  0.5298
 8489SOL     OW37099   4.691   2.137   6.265 -0.2072 -0.4883 -0.0206
 8489SOL    HW137100   4.667   2.220   6.224 -0.4442 -0.2686  0.5581
 8489SOL    HW237101   0.035   2.148   6.303  0.1277  0.7625 -1.1666
 8490SOL     OW37102   2.954   3.084   8.445  0.4331 -0.2986  0.2357
 8490SOL    HW137103   2.884   3.130   8.490  1.2072  2.3962 -1.2970
 8490SOL    HW237104   3.009   3.071   8.522  1.0251 -1.1170 -0.3178
 8491SOL     OW37105   2.805   0.461   6.646  0.8008 -0.3449 -0.0399
 8491SOL    HW137106   2.731   0.418   6.604  0.0473 -0.4365  1.3829
 8491SOL    HW237107   2.810   0.425   6.735 -1.4900 -0.1739  0.1662
 8492SOL     OW37108   3.780   0.211   2.621 -0.2391 -0.1004 -0.1044
 8492SOL    HW137109   3.859   0.233   2.572 -0.1201  2.3739  1.2385
 8492SOL    HW237110   3.718   0.180   2.554  0.2940 -0.6930 -0.3239
 8493SOL     OW37111   3.072   2.691   3.714 -0.5268  0.2553  0.2657
 8493SOL    HW137112   3.050   2.612   3.664 -0.2470  1.4145 -1.7004
 8493SOL    HW237113   3.019   2.684   3.793 -1.8538  1.4058 -0.5092
 8494SOL     OW37114   4.714   3.721  12.451  0.2895  0.3756  0.4917
 8494SOL    HW137115   4.742   3.686  12.367 -0.3996  2.4640 -0.6034
 8494SOL    HW237116   4.624   3.694  12.470  0.1957 -0.0219 -0.5148
 8495SOL     OW37117   1.918   4.108  14.719  0.0677 -0.5157  0.1818
 8495SOL    HW137118   1.887   4.030  14.765 -3.1516 -0.1626 -1.3531
 8495SOL    HW237119   1.852   4.126  14.652 -1.0911  0.3472  1.5514
 8496SOL     OW37120   0.541   2.252   6.790 -0.0032 -0.4058 -0.0981
 8496SOL    HW137121   0.453   2.222   6.817 -0.2173 -0.9311 -1.3553
 8496SOL    HW237122   0.605   2.223   6.855  1.2628 -0.6958 -1.4677
 8497SOL     OW37123   2.215   4.440   8.550  0.1612  0.4095 -0.2861
 8497SOL    HW137124   2.205   4.350   8.521  2.3483  0.4554 -1.1621
 8497SOL    HW237125   2.243   4.424   8.640 -0.3744  0.6966 -0.0693
 8498SOL     OW37126   3.993   4.299   5.201 -0.8653 -0.0381  0.4972
 8498SOL    HW137127   3.952   4.245   5.268  0.6661  0.3159  1.7242
 8498SOL    HW237128   3.915   4.350   5.179 -1.1010  0.1892  1.8635
 8499SOL     OW37129   1.444   3.292   1.937 -0.2723 -0.7544 -0.0936
 8499SOL    HW137130   1.379   3.254   1.997 -2.6159  1.5406 -1.1577
 8499SOL    HW237131   1.388   3.341   1.876  1.2112 -1.3622 -1.9590
 8500SOL     OW37132   3.267   4.004   0.436  0.3870 -0.0778  0.0280
 8500SOL    HW137133   3.307   3.977   0.518 -1.0321 -1.9073  0.1250
 8500SOL    HW237134   3.175   3.978   0.447  0.9410 -1.9084  0.1979
 8501SOL     OW37135   2.290   1.972   5.510  0.3388  0.1260 -0.1963
 8501SOL    HW137136   2.335   2.026   5.445 -1.4873  2.0922  0.1449
 8501SOL    HW237137   2.343   1.893   5.506  1.8501  1.1076  0.8973
 8502SOL     OW37138   2.273   0.212  14.743  0.4194  0.4558  1.1612
 8502SOL    HW137139   2.350   0.239  14.793  0.9267 -0.4557  0.8658
 8502SOL    HW237140   2.275   0.281  14.676 -0.5622 -0.2683  0.3872
 8503SOL     OW37141   2.118   2.660   1.470  0.4917  0.3671  0.2413
 8503SOL    HW137142   2.194   2.709   1.501  0.8301  0.9734 -1.5493
 8503SOL    HW237143   2.084   2.611   1.545  0.3212  0.4634  0.2263
 8504SOL     OW37144   3.552   3.750  14.291 -0.3365  0.0391 -0.4096
 8504SOL    HW137145   3.595   3.817  14.238  1.7054 -1.3102 -0.4556
 8504SOL    HW237146   3.550   3.798  14.374 -1.1350  0.4938 -0.6844
 8505SOL     OW37147   0.801   3.756   4.356 -0.3252  0.6241 -0.0888
 8505SOL    HW137148   0.713   3.786   4.379  0.1049  1.1241  0.9016
 8505SOL    HW237149   0.781   3.707   4.277 -4.1091  0.8465  0.7270
 8506SOL     OW37150   4.271   3.203  12.762 -0.0931  0.0724 -0.2497
 8506SOL    HW137151   4.322   3.127  12.790 -2.6065 -1.0723  1.2214
 8506SOL    HW237152   4.229   3.215  12.847 -0.5334  0.7993 -0.5754
 8507SOL     OW37153   1.472   4.294   2.492  0.4650  0.1376 -0.4532
 8507SOL    HW137154   1.561   4.311   2.522 -0.3521  2.8118  0.4079
 8507SOL    HW237155   1.489   4.244   2.412 -1.1299  0.5796 -1.0692
 8508SOL     OW37156   0.313   2.114  10.618  0.1411  0.4947  0.6650
 8508SOL    HW137157   0.360   2.056  10.558 -1.0260 -1.3483  1.5425
 8508SOL    HW237158   0.386   2.133  10.677  2.7173 -1.1063 -2.0028
 8509SOL     OW37159   2.898   3.497   6.580 -0.3000  0.3332  0.4972
 8509SOL    HW137160   2.986   3.513   6.546 -0.2440 -0.8348  0.0715
 8509SOL    HW237161   2.898   3.544   6.663 -1.3057 -1.8998  1.7445
 8510SOL     OW37162   1.038   4.121   2.784  0.3567  0.2555 -0.6705
 8510SOL    HW137163   1.098   4.164   2.722  1.2367  1.7351  1.2189
 8510SOL    HW237164   1.014   4.045   2.731 -1.2347 -1.2932  2.2619
 8511SOL     OW37165   4.622   1.539   1.796  0.3705  0.2511  0.2864
 8511SOL    HW137166   4.581   1.619   1.764 -1.0110 -0.5054  0.1911
 8511SOL    HW237167   4.682   1.521   1.723 -0.3136  1.1760 -0.4969
 8512SOL     OW37168   0.049   3.830   5.741 -0.4489 -0.7148 -0.3372
 8512SOL    HW137169   4.713   3.817   5.689  0.8468 -0.0036 -2.4966
 8512SOL    HW237170   0.107   3.803   5.670 -0.4601  1.3083 -1.1336
 8513SOL     OW37171   3.900   1.107   9.206  0.4747 -0.2541  0.3058
 8513SOL    HW137172   3.984   1.139   9.174 -0.0662  0.2963 -0.5538
 8513SOL    HW237173   3.934   1.059   9.282 -1.5429  0.9295  1.9630
 8514SOL     OW37174   4.523   0.520  15.311  0.4806  0.0553  0.5306
 8514SOL    HW137175   4.471   0.462  15.255 -1.5058 -0.0743  2.5229
 8514SOL    HW237176   4.606   0.477  15.292 -0.8060 -1.2536 -2.1746
 8515SOL     OW37177   1.348   1.980  13.303 -0.0705 -0.1826  0.5486
 8515SOL    HW137178   1.333   2.067  13.340  2.1794  0.5958 -0.3658
 8515SOL    HW237179   1.443   1.978  13.311 -0.0303  2.4254  0.7133
 8516SOL     OW37180   4.510   3.917  16.843 -0.0416  0.5386 -0.3414
 8516SOL    HW137181   4.439   3.951  16.897  0.6076  1.9668 -0.3995
 8516SOL    HW237182   4.486   3.937  16.753 -1.3958 -1.1882 -0.3633
 8517SOL     OW37183   2.556   2.995   5.328 -0.4392  0.6263  0.0755
 8517SOL    HW137184   2.523   2.995   5.418  2.3884  1.1802  1.1093
 8517SOL    HW237185   2.510   3.073   5.297 -0.1065  0.7028 -0.2338
 8518SOL     OW37186   1.295   0.111   5.042 -0.3612 -0.4187  0.0180
 8518SOL    HW137187   1.280   0.183   4.980  3.4983 -1.5227 -2.2067
 8518SOL    HW237188   1.389   0.100   5.027 -0.0473  1.7037  0.4355
 8519SOL     OW37189   1.934   2.854   5.436 -0.3719  0.1004 -0.1238
 8519SOL    HW137190   2.028   2.870   5.443 -0.5960  0.6805  1.6111
 8519SOL    HW237191   1.927   2.775   5.382 -1.6660 -0.3860  0.7589
 8520SOL     OW37192   3.039   3.013   6.175  0.1324  0.1083  0.1557
 8520SOL    HW137193   3.092   2.995   6.097  2.0987  2.0136  1.0160
 8520SOL    HW237194   2.960   3.049   6.135 -0.4769 -1.0814  0.2995
 8521SOL     OW37195   4.516   4.449  14.969 -0.0087 -0.6155  0.9605
 8521SOL    HW137196   4.466   4.526  14.942 -1.0498 -1.4103  0.6313
 8521SOL    HW237197   4.460   4.381  14.934 -0.4437 -0.7407  1.8973
 8522SOL     OW37198   0.319   3.660   5.588 -0.0717  0.1457 -0.4978
 8522SOL    HW137199   0.256   3.726   5.557  0.4588  1.1286  0.5139
 8522SOL    HW237200   0.370   3.718   5.644 -0.1424  1.5147 -1.8687
 8523SOL     OW37201   3.685   2.111   3.083  0.1995  0.8083 -0.0573
 8523SOL    HW137202   3.772   2.071   3.075  0.4879  1.9575 -2.5957
 8523SOL    HW237203   3.633   2.070   3.014  0.0042  0.1916  0.4512
 8524SOL     OW37204   3.805   0.172   5.027  0.2781  0.4610 -0.4306
 8524SOL    HW137205   3.736   0.122   4.985  0.7910 -0.5932 -0.0260
 8524SOL    HW237206   3.759   0.233   5.084 -1.4917 -0.4871 -0.8286
 8525SOL     OW37207   0.258   2.951   5.452  0.5506 -0.3458  0.2630
 8525SOL    HW137208   0.231   3.013   5.384  1.3431  0.2120  0.4472
 8525SOL    HW237209   0.194   2.972   5.519 -2.9015 -2.5806 -2.3539
 8526SOL     OW37210   2.303   1.565   8.500 -0.3510  0.1655  0.4389
 8526SOL    HW137211   2.341   1.478   8.512 -1.7459 -0.6425 -0.9553
 8526SOL    HW237212   2.310   1.595   8.591  1.3725 -0.6480  0.5755
 8527SOL     OW37213   1.113   2.729   4.629  0.4821  0.3915  0.1664
 8527SOL    HW137214   1.026   2.688   4.628  1.8726 -2.4775 -3.0112
 8527SOL    HW237215   1.162   2.650   4.651  1.2679  1.8327  3.5108
 8528SOL     OW37216   3.790   1.889   9.771  0.2364  0.7045 -0.4591
 8528SOL    HW137217   3.810   1.979   9.745  1.4477  1.1031  1.8593
 8528SOL    HW237218   3.697   1.883   9.749  0.4873  0.4266 -1.4568
 8529SOL     OW37219   2.987   3.937   3.902  0.4173  0.7841 -0.3477
 8529SOL    HW137220   3.029   3.876   3.842 -2.0999 -1.9070  0.6387
 8529SOL    HW237221   2.903   3.930   3.856  0.6434  2.3711 -1.0127
 8530SOL     OW37222   4.233   2.027   2.876 -0.3718 -0.2390  0.3957
 8530SOL    HW137223   4.220   1.988   2.790 -0.2675 -0.1900  0.3568
 8530SOL    HW237224   4.194   2.113   2.859 -0.1258 -0.2890 -0.4455
 8531SOL     OW37225   1.430   0.409   8.612 -0.0346  0.1925 -0.0462
 8531SOL    HW137226   1.472   0.374   8.690  0.4337 -0.9184 -0.7955
 8531SOL    HW237227   1.401   0.495   8.641 -0.0233  0.0589  0.3514
 8532SOL     OW37228   3.703   2.854   6.057  0.2557  0.2591  0.0865
 8532SOL    HW137229   3.669   2.894   5.976 -1.2033 -1.5084 -0.1851
 8532SOL    HW237230   3.778   2.806   6.022 -0.9013  1.3006 -3.8354
 8533SOL     OW37231   3.479   0.315   4.638 -0.5654  0.7064 -0.0625
 8533SOL    HW137232   3.434   0.397   4.657 -2.6771 -0.8811  1.7977
 8533SOL    HW237233   3.526   0.342   4.559 -0.8735 -0.0891 -0.5231
 8534SOL     OW37234   3.938   3.399   4.781  0.0591 -0.0598 -0.3926
 8534SOL    HW137235   3.889   3.408   4.863  0.8712 -1.3317  0.2263
 8534SOL    HW237236   4.014   3.350   4.810  0.6530  0.9791 -0.1926
 8535SOL     OW37237   1.950   1.329  13.581  0.2786  0.3164 -0.9916
 8535SOL    HW137238   1.958   1.396  13.513 -1.9209  2.6994  1.0576
 8535SOL    HW237239   1.911   1.381  13.651 -1.1804 -1.0489 -0.7890
 8536SOL     OW37240   3.182   3.280   8.473  0.3217 -0.3037  0.3020
 8536SOL    HW137241   3.104   3.307   8.425  0.9304 -0.1549 -0.6031
 8536SOL    HW237242   3.167   3.321   8.559 -1.5688  3.2826 -1.7201
 8537SOL     OW37243   1.568   2.740   5.130 -0.4134  0.1912 -0.4539
 8537SOL    HW137244   1.537   2.826   5.159 -0.1542 -0.4316  1.6749
 8537SOL    HW237245   1.493   2.703   5.084  1.1808 -2.6977 -0.7351
 8538SOL     OW37246   1.786   3.530   9.090 -0.2417  0.0087  0.0264
 8538SOL    HW137247   1.722   3.483   9.142  1.7316  0.8969  3.2696
 8538SOL    HW237248   1.872   3.516   9.129  0.9080 -0.9199 -2.8512
 8539SOL     OW37249   1.755   0.462   3.220 -0.5592 -0.0950 -0.0922
 8539SOL    HW137250   1.681   0.419   3.178  0.5056  1.3210 -3.4528
 8539SOL    HW237251   1.717   0.545   3.248 -3.0794 -0.4858 -2.3982
 8540SOL     OW37252   0.833   1.778   8.989  0.2290  0.5319  0.0132
 8540SOL    HW137253   0.741   1.752   8.993 -0.0376  1.1525 -1.9226
 8540SOL    HW237254   0.864   1.687   8.989 -0.4920  0.2884  0.6159
 8541SOL     OW37255   2.943   0.062   5.897  0.3538  0.2546 -0.0131
 8541SOL    HW137256   2.958   0.001   5.969 -1.5769  1.4105  1.3365
 8541SOL    HW237257   2.861   0.034   5.857  0.0395  0.3765  0.5589
 8542SOL     OW37258   1.848   2.707   4.358 -0.0241  0.2034 -0.0145
 8542SOL    HW137259   1.783   2.671   4.418 -0.2393  0.3573 -0.1523
 8542SOL    HW237260   1.818   2.672   4.273 -4.1274 -0.3829  1.6555
 8543SOL     OW37261   2.203   4.616   5.755 -0.0590 -0.3876 -0.5515
 8543SOL    HW137262   2.259   4.623   5.678 -0.5019 -0.2744 -0.8672
 8543SOL    HW237263   2.230   4.528   5.783 -1.1054 -0.8217 -0.9120
 8544SOL     OW37264   2.409   3.210   9.171 -0.3485 -0.5861  0.0854
 8544SOL    HW137265   2.451   3.294   9.151  0.0867 -0.5032  1.3018
 8544SOL    HW237266   2.391   3.232   9.263  1.1922  0.5012  0.1410
 8545SOL     OW37267   3.811   1.774   3.817  0.4049  0.7521  0.2434
 8545SOL    HW137268   3.738   1.747   3.761  0.2165  1.4415  0.1656
 8545SOL    HW237269   3.879   1.737   3.760  0.6530  0.5123  0.6872
 8546SOL     OW37270   4.469   1.752   4.178 -0.1175  0.0572 -0.4537
 8546SOL    HW137271   4.500   1.843   4.173  2.8187 -0.8304  1.7859
 8546SOL    HW237272   4.433   1.746   4.089 -2.6769  0.1279  0.5713
 8547SOL     OW37273   4.437   3.283   4.271  0.2710  0.0503  0.3500
 8547SOL    HW137274   4.379   3.299   4.345 -0.4924  0.5413 -0.3495
 8547SOL    HW237275   4.512   3.239   4.310  0.5360  0.3442  0.1699
 8548SOL     OW37276   0.197   3.314   1.320 -0.3869 -0.2692 -0.0262
 8548SOL    HW137277   0.120   3.292   1.373 -1.3427  1.1302 -0.8288
 8548SOL    HW237278   0.225   3.231   1.284  2.5501  2.0850 -3.0808
 8549SOL     OW37279   2.103   2.240   4.446  0.2307 -0.3463  0.2275
 8549SOL    HW137280   2.013   2.269   4.462 -0.3934 -1.9714 -0.3462
 8549SOL    HW237281   2.129   2.314   4.392 -2.3470 -0.0831 -0.6871
 8550SOL     OW37282   3.965   1.785  12.407  0.2412 -0.1130  0.2824
 8550SOL    HW137283   3.905   1.786  12.332 -0.8508 -1.0186  1.1383
 8550SOL    HW237284   4.035   1.735  12.366  0.1648  0.3543 -0.4113
 8551SOL     OW37285   1.533   3.581   7.077  0.4782  0.2944  0.1330
 8551SOL    HW137286   1.501   3.646   7.139 -1.9689 -3.2251  2.5653
 8551SOL    HW237287   1.484   3.594   6.996 -1.9061 -0.3957  1.4680
 8552SOL     OW37288   3.789   2.015   0.325 -0.1282 -0.4318 -0.3014
 8552SOL    HW137289   3.774   2.035   0.417 -0.1043 -2.4109  0.1465
 8552SOL    HW237290   3.712   1.963   0.301 -1.3966  0.7712  1.2168
 8553SOL     OW37291   3.709   3.479   9.540 -0.9120  0.0351  0.2673
 8553SOL    HW137292   3.777   3.511   9.598  0.1368 -0.8194 -0.4809
 8553SOL    HW237293   3.670   3.562   9.514 -0.3814  0.7915  1.8886
 8554SOL     OW37294   4.538   3.835   0.108 -0.4753 -0.3369 -0.1262
 8554SOL    HW137295   4.593   3.891   0.054  1.4367 -0.2082  1.9510
 8554SOL    HW237296   4.561   3.747   0.079 -0.0164  0.3150 -1.6964
 8555SOL     OW37297   4.015   2.831   9.133 -0.2556  0.5552  0.3913
 8555SOL    HW137298   3.950   2.880   9.184  1.1168  1.2353  1.4953
 8555SOL    HW237299   4.052   2.774   9.201  0.9618 -0.6583 -1.3121
 8556SOL     OW37300   1.218   4.593   6.530 -0.0103  0.3564 -0.0699
 8556SOL    HW137301   1.247   4.520   6.474 -0.8097 -1.3066  1.6974
 8556SOL    HW237302   1.123   4.593   6.516 -0.1456  1.4283  0.8484
 8557SOL     OW37303   1.307   3.042   3.999 -0.1935  0.1687 -0.0679
 8557SOL    HW137304   1.216   3.054   3.972 -0.0171  1.1928 -0.2158
 8557SOL    HW237305   1.311   3.121   4.053 -3.3157  0.5910 -0.4186
 8558SOL     OW37306   3.502   3.337   5.016 -0.7780 -0.3252  0.7906
 8558SOL    HW137307   3.433   3.272   5.029 -1.3648  0.6652  2.4904
 8558SOL    HW237308   3.464   3.423   5.030  1.6515  1.0277 -0.8731
 8559SOL     OW37309   3.850   3.917  14.694 -0.4020  0.4198  0.0424
 8559SOL    HW137310   3.784   3.936  14.628  0.6339 -1.6864 -1.5952
 8559SOL    HW237311   3.922   3.978  14.675  1.0566 -1.3481 -0.0805
 8560SOL     OW37312   1.838   0.841   8.876  0.8302 -0.3096  0.2443
 8560SOL    HW137313   1.814   0.750   8.856  1.1475 -0.2364 -0.4626
 8560SOL    HW237314   1.773   0.853   8.946 -0.4254  0.1177 -0.9881
 8561SOL     OW37315   3.246   0.600  17.712 -0.5463 -0.1718 -0.6530
 8561SOL    HW137316   3.188   0.676  17.702  0.1007  0.5557  1.0367
 8561SOL    HW237317   3.194   0.520  17.711  1.2498 -1.3574  1.0585
 8562SOL     OW37318   0.217   4.000   2.916  0.5191 -0.0939  0.1084
 8562SOL    HW137319   0.257   3.923   2.875  1.1607  0.2818  0.0401
 8562SOL    HW237320   0.125   3.987   2.895 -0.4801  2.3323  3.0459
 8563SOL     OW37321   3.605   1.469  13.711  0.1579  0.2332  0.2708
 8563SOL    HW137322   3.591   1.392  13.656 -0.8806  1.2943 -0.9468
 8563SOL    HW237323   3.582   1.542  13.653  1.3538  1.3633  1.2313
 8564SOL     OW37324   2.998   0.399   9.875  0.6655 -0.0720 -0.2054
 8564SOL    HW137325   2.944   0.321   9.863 -0.2626  0.5574 -0.1500
 8564SOL    HW237326   2.934   0.471   9.872 -0.7999 -1.3309  1.0185
 8565SOL     OW37327   3.038   1.160  17.428  0.3046 -0.5155  0.1252
 8565SOL    HW137328   3.073   1.206  17.352  0.1502 -2.5355 -1.1749
 8565SOL    HW237329   3.111   1.108  17.461 -2.0131 -3.5482  0.5383
 8566SOL     OW37330   1.094   2.360   2.981 -0.3353  0.1549  0.5103
 8566SOL    HW137331   1.179   2.327   3.010  0.2082  1.1040  0.0029
 8566SOL    HW237332   1.098   2.455   2.992 -2.8262 -0.1465  3.8748
 8567SOL     OW37333   0.659   3.344   3.199  0.0856 -0.1155 -0.1784
 8567SOL    HW137334   0.687   3.435   3.204  0.4597 -0.2871  0.8039
 8567SOL    HW237335   0.650   3.318   3.291  0.8524 -0.5337 -0.2205
 8568SOL     OW37336   2.002   2.066  11.738 -0.1661 -0.3918 -0.3332
 8568SOL    HW137337   2.073   2.022  11.691  0.4105 -0.3377  0.4868
 8568SOL    HW237338   1.973   2.112  11.660 -0.6232 -0.7019 -0.3468
 8569SOL     OW37339   3.991   2.975  14.459 -0.2970 -0.4339  0.0267
 8569SOL    HW137340   4.037   2.934  14.531  0.8061 -1.0353 -1.0242
 8569SOL    HW237341   3.935   2.906  14.422  1.5367 -0.1767 -3.1902
 8570SOL     OW37342   4.281   2.541   9.184  0.4004 -0.3242 -0.0115
 8570SOL    HW137343   4.284   2.446   9.201 -0.4865 -0.2071  0.8085
 8570SOL    HW237344   4.313   2.553   9.095  2.0401 -1.0147  0.4845
 8571SOL     OW37345   0.696   2.211  10.087 -0.1976  0.2544  0.0021
 8571SOL    HW137346   0.660   2.154  10.020  1.0670  2.2516 -2.3530
 8571SOL    HW237347   0.642   2.190  10.164 -1.0513  2.0328 -0.1005
 8572SOL     OW37348   4.588   3.349   3.069  0.2419 -0.1235 -0.8175
 8572SOL    HW137349   4.637   3.371   3.148  1.1960  1.4062 -1.8273
 8572SOL    HW237350   4.505   3.314   3.101  0.2799  2.4572  2.1007
 8573SOL     OW37351   2.760   4.106   6.118 -0.1392  0.0265  0.0034
 8573SOL    HW137352   2.809   4.150   6.189  0.6368  1.5367 -1.4575
 8573SOL    HW237353   2.774   4.016   6.147 -1.4265 -0.3853 -0.6972
 8574SOL     OW37354   4.033   0.098   2.749 -0.0449 -0.4412  0.0366
 8574SOL    HW137355   4.026   0.160   2.822  1.0037 -0.0299 -0.2079
 8574SOL    HW237356   3.940   0.091   2.731 -0.1831 -0.0220  0.5700
 8575SOL     OW37357   3.068   3.883  17.197  0.2038  0.0057  0.0420
 8575SOL    HW137358   3.060   3.888  17.102  0.2786  0.6463  0.0691
 8575SOL    HW237359   3.049   3.789  17.199 -0.0520  0.0515 -0.2529
 8576SOL     OW37360   1.085   3.351   1.126 -0.2491 -0.0728  0.2115
 8576SOL    HW137361   1.043   3.308   1.200  0.8140  1.3540  1.6407
 8576SOL    HW237362   1.176   3.327   1.143  0.1253  1.7759  0.7939
 8577SOL     OW37363   1.748   2.437   4.750 -0.0643  0.0770  0.2148
 8577SOL    HW137364   1.815   2.450   4.817 -0.2267  0.0116  0.3890
 8577SOL    HW237365   1.742   2.341   4.752  0.4032 -0.0132 -2.1231
 8578SOL     OW37366   0.286   1.048  13.935 -0.2009 -0.1717  0.2275
 8578SOL    HW137367   0.353   1.006  13.989 -0.6392 -0.5697  0.4564
 8578SOL    HW237368   0.270   0.975  13.876 -1.3233  0.2880 -0.0359
 8579SOL     OW37369   3.124   2.895   5.766  1.2524  0.5737 -0.1095
 8579SOL    HW137370   3.075   2.814   5.781  1.3944  0.8700  1.9862
 8579SOL    HW237371   3.105   2.914   5.674 -0.2890  0.9182  0.2742
 8580SOL     OW37372   0.011   2.313   3.593 -0.2255  0.0269 -0.4789
 8580SOL    HW137373   4.701   2.341   3.668  0.2379  0.8181 -0.4381
 8580SOL    HW237374   0.017   2.390   3.537  0.0384  1.1958  1.1610
 8581SOL     OW37375   1.795   3.709  17.436  0.5972 -0.2417 -0.5031
 8581SOL    HW137376   1.869   3.659  17.469 -0.1009 -1.6446 -1.0493
 8581SOL    HW237377   1.825   3.793  17.469 -2.9375  1.5089 -1.6695
 8582SOL     OW37378   3.022   4.380   1.671  0.8461  0.2464 -0.4951
 8582SOL    HW137379   3.089   4.362   1.605  0.0061 -1.5210 -0.8689
 8582SOL    HW237380   2.949   4.321   1.652 -1.6682  2.3271  2.5208
 8583SOL     OW37381   4.299   3.788   7.976  0.3917  0.3800  0.5503
 8583SOL    HW137382   4.229   3.787   7.911 -0.3510  0.4432  1.3457
 8583SOL    HW237383   4.242   3.793   8.052  1.3435  1.2804  1.2072
 8584SOL     OW37384   2.121   3.961   6.888  0.4367 -0.5806  0.2349
 8584SOL    HW137385   2.131   4.034   6.950  0.7862 -0.1120 -0.3702
 8584SOL    HW237386   2.034   3.924   6.903 -0.4640  2.0245  1.4312
 8585SOL     OW37387   1.714   4.396   4.897  0.3630  0.0153  0.1036
 8585SOL    HW137388   1.677   4.442   4.972 -1.3821 -0.3966 -0.5040
 8585SOL    HW237389   1.692   4.454   4.825 -2.5419  0.4102  1.3334
 8586SOL     OW37390   3.687   1.638   1.993 -0.1391 -0.0563 -1.1546
 8586SOL    HW137391   3.765   1.693   1.996  0.9204 -1.5989 -0.4670
 8586SOL    HW237392   3.678   1.621   1.900 -1.5349 -0.6421 -0.9199
 8587SOL     OW37393   3.485   3.871  12.108 -0.3891 -0.1879  0.0063
 8587SOL    HW137394   3.541   3.944  12.133 -0.4841 -0.9828  2.5127
 8587SOL    HW237395   3.440   3.847  12.189  0.4678  0.8705  0.7873
 8588SOL     OW37396   0.263   1.584   0.500 -0.0614 -0.4570 -0.6830
 8588SOL    HW137397   0.308   1.500   0.511  1.4502  0.2004 -1.9567
 8588SOL    HW237398   0.246   1.599   0.593 -1.4177  1.6796 -1.2891
 8589SOL     OW37399   4.155   4.569   5.493 -0.3273  0.4562  0.3399
 8589SOL    HW137400   4.126   4.644   5.441  1.6038  0.5573 -0.5865
 8589SOL    HW237401   4.220   4.609   5.550  0.8421  0.1819 -0.8006
 8590SOL     OW37402   3.859   2.769  14.348 -0.1844 -0.3181  0.3453
 8590SOL    HW137403   3.864   2.716  14.427  2.3063  2.3573  2.0251
 8590SOL    HW237404   3.934   2.750  14.291 -1.8624 -1.4447 -1.4723
 8591SOL     OW37405   2.086   3.676   5.331  0.2348  0.0289 -0.5378
 8591SOL    HW137406   2.057   3.713   5.248 -1.4923 -0.2534 -0.0522
 8591SOL    HW237407   2.100   3.586   5.301 -3.1128 -0.3389 -0.9507
 8592SOL     OW37408   3.738   3.047   2.874  0.4693 -0.1321 -0.1424
 8592SOL    HW137409   3.681   3.021   2.802 -1.7802 -0.4298  1.7612
 8592SOL    HW237410   3.671   3.065   2.940  2.3904 -1.1508  2.1015
 8593SOL     OW37411   4.676   1.056   8.978 -0.3668  0.4565 -0.4515
 8593SOL    HW137412   4.584   1.057   9.007 -0.4449  2.8303 -0.8109
 8593SOL    HW237413   4.701   0.979   9.030  0.1379  0.4513 -0.7031
 8594SOL     OW37414   3.291   0.277  10.765 -0.2528  0.5115 -0.1104
 8594SOL    HW137415   3.234   0.239  10.698 -0.0010  0.8840 -0.5317
 8594SOL    HW237416   3.246   0.256  10.847  0.5470 -1.4114 -0.1419
 8595SOL     OW37417   3.493   4.447   9.077  0.3034  0.1898 -0.0420
 8595SOL    HW137418   3.432   4.520   9.065 -0.8775 -0.3662  2.5295
 8595SOL    HW237419   3.561   4.464   9.012 -1.0291  1.0694 -1.1890
 8596SOL     OW37420   3.373   3.292   7.137 -0.1037 -0.4372 -0.1083
 8596SOL    HW137421   3.432   3.219   7.153  0.2233 -0.1185  0.1534
 8596SOL    HW237422   3.344   3.263   7.051  0.5597 -1.4454  0.0176
 8597SOL     OW37423   2.129   0.460   8.231 -0.0183  0.8867 -0.2880
 8597SOL    HW137424   2.119   0.399   8.158  0.5885  1.0433 -0.4984
 8597SOL    HW237425   2.207   0.502   8.195 -0.2871  0.9213 -0.8333
 8598SOL     OW37426   4.534   0.581   5.698 -0.0790  0.5283  0.5712
 8598SOL    HW137427   4.472   0.548   5.634 -1.1864 -2.7335  3.2686
 8598SOL    HW237428   4.522   0.676   5.706  1.0789  0.6438  1.0055
 8599SOL     OW37429   2.547   0.773   4.580  0.3216 -0.0636 -0.4345
 8599SOL    HW137430   2.608   0.845   4.595  1.5566 -1.1928 -0.0995
 8599SOL    HW237431   2.593   0.718   4.517  2.2029  2.2348 -1.0530
 8600SOL     OW37432   2.379   2.517   6.508  0.6019  0.3313  0.2893
 8600SOL    HW137433   2.326   2.559   6.576  0.1897 -0.0134  0.1806
 8600SOL    HW237434   2.309   2.471   6.461  1.9031 -1.2854 -0.0466
 8601SOL     OW37435   1.642   3.262   4.628 -0.0317  0.0022  0.3017
 8601SOL    HW137436   1.582   3.193   4.599  2.6306 -2.0247 -0.3589
 8601SOL    HW237437   1.632   3.248   4.723  0.0979  0.5492  0.3941
 8602SOL     OW37438   3.638   0.428   7.678 -0.2714 -0.0209 -0.5634
 8602SOL    HW137439   3.623   0.523   7.684 -1.4000 -0.3438  1.5775
 8602SOL    HW237440   3.556   0.400   7.637 -0.1476 -0.1288 -0.7416
 8603SOL     OW37441   0.912   3.735   4.701  0.5469 -0.6321 -0.4411
 8603SOL    HW137442   0.975   3.760   4.768  1.5447  0.4293 -1.7878
 8603SOL    HW237443   0.985   3.718   4.642 -0.7454 -0.5145 -2.0657
 8604SOL     OW37444   0.737   0.440   9.908 -0.3331 -0.5128  0.2732
 8604SOL    HW137445   0.719   0.499   9.982  1.9337 -1.2633  1.4279
 8604SOL    HW237446   0.810   0.384   9.934 -1.7078 -1.6030  1.7390
 8605SOL     OW37447   4.223   3.349   7.022  0.0291 -0.1116  0.3276
 8605SOL    HW137448   4.271   3.430   7.006  0.2287  0.0415  1.6912
 8605SOL    HW237449   4.201   3.306   6.940  0.7223  0.4100 -0.1406
 8606SOL     OW37450   0.378   2.583  17.108 -0.1095 -0.0435 -0.4088
 8606SOL    HW137451   0.464   2.597  17.068 -0.4705  2.2000 -0.3945
 8606SOL    HW237452   0.415   2.590  17.196 -0.1854  0.7373 -0.4408
 8607SOL     OW37453   3.433   2.222   7.917  0.7011  0.5965 -0.0138
 8607SOL    HW137454   3.451   2.131   7.944 -2.9729 -0.5003 -1.2468
 8607SOL    HW237455   3.367   2.256   7.977 -0.5046 -0.6396 -0.6446
 8608SOL     OW37456   1.513   0.277   9.042 -0.0724 -0.0437 -0.7318
 8608SOL    HW137457   1.522   0.324   9.125 -0.2702  1.1408 -1.3788
 8608SOL    HW237458   1.507   0.344   8.974  0.7810 -1.4665 -2.1974
 8609SOL     OW37459   1.847   0.382   9.988  0.5882 -0.4017  0.1252
 8609SOL    HW137460   1.907   0.404   9.916 -0.0198  1.5020  0.1977
 8609SOL    HW237461   1.772   0.346   9.941  1.1157 -1.1998 -0.1224
 8610SOL     OW37462   2.488   1.656   6.301 -0.1686  0.6522  0.8713
 8610SOL    HW137463   2.393   1.651   6.309 -0.1201 -0.0177  1.0309
 8610SOL    HW237464   2.490   1.686   6.210 -2.4982  0.0741  0.6392
 8611SOL     OW37465   2.501   2.730   7.126  0.2765  0.2940  0.1621
 8611SOL    HW137466   2.493   2.692   7.213 -2.3709 -1.5965 -0.9127
 8611SOL    HW237467   2.596   2.729   7.123  0.2406 -1.3894 -0.3889
 8612SOL     OW37468   4.421   0.386   1.137 -0.1905  0.7924  0.2069
 8612SOL    HW137469   4.516   0.385   1.123 -0.3769 -1.3454 -0.9309
 8612SOL    HW237470   4.429   0.420   1.226  1.9353 -2.7107  1.3271
 8613SOL     OW37471   2.162   4.119   9.766  0.4555  0.2860 -0.5336
 8613SOL    HW137472   2.206   4.159   9.842 -0.0420 -0.7719  0.3136
 8613SOL    HW237473   2.104   4.194   9.750 -2.1634 -1.3897  1.1737
 8614SOL     OW37474   2.138   2.739  10.592 -0.0660 -0.3726  0.0396
 8614SOL    HW137475   2.184   2.788  10.523  0.7894  1.9668  2.2829
 8614SOL    HW237476   2.189   2.659  10.605  1.5846  1.2894  3.8689
 8615SOL     OW37477   3.189   4.539   5.079 -0.3229 -0.3224 -0.0119
 8615SOL    HW137478   3.134   4.579   5.012 -0.7890  1.9781  1.7675
 8615SOL    HW237479   3.165   4.447   5.065  1.8455 -0.6169 -1.9235
 8616SOL     OW37480   3.242   2.620   4.515 -0.3712 -0.1810  0.3711
 8616SOL    HW137481   3.286   2.616   4.430  1.7705 -0.5363  1.4866
 8616SOL    HW237482   3.189   2.699   4.507  2.1373  1.4500 -0.1404
 8617SOL     OW37483   1.720   0.783   9.738 -0.1672  0.2320 -0.0414
 8617SOL    HW137484   1.692   0.817   9.823 -1.9847 -1.3816  0.0151
 8617SOL    HW237485   1.772   0.862   9.726 -2.3318  1.3715 -2.1372
 8618SOL     OW37486   1.797   3.656  10.797 -0.0925  0.8344  0.1193
 8618SOL    HW137487   1.841   3.736  10.826 -0.2664  0.7187  0.7104
 8618SOL    HW237488   1.727   3.695  10.745 -0.9364 -0.2189  0.4478
 8619SOL     OW37489   2.697   2.473   9.331 -0.2748  0.4341  0.5697
 8619SOL    HW137490   2.706   2.541   9.397 -1.0066  1.3258 -0.2469
 8619SOL    HW237491   2.725   2.395   9.379 -0.9695  0.2545  0.6926
 8620SOL     OW37492   2.281   2.766  11.891 -0.1540 -0.2344  0.1805
 8620SOL    HW137493   2.316   2.763  11.979 -0.3825 -1.1197  0.2417
 8620SOL    HW237494   2.355   2.732  11.841  0.2797  0.7042  0.1892
 8621SOL     OW37495   2.080   1.384   4.892 -0.0082 -0.0610 -0.7503
 8621SOL    HW137496   2.042   1.310   4.845 -0.3115  0.4294 -1.2764
 8621SOL    HW237497   2.066   1.362   4.984  0.6532  3.5975  0.2206
 8622SOL     OW37498   0.180   4.417   4.533 -0.2136 -0.2033 -0.2569
 8622SOL    HW137499   0.209   4.426   4.624  0.0635 -0.4030 -0.3245
 8622SOL    HW237500   0.262   4.449   4.498  0.5736 -2.4456 -0.4784
 8623SOL     OW37501   3.193   1.318   4.217 -0.1320 -0.1477  0.3859
 8623SOL    HW137502   3.141   1.356   4.145 -1.7245  0.9303  2.0942
 8623SOL    HW237503   3.159   1.231   4.236 -1.3775  0.2898  0.1784
 8624SOL     OW37504   0.670   2.882   4.602  0.1263  0.4406  0.3111
 8624SOL    HW137505   0.639   2.960   4.647  2.0678  1.2768  0.2338
 8624SOL    HW237506   0.761   2.913   4.594 -0.2463  1.9232  1.7668
 8625SOL     OW37507   0.602   3.616   6.993  0.0386  0.0448 -0.3240
 8625SOL    HW137508   0.542   3.553   6.952  0.0269  1.5265 -2.5755
 8625SOL    HW237509   0.682   3.581   6.952 -1.0636 -0.1662 -2.2888
 8626SOL     OW37510   1.571   3.499  16.046 -0.6022  0.1159  0.1955
 8626SOL    HW137511   1.598   3.459  16.128 -0.4399  0.0257  0.0997
 8626SOL    HW237512   1.637   3.569  16.039 -0.4716 -0.0610 -0.3753
 8627SOL     OW37513   2.189   2.543   5.126 -0.3023  0.2086 -0.0776
 8627SOL    HW137514   2.238   2.582   5.055  0.8511 -2.1655 -0.5953
 8627SOL    HW237515   2.201   2.448   5.119 -0.5436  0.2810 -1.4907
 8628SOL     OW37516   3.604   1.035  16.880 -0.2234  0.2022  0.6344
 8628SOL    HW137517   3.646   1.041  16.966  2.7177 -2.4813 -0.6259
 8628SOL    HW237518   3.616   0.941  16.869 -1.0966  0.3150 -1.2779
 8629SOL     OW37519   0.526   4.439   1.816  0.7177 -0.0149  0.8683
 8629SOL    HW137520   0.499   4.347   1.807 -1.5882  0.6012  1.5353
 8629SOL    HW237521   0.439   4.473   1.799  1.1311 -0.6995 -2.7119
 8630SOL     OW37522   0.094   2.246   5.529 -0.3219  0.3448  0.0361
 8630SOL    HW137523   0.178   2.218   5.564 -1.0741 -0.4291  1.2347
 8630SOL    HW237524   0.073   2.178   5.464  0.6548 -0.4887  0.5872
 8631SOL     OW37525   3.311   0.545   9.267 -0.0059  0.5326 -0.2463
 8631SOL    HW137526   3.313   0.489   9.189 -2.6074  1.2069 -0.7972
 8631SOL    HW237527   3.291   0.633   9.233 -0.4101  1.3410  2.1043
 8632SOL     OW37528   2.788   1.013   7.047 -0.1044 -0.0735  0.0925
 8632SOL    HW137529   2.847   1.088   7.040  0.1397 -0.3169 -0.4440
 8632SOL    HW237530   2.830   0.955   6.985  0.6922  0.8926 -0.2723
 8633SOL     OW37531   0.218   4.305  12.763 -0.2663 -0.2107 -0.2862
 8633SOL    HW137532   0.230   4.235  12.699  2.7264  0.3618 -0.3743
 8633SOL    HW237533   0.197   4.378  12.704 -1.1927 -0.9499 -0.8601
 8634SOL     OW37534   3.731   1.223   6.880  0.5126 -0.2344 -0.2614
 8634SOL    HW137535   3.715   1.218   6.974 -2.0872 -4.3831 -0.9099
 8634SOL    HW237536   3.824   1.244   6.886  0.0553  1.6116  0.4370
 8635SOL     OW37537   1.710   3.410   1.809  0.1171 -0.0909 -0.4314
 8635SOL    HW137538   1.665   3.493   1.791 -1.5945 -0.5292  1.8506
 8635SOL    HW237539   1.643   3.368   1.863  1.6748 -1.0408  0.7333
 8636SOL     OW37540   1.417   2.941   1.895 -0.3840 -0.5848  0.3153
 8636SOL    HW137541   1.322   2.938   1.885 -0.3399  0.0600 -0.3498
 8636SOL    HW237542   1.447   2.861   1.852  0.1959 -0.3510  0.2788
 8637SOL     OW37543   1.321   4.130  12.090 -0.3431  0.2929  0.2313
 8637SOL    HW137544   1.328   4.078  12.010 -0.2738  0.0568  0.3894
 8637SOL    HW237545   1.235   4.111  12.126 -1.5871  1.8950 -1.9386
 8638SOL     OW37546   3.688   2.673   3.539 -0.1149 -0.4659  0.4098
 8638SOL    HW137547   3.722   2.693   3.452  2.5277 -0.5066  1.4481
 8638SOL    HW237548   3.639   2.593   3.519 -2.1492  0.6898  0.6974
 8639SOL     OW37549   3.273   0.008  16.023  0.8067  0.3277  0.0726
 8639SOL    HW137550   3.325   4.698  16.083  0.9706 -0.6957 -0.9765
 8639SOL    HW237551   3.187   4.729  16.059  1.5099 -2.0539  0.2370
 8640SOL     OW37552   2.253   2.817   3.944  0.5593  0.1404  0.5012
 8640SOL    HW137553   2.344   2.848   3.939  0.6475 -0.3867 -1.2780
 8640SOL    HW237554   2.233   2.861   4.027  2.4374  1.7478  0.1133
 8641SOL     OW37555   3.620   2.993   9.457 -0.8415 -1.1476 -0.3953
 8641SOL    HW137556   3.702   2.944   9.463  0.7593  1.5173 -0.6971
 8641SOL    HW237557   3.648   3.085   9.456 -0.1900 -1.3225  1.4527
 8642SOL     OW37558   1.200   3.476   9.199 -0.5856  0.0823 -0.3850
 8642SOL    HW137559   1.250   3.395   9.186  1.5644  0.8925  2.8136
 8642SOL    HW237560   1.236   3.521   9.122  0.8417 -0.1015  0.1593
 8643SOL     OW37561   1.394   3.784   3.553 -0.2134 -0.4818  0.6183
 8643SOL    HW137562   1.382   3.727   3.478 -0.1347 -0.5453  0.6543
 8643SOL    HW237563   1.469   3.838   3.526  1.8805 -3.4539  0.4477
 8644SOL     OW37564   3.318   3.342  17.500 -0.3400 -0.2919 -0.8823
 8644SOL    HW137565   3.290   3.269  17.445 -0.5693 -1.9667  1.4433
 8644SOL    HW237566   3.233   3.375  17.527 -0.2649 -1.4145  0.7331
 8645SOL     OW37567   0.390   1.921   4.569 -0.0510 -0.2080  0.1618
 8645SOL    HW137568   0.441   1.994   4.533 -1.6713  0.5169 -0.6217
 8645SOL    HW237569   0.313   1.925   4.512  1.4294 -0.6572 -1.9062
 8646SOL     OW37570   0.348   3.214  14.063 -0.1251  0.3699  0.4451
 8646SOL    HW137571   0.330   3.299  14.103  0.1073  0.3084  0.6833
 8646SOL    HW237572   0.319   3.230  13.973 -0.6087  1.8103  0.8577
 8647SOL     OW37573   0.605   4.231   6.916 -0.3417  0.2450 -0.1371
 8647SOL    HW137574   0.572   4.158   6.864 -3.3198  0.4946  1.3548
 8647SOL    HW237575   0.579   4.205   7.004 -0.8627 -0.6804 -0.5673
 8648SOL     OW37576   2.909   3.455   7.283 -0.4981 -0.5220  0.7483
 8648SOL    HW137577   2.828   3.413   7.311  0.2715 -1.1089  2.1052
 8648SOL    HW237578   2.963   3.378   7.264  2.6873  1.1639  2.8544
 8649SOL     OW37579   2.828   4.588   7.952 -0.7942 -0.2511 -0.2256
 8649SOL    HW137580   2.771   4.632   7.890 -1.4348 -2.8220 -1.4741
 8649SOL    HW237581   2.813   4.652   8.022  4.6915  0.6126  0.1552
 8650SOL     OW37582   0.884   2.411   2.549  0.7192 -0.3664  0.2867
 8650SOL    HW137583   0.837   2.487   2.583  0.5750  0.4471 -1.7293
 8650SOL    HW237584   0.823   2.337   2.550 -1.6324  1.5765  0.9254
 8651SOL     OW37585   3.808   4.616   0.023  0.5494  0.2185 -0.1245
 8651SOL    HW137586   3.839   4.697  17.754  0.6092 -0.6043 -1.7499
 8651SOL    HW237587   3.856   4.612   0.105 -0.8027 -0.8558  0.6191
 8652SOL     OW37588   1.727   0.683  14.143 -0.4120 -0.1100 -0.0261
 8652SOL    HW137589   1.707   0.713  14.232 -1.3570 -0.3118 -0.1706
 8652SOL    HW237590   1.783   0.754  14.111  1.4356 -1.1409  0.8707
 8653SOL     OW37591   3.004   1.439   9.955 -0.1377  0.0614 -0.4457
 8653SOL    HW137592   3.000   1.511  10.017  2.5675 -2.0340  2.1827
 8653SOL    HW237593   2.932   1.459   9.895  0.3145  1.0069 -0.6671
 8654SOL     OW37594   3.069   3.586   8.631 -0.6435 -0.3810  0.0029
 8654SOL    HW137595   2.979   3.563   8.651 -0.7435 -2.6732 -2.9604
 8654SOL    HW237596   3.062   3.613   8.539 -0.3458  1.7876  0.6334
 8655SOL     OW37597   3.692   3.719  10.632  0.6507 -0.2976  0.5452
 8655SOL    HW137598   3.635   3.696  10.706  1.6985  0.5169  1.6023
 8655SOL    HW237599   3.752   3.777  10.679  0.3752  0.6062 -0.2177
 8656SOL     OW37600   2.731   0.020   2.518 -0.1160  0.4804 -0.5816
 8656SOL    HW137601   2.758   4.685   2.470 -1.9699 -0.1354 -0.6158
 8656SOL    HW237602   2.679   0.059   2.448  2.3160  1.1289 -2.0338
 8657SOL     OW37603   1.880   1.576  16.702  0.3224 -0.7866 -0.5817
 8657SOL    HW137604   1.840   1.591  16.788  0.1296 -0.5517 -0.7114
 8657SOL    HW237605   1.810   1.526  16.662  1.2628 -2.3127 -0.3150
 8658SOL     OW37606   0.106   2.199   4.033 -0.5193 -0.8607  0.0281
 8658SOL    HW137607   0.055   2.280   4.029  0.6280 -0.1378 -0.1786
 8658SOL    HW237608   0.108   2.177   3.940 -2.3450 -1.9820  0.2621
 8659SOL     OW37609   3.353   3.669   8.141  0.2419  0.3112 -0.0857
 8659SOL    HW137610   3.381   3.731   8.073  0.9677  0.1658  0.0728
 8659SOL    HW237611   3.391   3.711   8.218 -0.5634  0.4436  0.2302
 8660SOL     OW37612   2.433   2.295   8.881 -0.0575 -0.5856  0.0603
 8660SOL    HW137613   2.499   2.308   8.949 -1.1197  1.7978  0.6191
 8660SOL    HW237614   2.430   2.383   8.843  0.5257 -0.5287  0.1444
 8661SOL     OW37615   4.213   1.162  11.212  0.5181  0.1460  0.1861
 8661SOL    HW137616   4.307   1.174  11.220  0.1278 -0.4322  5.4677
 8661SOL    HW237617   4.189   1.190  11.300 -1.6903  0.6534 -0.5672
 8662SOL     OW37618   1.043   0.375  14.622 -0.6045  0.2122 -0.5295
 8662SOL    HW137619   1.097   0.403  14.696  0.8624  0.7431 -1.8137
 8662SOL    HW237620   1.108   0.370  14.552  0.7529 -0.0518  0.7358
 8663SOL     OW37621   1.926   0.951   5.552  0.1402 -0.9009 -0.2552
 8663SOL    HW137622   1.875   0.943   5.471 -1.6946 -1.2620  0.9396
 8663SOL    HW237623   1.892   0.878   5.603 -2.1004 -1.2246 -2.1770
 8664SOL     OW37624   4.045   0.006   5.020  0.3958  0.0411  0.6570
 8664SOL    HW137625   4.047   0.079   4.958 -1.5907 -1.0666 -0.7006
 8664SOL    HW237626   4.130   4.710   5.001 -0.2324  0.1567 -2.3696
 8665SOL     OW37627   2.548   1.091   3.753 -0.2066 -0.6449 -0.4650
 8665SOL    HW137628   2.494   1.012   3.758 -0.6044 -0.2702  1.1570
 8665SOL    HW237629   2.553   1.097   3.658 -0.9362 -1.2087 -0.5345
 8666SOL     OW37630   4.122   3.317   8.346 -0.0088 -0.6984  0.2715
 8666SOL    HW137631   4.072   3.278   8.274 -0.1706  0.6101 -0.3249
 8666SOL    HW237632   4.054   3.331   8.411  1.3055  1.5379  1.1568
 8667SOL     OW37633   0.666   1.453   6.246  0.6651  0.2983 -0.3361
 8667SOL    HW137634   0.602   1.430   6.178  0.1274 -2.7112  1.1799
 8667SOL    HW237635   0.651   1.377   6.302  0.2150  1.5242  1.2070
 8668SOL     OW37636   1.576   3.040   1.710  0.2930  0.3535 -0.0263
 8668SOL    HW137637   1.531   3.027   1.793  2.0743  0.1165  0.9168
 8668SOL    HW237638   1.504   3.068   1.654  1.6786  1.1604 -1.3937
 8669SOL     OW37639   1.232   3.881   2.833  0.9636  0.0915 -0.2432
 8669SOL    HW137640   1.219   3.799   2.785  2.8602 -0.5437  0.3356
 8669SOL    HW237641   1.264   3.929   2.756  0.2450 -2.8648 -2.4040
 8670SOL     OW37642   3.665   4.685   3.109 -0.6858 -1.0128 -0.2485
 8670SOL    HW137643   3.669   4.740   3.031 -1.4548 -0.8869 -0.1983
 8670SOL    HW237644   3.576   4.651   3.114 -0.9643 -0.1322  0.7695
 8671SOL     OW37645   4.059   0.819   2.439  0.2876  0.1666 -0.1403
 8671SOL    HW137646   4.091   0.909   2.448  0.6426  0.0614 -0.3171
 8671SOL    HW237647   4.139   0.767   2.450  0.2433  0.3771  1.2179
 8672SOL     OW37648   4.414   0.976   2.960  0.1165 -0.1915  0.1266
 8672SOL    HW137649   4.467   1.044   2.919 -0.2974 -0.3630 -0.6935
 8672SOL    HW237650   4.489   0.929   2.997 -0.1648  0.4468  1.5275
 8673SOL     OW37651   4.405   4.493   9.378 -0.1550  0.4642 -0.1527
 8673SOL    HW137652   4.363   4.453   9.302  1.9650 -2.8508  0.4019
 8673SOL    HW237653   4.382   4.429   9.446  0.8649  0.6743  0.3896
 8674SOL     OW37654   1.986   0.709  13.650  0.6929  0.0037  0.2532
 8674SOL    HW137655   1.962   0.626  13.692  1.8266  0.1180  1.1177
 8674SOL    HW237656   1.901   0.750  13.631  1.2759 -0.1198 -2.6207
 8675SOL     OW37657   2.553   0.180   2.752 -0.4044  0.1033 -0.7248
 8675SOL    HW137658   2.476   0.201   2.806 -0.7816 -0.6213 -0.9759
 8675SOL    HW237659   2.517   0.195   2.664  1.0004 -0.1579 -1.3321
 8676SOL     OW37660   2.680   3.307  16.176 -0.0471 -0.0576  0.0465
 8676SOL    HW137661   2.599   3.258  16.162 -0.0169  0.6226 -2.5087
 8676SOL    HW237662   2.661   3.354  16.257 -0.2326 -0.8590  0.4646
 8677SOL     OW37663   1.224   0.244   4.542  0.5420 -0.4666  1.1319
 8677SOL    HW137664   1.220   0.195   4.459  2.4741  1.8013 -0.2780
 8677SOL    HW237665   1.312   0.277   4.554  0.4710  0.0947  0.1188
 8678SOL     OW37666   0.943   3.612  11.821 -0.0778  0.6058  0.5669
 8678SOL    HW137667   0.924   3.523  11.790 -0.3319  0.7624  0.2720
 8678SOL    HW237668   0.858   3.645  11.792 -0.1547  0.3052  0.4467
 8679SOL     OW37669   0.302   3.915  15.373 -0.0985  0.0823 -0.8473
 8679SOL    HW137670   0.314   3.999  15.416  1.7327 -0.5829 -0.0415
 8679SOL    HW237671   0.391   3.889  15.347 -0.0462  0.1557 -0.7420
 8680SOL     OW37672   0.665   1.915  14.096  0.2369  0.4531  0.2315
 8680SOL    HW137673   0.596   1.917  14.163  0.0765  0.6764  0.0627
 8680SOL    HW237674   0.733   1.961  14.146  1.6843 -1.3141 -0.1489
 8681SOL     OW37675   2.010   0.312   4.635  0.0047  0.3802  0.0555
 8681SOL    HW137676   1.950   0.242   4.663  0.1810  0.2721  0.1618
 8681SOL    HW237677   2.068   0.321   4.710  1.0286  1.1218 -0.8405
 8682SOL     OW37678   3.007   0.582  10.477  0.3084  0.3309  0.0090
 8682SOL    HW137679   3.050   0.632  10.408  1.5293 -0.8372 -0.0850
 8682SOL    HW237680   3.069   0.592  10.550 -0.0399 -1.5349  0.5707
 8683SOL     OW37681   0.782   3.758   5.105 -0.1618 -0.0692  0.0380
 8683SOL    HW137682   0.766   3.782   5.197  0.7844 -0.4955  0.3094
 8683SOL    HW237683   0.786   3.843   5.063  0.0405 -0.3239 -0.4608
 8684SOL     OW37684   2.614   4.669   3.647  0.6831 -0.0414  0.1307
 8684SOL    HW137685   2.519   4.655   3.642  0.5207  0.7526  1.0557
 8684SOL    HW237686   2.633   4.580   3.677  0.2055 -0.1421  0.1294
 8685SOL     OW37687   0.184   0.305   9.241  0.0145 -0.1381  0.2954
 8685SOL    HW137688   0.267   0.346   9.218  0.2559 -0.9291 -0.2568
 8685SOL    HW237689   0.207   0.251   9.316  1.0942 -2.2837 -1.5818
 8686SOL     OW37690   0.933   1.588  15.879 -0.0775  0.3918 -0.2687
 8686SOL    HW137691   0.864   1.524  15.894  0.0759 -0.2810 -2.4232
 8686SOL    HW237692   0.892   1.660  15.926 -0.8938 -0.9756  1.1085
 8687SOL     OW37693   4.143   0.210   6.852  0.2010 -0.0706  0.3843
 8687SOL    HW137694   4.231   0.173   6.852  0.2192 -0.0247  0.5430
 8687SOL    HW237695   4.152   0.298   6.888  0.6717  0.5621 -1.2591
 8688SOL     OW37696   1.487   4.692   7.822 -0.1148  0.4315 -0.1186
 8688SOL    HW137697   1.515   4.622   7.881 -0.7386  0.7127  0.5119
 8688SOL    HW237698   1.534   4.688   7.739 -0.6125  2.2545 -0.4776
 8689SOL     OW37699   2.708   0.902   1.901  0.4402 -0.0990  0.5931
 8689SOL    HW137700   2.688   0.808   1.901  0.8390 -0.1824  0.4135
 8689SOL    HW237701   2.761   0.909   1.822  0.3376 -0.3579  0.5010
 8690SOL     OW37702   0.189   1.004   5.872  0.9422 -0.0852  0.3752
 8690SOL    HW137703   0.140   1.086   5.871  1.7181  0.3854  0.5348
 8690SOL    HW237704   0.224   0.998   5.961  0.4493  0.9048  0.6448
 8691SOL     OW37705   2.911   3.549   1.899  0.3341  0.5727 -0.6718
 8691SOL    HW137706   2.987   3.543   1.842  1.9606  0.8354  1.5005
 8691SOL    HW237707   2.928   3.486   1.969 -1.5297 -1.5106 -2.1011
 8692SOL     OW37708   0.666   4.579   4.991  0.4706  0.1867 -0.4700
 8692SOL    HW137709   0.713   4.637   4.930  0.4017  1.2369  0.4660
 8692SOL    HW237710   0.737   4.521   5.016  0.7828  0.1743 -1.3690
 8693SOL     OW37711   2.278   2.479   3.574  0.4416  0.3582  0.2991
 8693SOL    HW137712   2.264   2.537   3.648 -0.0207 -0.0572  0.5384
 8693SOL    HW237713   2.230   2.523   3.504  0.1834  0.0997  0.3139
 8694SOL     OW37714   4.047   2.697   2.161 -0.0987  0.0875  0.5243
 8694SOL    HW137715   4.096   2.623   2.125 -0.0230  0.7963 -0.8269
 8694SOL    HW237716   4.090   2.773   2.123 -0.8933  0.6910  0.8416
 8695SOL     OW37717   4.740   4.404  14.391 -0.2795  0.1669  0.2019
 8695SOL    HW137718   4.662   4.443  14.352 -0.9626  0.3777  1.7609
 8695SOL    HW237719   4.719   4.408  14.485 -2.1512 -0.0161 -0.2110
 8696SOL     OW37720   4.376   4.285   5.989  0.2026  0.3880 -0.3699
 8696SOL    HW137721   4.325   4.316   6.063 -1.1053 -1.4052 -0.5212
 8696SOL    HW237722   4.322   4.208   5.971 -0.0062  0.4875 -0.1726
 8697SOL     OW37723   1.284   1.732  13.152  0.1620 -0.2987 -0.9027
 8697SOL    HW137724   1.311   1.772  13.069 -0.2222  0.1594 -0.8065
 8697SOL    HW237725   1.295   1.812  13.202 -2.0408 -0.5636  0.0278
 8698SOL     OW37726   2.387   2.191  11.498  0.6532  0.2395 -0.9451
 8698SOL    HW137727   2.377   2.272  11.448 -0.4922  1.6677  1.6211
 8698SOL    HW237728   2.458   2.218  11.557 -0.7754 -0.2692  1.0012
 8699SOL     OW37729   0.454   0.097   1.963  0.2163  0.6673 -0.8827
 8699SOL    HW137730   0.533   0.056   1.928 -0.5525 -0.2656 -1.5242
 8699SOL    HW237731   0.484   0.188   1.957 -1.2554  1.2352  0.5266
 8700SOL     OW37732   3.056   0.798  17.639 -0.3533 -0.0932  0.2076
 8700SOL    HW137733   2.994   0.738  17.597 -0.6135  0.5002 -0.2607
 8700SOL    HW237734   2.996   0.850  17.694 -0.3947  2.3346 -2.1547
 8701SOL     OW37735   2.846   3.150   5.697  0.2803  0.1681  0.0041
 8701SOL    HW137736   2.822   3.173   5.787  1.9530 -1.8950  0.9924
 8701SOL    HW237737   2.834   3.055   5.701 -0.5804  0.2592 -0.4317
 8702SOL     OW37738   1.896   1.709   1.439  0.4761 -0.0392 -0.1362
 8702SOL    HW137739   1.974   1.702   1.383  0.9417  1.3896  0.3447
 8702SOL    HW237740   1.930   1.776   1.498 -0.0206  0.0295  0.0692
 8703SOL     OW37741   4.365   1.380   9.734  0.4204 -0.1215  0.1230
 8703SOL    HW137742   4.364   1.468   9.772  0.7837  0.3421 -0.9478
 8703SOL    HW237743   4.338   1.394   9.643 -0.6457  2.0351  0.7764
 8704SOL     OW37744   2.350   2.038   6.083  0.0198 -0.0667  0.1638
 8704SOL    HW137745   2.359   2.130   6.061  0.4916 -0.5814 -1.7429
 8704SOL    HW237746   2.255   2.026   6.080 -0.1506  1.1093  0.8101
 8705SOL     OW37747   1.462   1.165   6.617 -0.3461 -0.3650  0.0975
 8705SOL    HW137748   1.414   1.247   6.633 -1.5295 -1.2145  0.9021
 8705SOL    HW237749   1.547   1.191   6.583 -0.9561  2.0921  0.4033
 8706SOL     OW37750   4.232   4.337  10.921  0.3448 -0.0001 -0.4770
 8706SOL    HW137751   4.241   4.324  11.015 -0.7470  0.2684 -0.3403
 8706SOL    HW237752   4.322   4.358  10.896 -0.2154  0.8457 -1.8135
 8707SOL     OW37753   2.407   1.744   6.964 -0.2639 -0.4160 -0.1480
 8707SOL    HW137754   2.362   1.660   6.964  1.1005 -1.1436  2.3678
 8707SOL    HW237755   2.358   1.794   7.030  1.6706 -1.7287  2.2881
 8708SOL     OW37756   0.592   1.561  12.472 -0.3061  0.0453  0.6139
 8708SOL    HW137757   0.623   1.598  12.555  1.0683 -0.1456  0.1804
 8708SOL    HW237758   0.582   1.467  12.491  2.1933  0.0511  1.9579
 8709SOL     OW37759   1.289   0.226  11.573 -0.7502  0.2377  0.3581
 8709SOL    HW137760   1.278   0.165  11.645 -0.3701 -0.3386 -0.0672
 8709SOL    HW237761   1.340   0.176  11.509 -1.7216 -1.0910  0.6289
 8710SOL     OW37762   4.153   2.691   7.748  0.4759  0.3068 -0.3017
 8710SOL    HW137763   4.210   2.668   7.821  0.1331 -0.9138 -0.4267
 8710SOL    HW237764   4.193   2.772   7.715 -1.3074  1.1243 -0.4867
 8711SOL     OW37765   3.184   3.943   4.837 -0.0692 -0.1522 -0.0621
 8711SOL    HW137766   3.262   3.996   4.850  1.2789 -1.4471 -2.8686
 8711SOL    HW237767   3.125   4.017   4.822 -1.2769 -1.0651  0.1402
 8712SOL     OW37768   3.172   0.457   3.031 -0.0516  0.1225  0.7323
 8712SOL    HW137769   3.113   0.427   2.962  1.2204 -0.9258  0.1102
 8712SOL    HW237770   3.147   0.389   3.094  1.9021 -0.1540  1.1979
 8713SOL     OW37771   1.503   3.089   6.255  0.5453  0.1690 -0.3209
 8713SOL    HW137772   1.470   3.159   6.199  1.5574  0.3959 -0.6378
 8713SOL    HW237773   1.543   3.042   6.182  0.9805  2.8287 -1.7641
 8714SOL     OW37774   2.612   0.605  10.602  0.5741  0.3376  0.7256
 8714SOL    HW137775   2.662   0.659  10.540 -1.4632  1.3490 -0.0493
 8714SOL    HW237776   2.618   0.665  10.676 -0.0557  2.7584 -1.1668
 8715SOL     OW37777   1.860   2.959   0.308  0.0270 -0.8122  0.0369
 8715SOL    HW137778   1.792   2.998   0.364 -0.6159  1.1912 -2.1054
 8715SOL    HW237779   1.914   2.919   0.376  0.2628 -2.6246 -1.2199
 8716SOL     OW37780   0.556   3.832   9.778 -0.4337 -0.2320 -0.3114
 8716SOL    HW137781   0.523   3.921   9.763 -0.9373 -0.3149  0.2954
 8716SOL    HW237782   0.610   3.819   9.699  0.1863 -0.8621  0.2212
 8717SOL     OW37783   0.047   3.181   2.649  0.1921 -0.6129 -0.5914
 8717SOL    HW137784   4.724   3.246   2.673  0.5648  0.3277 -2.1374
 8717SOL    HW237785   0.105   3.237   2.598  0.1504 -0.2293 -0.2282
 8718SOL     OW37786   2.183   1.949  15.298  0.2221 -0.3459  0.3155
 8718SOL    HW137787   2.116   1.910  15.242  0.3147  0.9307 -0.6800
 8718SOL    HW237788   2.138   1.963  15.381  2.0782  2.1545  0.9141
 8719SOL     OW37789   1.385   3.889   2.345 -0.1618  0.1637 -0.1429
 8719SOL    HW137790   1.303   3.921   2.382 -1.7595 -4.2327  0.0912
 8719SOL    HW237791   1.451   3.953   2.372  0.2188 -0.6263  0.7887
 8720SOL     OW37792   4.491   0.251   9.340 -0.0811  0.1291 -0.3500
 8720SOL    HW137793   4.542   0.206   9.273 -1.0195  0.2937 -1.1681
 8720SOL    HW237794   4.473   0.175   9.395 -1.6707  0.8601  0.1322
 8721SOL     OW37795   2.451   1.546   4.318 -0.0401  0.2031 -0.0368
 8721SOL    HW137796   2.534   1.506   4.343  0.1963 -0.7920 -2.4064
 8721SOL    HW237797   2.434   1.519   4.228  1.0762 -0.8420  0.0581
 8722SOL     OW37798   1.916   3.474  17.120 -0.4363 -0.1567 -0.4206
 8722SOL    HW137799   1.953   3.458  17.207  1.7891  0.1723 -1.3069
 8722SOL    HW237800   1.966   3.407  17.072  0.4631 -0.4202  0.8816
 8723SOL     OW37801   1.482   4.443   3.303  0.3141  0.0703 -0.3605
 8723SOL    HW137802   1.478   4.536   3.279  0.1484  0.0191 -0.5298
 8723SOL    HW237803   1.389   4.425   3.294 -0.0717  2.2049 -0.7767
 8724SOL     OW37804   2.067   2.756   2.680 -0.0975  0.0627  0.3393
 8724SOL    HW137805   2.016   2.735   2.759 -1.1089  1.2631  0.0100
 8724SOL    HW237806   1.993   2.751   2.619  0.0756  0.6777  0.0760
 8725SOL     OW37807   3.642   2.150   5.795  0.0073  0.1103  0.3931
 8725SOL    HW137808   3.713   2.090   5.818 -0.9164 -1.0264  0.2783
 8725SOL    HW237809   3.642   2.138   5.700 -1.3121 -0.4102  0.4530
 8726SOL     OW37810   0.220   4.492   2.717 -0.0940  0.3202  0.1165
 8726SOL    HW137811   0.307   4.470   2.681  0.4782 -0.9305  2.3233
 8726SOL    HW237812   0.186   4.409   2.750 -0.2873  0.5006  0.3696
 8727SOL     OW37813   0.230   1.749   8.386 -0.0827  0.2338  0.0269
 8727SOL    HW137814   0.176   1.787   8.317 -1.0789  1.2598  1.3842
 8727SOL    HW237815   0.161   1.740   8.451 -1.5161 -0.5480 -1.5839
 8728SOL     OW37816   2.161   3.043   9.863  0.1629 -0.2978 -0.1974
 8728SOL    HW137817   2.239   3.091   9.834  1.6330 -1.8567  1.2062
 8728SOL    HW237818   2.180   2.955   9.830 -2.0186 -0.9615  0.3286
 8729SOL     OW37819   0.203   0.283  10.685  0.1261  0.1584 -0.2679
 8729SOL    HW137820   0.171   0.356  10.633 -4.5497 -0.1918  2.1349
 8729SOL    HW237821   0.251   0.233  10.619 -0.8391 -2.6474  1.1176
 8730SOL     OW37822   0.477   4.672  14.551 -0.0613  0.2212  0.4832
 8730SOL    HW137823   0.511   4.630  14.631 -0.6318  2.0412  1.6978
 8730SOL    HW237824   0.413   4.604  14.530 -2.6013  2.5149  0.9007
 8731SOL     OW37825   0.159   4.314  10.494 -0.4679 -0.7147 -0.2858
 8731SOL    HW137826   0.076   4.339  10.535 -0.1372  0.7881 -0.5366
 8731SOL    HW237827   0.200   4.245  10.547  0.9399  2.5698  2.8891
 8732SOL     OW37828   0.155   1.165   1.740 -0.4145 -0.3782 -0.2514
 8732SOL    HW137829   0.116   1.240   1.784 -1.8313 -0.7153 -0.9223
 8732SOL    HW237830   0.138   1.187   1.648 -0.5249  2.0567  0.3480
 8733SOL     OW37831   2.658   0.702   0.063  0.6343  0.7866  0.6719
 8733SOL    HW137832   2.727   0.639   0.043  1.6703  1.1729  3.0466
 8733SOL    HW237833   2.689   0.772   0.006 -2.0479  3.7930  2.8884
 8734SOL     OW37834   1.813   3.125   7.034  0.5388  0.3335 -0.0111
 8734SOL    HW137835   1.730   3.172   7.029 -1.3902 -2.8509  2.6015
 8734SOL    HW237836   1.875   3.188   7.073 -0.2497  0.1301  1.5719
 8735SOL     OW37837   3.472   3.947   3.148  0.0572 -0.2274  0.0202
 8735SOL    HW137838   3.488   4.011   3.078 -1.4575 -0.7670 -0.8179
 8735SOL    HW237839   3.498   3.999   3.224 -0.9398  1.5994 -0.8906
 8736SOL     OW37840   1.361   1.589   7.400  0.9971 -0.5982  0.3197
 8736SOL    HW137841   1.296   1.642   7.447  0.8581 -0.6947  0.2379
 8736SOL    HW237842   1.380   1.658   7.336  0.6666 -0.7737  0.0317
 8737SOL     OW37843   4.465   1.414   3.450 -0.0530 -0.3908  0.0793
 8737SOL    HW137844   4.436   1.351   3.385  1.4748 -1.8404  0.8066
 8737SOL    HW237845   4.551   1.378   3.471  0.1698 -0.9854 -1.9029
 8738SOL     OW37846   2.832   0.738   6.627 -0.0692  0.9407  0.7730
 8738SOL    HW137847   2.822   0.643   6.617 -0.1746  1.1158 -0.9257
 8738SOL    HW237848   2.887   0.735   6.705 -2.5405  0.3170  2.4855
 8739SOL     OW37849   2.400   0.539   3.242  0.7505  0.1622  0.0164
 8739SOL    HW137850   2.389   0.526   3.336 -4.4121 -0.6519 -0.6726
 8739SOL    HW237851   2.371   0.628   3.221 -1.4449 -0.8632 -1.3172
 8740SOL     OW37852   1.749   3.807   1.951  0.3868 -0.2862  0.3538
 8740SOL    HW137853   1.656   3.802   1.970  0.2036 -0.3100 -0.5710
 8740SOL    HW237854   1.761   3.779   1.861 -1.5798 -0.4496  0.1578
 8741SOL     OW37855   3.597   2.714  14.280 -0.1749 -0.2145 -0.3131
 8741SOL    HW137856   3.613   2.648  14.213 -2.3137  0.6219 -1.6105
 8741SOL    HW237857   3.682   2.760  14.284  1.0493 -2.3855 -1.3127
 8742SOL     OW37858   1.443   3.472   8.958  0.2052  0.2286  0.3549
 8742SOL    HW137859   1.401   3.469   8.872  1.4610  1.7065 -0.3148
 8742SOL    HW237860   1.439   3.379   8.979  1.0434  0.2922  0.8184
 8743SOL     OW37861   2.050   4.716   7.124 -0.1343  0.1735  0.1613
 8743SOL    HW137862   1.986   0.041   7.105 -1.0577 -0.8946 -0.5797
 8743SOL    HW237863   1.997   4.641   7.151 -1.8595  1.6898  1.0162
 8744SOL     OW37864   4.623   4.340   4.447  0.9406  0.1250 -0.3070
 8744SOL    HW137865   4.689   4.376   4.505  0.2880  1.2444 -0.2706
 8744SOL    HW237866   4.561   4.410   4.427  1.4775  0.7002  0.0696
 8745SOL     OW37867   0.523   1.347   5.590 -0.2195 -0.3324  0.0030
 8745SOL    HW137868   0.467   1.332   5.667  0.7126  1.0229  0.9363
 8745SOL    HW237869   0.540   1.440   5.603  1.6844 -0.9862  2.1487
 8746SOL     OW37870   2.042   0.365  14.544  0.7314 -0.7379  0.1766
 8746SOL    HW137871   2.136   0.376  14.556  0.9410 -0.8658 -1.3352
 8746SOL    HW237872   2.014   0.404  14.627  1.3313  0.3562 -0.1407
 8747SOL     OW37873   2.932   1.454  12.684 -0.2497  0.3081 -0.4196
 8747SOL    HW137874   3.003   1.494  12.735 -0.5018 -0.2617  0.3896
 8747SOL    HW237875   2.894   1.528  12.637 -0.3805  0.6397  0.2037
 8748SOL     OW37876   3.855   3.612   4.362 -0.1006 -0.0042  0.3826
 8748SOL    HW137877   3.825   3.607   4.453  1.9369  0.6607  1.0697
 8748SOL    HW237878   3.934   3.559   4.353  0.2307  0.8667 -1.8154
 8749SOL     OW37879   2.435   0.832   3.711  0.1242 -0.3953 -0.6493
 8749SOL    HW137880   2.492   0.771   3.756  0.6674  1.0318  0.6216
 8749SOL    HW237881   2.355   0.781   3.699 -0.2156  0.1453 -0.6840
 8750SOL     OW37882   4.305   3.998  17.009 -0.0719  0.2893  0.4710
 8750SOL    HW137883   4.265   4.084  17.022 -0.8707 -0.1716  1.0929
 8750SOL    HW237884   4.293   3.962  17.097 -0.6715  0.0075  0.2773
 8751SOL     OW37885   2.600   2.564   4.772 -0.2239  0.2333  0.3432
 8751SOL    HW137886   2.685   2.581   4.730 -0.4926 -2.7686 -1.4269
 8751SOL    HW237887   2.583   2.484   4.722  0.9980  0.7500 -0.9075
 8752SOL     OW37888   0.876   1.316   1.839  0.3745 -0.0374 -0.2044
 8752SOL    HW137889   0.833   1.382   1.784  1.3732  1.2559  0.5602
 8752SOL    HW237890   0.905   1.375   1.908 -0.4382  0.6790 -0.4743
 8753SOL     OW37891   1.705   1.457  16.086 -0.6353 -0.5746 -0.7530
 8753SOL    HW137892   1.686   1.545  16.052  1.7434  0.2541  0.0591
 8753SOL    HW237893   1.781   1.437  16.032  0.0313 -1.4146  0.5265
 8754SOL     OW37894   0.826   4.297   1.173  0.1124  0.2207  0.3937
 8754SOL    HW137895   0.850   4.206   1.192  1.1739  0.2616 -0.7424
 8754SOL    HW237896   0.743   4.308   1.219  0.4541  0.8255  0.8675
 8755SOL     OW37897   1.412   0.820   6.958 -0.3092  0.1375 -0.1243
 8755SOL    HW137898   1.472   0.790   6.890  0.8439  1.1128  0.4458
 8755SOL    HW237899   1.439   0.912   6.949  1.0460 -0.2883 -0.3952
 8756SOL     OW37900   0.656   3.723   3.873  0.0293  0.1050 -0.0513
 8756SOL    HW137901   0.673   3.775   3.795 -1.4365 -0.1536 -0.5404
 8756SOL    HW237902   0.701   3.644   3.842 -2.0365 -0.9757 -0.2777
 8757SOL     OW37903   4.008   2.810   9.752 -0.2300  0.2856 -0.2449
 8757SOL    HW137904   4.026   2.863   9.830 -0.9156  0.8304 -0.4572
 8757SOL    HW237905   4.040   2.864   9.680  0.9165  1.2856  0.9978
 8758SOL     OW37906   3.452   2.720   3.131  0.0053 -0.6858 -0.0267
 8758SOL    HW137907   3.536   2.729   3.087  1.0341  0.1623  2.0727
 8758SOL    HW237908   3.456   2.798   3.187 -2.4670 -0.2157 -0.4814
 8759SOL     OW37909   0.307   3.402   2.097 -0.1397 -0.1849 -0.0102
 8759SOL    HW137910   0.255   3.478   2.122  1.0008  0.1299  1.3284
 8759SOL    HW237911   0.247   3.370   2.029  0.3681  2.6497 -1.7800
 8760SOL     OW37912   3.957   0.543   1.764 -0.3462  0.2445 -0.3289
 8760SOL    HW137913   3.942   0.630   1.802  1.3661  0.4351 -0.0965
 8760SOL    HW237914   3.870   0.508   1.782  0.3913  0.5538  3.8859
 8761SOL     OW37915   2.830   3.055   3.900 -0.8656  0.2493  0.0174
 8761SOL    HW137916   2.903   3.050   3.839  0.8033 -3.0968  2.2819
 8761SOL    HW237917   2.856   3.003   3.977 -0.2670  0.2505 -0.1828
 8762SOL     OW37918   3.097   2.265   9.472  0.1166  0.1808  0.0156
 8762SOL    HW137919   3.078   2.194   9.534 -2.6108  0.8432 -0.0383
 8762SOL    HW237920   3.189   2.282   9.493  0.0580 -1.3683  1.6279
 8763SOL     OW37921   1.650   3.311   7.778 -0.6786 -0.0924 -0.6674
 8763SOL    HW137922   1.730   3.284   7.733  0.6505 -0.6804  1.9823
 8763SOL    HW237923   1.669   3.297   7.871 -0.5276 -0.0777 -0.6964
 8764SOL     OW37924   0.197   3.516   9.589  0.4840 -0.3916  0.5008
 8764SOL    HW137925   0.121   3.536   9.535  2.0633  0.0795 -1.5436
 8764SOL    HW237926   0.242   3.599   9.576  1.6102 -0.8852  1.2831
 8765SOL     OW37927   1.220   1.400   2.077 -0.6830 -0.5959  0.3933
 8765SOL    HW137928   1.283   1.470   2.060 -1.1592 -0.0632  0.7937
 8765SOL    HW237929   1.247   1.336   2.011 -4.1383 -0.9835 -0.6322
 8766SOL     OW37930   1.733   0.662  13.243  0.3795  0.8869  0.1287
 8766SOL    HW137931   1.807   0.722  13.252 -0.3945  2.0668 -1.2934
 8766SOL    HW237932   1.683   0.660  13.324 -0.2940 -0.7631 -0.3275
 8767SOL     OW37933   1.603   1.407  16.998 -0.7614  0.1678 -0.3319
 8767SOL    HW137934   1.678   1.462  16.975 -0.5101  0.0176  0.1084
 8767SOL    HW237935   1.650   1.325  17.014  0.4529  0.8371 -0.4803
 8768SOL     OW37936   2.664   0.429  10.814  0.2394 -0.0265  0.0249
 8768SOL    HW137937   2.607   0.464  10.745 -0.1324  0.2590  0.4793
 8768SOL    HW237938   2.609   0.374  10.870 -1.1228  0.5693 -0.7235
 8769SOL     OW37939   4.363   3.377   2.581 -0.3432  0.2013  1.0202
 8769SOL    HW137940   4.378   3.447   2.645  0.4893  0.8848  0.0684
 8769SOL    HW237941   4.391   3.304   2.637 -1.1669  0.2786  1.5401
 8770SOL     OW37942   1.545   4.164  13.379  0.2432 -0.7362  0.2260
 8770SOL    HW137943   1.522   4.220  13.304  0.8237 -1.6156 -0.6068
 8770SOL    HW237944   1.536   4.074  13.347  2.5918 -0.3100 -1.6540
 8771SOL     OW37945   2.409   0.505   9.668 -0.0806 -0.5218  0.9089
 8771SOL    HW137946   2.457   0.477   9.745  1.8150 -0.3161 -0.2020
 8771SOL    HW237947   2.347   0.432   9.662 -1.0189  0.2029  1.7171
 8772SOL     OW37948   3.361   4.234   7.956 -0.0037  0.1812 -0.6438
 8772SOL    HW137949   3.314   4.153   7.977  0.2668 -0.6273 -3.1138
 8772SOL    HW237950   3.313   4.294   8.013  0.9102  0.2924 -0.0080
 8773SOL     OW37951   3.641   0.346  12.852 -0.7811 -0.2243 -0.0228
 8773SOL    HW137952   3.664   0.257  12.880 -1.1579  0.0258  1.0881
 8773SOL    HW237953   3.557   0.367  12.893 -0.8763 -0.0519 -0.3062
 8774SOL     OW37954   3.523   0.420   6.188  0.8242 -0.3183 -0.6723
 8774SOL    HW137955   3.510   0.390   6.278 -0.7176  2.1075 -0.1015
 8774SOL    HW237956   3.451   0.483   6.182  1.2787  0.2087 -0.5969
 8775SOL     OW37957   1.085   2.579  10.932  0.4325 -0.4171  0.2044
 8775SOL    HW137958   1.086   2.554  11.024 -0.1928 -0.4049  0.2119
 8775SOL    HW237959   0.991   2.596  10.921  0.5308  0.7192  1.1587
 8776SOL     OW37960   4.313   2.137   6.720 -0.4469  0.0642  0.3578
 8776SOL    HW137961   4.221   2.159   6.708  0.1598  1.0908 -2.4548
 8776SOL    HW237962   4.315   2.112   6.812  0.0902  1.6764  0.7931
 8777SOL     OW37963   3.355   1.370   5.110  0.7731 -0.2330 -0.1101
 8777SOL    HW137964   3.321   1.458   5.097 -1.4207 -1.6047 -3.6116
 8777SOL    HW237965   3.401   1.356   5.027  1.4318 -0.3605  0.2824
 8778SOL     OW37966   0.918   4.119  11.468 -0.0326  0.1013 -0.2691
 8778SOL    HW137967   0.873   4.162  11.540  0.2860 -0.2197  0.1256
 8778SOL    HW237968   0.999   4.083  11.504 -0.5520  0.3384  1.1239
 8779SOL     OW37969   0.835   2.475   2.146 -0.0294 -0.3735  0.2076
 8779SOL    HW137970   0.833   2.384   2.115  0.1084 -0.6611  1.0614
 8779SOL    HW237971   0.864   2.517   2.065  0.3450 -0.5797  0.2335
 8780SOL     OW37972   2.547   4.611   8.220  0.0468  0.0023 -0.4600
 8780SOL    HW137973   2.556   4.667   8.298 -0.6618 -0.3382 -0.1327
 8780SOL    HW237974   2.468   4.563   8.245  0.1137 -0.1921 -0.6242
 8781SOL     OW37975   0.916   3.250   4.997 -0.4185  0.3304  0.3701
 8781SOL    HW137976   0.887   3.304   4.924 -4.1416 -0.1853  1.4909
 8781SOL    HW237977   0.892   3.160   4.976  0.6885  0.0033  0.4876
 8782SOL     OW37978   1.494   1.902   8.791 -0.0121  0.5311  0.5710
 8782SOL    HW137979   1.464   1.847   8.864  0.0270 -1.1663 -0.7085
 8782SOL    HW237980   1.473   1.849   8.714  1.2858  0.7868  0.0385
 8783SOL     OW37981   1.684   3.846   6.684 -0.3989  0.2145  0.1932
 8783SOL    HW137982   1.700   3.919   6.743  0.5220  1.5508 -1.7224
 8783SOL    HW237983   1.590   3.832   6.696 -0.3171  1.0070  1.7396
 8784SOL     OW37984   4.260   0.884  11.640  0.2240  0.1281 -0.2225
 8784SOL    HW137985   4.237   0.860  11.551  0.3187  0.1816 -0.2608
 8784SOL    HW237986   4.214   0.819  11.693  0.9309 -0.3784 -0.2301
 8785SOL     OW37987   1.022   4.611   5.268 -0.3292 -0.0183 -0.4560
 8785SOL    HW137988   1.005   4.705   5.263  1.8905  0.5042  1.7491
 8785SOL    HW237989   1.073   4.604   5.348  0.1650  0.5501 -0.7208
 8786SOL     OW37990   2.992   2.663   5.873 -0.1747 -0.8524  0.1282
 8786SOL    HW137991   3.023   2.605   5.804 -0.8991 -1.3427  0.2122
 8786SOL    HW237992   2.899   2.642   5.866  0.3531 -2.6808 -1.4936
 8787SOL     OW37993   1.930   2.869   7.113  0.5389  0.1819  0.0575
 8787SOL    HW137994   1.893   2.785   7.139  3.1964 -0.7753  0.7457
 8787SOL    HW237995   1.851   2.922   7.102 -0.2528 -0.4375  2.5797
 8788SOL     OW37996   0.266   3.961  17.631  1.0938  0.4870  0.3944
 8788SOL    HW137997   0.303   3.873  17.636 -0.5560 -0.3667 -2.1479
 8788SOL    HW237998   0.344   4.013  17.612  0.1788  1.4416 -0.7716
 8789SOL     OW37999   0.072   4.216   8.790  0.2098 -0.1085  0.6739
 8789SOL    HW138000   0.127   4.196   8.866  0.5007 -0.0605  0.4780
 8789SOL    HW238001   4.731   4.187   8.824 -1.1953 -0.0258 -2.7079
 8790SOL     OW38002   2.367   1.581  16.287 -0.0490  0.3950  0.9781
 8790SOL    HW138003   2.392   1.546  16.201  1.0588  1.6944  0.7690
 8790SOL    HW238004   2.367   1.677  16.287  0.5068  0.3957  0.7849
 8791SOL     OW38005   3.731   0.283   5.483  0.1743  0.0337 -0.2730
 8791SOL    HW138006   3.794   0.344   5.444 -1.1345  2.7117  1.7989
 8791SOL    HW238007   3.792   0.212   5.500 -1.2975 -1.1439  0.0277
 8792SOL     OW38008   0.778   4.669  17.219 -0.2888 -0.3666 -0.4590
 8792SOL    HW138009   0.727   4.588  17.226 -0.9696  0.0083 -1.1073
 8792SOL    HW238010   0.852   4.641  17.165 -1.6496 -0.3998 -2.3017
 8793SOL     OW38011   2.907   3.775   2.682 -0.6663  0.2687 -0.0758
 8793SOL    HW138012   2.891   3.682   2.696  1.7029  0.1703  1.8850
 8793SOL    HW238013   2.907   3.803   2.774 -1.8243 -0.9720  0.3138
 8794SOL     OW38014   3.209   0.155  11.087 -0.5714 -0.2216  0.1759
 8794SOL    HW138015   3.221   0.199  11.172 -0.5545 -0.2977  0.2128
 8794SOL    HW238016   3.124   0.193  11.068  0.2820  2.0675  0.8977
 8795SOL     OW38017   1.140   2.656  16.007 -0.1302 -0.4438 -0.0857
 8795SOL    HW138018   1.147   2.564  16.033  0.1102 -0.8693 -1.6612
 8795SOL    HW238019   1.048   2.677  16.021  0.1922 -1.5041  3.4823
 8796SOL     OW38020   3.813   3.762   7.204 -0.2207  0.4813 -0.2631
 8796SOL    HW138021   3.892   3.756   7.257  1.1054 -1.2712 -2.4707
 8796SOL    HW238022   3.783   3.850   7.226 -2.0271 -0.8726  2.6426
 8797SOL     OW38023   1.463   0.536  14.551 -0.1192  0.7609  0.0550
 8797SOL    HW138024   1.423   0.465  14.501 -0.2278  2.7450 -2.6706
 8797SOL    HW238025   1.469   0.602  14.481  1.0963 -0.6014 -1.1437
 8798SOL     OW38026   2.536   3.344   5.987  0.0456 -0.3972 -0.2475
 8798SOL    HW138027   2.477   3.275   5.957 -0.9411  1.0734 -1.7073
 8798SOL    HW238028   2.600   3.298   6.041 -1.1338 -2.3396 -0.4950
 8799SOL     OW38029   4.006   4.464   7.780  0.3172  0.6429 -0.1628
 8799SOL    HW138030   4.056   4.386   7.756  4.4883  3.2189  0.1227
 8799SOL    HW238031   4.034   4.493   7.867  0.9444 -1.3558  0.2952
 8800SOL     OW38032   1.101   0.569   7.068  0.6630  0.0975  0.0616
 8800SOL    HW138033   1.131   0.624   6.996 -0.3559  0.4691 -0.0915
 8800SOL    HW238034   1.008   0.594   7.067  0.4559 -0.6964 -2.0566
 8801SOL     OW38035   0.201   1.029   3.782  0.0800  0.1210  0.0768
 8801SOL    HW138036   0.113   1.014   3.747  0.4306  0.5248 -0.9619
 8801SOL    HW238037   0.178   1.012   3.873  0.1360  4.5299  0.9200
 8802SOL     OW38038   3.798   3.943   1.760 -0.1126 -0.4852 -1.0191
 8802SOL    HW138039   3.838   3.945   1.673  0.2397  1.7039 -0.7830
 8802SOL    HW238040   3.865   3.927   1.826 -2.0582  0.3036  1.1258
 8803SOL     OW38041   1.223   1.205   1.216  0.7527 -0.1542  0.1890
 8803SOL    HW138042   1.274   1.219   1.136  0.0593  0.7642 -0.0849
 8803SOL    HW238043   1.245   1.112   1.226  3.8064  0.8536  2.5404
 8804SOL     OW38044   4.456   1.733  12.632 -0.6618  0.0850  0.3351
 8804SOL    HW138045   4.541   1.760  12.666 -0.5759  1.3051 -0.8455
 8804SOL    HW238046   4.480   1.694  12.548 -1.6243  1.9480 -0.7958
 8805SOL     OW38047   0.646   3.988  14.136  0.4009 -0.0384  0.5254
 8805SOL    HW138048   0.707   4.022  14.202  1.0630  2.5893 -1.4427
 8805SOL    HW238049   0.565   4.038  14.148 -0.6048 -0.8579 -2.9014
 8806SOL     OW38050   2.273   2.696   1.790  0.4137 -1.1189  0.0675
 8806SOL    HW138051   2.207   2.635   1.760  1.2738 -1.2616 -1.5494
 8806SOL    HW238052   2.237   2.775   1.750 -0.2626 -0.2168  2.4316
 8807SOL     OW38053   3.837   1.486   4.369 -0.0485 -0.3626 -0.2272
 8807SOL    HW138054   3.832   1.496   4.464 -0.1798  1.7911 -0.4469
 8807SOL    HW238055   3.897   1.414   4.354  0.2395 -0.5058  1.5915
 8808SOL     OW38056   1.013   2.411   7.898 -0.1347  0.6482  0.1272
 8808SOL    HW138057   0.999   2.504   7.915  1.9826  1.0396 -0.2810
 8808SOL    HW238058   1.107   2.422   7.889 -0.4175  1.9760 -1.1405
 8809SOL     OW38059   4.045   1.032  16.852 -0.1729  0.1966  0.3303
 8809SOL    HW138060   3.962   1.076  16.835  0.1929  1.1296  0.9163
 8809SOL    HW238061   4.009   0.944  16.852  0.3532 -0.0204  0.5402
 8810SOL     OW38062   2.034   1.227   4.422  0.2634 -0.2683  0.2619
 8810SOL    HW138063   2.015   1.149   4.370 -1.8858  1.6221 -1.7747
 8810SOL    HW238064   2.117   1.209   4.466 -1.2314 -0.8093  2.8374
 8811SOL     OW38065   1.762   0.785   7.023 -0.4528  0.5401 -0.2763
 8811SOL    HW138066   1.819   0.823   6.956 -0.4712  2.6965  0.9312
 8811SOL    HW238067   1.725   0.707   6.981 -0.1693  1.1073 -1.5943
 8812SOL     OW38068   1.382   2.083   9.721 -0.3094  0.3268  0.1579
 8812SOL    HW138069   1.448   2.061   9.655 -2.6942 -0.1639 -2.0688
 8812SOL    HW238070   1.432   2.151   9.765  0.6781 -0.8433  0.8425
 8813SOL     OW38071   0.737   0.750   7.490  0.3534 -0.6860 -0.1693
 8813SOL    HW138072   0.797   0.690   7.447  0.6586 -0.2977 -0.2819
 8813SOL    HW238073   0.664   0.688   7.502 -0.0463  0.1433  1.6876
 8814SOL     OW38074   4.115   1.479   4.556  0.9357 -0.0317  0.5593
 8814SOL    HW138075   4.197   1.465   4.604  0.8658 -1.5403  0.2387
 8814SOL    HW238076   4.154   1.472   4.468 -1.9533 -0.6903 -0.6524
 8815SOL     OW38077   0.254   3.862  12.981 -0.0750  0.5415  1.1506
 8815SOL    HW138078   0.319   3.900  13.041  1.3511  0.0585 -0.0707
 8815SOL    HW238079   0.172   3.905  13.004  0.1186  2.1983 -1.2873
 8816SOL     OW38080   2.959   4.259   4.201 -0.3065 -0.5067  0.0553
 8816SOL    HW138081   2.866   4.251   4.220 -0.6618  0.6162 -1.2225
 8816SOL    HW238082   2.976   4.169   4.175 -0.2701 -1.1196  2.1689
 8817SOL     OW38083   3.004   0.136   6.627 -0.3231  0.0013  0.7502
 8817SOL    HW138084   2.915   0.116   6.597 -0.0255 -0.2847  0.0589
 8817SOL    HW238085   3.000   0.084   6.707  0.0519 -0.1686  0.6549
 8818SOL     OW38086   3.323   3.337   1.872  1.0308 -0.3406  0.6730
 8818SOL    HW138087   3.395   3.299   1.922  0.5521 -0.0210  1.6110
 8818SOL    HW238088   3.264   3.376   1.937  0.1024 -1.1679  0.3334
 8819SOL     OW38089   2.148   0.276   0.198  0.3710 -0.3781 -0.1729
 8819SOL    HW138090   2.208   0.314   0.262 -1.7856  1.1594  0.9148
 8819SOL    HW238091   2.184   0.187   0.202  0.0194 -0.5874 -1.7645
 8820SOL     OW38092   2.506   3.713  13.330  0.1350 -0.0874 -0.1320
 8820SOL    HW138093   2.416   3.684  13.319  0.7294 -1.6771 -0.7301
 8820SOL    HW238094   2.528   3.665  13.410  2.2182  0.2810 -0.4691
 8821SOL     OW38095   4.598   1.016   4.187 -0.1826 -0.2914 -0.4092
 8821SOL    HW138096   4.591   1.054   4.100 -0.4114 -2.0175 -1.1520
 8821SOL    HW238097   4.680   0.969   4.172  0.2728  0.1700  0.6232
 8822SOL     OW38098   0.278   3.493  11.732 -0.1185 -0.4939  0.0174
 8822SOL    HW138099   0.357   3.469  11.683  0.3262  1.3991 -0.1602
 8822SOL    HW238100   0.264   3.409  11.777  0.8133 -0.2764  0.7144
 8823SOL     OW38101   2.944   3.529  12.154 -0.5609  0.0347 -0.3263
 8823SOL    HW138102   3.035   3.501  12.147 -0.6697 -0.3629 -0.1787
 8823SOL    HW238103   2.944   3.540  12.249 -0.0972  1.0317 -0.4332
 8824SOL     OW38104   3.744   3.960   1.297 -0.7102  0.2023 -0.2420
 8824SOL    HW138105   3.694   3.930   1.373 -1.7468 -4.0871 -2.5925
 8824SOL    HW238106   3.834   3.954   1.328 -0.4947  2.2524 -0.4635
 8825SOL     OW38107   2.897   1.226  12.921  0.4581  0.2863 -0.1311
 8825SOL    HW138108   2.965   1.184  12.869  0.9213  1.1141 -0.2005
 8825SOL    HW238109   2.907   1.318  12.897  0.4871 -0.0865 -1.5521
 8826SOL     OW38110   3.080   4.080   9.233  0.2057 -0.0800  0.2616
 8826SOL    HW138111   3.087   4.019   9.159 -1.1188  0.6477 -0.4624
 8826SOL    HW238112   3.162   4.127   9.220 -0.7994  2.0528  1.7039
 8827SOL     OW38113   2.949   2.008  16.168 -0.0013  0.1383  1.0257
 8827SOL    HW138114   2.955   2.065  16.092 -0.0728 -1.4863 -0.2107
 8827SOL    HW238115   3.035   2.021  16.209 -0.6040 -1.3042  2.7434
 8828SOL     OW38116   2.080   4.084   3.877 -0.3279  0.4736 -0.1196
 8828SOL    HW138117   2.012   4.132   3.830 -1.0872 -0.2066  0.3046
 8828SOL    HW238118   2.076   3.997   3.835 -0.6275  0.3209  0.2275
 8829SOL     OW38119   3.261   1.175   6.857  0.3603  0.6298 -0.3979
 8829SOL    HW138120   3.342   1.146   6.814  0.0901  1.0960 -1.2178
 8829SOL    HW238121   3.283   1.266   6.875 -2.6247  1.2093  0.3283
 8830SOL     OW38122   2.796   2.299   8.549  0.3190  0.0910 -0.2553
 8830SOL    HW138123   2.798   2.376   8.493  0.3470  0.2813  0.0085
 8830SOL    HW238124   2.749   2.335   8.624  0.1798 -0.5974 -0.0057
 8831SOL     OW38125   2.200   1.163   9.348 -0.7222  0.3904 -0.3054
 8831SOL    HW138126   2.219   1.206   9.265 -0.3629  0.0610 -0.3959
 8831SOL    HW238127   2.281   1.112   9.354 -0.5392  0.8260  0.8652
 8832SOL     OW38128   4.164   2.596   5.687  0.3634  0.4691  0.3087
 8832SOL    HW138129   4.147   2.505   5.662  0.1144  0.0892  1.8824
 8832SOL    HW238130   4.244   2.584   5.738 -0.8637 -0.2412  2.0424
 8833SOL     OW38131   4.490   3.398  12.719  0.4869  0.0907 -0.2018
 8833SOL    HW138132   4.568   3.365  12.674 -0.5382 -0.2692 -1.7362
 8833SOL    HW238133   4.456   3.308  12.720 -0.4322  0.4627  1.4156
 8834SOL     OW38134   2.665   1.615   2.902  0.3228  0.8223  0.1420
 8834SOL    HW138135   2.674   1.633   2.995  2.2629 -1.2411  0.3668
 8834SOL    HW238136   2.600   1.683   2.884 -2.1273 -0.9946  2.1135
 8835SOL     OW38137   3.555   3.067   8.121  0.2906 -0.2129  0.2033
 8835SOL    HW138138   3.477   3.086   8.174 -1.0192 -0.8024 -1.5500
 8835SOL    HW238139   3.612   3.140   8.147 -0.8923  0.7023  0.2416
 8836SOL     OW38140   2.579   4.628   9.432 -0.1601  0.0101  0.0647
 8836SOL    HW138141   2.644   4.580   9.484  1.0636  0.9823 -0.5630
 8836SOL    HW238142   2.576   4.580   9.349  0.4760  2.1314 -1.1915
 8837SOL     OW38143   3.796   1.266   8.156  0.2203 -0.0262  0.1611
 8837SOL    HW138144   3.782   1.294   8.246 -2.2778 -2.1671  0.4331
 8837SOL    HW238145   3.705   1.251   8.132  0.1609 -0.3921  0.6289
 8838SOL     OW38146   0.842   4.176   8.260 -0.2328  0.3585  0.3924
 8838SOL    HW138147   0.803   4.261   8.281  0.2072  0.5610  0.4104
 8838SOL    HW238148   0.928   4.189   8.301 -0.3101 -0.3990  0.7894
 8839SOL     OW38149   4.685   2.430   6.495  0.3772  0.6671 -0.6784
 8839SOL    HW138150   4.639   2.356   6.535  1.5719  0.3365  0.0771
 8839SOL    HW238151   4.702   2.384   6.413 -1.1149 -0.5032 -0.3196
 8840SOL     OW38152   3.885   2.005  12.002  0.2202  0.4442  0.4652
 8840SOL    HW138153   3.955   2.070  11.992  1.0523 -0.4877  0.1262
 8840SOL    HW238154   3.927   1.924  11.972 -1.6624  0.3515 -1.9844
 8841SOL     OW38155   0.427   3.305  15.079  0.0585 -0.5179  0.0428
 8841SOL    HW138156   0.334   3.305  15.103 -0.0022 -2.4515 -0.1769
 8841SOL    HW238157   0.423   3.247  15.003 -2.0664 -0.2285 -0.0555
 8842SOL     OW38158   0.345   0.855   7.873  0.3178  0.8049 -0.1566
 8842SOL    HW138159   0.429   0.829   7.834 -0.1194 -1.8640  0.7270
 8842SOL    HW238160   0.369   0.945   7.894 -2.1149  1.6050 -0.7934
 8843SOL     OW38161   2.842   4.570   9.487  0.5078 -0.4349 -0.2493
 8843SOL    HW138162   2.870   4.649   9.532  1.8865 -0.9322 -0.2342
 8843SOL    HW238163   2.859   4.585   9.394 -1.0197 -1.1106 -0.6402
 8844SOL     OW38164   3.683   1.710   2.940 -0.1278  0.0941  0.6210
 8844SOL    HW138165   3.617   1.651   2.902  1.0108 -1.6794  1.4251
 8844SOL    HW238166   3.770   1.674   2.921 -0.6962 -0.0959 -1.6769
 8845SOL     OW38167   2.957   2.730   5.423  0.3847 -0.0105  0.3734
 8845SOL    HW138168   2.998   2.728   5.336  1.5861 -3.5920  0.9943
 8845SOL    HW238169   2.919   2.642   5.420 -1.1662  0.7407 -1.5400
 8846SOL     OW38170   0.005   4.486   7.790 -0.1058  0.4529  0.1841
 8846SOL    HW138171   0.005   4.391   7.798  0.2620  0.5406  1.1737
 8846SOL    HW238172   0.026   4.496   7.697 -2.9025 -1.9876 -0.6879
 8847SOL     OW38173   0.554   4.013  12.769 -0.0996 -0.0257  0.5726
 8847SOL    HW138174   0.484   3.978  12.713  0.2890 -2.4460  1.5771
 8847SOL    HW238175   0.565   4.100  12.732  2.7511 -1.7582 -2.6456
 8848SOL     OW38176   3.726   0.689  11.805  0.0465  0.5980  0.2763
 8848SOL    HW138177   3.650   0.715  11.856 -1.5764  0.8678 -2.2543
 8848SOL    HW238178   3.684   0.688  11.719  1.6821 -1.5086 -0.4992
 8849SOL     OW38179   0.680   4.288   6.205  0.5459  0.1725  0.0069
 8849SOL    HW138180   0.679   4.361   6.144  0.0270  0.4053  0.2963
 8849SOL    HW238181   0.611   4.323   6.262  1.6438 -2.7670  3.1718
 8850SOL     OW38182   4.142   1.598   6.158 -0.5494 -0.8400 -0.2242
 8850SOL    HW138183   4.114   1.509   6.179  0.3730 -1.3316 -1.0574
 8850SOL    HW238184   4.081   1.648   6.211  1.3040  0.4593  0.6663
 8851SOL     OW38185   1.380   3.677  12.017 -0.1624  0.2434  0.4741
 8851SOL    HW138186   1.454   3.625  11.985  0.6528  1.9499 -0.4177
 8851SOL    HW238187   1.384   3.750  11.955 -1.0441 -0.9158 -0.9343
 8852SOL     OW38188   1.466   4.418  11.321  0.6197  0.0855  0.0435
 8852SOL    HW138189   1.548   4.368  11.320  1.4849  1.4925  0.6675
 8852SOL    HW238190   1.493   4.484  11.385 -3.1148  1.3003  0.3455
 8853SOL     OW38191   2.384   0.646   9.203 -0.7221  0.7253 -0.6915
 8853SOL    HW138192   2.404   0.739   9.194  2.1530  0.2404  0.6760
 8853SOL    HW238193   2.288   0.646   9.204 -0.7054 -0.0783  0.3714
 8854SOL     OW38194   4.551   0.400   2.589  0.2015 -0.4440  0.6577
 8854SOL    HW138195   4.505   0.381   2.671 -0.6585 -2.0566 -0.1966
 8854SOL    HW238196   4.504   0.340   2.531  2.7079 -1.1068 -0.6918
 8855SOL     OW38197   4.075   1.811   3.011  0.1545 -0.3322  0.0278
 8855SOL    HW138198   4.092   1.798   3.105  1.9905  1.1979 -0.0978
 8855SOL    HW238199   4.166   1.823   2.985  0.1669 -0.1285  0.1638
 8856SOL     OW38200   3.353   2.961   4.829  0.4596 -0.7334  0.2426
 8856SOL    HW138201   3.380   2.870   4.812  1.0883 -0.3691 -0.6772
 8856SOL    HW238202   3.370   3.009   4.748  3.7753  0.9225  1.9025
 8857SOL     OW38203   2.744   4.482   9.991  0.1463 -0.3596  0.5225
 8857SOL    HW138204   2.819   4.473   9.931  1.2653  2.5859  1.4690
 8857SOL    HW238205   2.786   4.521  10.068  0.0635 -0.3222  0.5489
 8858SOL     OW38206   3.173   0.242  10.042  0.4290  0.7332 -0.0008
 8858SOL    HW138207   3.265   0.267  10.035  0.1293  2.2798  1.5739
 8858SOL    HW238208   3.131   0.318  10.002 -1.5433  0.2114  1.1207
 8859SOL     OW38209   2.475   0.004   5.200 -0.2577 -0.7146  0.4486
 8859SOL    HW138210   2.560   0.011   5.157  0.3526  0.6182  1.8631
 8859SOL    HW238211   2.417   0.057   5.145 -0.2744 -1.6508 -0.4414
 8860SOL     OW38212   2.538   2.328   9.574  0.0434  0.0073  0.5115
 8860SOL    HW138213   2.476   2.274   9.525 -0.4170  0.3015  0.7687
 8860SOL    HW238214   2.620   2.306   9.531 -0.1547 -1.8437  1.0663
 8861SOL     OW38215   3.115   0.840  16.575 -0.3234 -0.1992 -0.0466
 8861SOL    HW138216   3.087   0.839  16.667  0.1032  1.9375  0.1144
 8861SOL    HW238217   3.105   0.748  16.552  0.8777 -0.2369 -0.4120
 8862SOL     OW38218   3.940   4.006   1.506  0.0663 -0.3102  0.2464
 8862SOL    HW138219   3.976   4.095   1.495  1.0029 -0.5540  1.2661
 8862SOL    HW238220   4.009   3.955   1.465  0.9465  0.5779  0.6104
 8863SOL     OW38221   2.930   2.557  17.249  0.5615 -0.7205 -0.2586
 8863SOL    HW138222   2.953   2.632  17.195  1.8293 -0.8237  0.1406
 8863SOL    HW238223   2.836   2.548  17.234  0.4175 -2.3900  1.7350
 8864SOL     OW38224   0.844   4.666   3.700 -0.4349  0.6368 -0.4726
 8864SOL    HW138225   0.769   4.684   3.756 -0.6389  0.4086 -0.6784
 8864SOL    HW238226   0.911   4.701   3.759  0.4533 -1.0761 -0.4710
 8865SOL     OW38227   4.594   2.707  12.611 -0.5358 -0.0418 -0.0064
 8865SOL    HW138228   4.588   2.626  12.662 -3.1258 -0.3631 -0.7720
 8865SOL    HW238229   4.550   2.684  12.529 -1.5435  1.9878 -0.0365
 8866SOL     OW38230   0.538   1.796   6.967 -0.3134 -0.0314  0.0672
 8866SOL    HW138231   0.490   1.788   7.049 -1.6976 -0.6558 -0.8044
 8866SOL    HW238232   0.484   1.865   6.928 -0.3263  0.1328  0.3761
 8867SOL     OW38233   4.651   3.049   7.724 -0.2679  0.9027  0.1195
 8867SOL    HW138234   4.624   3.141   7.718  2.8982  1.7796 -0.4982
 8867SOL    HW238235   4.726   3.058   7.782  0.9672  0.2234 -1.3812
 8868SOL     OW38236   3.722   2.619   8.757 -0.4305 -0.1550  0.0563
 8868SOL    HW138237   3.632   2.647   8.775 -0.0772  0.5580  0.7297
 8868SOL    HW238238   3.757   2.649   8.841  0.6642 -0.0791 -0.4417
 8869SOL     OW38239   0.460   4.014   6.787 -0.0804 -0.3661  0.1078
 8869SOL    HW138240   0.410   4.068   6.726  1.2867 -0.3350 -0.9825
 8869SOL    HW238241   0.522   3.968   6.730  0.5016  0.4201  0.1158
 8870SOL     OW38242   0.952   4.183  13.559 -0.8813 -0.3693 -0.3625
 8870SOL    HW138243   0.892   4.125  13.606  0.9997  0.3957  2.9656
 8870SOL    HW238244   0.943   4.262  13.612 -1.6819 -0.8034  0.1418
 8871SOL     OW38245   1.986   4.286   5.840  0.4985 -0.6553 -0.0306
 8871SOL    HW138246   2.015   4.215   5.896 -0.2270 -0.7076  0.2792
 8871SOL    HW238247   2.070   4.304   5.798  0.8164  0.8434  1.2379
 8872SOL     OW38248   2.349   0.166   8.834  0.4525 -0.2859 -0.0090
 8872SOL    HW138249   2.440   0.179   8.859  0.2554  2.9425 -0.9706
 8872SOL    HW238250   2.357   0.090   8.776  0.8111 -0.5092  0.3370
 8873SOL     OW38251   0.324   0.814  13.667  0.1461 -0.6559  0.2937
 8873SOL    HW138252   0.340   0.726  13.632  0.8834 -0.5551  0.3631
 8873SOL    HW238253   0.284   0.792  13.751 -1.3340 -0.3747 -0.3418
 8874SOL     OW38254   4.174   2.299   5.631 -0.1477  0.3116 -0.1179
 8874SOL    HW138255   4.161   2.212   5.591 -2.5503 -0.1230  1.6190
 8874SOL    HW238256   4.208   2.254   5.708  1.5774 -1.1915 -1.7346
 8875SOL     OW38257   2.394   2.921   5.596  0.1618 -0.1829 -0.5843
 8875SOL    HW138258   2.430   3.007   5.577  1.4141 -0.4355  0.6459
 8875SOL    HW238259   2.457   2.884   5.658  0.9507 -0.5652 -1.6074
 8876SOL     OW38260   3.911   3.267  12.255  0.3618 -0.4725  0.0917
 8876SOL    HW138261   3.970   3.330  12.212 -2.2779  0.9280 -1.4773
 8876SOL    HW238262   3.902   3.319  12.335  0.6792  0.0028 -0.1764
 8877SOL     OW38263   3.227   1.525  10.647  0.5769 -0.0077  0.2526
 8877SOL    HW138264   3.307   1.514  10.595  0.2677 -0.7199 -0.0669
 8877SOL    HW238265   3.200   1.434  10.650 -1.7614  0.6434 -0.8544
 8878SOL     OW38266   1.103   3.543  12.014  0.9360  0.1839 -0.9814
 8878SOL    HW138267   1.187   3.579  11.989  0.9123 -0.1704 -1.5813
 8878SOL    HW238268   1.053   3.578  11.940 -0.2569 -3.1689 -1.7929
 8879SOL     OW38269   3.530   2.613  13.454 -0.5083 -0.2214 -0.0278
 8879SOL    HW138270   3.592   2.601  13.382 -0.3357  0.8810 -0.0695
 8879SOL    HW238271   3.568   2.675  13.517  0.3570 -1.8747  1.0637
 8880SOL     OW38272   0.735   0.561   5.933  0.7032 -0.2292  0.2860
 8880SOL    HW138273   0.770   0.544   5.846 -1.3816  0.3680 -0.6794
 8880SOL    HW238274   0.788   0.505   5.990 -1.6841 -2.7785 -0.0042
 8881SOL     OW38275   2.768   0.701   7.239  0.6318 -0.0076 -0.4246
 8881SOL    HW138276   2.769   0.652   7.321  2.3617 -0.6277 -0.8097
 8881SOL    HW238277   2.842   0.761   7.252 -0.0124  0.8985 -0.8846
 8882SOL     OW38278   4.082   2.486   1.301 -0.1429  0.2730  0.2129
 8882SOL    HW138279   4.007   2.520   1.253 -0.6796 -0.1828  0.7167
 8882SOL    HW238280   4.145   2.479   1.230 -0.0654  3.9780 -0.0518
 8883SOL     OW38281   1.731   1.866   1.945 -0.1814 -0.6120  0.5129
 8883SOL    HW138282   1.695   1.913   2.020 -0.8736 -1.5393  0.7656
 8883SOL    HW238283   1.668   1.854   1.874  1.7007  0.7098 -1.3972
 8884SOL     OW38284   3.895   0.721   8.638  0.0525  0.2461 -0.3645
 8884SOL    HW138285   3.800   0.729   8.630 -0.2381  0.1999  3.0347
 8884SOL    HW238286   3.912   0.815   8.643 -0.6184  0.3913 -0.8779
 8885SOL     OW38287   3.803   2.321   6.386  0.7952 -0.0054 -0.3086
 8885SOL    HW138288   3.869   2.367   6.334  2.8546 -2.4072  0.1879
 8885SOL    HW238289   3.830   2.347   6.475  2.4739 -1.9139 -0.2521
 8886SOL     OW38290   0.297   2.426   9.066  0.0169 -0.0522 -0.4273
 8886SOL    HW138291   0.203   2.415   9.054  0.0908 -1.4359  0.3212
 8886SOL    HW238292   0.287   2.511   9.110 -0.6557 -0.0110 -0.6694
 8887SOL     OW38293   1.569   3.307  13.360 -0.0244 -0.3084  0.7150
 8887SOL    HW138294   1.550   3.316  13.453  1.6507  1.0241  0.9152
 8887SOL    HW238295   1.482   3.296  13.321 -0.3654  1.7966  0.8517
 8888SOL     OW38296   3.689   0.718   5.880 -0.5110 -0.1648 -0.2110
 8888SOL    HW138297   3.704   0.678   5.965  0.6628 -0.9418 -0.7891
 8888SOL    HW238298   3.733   0.648   5.832  2.2036  3.0582 -2.4184
 8889SOL     OW38299   2.542   1.043   2.773  0.2899  0.0431  0.2198
 8889SOL    HW138300   2.543   0.957   2.815 -0.6088  0.3011  0.7764
 8889SOL    HW238301   2.630   1.070   2.800  1.3708 -2.4276 -0.8872
 8890SOL     OW38302   1.714   2.888   2.864 -0.0430  0.0859  0.1777
 8890SOL    HW138303   1.679   2.807   2.828 -0.2341 -0.0379  0.6399
 8890SOL    HW238304   1.666   2.955   2.815  1.6408  0.9307 -0.3251
 8891SOL     OW38305   3.903   2.413   4.522  0.1970 -0.2129  0.1858
 8891SOL    HW138306   3.949   2.380   4.444  0.7293  0.9548  0.0040
 8891SOL    HW238307   3.933   2.504   4.519 -1.8136  0.4735  0.6201
 8892SOL     OW38308   3.349   3.132   6.751  0.4086 -0.2820  0.3898
 8892SOL    HW138309   3.358   3.149   6.658 -1.8339  3.0064  0.7914
 8892SOL    HW238310   3.417   3.180   6.798  0.4145  0.7755 -0.6927
 8893SOL     OW38311   1.296   4.390   2.928  0.0448 -0.5217  0.0942
 8893SOL    HW138312   1.330   4.363   2.842 -0.5402  1.2649 -0.7017
 8893SOL    HW238313   1.263   4.477   2.907 -0.9224 -1.1161 -0.8116
 8894SOL     OW38314   2.231   4.069   5.707  0.5260  0.5462  0.8519
 8894SOL    HW138315   2.268   4.033   5.627  1.1807  0.8629  1.0135
 8894SOL    HW238316   2.137   4.070   5.686  0.7343 -0.2214 -0.1252
 8895SOL     OW38317   4.696   1.498   9.244 -0.3712  0.1125  0.1884
 8895SOL    HW138318   4.641   1.436   9.195 -0.7972  1.0137 -0.4694
 8895SOL    HW238319   4.689   1.463   9.333 -0.0963 -1.0464 -0.2353
 8896SOL     OW38320   1.729   2.286  11.973  0.5026  0.1405 -0.2392
 8896SOL    HW138321   1.719   2.222  11.903 -1.6284  0.5799 -0.3307
 8896SOL    HW238322   1.762   2.366  11.931  1.3022 -0.5384 -0.8918
 8897SOL     OW38323   0.710   0.158   5.664  1.0387  0.2263 -0.7269
 8897SOL    HW138324   0.635   0.146   5.606  1.0845  0.7157 -0.8830
 8897SOL    HW238325   0.765   0.211   5.607  0.2223  1.8025 -0.0638
 8898SOL     OW38326   1.368   0.364  14.387 -0.5942  0.6034  0.2678
 8898SOL    HW138327   1.420   0.356  14.307  0.5468 -0.6716  1.1394
 8898SOL    HW238328   1.331   0.276  14.396 -0.0788  0.1549 -2.0655
 8899SOL     OW38329   0.078   1.018   4.986  0.2579 -0.1111  0.2995
 8899SOL    HW138330   0.164   1.054   4.965 -0.5294  0.3072 -2.1565
 8899SOL    HW238331   0.110   0.968   5.062  1.7087 -0.1968 -0.3700
 8900SOL     OW38332   1.903   4.486   6.442  0.0052  0.2049  0.0902
 8900SOL    HW138333   1.993   4.510   6.463  0.0288  0.1558  0.0433
 8900SOL    HW238334   1.856   4.554   6.490  0.0835 -1.0436  1.9328
 8901SOL     OW38335   2.831   0.632   6.985  0.3533  0.1640 -0.3810
 8901SOL    HW138336   2.850   0.637   7.079 -0.5326 -2.6597 -0.0633
 8901SOL    HW238337   2.855   0.721   6.958  0.1076  0.4724  0.4197
 8902SOL     OW38338   0.264   3.751   2.741  0.6107  0.4590 -0.0973
 8902SOL    HW138339   0.186   3.718   2.786  0.4988  2.0311  0.8557
 8902SOL    HW238340   0.219   3.747   2.656 -0.1069  1.5232  0.2194
 8903SOL     OW38341   1.970   1.780   8.532 -0.3455 -0.3422  0.1534
 8903SOL    HW138342   1.883   1.761   8.496 -0.5329 -1.7759  1.3594
 8903SOL    HW238343   1.963   1.871   8.559 -1.6563 -0.2200 -0.5780
 8904SOL     OW38344   2.130   2.818   7.824 -0.1367 -0.5449 -0.3649
 8904SOL    HW138345   2.054   2.775   7.863  0.4441 -1.2541 -0.0167
 8904SOL    HW238346   2.134   2.907   7.859  2.9232 -0.1680 -1.6642
 8905SOL     OW38347   1.274   3.860   9.247  0.1453 -0.1651  0.4830
 8905SOL    HW138348   1.331   3.788   9.221  1.4446  1.9976 -2.4893
 8905SOL    HW238349   1.202   3.812   9.290  0.4679 -1.4509 -0.4125
 8906SOL     OW38350   1.781   2.044   1.153  0.0642 -0.6519 -0.0237
 8906SOL    HW138351   1.817   2.020   1.068 -2.1538 -1.4713 -0.7142
 8906SOL    HW238352   1.751   2.135   1.152 -2.0016 -1.3384 -0.7868
 8907SOL     OW38353   1.355   2.118  12.198  0.4342  0.1921  0.3217
 8907SOL    HW138354   1.285   2.175  12.164  0.2674  0.5181  1.1962
 8907SOL    HW238355   1.426   2.180  12.216  0.7882  0.9312 -3.6239
 8908SOL     OW38356   4.110   0.128   9.737 -0.2925 -0.1710 -0.1993
 8908SOL    HW138357   4.040   0.115   9.673 -2.6836  0.3361  2.3096
 8908SOL    HW238358   4.175   0.165   9.676  0.3508 -0.3671  0.3684
 8909SOL     OW38359   2.720   4.572   4.956  0.3422 -0.1934  0.7639
 8909SOL    HW138360   2.734   4.482   4.986 -0.5775 -0.8066 -0.6326
 8909SOL    HW238361   2.759   4.629   5.021 -1.4293 -1.8205  3.2519
 8910SOL     OW38362   0.211   3.534   1.025 -0.1890  0.0411 -0.0333
 8910SOL    HW138363   0.258   3.613   1.000  0.8771 -0.5380  0.1237
 8910SOL    HW238364   0.136   3.544   0.966  1.5423 -2.8186 -2.7148
 8911SOL     OW38365   1.931   3.641   4.181 -0.0688  0.1204  0.0801
 8911SOL    HW138366   1.894   3.568   4.131 -0.2631  0.1265  0.2191
 8911SOL    HW238367   1.856   3.679   4.225 -0.6142 -2.1255  1.0879
 8912SOL     OW38368   0.099   2.838   3.628  0.3671  0.3918  0.3408
 8912SOL    HW138369   0.078   2.926   3.597  1.2891  0.7021  0.5923
 8912SOL    HW238370   0.010   2.808   3.643  0.7505 -1.1314 -0.3773
 8913SOL     OW38371   3.052   3.287   4.646 -0.5140  0.3139  0.4074
 8913SOL    HW138372   3.008   3.368   4.674  0.4049  1.2968 -0.9613
 8913SOL    HW238373   3.106   3.265   4.721  1.8837 -1.4156 -1.8297
 8914SOL     OW38374   2.720   1.072   4.757 -0.3628 -0.0887  0.0913
 8914SOL    HW138375   2.646   1.119   4.719 -0.5431 -0.1970  0.3070
 8914SOL    HW238376   2.680   1.004   4.811  2.0902 -0.0373  1.9805
 8915SOL     OW38377   3.662   4.421   6.538  0.1229  0.3159 -0.2645
 8915SOL    HW138378   3.659   4.326   6.550  0.2165  0.4753  1.0203
 8915SOL    HW238379   3.586   4.455   6.586 -0.0653  0.2835 -0.5384
 8916SOL     OW38380   1.127   2.108  15.139 -0.7001  0.0008  0.5873
 8916SOL    HW138381   1.168   2.192  15.117  1.2680 -2.2002 -4.0248
 8916SOL    HW238382   1.088   2.092  15.053 -2.7481 -0.6586  1.6459
 8917SOL     OW38383   1.293   1.680   5.858  0.2717  0.1725 -0.4289
 8917SOL    HW138384   1.303   1.752   5.796 -1.7766  0.7128 -0.1086
 8917SOL    HW238385   1.221   1.636   5.813  0.0591  2.4826 -2.3297
 8918SOL     OW38386   4.718   4.366   6.386  0.4376  0.7432 -0.4540
 8918SOL    HW138387   4.690   4.336   6.300  0.5567 -2.0500  0.4961
 8918SOL    HW238388   4.688   4.295   6.444 -1.8897 -0.3678 -3.0499
 8919SOL     OW38389   1.810   0.211  15.492 -0.1735  0.2394 -0.1983
 8919SOL    HW138390   1.763   0.174  15.418 -0.3650 -1.3034  0.6813
 8919SOL    HW238391   1.896   0.171  15.479 -0.3003 -0.7877  2.0718
 8920SOL     OW38392   0.301   3.469   8.608  0.1048 -0.1417 -0.0235
 8920SOL    HW138393   0.388   3.480   8.571  0.2149 -0.3296  0.1768
 8920SOL    HW238394   0.266   3.404   8.546 -0.3008  0.7472 -0.7191
 8921SOL     OW38395   1.645   0.881  11.159 -0.2149  0.2095  0.2165
 8921SOL    HW138396   1.561   0.872  11.113 -0.0190 -1.1655  0.1215
 8921SOL    HW238397   1.622   0.829  11.236  1.4849 -2.0784 -0.7883
 8922SOL     OW38398   2.527   0.396   1.726  0.3893  0.2070 -0.5900
 8922SOL    HW138399   2.550   0.312   1.686 -1.9100 -1.8137  2.3483
 8922SOL    HW238400   2.607   0.439   1.759 -0.2543  1.7521 -1.0516
 8923SOL     OW38401   1.945   2.461   8.096 -0.3630 -0.5511 -0.2193
 8923SOL    HW138402   1.902   2.517   8.031  0.6259  0.3726 -0.0866
 8923SOL    HW238403   1.967   2.382   8.047  1.2443 -1.4262  1.9086
 8924SOL     OW38404   1.418   0.153  16.801 -0.2118 -0.1129 -0.0737
 8924SOL    HW138405   1.493   0.203  16.768 -1.2009  1.1785 -0.3422
 8924SOL    HW238406   1.457   0.079  16.848  1.4127  2.0506  1.9742
 8925SOL     OW38407   0.164   3.015   7.839 -0.1926  0.2333 -0.2717
 8925SOL    HW138408   0.200   2.983   7.756  0.2985 -0.4248  0.1998
 8925SOL    HW238409   0.200   2.964   7.912 -1.4733  1.6259  1.3329
 8926SOL     OW38410   2.746   3.389   3.072 -0.8359  0.8002 -0.1404
 8926SOL    HW138411   2.690   3.336   3.015  0.0833 -0.6395  0.2849
 8926SOL    HW238412   2.673   3.394   3.135 -1.8387  0.2347 -1.2534
 8927SOL     OW38413   3.214   2.947   5.238 -0.3128 -0.5667  0.2522
 8927SOL    HW138414   3.260   3.025   5.210  0.2206  0.4258  3.8502
 8927SOL    HW238415   3.268   2.874   5.207  2.2834  1.1752  0.7314
 8928SOL     OW38416   4.705   1.446   7.034 -0.0593  0.2428  0.5268
 8928SOL    HW138417   4.673   1.466   7.122  0.3700  1.6418  0.3589
 8928SOL    HW238418   4.672   1.525   6.992 -0.5675 -0.1229  0.2350
 8929SOL     OW38419   0.710   3.047   2.039 -0.0500 -0.5909  0.5077
 8929SOL    HW138420   0.629   3.098   2.041 -0.0445 -0.5970  0.7923
 8929SOL    HW238421   0.688   3.015   1.951  2.2830 -0.6235 -0.0561
 8930SOL     OW38422   4.698   0.607  12.177 -0.1520  0.4085  0.4256
 8930SOL    HW138423   4.623   0.622  12.234  0.3053  0.4104  1.0246
 8930SOL    HW238424   0.002   0.536  12.222 -1.3579 -0.9700 -0.4723
 8931SOL     OW38425   3.534   3.288   6.902 -0.0885 -0.0333  0.4053
 8931SOL    HW138426   3.613   3.339   6.882  0.1779 -0.7515 -0.3907
 8931SOL    HW238427   3.559   3.270   6.993  0.0489 -0.8992  0.1913
 8932SOL     OW38428   3.506   1.722  12.148  0.3354  0.5825  0.3200
 8932SOL    HW138429   3.487   1.764  12.232  0.9535  2.5902 -0.5535
 8932SOL    HW238430   3.526   1.800  12.096 -2.4975  1.7355  0.9409
 8933SOL     OW38431   0.384   2.898   1.523 -0.1443 -0.3736 -0.0442
 8933SOL    HW138432   0.332   2.871   1.599 -0.3944  1.5767  0.4773
 8933SOL    HW238433   0.427   2.816   1.496 -1.1550 -0.0718 -2.6381
 8934SOL     OW38434   4.347   2.257  17.081  0.2663 -0.1840  0.3485
 8934SOL    HW138435   4.258   2.249  17.117 -0.2227  1.1593 -0.5500
 8934SOL    HW238436   4.358   2.352  17.076  0.8608 -0.2196  0.9686
 8935SOL     OW38437   2.264   4.062   8.214 -0.1136  0.0311  0.1062
 8935SOL    HW138438   2.277   4.118   8.291  1.7362  0.2277 -0.3523
 8935SOL    HW238439   2.212   3.991   8.251  0.3835 -0.4454 -0.1222
 8936SOL     OW38440   4.138   0.026   3.125  0.1739 -0.1757  0.4589
 8936SOL    HW138441   4.162   4.721   3.204 -0.5109  0.3297  0.9729
 8936SOL    HW238442   4.054   0.065   3.149  1.4721  0.8558  3.2842
 8937SOL     OW38443   4.608   0.142   5.350  0.3160  0.5229 -0.1360
 8937SOL    HW138444   4.679   0.202   5.372  0.1127  2.0285 -3.6120
 8937SOL    HW238445   4.597   0.170   5.259  1.4487 -0.0063 -0.4308
 8938SOL     OW38446   1.342   3.686  16.223  0.5372  0.2944 -0.3023
 8938SOL    HW138447   1.300   3.652  16.302  1.5448  2.9675  1.3978
 8938SOL    HW238448   1.272   3.710  16.163 -1.0407 -0.2874  1.2943
 8939SOL     OW38449   1.356   2.779   2.874 -0.3556 -0.2438  0.2511
 8939SOL    HW138450   1.360   2.773   2.969  0.4149  1.6285  0.3564
 8939SOL    HW238451   1.353   2.689   2.842  0.0075 -0.2498  0.2249
 8940SOL     OW38452   0.004   0.061   2.486  0.0810  0.1285 -0.4629
 8940SOL    HW138453   0.028   0.150   2.510 -1.0364  0.0028  1.1364
 8940SOL    HW238454   0.091   0.024   2.469 -0.0908 -0.0549 -0.9482
 8941SOL     OW38455   1.772   3.100   2.579  0.0342 -0.4245 -0.1425
 8941SOL    HW138456   1.685   3.078   2.547 -1.0926  1.8315  1.3562
 8941SOL    HW238457   1.761   3.179   2.633 -0.6991 -2.0117  2.0025
 8942SOL     OW38458   1.925   0.681   7.273  0.4082  0.3358 -0.1712
 8942SOL    HW138459   1.860   0.747   7.299 -1.0966 -0.0760 -2.9282
 8942SOL    HW238460   1.880   0.611   7.226 -0.4515  0.2958  0.7040
 8943SOL     OW38461   3.556   0.660   4.952  0.1893  0.0640 -0.0636
 8943SOL    HW138462   3.466   0.676   4.979 -1.3790 -3.8782 -2.8575
 8943SOL    HW238463   3.546   0.662   4.857 -2.1207 -1.7586  0.1441
 8944SOL     OW38464   4.513   2.599  17.668 -0.3666 -0.1853 -0.2523
 8944SOL    HW138465   4.437   2.655  17.680  0.0314  0.2347  0.3033
 8944SOL    HW238466   4.584   2.664  17.669  0.8461 -1.5135 -0.4040
 8945SOL     OW38467   4.014   2.325   5.924 -0.9685  0.6299  0.1154
 8945SOL    HW138468   3.939   2.379   5.900 -1.1668  1.0110  1.6242
 8945SOL    HW238469   3.963   2.250   5.954  0.0663 -0.5703 -1.0623
 8946SOL     OW38470   3.264   3.848   3.847  0.4674 -0.4211 -0.6619
 8946SOL    HW138471   3.319   3.818   3.920 -1.7552  0.7870  1.5001
 8946SOL    HW238472   3.259   3.943   3.856 -0.3289 -0.5883  0.5478
 8947SOL     OW38473   3.669   2.882   1.815 -0.7646 -0.1983 -0.6744
 8947SOL    HW138474   3.637   2.972   1.808 -1.3984 -0.3193  0.5924
 8947SOL    HW238475   3.617   2.870   1.895  1.3335 -3.6755  0.1606
 8948SOL     OW38476   2.735   0.890   9.540  0.3206 -0.5597 -0.5545
 8948SOL    HW138477   2.818   0.843   9.533  0.9574  0.5711 -0.6365
 8948SOL    HW238478   2.695   0.841   9.612  1.6868 -1.0751 -0.1489
 8949SOL     OW38479   1.364   1.672  15.424  0.0726  0.0630  0.0221
 8949SOL    HW138480   1.388   1.734  15.355  0.4355 -0.0185  0.0756
 8949SOL    HW238481   1.300   1.719  15.478  0.6335 -0.0176  0.7586
 8950SOL     OW38482   3.249   3.340   9.063  0.1381 -0.1051  0.0559
 8950SOL    HW138483   3.318   3.363   9.125  1.0296 -1.7153 -0.3567
 8950SOL    HW238484   3.186   3.411   9.079 -2.1075 -1.1811 -4.0559
 8951SOL     OW38485   4.068   2.851   5.681  0.1412  0.2962  0.3232
 8951SOL    HW138486   3.984   2.840   5.636  0.1491  0.7188  0.2066
 8951SOL    HW238487   4.099   2.761   5.667  1.1345  0.9704 -1.7833
 8952SOL     OW38488   2.886   2.526  13.812 -0.2490 -0.3890 -0.2880
 8952SOL    HW138489   2.922   2.507  13.899  2.7654  1.6036 -1.1436
 8952SOL    HW238490   2.886   2.622  13.813 -0.8804 -0.3831 -0.4894
 8953SOL     OW38491   1.921   0.098   0.679  0.6284  0.3793  0.0317
 8953SOL    HW138492   1.983   0.171   0.672  0.8712  0.0982 -0.8232
 8953SOL    HW238493   1.956   0.043   0.749 -0.6243 -0.9708 -0.4154
 8954SOL     OW38494   0.064   3.276  17.680  0.4082 -0.0787  0.5223
 8954SOL    HW138495   0.074   3.341  17.610 -2.0420  0.9306  1.1202
 8954SOL    HW238496   0.152   3.286  17.716 -0.3287  0.4130  2.1662
 8955SOL     OW38497   2.770   1.476   5.555 -0.0707  0.2044  0.1714
 8955SOL    HW138498   2.739   1.564   5.579 -1.0443  0.1079 -0.7713
 8955SOL    HW238499   2.847   1.486   5.499  0.4345  1.3968  1.0596
 8956SOL     OW38500   1.764   4.212   9.671 -0.1193  0.3741 -0.4203
 8956SOL    HW138501   1.711   4.134   9.686  2.6215 -1.1960  1.0472
 8956SOL    HW238502   1.751   4.247   9.759 -0.6717  0.5840 -0.5875
 8957SOL     OW38503   2.261   3.344  16.090 -0.6604 -0.2794 -0.3243
 8957SOL    HW138504   2.288   3.415  16.149  0.4399 -1.0824  0.1261
 8957SOL    HW238505   2.326   3.281  16.121 -1.0345 -0.1250  0.7965
 8958SOL     OW38506   1.065   3.271   4.700 -0.4125 -0.0831 -0.0769
 8958SOL    HW138507   0.983   3.321   4.705 -2.2325 -3.1543  0.7879
 8958SOL    HW238508   1.085   3.295   4.610  0.3164 -0.2379  0.0502
 8959SOL     OW38509   4.586   1.995   2.210  0.0103  0.1525 -0.8865
 8959SOL    HW138510   4.515   1.936   2.185 -1.0648  0.3344  1.6783
 8959SOL    HW238511   4.623   2.013   2.124 -1.6535  2.4506 -1.1423
 8960SOL     OW38512   0.677   2.906   2.355 -0.0655  0.0421  0.0771
 8960SOL    HW138513   0.698   2.955   2.275 -2.7239  2.1583  0.6758
 8960SOL    HW238514   0.636   2.824   2.331 -0.6064  0.6139 -0.9591
 8961SOL     OW38515   3.864   2.106   9.354 -0.3386 -0.2956 -0.4629
 8961SOL    HW138516   3.890   2.153   9.275  0.4500  3.8777  2.2667
 8961SOL    HW238517   3.832   2.178   9.409 -1.3359 -0.3242 -1.0090
 8962SOL     OW38518   3.402   3.802   3.443 -0.2454  0.2870  0.2893
 8962SOL    HW138519   3.458   3.797   3.521  2.3701  3.4426 -1.4118
 8962SOL    HW238520   3.390   3.897   3.439 -0.7788  0.2629  1.2680
 8963SOL     OW38521   2.637   4.360   6.757 -0.2785  0.0341 -0.3378
 8963SOL    HW138522   2.545   4.360   6.783  0.6086  1.5425  2.9286
 8963SOL    HW238523   2.679   4.333   6.840  0.2138  0.1167 -0.5589
 8964SOL     OW38524   2.755   1.954   8.746 -0.0060 -0.7750 -0.0314
 8964SOL    HW138525   2.697   1.886   8.782  0.7941 -0.4496  1.8713
 8964SOL    HW238526   2.793   1.916   8.667 -0.9374 -1.2525 -0.2493
 8965SOL     OW38527   4.017   3.153   7.576 -0.4267  0.0255  0.4091
 8965SOL    HW138528   3.947   3.087   7.571 -0.3379 -0.0348 -0.0268
 8965SOL    HW238529   4.013   3.181   7.668 -2.2566 -0.3595  0.4601
 8966SOL     OW38530   3.153   1.168   5.172  0.1797 -0.4554  0.7451
 8966SOL    HW138531   3.079   1.162   5.112 -1.0217 -0.3767  2.2084
 8966SOL    HW238532   3.194   1.244   5.130  0.7452 -0.4026  1.3966
 8967SOL     OW38533   0.660   4.088   5.216 -0.1896 -0.6801  0.3132
 8967SOL    HW138534   0.748   4.075   5.180 -1.1664  1.1612 -2.7861
 8967SOL    HW238535   0.646   4.007   5.266  2.1094 -0.4711  1.2583
 8968SOL     OW38536   2.306   3.759   6.987 -0.2807 -0.1592  0.9359
 8968SOL    HW138537   2.238   3.796   6.931 -0.9379  1.0083  2.4767
 8968SOL    HW238538   2.331   3.681   6.937  1.0231  0.6100  0.3911
 8969SOL     OW38539   3.537   0.972   2.640 -0.0380 -0.5407  0.2298
 8969SOL    HW138540   3.544   0.993   2.733 -1.6257 -0.7750  0.4006
 8969SOL    HW238541   3.571   1.045   2.588  1.3030 -2.0956 -1.0948
 8970SOL     OW38542   3.806   4.208   8.410 -0.2351 -0.1320  0.0630
 8970SOL    HW138543   3.871   4.278   8.407  0.8662 -1.2673 -2.2889
 8970SOL    HW238544   3.760   4.221   8.493 -1.0471  2.5549 -0.8015
 8971SOL     OW38545   3.785   3.518   2.350 -0.2720  0.4916  0.5994
 8971SOL    HW138546   3.812   3.530   2.441 -0.2935  1.9791  0.4044
 8971SOL    HW238547   3.736   3.599   2.336 -0.8127 -0.1008 -0.9095
 8972SOL     OW38548   3.452   2.974  15.712 -0.0318  0.3132  0.1981
 8972SOL    HW138549   3.413   2.890  15.737 -0.7590  1.0332  1.4586
 8972SOL    HW238550   3.461   3.023  15.794  2.4350 -0.5900  0.4752
 8973SOL     OW38551   4.021   3.116  11.029 -0.0025 -0.4560 -0.1058
 8973SOL    HW138552   3.986   3.072  10.952  0.5145  2.2635 -1.8960
 8973SOL    HW238553   3.952   3.179  11.052  0.2930  0.6033 -2.1581
 8974SOL     OW38554   3.008   1.213   9.548  0.4297  0.3811 -0.1862
 8974SOL    HW138555   3.079   1.196   9.487  1.1209  0.6394  0.5434
 8974SOL    HW238556   3.039   1.192   9.636 -1.0688 -0.8333  0.0466
 8975SOL     OW38557   1.639   2.252   1.727 -0.3256  0.6690  0.4785
 8975SOL    HW138558   1.578   2.231   1.797 -2.2577  1.9199 -0.8490
 8975SOL    HW238559   1.650   2.175   1.671 -0.7230  0.6134  0.4778
 8976SOL     OW38560   1.750   2.426   9.704 -0.0040 -0.3695 -0.0339
 8976SOL    HW138561   1.754   2.440   9.609  0.0795  0.5876  0.1030
 8976SOL    HW238562   1.699   2.506   9.719  0.1671 -0.2633 -0.0067
 8977SOL     OW38563   4.564   1.526   5.455  0.6444 -0.1690  0.9274
 8977SOL    HW138564   4.567   1.611   5.413 -1.9844 -0.6741 -0.2706
 8977SOL    HW238565   4.652   1.533   5.491  0.5413 -2.1801  1.5717
 8978SOL     OW38566   0.099   0.856   4.295 -0.2473  0.5527 -0.1120
 8978SOL    HW138567   0.103   0.923   4.363  1.3027 -1.7588  2.0735
 8978SOL    HW238568   0.059   0.784   4.343  0.2608 -0.7938 -1.6958
 8979SOL     OW38569   4.467   2.228   1.898 -0.2335 -0.0406  0.2163
 8979SOL    HW138570   4.544   2.182   1.930 -0.1770 -0.4073 -0.4465
 8979SOL    HW238571   4.406   2.210   1.970  1.5904  0.4599  1.8596
 8980SOL     OW38572   4.188   3.247   2.860 -0.2548 -0.2850 -0.2821
 8980SOL    HW138573   4.235   3.268   2.941  0.0078  4.4708 -1.6640
 8980SOL    HW238574   4.208   3.154   2.853 -0.0203 -0.2552 -0.0181
 8981SOL     OW38575   0.535   1.785  11.214  0.2279  0.2352 -0.2567
 8981SOL    HW138576   0.592   1.858  11.188  0.1730 -0.3877 -2.1440
 8981SOL    HW238577   0.449   1.819  11.188  0.9577  1.1527 -1.4741
 8982SOL     OW38578   4.421   0.743  16.643  0.6773 -0.4465  0.7202
 8982SOL    HW138579   4.446   0.653  16.664  1.5179 -0.3732 -0.0140
 8982SOL    HW238580   4.379   0.766  16.726 -0.8388 -0.3196 -0.0798
 8983SOL     OW38581   2.081   4.527   4.657 -0.1640 -0.0893 -0.4200
 8983SOL    HW138582   2.078   4.490   4.746 -1.1159 -1.6238 -1.1020
 8983SOL    HW238583   2.168   4.502   4.628 -0.3157 -1.0735 -0.0160
 8984SOL     OW38584   4.221   4.582   2.950  0.0922  0.2014 -0.3640
 8984SOL    HW138585   4.257   4.560   3.036 -1.3388 -2.5368 -0.4536
 8984SOL    HW238586   4.182   4.667   2.969 -4.1444 -1.8555  0.2000
 8985SOL     OW38587   0.436   4.552   4.832  0.5761 -0.4418 -0.3133
 8985SOL    HW138588   0.516   4.542   4.884 -0.6957 -0.2720  1.6789
 8985SOL    HW238589   0.414   4.643   4.850  2.5211 -0.0595  0.1689
 8986SOL     OW38590   2.492   1.867   9.252 -0.2680  0.3415 -0.1946
 8986SOL    HW138591   2.500   1.948   9.201  1.5113  1.3054  1.5991
 8986SOL    HW238592   2.398   1.854   9.243 -0.0835 -0.9414 -0.2864
 8987SOL     OW38593   1.595   2.061  15.403  0.4076 -0.0049 -0.0987
 8987SOL    HW138594   1.630   2.046  15.315  3.0230 -0.4310  1.0372
 8987SOL    HW238595   1.661   2.004  15.442  0.7113 -0.1884 -0.8711
 8988SOL     OW38596   0.729   2.413   3.956 -0.1137  0.3273  0.1512
 8988SOL    HW138597   0.784   2.491   3.967  0.7130  0.0248 -1.8298
 8988SOL    HW238598   0.713   2.391   4.048  1.0282 -1.6261 -0.1284
 8989SOL     OW38599   3.431   0.736  14.354  0.0078 -0.5830 -0.0183
 8989SOL    HW138600   3.430   0.786  14.272 -0.8041  0.9042  0.8946
 8989SOL    HW238601   3.359   0.676  14.334  0.5798 -0.9548 -0.9116
 8990SOL     OW38602   2.884   2.019   0.859 -0.2183 -0.1328 -0.7011
 8990SOL    HW138603   2.793   2.001   0.881 -0.4166  1.1561 -0.4749
 8990SOL    HW238604   2.872   2.098   0.807  2.1458  1.7699  1.6002
 8991SOL     OW38605   4.551   1.254   8.266 -0.1492  0.8155  0.6439
 8991SOL    HW138606   4.475   1.286   8.219  0.0826 -1.0799 -1.0314
 8991SOL    HW238607   4.619   1.246   8.199 -0.2220 -1.6311  0.8654
 8992SOL     OW38608   0.732   3.160   1.779 -0.4300  0.1146  0.2706
 8992SOL    HW138609   0.806   3.220   1.771  0.3790 -0.8983  0.1898
 8992SOL    HW238610   0.660   3.218   1.806 -0.7162  0.5431 -1.4552
 8993SOL     OW38611   0.482   1.013   7.211 -0.7102 -0.1052 -0.0520
 8993SOL    HW138612   0.496   1.049   7.299  0.9624  1.6953 -1.0383
 8993SOL    HW238613   0.388   0.995   7.209 -0.5412 -1.0301  0.3239
 8994SOL     OW38614   0.485   4.092   2.578  0.7184 -0.7056  0.0704
 8994SOL    HW138615   0.402   4.139   2.567 -1.1089 -3.9060  0.3442
 8994SOL    HW238616   0.471   4.009   2.533 -0.5187 -1.0770  1.1322
 8995SOL     OW38617   1.744   1.456   6.712  0.3246  0.6284  0.3978
 8995SOL    HW138618   1.817   1.475   6.771  0.6256 -1.0082  0.5534
 8995SOL    HW238619   1.673   1.439   6.773  0.7984  2.1022  1.3607
 8996SOL     OW38620   2.351   3.427   2.448  0.0625  0.2960 -0.2339
 8996SOL    HW138621   2.415   3.485   2.407 -0.8086  2.2604  1.1803
 8996SOL    HW238622   2.313   3.402   2.364  1.8873 -0.4139 -0.8458
 8997SOL     OW38623   2.136   3.201   4.660 -0.0719 -0.1801  0.2891
 8997SOL    HW138624   2.141   3.284   4.612 -2.1818 -0.4312 -0.3373
 8997SOL    HW238625   2.172   3.228   4.745  0.4314 -0.8027  0.2711
 8998SOL     OW38626   2.973   2.026   6.824  0.1060  0.6979  0.2490
 8998SOL    HW138627   2.919   2.049   6.749  0.6674 -1.0452 -0.6829
 8998SOL    HW238628   3.019   2.109   6.837 -0.4019  1.0024  0.0844
 8999SOL     OW38629   4.362   3.300  17.754  0.2734 -0.0620 -0.1540
 8999SOL    HW138630   4.288   3.318   0.040  0.0397 -0.2638 -0.3904
 8999SOL    HW238631   4.433   3.283   0.045 -0.2199  1.9393  0.9636
 9000SOL     OW38632   3.433   1.144   3.439 -0.1842 -0.0064  0.4722
 9000SOL    HW138633   3.355   1.193   3.466 -0.0589 -1.2679  3.1629
 9000SOL    HW238634   3.444   1.081   3.510  2.6225  0.0505  0.0960
 9001SOL     OW38635   1.267   2.400   8.304 -0.1909 -0.0820 -0.3020
 9001SOL    HW138636   1.249   2.388   8.210 -0.4507 -0.8673 -0.1522
 9001SOL    HW238637   1.183   2.384   8.346 -1.4820  2.9808 -1.6875
 9002SOL     OW38638   0.646   0.112   3.226  0.0892  0.1892  0.8903
 9002SOL    HW138639   0.574   0.112   3.163  0.7329 -8.0231  0.1829
 9002SOL    HW238640   0.704   0.183   3.197  0.6990 -1.0013 -0.8259
 9003SOL     OW38641   4.395   3.235   2.067  0.2787  0.5063  0.2083
 9003SOL    HW138642   4.302   3.220   2.051  0.6879 -0.8770 -0.8107
 9003SOL    HW238643   4.403   3.250   2.162  4.7066  0.1128 -0.0774
 9004SOL     OW38644   2.064   2.526   9.638  0.5873 -0.5914 -0.4291
 9004SOL    HW138645   1.971   2.532   9.615  1.1585  0.9437 -2.3498
 9004SOL    HW238646   2.106   2.477   9.567 -0.2456 -1.4318 -0.3367
 9005SOL     OW38647   0.966   0.403  14.201 -0.4204  0.1788 -0.0830
 9005SOL    HW138648   0.981   0.497  14.195  1.5792 -0.2093 -0.8591
 9005SOL    HW238649   0.874   0.393  14.229 -0.0235  0.8750  1.5000
 9006SOL     OW38650   3.894   1.818   1.726 -0.0753  0.1989 -0.0784
 9006SOL    HW138651   3.908   1.884   1.658 -3.3554 -0.7111 -1.6299
 9006SOL    HW238652   3.887   1.876   1.802  4.4332  1.9011 -0.9835
 9007SOL     OW38653   3.630   3.666   4.645  0.2030  0.2117 -0.0323
 9007SOL    HW138654   3.577   3.588   4.630  0.2073  0.6148 -2.0750
 9007SOL    HW238655   3.624   3.677   4.740 -1.0802 -0.2610 -0.0647
 9008SOL     OW38656   2.574   1.881   8.105 -0.5674  0.4801 -0.2021
 9008SOL    HW138657   2.562   1.834   8.023  0.7928 -0.7562  0.3249
 9008SOL    HW238658   2.498   1.851   8.156  1.0903 -1.1635  1.3064
 9009SOL     OW38659   1.060   4.106   0.710  0.0223 -0.4714 -0.1871
 9009SOL    HW138660   1.002   4.144   0.775  0.2285  0.9815 -0.8637
 9009SOL    HW238661   0.999   4.103   0.636  0.2700  0.9008 -0.4312
 9010SOL     OW38662   3.316   2.871   5.507 -0.3776  0.2227 -0.2070
 9010SOL    HW138663   3.308   2.884   5.413 -2.1269  1.3674  0.1024
 9010SOL    HW238664   3.323   2.958   5.545 -3.0408 -0.4120  1.8078
 9011SOL     OW38665   2.892   1.106   7.323  0.1101  0.0244 -0.0578
 9011SOL    HW138666   2.885   1.031   7.263 -0.2022  0.4719 -0.5822
 9011SOL    HW238667   2.904   1.176   7.260 -2.8602  0.5497 -0.0326
 9012SOL     OW38668   2.914   1.491   7.999 -0.2457 -0.6072  0.1195
 9012SOL    HW138669   2.895   1.515   8.089 -1.6243 -0.7768 -0.1266
 9012SOL    HW238670   2.957   1.572   7.973 -1.5094  0.3970  1.1621
 9013SOL     OW38671   2.468   2.193   7.619  0.0769 -0.3255  0.5197
 9013SOL    HW138672   2.489   2.189   7.526 -2.8824  0.7911 -0.2110
 9013SOL    HW238673   2.544   2.150   7.659 -0.2306 -0.1071  1.3415
 9014SOL     OW38674   2.682   0.713   6.348 -0.5165  0.4472  0.3370
 9014SOL    HW138675   2.635   0.762   6.280  1.6218  1.1008 -0.6654
 9014SOL    HW238676   2.640   0.747   6.426 -0.3579 -0.3038  0.7528
 9015SOL     OW38677   0.995   4.556   9.651 -0.6467  0.0543 -0.2896
 9015SOL    HW138678   0.908   4.589   9.628  0.3227  0.8328 -2.8423
 9015SOL    HW238679   0.980   4.548   9.746  2.4516  3.8466  0.5287
 9016SOL     OW38680   1.208   4.716  12.541  0.6933  0.5313  0.3228
 9016SOL    HW138681   1.184   4.669  12.621 -1.6273  1.6633  0.3137
 9016SOL    HW238682   1.145   4.693  12.473  1.5425  2.0618 -0.9830
 9017SOL     OW38683   2.049   4.504  16.844 -0.1706  0.0035 -0.2431
 9017SOL    HW138684   2.115   4.470  16.783  0.2842  0.7388 -0.1500
 9017SOL    HW238685   2.027   4.589  16.806 -0.3061 -0.6566 -1.6784
 9018SOL     OW38686   0.449   0.399   4.111 -0.6741 -0.1651  0.4317
 9018SOL    HW138687   0.467   0.330   4.175  1.5521  0.3379  0.3496
 9018SOL    HW238688   0.472   0.358   4.028 -2.1503  3.4569 -1.7508
 9019SOL     OW38689   2.730   1.257  16.157  0.0400 -0.1848 -0.2613
 9019SOL    HW138690   2.747   1.269  16.250 -0.5254 -2.0086  0.0789
 9019SOL    HW238691   2.752   1.345  16.126  1.4630  0.3623  2.2778
 9020SOL     OW38692   3.721   0.590   0.559  0.3716  0.2633 -0.3493
 9020SOL    HW138693   3.725   0.520   0.624 -1.5124  1.3209  0.9070
 9020SOL    HW238694   3.750   0.549   0.477 -0.1285  1.5809 -1.1777
 9021SOL     OW38695   3.337   4.371   1.508 -0.0758 -0.4598  0.1107
 9021SOL    HW138696   3.299   4.459   1.513 -0.4625 -0.6385  0.2965
 9021SOL    HW238697   3.322   4.341   1.598 -2.3195  1.3864  0.3414
 9022SOL     OW38698   2.352   4.524   7.138  0.2918 -0.1019 -0.3163
 9022SOL    HW138699   2.307   4.566   7.064  0.4516 -0.8941 -0.8641
 9022SOL    HW238700   2.340   4.435   7.106  0.4135 -0.3304  0.2775
 9023SOL     OW38701   2.056   3.333   6.652 -0.2986  0.3113 -0.4649
 9023SOL    HW138702   2.033   3.257   6.705  2.0353  0.9969  1.5448
 9023SOL    HW238703   1.982   3.393   6.655  0.0277  0.5336  2.5513
 9024SOL     OW38704   0.053   0.679   0.217 -0.5484  0.2131 -0.3913
 9024SOL    HW138705   0.100   0.602   0.185  1.1099  0.9261  0.2837
 9024SOL    HW238706   0.048   0.737   0.141 -0.1588 -1.1702 -1.4599
 9025SOL     OW38707   2.783   4.010   1.462 -0.4003  0.3941  0.2333
 9025SOL    HW138708   2.803   3.921   1.435  4.1063  1.3406  0.4550
 9025SOL    HW238709   2.705   4.029   1.410  0.1635  2.7183  0.2125
 9026SOL     OW38710   1.253   2.013   3.269 -0.2282  0.0614  0.0194
 9026SOL    HW138711   1.206   1.942   3.223 -0.5601  1.5381 -1.9171
 9026SOL    HW238712   1.205   2.087   3.231 -0.2088  0.3945  0.6543
 9027SOL     OW38713   2.504   2.096   2.758 -0.0018  0.2140  0.1039
 9027SOL    HW138714   2.461   2.028   2.706 -1.5952  1.9680 -0.8535
 9027SOL    HW238715   2.571   2.039   2.797 -1.3814 -0.7843  1.0135
 9028SOL     OW38716   4.474   1.967   6.564  0.1555 -0.4063 -0.3817
 9028SOL    HW138717   4.425   1.896   6.523  0.0305 -0.8825  0.5980
 9028SOL    HW238718   4.411   1.996   6.631 -1.7935  1.6959 -3.1157
 9029SOL     OW38719   4.225   2.727   6.092 -0.1278  0.5935 -0.5031
 9029SOL    HW138720   4.290   2.662   6.065 -0.3744  0.8466 -1.7184
 9029SOL    HW238721   4.277   2.806   6.110  0.7866  0.0788 -0.8907
 9030SOL     OW38722   4.195   1.731   7.711 -0.3100  0.1061 -0.5148
 9030SOL    HW138723   4.187   1.637   7.693  0.9931  0.4506 -2.9373
 9030SOL    HW238724   4.287   1.732   7.736 -0.8906  2.4053  1.5019
 9031SOL     OW38725   0.660   3.517   4.997  0.1252 -0.1419  0.1112
 9031SOL    HW138726   0.691   3.604   5.021 -1.7783  0.9288 -1.3473
 9031SOL    HW238727   0.692   3.510   4.907  0.7650 -1.3975  0.4328
 9032SOL     OW38728   4.034   0.546   3.532 -0.6794 -0.0341  0.1981
 9032SOL    HW138729   4.109   0.544   3.590  0.4116 -0.6494 -1.2418
 9032SOL    HW238730   3.976   0.484   3.577  0.3385 -0.9840  0.1817
 9033SOL     OW38731   0.902   2.566   9.590 -0.1550  0.5406  0.6667
 9033SOL    HW138732   0.875   2.479   9.620 -0.7421 -0.2035 -2.0748
 9033SOL    HW238733   0.837   2.573   9.520  2.3126  1.0439 -1.5601
 9034SOL     OW38734   0.763   1.721   1.687 -0.4315  0.4951 -0.0157
 9034SOL    HW138735   0.715   1.667   1.750  1.3729  0.2496  1.1296
 9034SOL    HW238736   0.727   1.804   1.719 -4.8963 -1.7798  0.9754
 9035SOL     OW38737   0.463   0.570  12.385 -0.2160  0.4327 -0.1386
 9035SOL    HW138738   0.546   0.523  12.398 -0.4151  0.2330  0.4309
 9035SOL    HW238739   0.493   0.660  12.371  1.8538 -0.3730 -0.9711
 9036SOL     OW38740   4.348   3.658   8.444 -0.8280 -0.0852  0.2388
 9036SOL    HW138741   4.274   3.626   8.495 -0.3434  0.0325  1.0210
 9036SOL    HW238742   4.345   3.754   8.451  0.7860 -0.0472  0.4318
 9037SOL     OW38743   4.127   3.920   9.694  0.4522 -0.7041  0.2479
 9037SOL    HW138744   4.216   3.886   9.692  1.7127  2.6481 -0.7922
 9037SOL    HW238745   4.135   3.952   9.784  0.1956 -2.0406  0.7400
 9038SOL     OW38746   3.222   1.143   7.750 -0.1469  0.5164  0.0840
 9038SOL    HW138747   3.265   1.226   7.729 -1.2864  1.0686 -0.0624
 9038SOL    HW238748   3.159   1.181   7.810  1.9088  0.1045  2.4956
 9039SOL     OW38749   1.456   0.223  13.908  0.9293 -0.8614  0.2934
 9039SOL    HW138750   1.447   0.305  13.859 -1.3054 -1.3825 -0.1985
 9039SOL    HW238751   1.410   0.163  13.849  0.4999 -0.9589  0.7271
 9040SOL     OW38752   4.404   2.380   2.805 -0.0612 -0.0514 -0.5226
 9040SOL    HW138753   4.394   2.376   2.901  2.1655 -2.3901 -0.3843
 9040SOL    HW238754   4.440   2.293   2.791 -1.8412 -0.6576 -1.1834
 9041SOL     OW38755   1.674   4.740   3.153  0.0214 -0.1452  0.0424
 9041SOL    HW138756   1.580   4.722   3.156  0.0466 -0.7498 -2.8942
 9041SOL    HW238757   1.705   4.691   3.229  0.3915  1.1917  0.7460
 9042SOL     OW38758   3.893   2.553   6.803  0.1097  0.3813  0.2767
 9042SOL    HW138759   3.940   2.637   6.805 -0.3936  0.6134  2.2773
 9042SOL    HW238760   3.872   2.555   6.709  3.6575 -0.8717 -0.5492
 9043SOL     OW38761   4.677   1.423   6.663  0.1339  0.1452  0.0102
 9043SOL    HW138762   4.688   1.352   6.600 -1.3626 -1.1278  1.1880
 9043SOL    HW238763   0.011   1.478   6.652 -2.1924  3.0378 -2.0878
 9044SOL     OW38764   2.823   3.372   2.682  0.3908 -0.4166 -0.3610
 9044SOL    HW138765   2.841   3.416   2.766  0.7779 -0.3184 -0.4931
 9044SOL    HW238766   2.731   3.390   2.666  0.7813  1.3040 -0.6804
 9045SOL     OW38767   1.088   0.879   2.695  0.3648 -0.6051 -0.0295
 9045SOL    HW138768   1.060   0.902   2.607 -3.0526 -0.9851  0.9842
 9045SOL    HW238769   1.049   0.794   2.716 -0.3131  0.3136  2.4189
 9046SOL     OW38770   1.346   4.478  14.618  0.0953 -0.5417 -0.1613
 9046SOL    HW138771   1.392   4.432  14.548  1.4762 -0.9203  0.9952
 9046SOL    HW238772   1.395   4.443  14.693  0.1213  3.3654  1.6505
 9047SOL     OW38773   4.565   3.130   9.029  0.3127 -0.0699  0.2094
 9047SOL    HW138774   4.583   3.037   9.015  2.5062  0.0084  2.4226
 9047SOL    HW238775   4.642   3.159   8.982 -0.8585  2.2986 -0.2335
 9048SOL     OW38776   0.512   2.719  17.287 -0.1097 -0.5248  0.4841
 9048SOL    HW138777   0.605   2.713  17.309 -0.0721  2.2008  1.1020
 9048SOL    HW238778   0.506   2.792  17.225 -0.3024 -1.2834 -0.4046
 9049SOL     OW38779   1.671   2.829  12.711 -0.5187 -0.2192 -0.4405
 9049SOL    HW138780   1.753   2.781  12.707  0.2600  1.2008 -1.8930
 9049SOL    HW238781   1.668   2.869  12.624  2.7072 -0.3797 -0.5983
 9050SOL     OW38782   0.785   4.028   1.481  0.8349 -0.1814  0.3774
 9050SOL    HW138783   0.773   3.957   1.543  0.7012 -0.0081  0.5501
 9050SOL    HW238784   0.808   4.097   1.543  0.6950  1.1360 -1.0049
 9051SOL     OW38785   4.419   3.753   5.674 -0.3230  0.2063 -0.2735
 9051SOL    HW138786   4.420   3.677   5.732 -0.4521  0.8578  0.5854
 9051SOL    HW238787   4.392   3.826   5.729  1.3180 -0.6486  1.6510
 9052SOL     OW38788   4.452   1.129   4.373  0.3659  0.0494 -0.0976
 9052SOL    HW138789   4.497   1.114   4.456  1.3511  1.3379 -0.3941
 9052SOL    HW238790   4.514   1.094   4.309  1.1694  4.1535 -1.5732
 9053SOL     OW38791   4.288   1.465  11.962 -0.3673 -0.1334 -0.8619
 9053SOL    HW138792   4.268   1.487  12.053  3.3961 -0.1292 -0.0604
 9053SOL    HW238793   4.340   1.388  11.981  0.7303  0.4328 -1.5697
 9054SOL     OW38794   3.426   0.054   9.712 -0.3882 -0.0651 -0.2747
 9054SOL    HW138795   3.420   0.094   9.798 -0.5827  1.1575 -0.8669
 9054SOL    HW238796   3.340   0.062   9.670  0.5283 -0.7204 -2.2960
 9055SOL     OW38797   0.385   3.282   3.150  0.3787 -0.2059 -0.5660
 9055SOL    HW138798   0.334   3.313   3.075  2.2470  0.3105 -1.6112
 9055SOL    HW238799   0.453   3.348   3.142 -0.2522  0.6932  1.6450
 9056SOL     OW38800   2.489   4.170  16.333 -0.4243  0.1796  0.1579
 9056SOL    HW138801   2.426   4.123  16.279 -0.2437 -1.7796  1.6461
 9056SOL    HW238802   2.568   4.158  16.280 -1.2309 -1.0801 -0.7523
 9057SOL     OW38803   3.754   3.238   3.986  0.5284 -0.4446  0.1907
 9057SOL    HW138804   3.748   3.316   4.042  0.3265 -1.4897  1.6445
 9057SOL    HW238805   3.754   3.169   4.053 -0.6831 -0.6382 -0.0231
 9058SOL     OW38806   4.252   2.103   6.318 -0.0817  0.1414 -0.9067
 9058SOL    HW138807   4.288   2.062   6.397 -0.1547 -2.2727 -2.1150
 9058SOL    HW238808   4.162   2.074   6.336 -0.2122  0.2231 -1.4137
 9059SOL     OW38809   4.050   4.522   4.400 -0.0622  0.7226 -0.4040
 9059SOL    HW138810   4.008   4.604   4.426  1.5784  1.6173 -0.5682
 9059SOL    HW238811   3.978   4.461   4.385  1.0171 -1.0013  1.3121
 9060SOL     OW38812   0.627   1.995  16.004  0.1697  0.4704  0.6526
 9060SOL    HW138813   0.597   1.979  16.093  0.6177 -0.3043  0.6640
 9060SOL    HW238814   0.722   2.000  16.014 -0.0620  1.3855  2.4426
 9061SOL     OW38815   0.931   1.604   4.107 -0.7557 -0.5589 -0.6661
 9061SOL    HW138816   0.896   1.593   4.196 -1.4504 -0.0637 -0.8819
 9061SOL    HW238817   0.850   1.589   4.058  0.0725 -1.4252 -1.7533
 9062SOL     OW38818   0.523   1.534  11.023 -0.2402 -0.0715 -0.0802
 9062SOL    HW138819   0.467   1.477  11.076  1.2325 -0.6750  0.8224
 9062SOL    HW238820   0.506   1.616  11.070  1.4023 -1.2593  2.5648
 9063SOL     OW38821   0.070   4.448   1.979  0.6719 -0.0188  0.1422
 9063SOL    HW138822   4.730   4.429   2.022  0.1038  1.9208 -0.1122
 9063SOL    HW238823   0.047   4.515   1.915  1.4787 -0.6006 -0.7440
 9064SOL     OW38824   2.941   0.127   1.058 -0.6820 -0.2542  0.2654
 9064SOL    HW138825   3.014   0.078   1.018  0.2429  0.5060  1.0366
 9064SOL    HW238826   2.903   0.157   0.975  0.5612  2.5287  0.6838
 9065SOL     OW38827   2.453   0.363   6.090 -0.0395  0.0379 -0.1394
 9065SOL    HW138828   2.539   0.342   6.126 -0.3010 -0.2912  0.2886
 9065SOL    HW238829   2.417   0.277   6.072  1.7632 -1.1577  1.9388
 9066SOL     OW38830   1.740   4.337   2.584  0.1010  0.2564  0.4045
 9066SOL    HW138831   1.809   4.270   2.581 -0.0318  0.1507 -0.2683
 9066SOL    HW238832   1.790   4.415   2.560  0.7384 -0.3339 -0.1916
 9067SOL     OW38833   0.192   1.961   7.281  0.4088  0.0095 -0.2406
 9067SOL    HW138834   0.141   1.980   7.360 -0.6893  3.1624 -1.7023
 9067SOL    HW238835   0.147   2.010   7.212 -1.0436  1.6465  1.8543
 9068SOL     OW38836   4.291   3.816   9.406 -0.3705  0.0169 -0.2413
 9068SOL    HW138837   4.259   3.733   9.439  0.3587 -0.2033 -0.0829
 9068SOL    HW238838   4.385   3.802   9.418 -0.0685  0.2716 -2.3451
 9069SOL     OW38839   4.398   2.466  17.408 -0.3484  0.1270  0.0544
 9069SOL    HW138840   4.304   2.484  17.418 -0.5013 -0.0768 -0.9629
 9069SOL    HW238841   4.442   2.525  17.468 -1.9398  0.3746  0.9859
 9070SOL     OW38842   1.245   0.300   8.186 -0.2692  0.4332 -0.2597
 9070SOL    HW138843   1.288   0.347   8.114 -1.4755 -0.2237 -1.4041
 9070SOL    HW238844   1.214   0.368   8.245  0.3505  2.3648 -2.1664
 9071SOL     OW38845   2.332   2.112  10.666  0.1221  0.0682 -0.3990
 9071SOL    HW138846   2.411   2.067  10.696 -0.1664  0.0457  0.3187
 9071SOL    HW238847   2.269   2.040  10.681 -0.5153  1.0622  1.7128
 9072SOL     OW38848   0.748   2.967  11.503 -0.0148  0.1215 -0.3235
 9072SOL    HW138849   0.764   2.877  11.534 -1.1528  0.1801  0.4440
 9072SOL    HW238850   0.688   2.954  11.430  1.1880 -0.0825 -1.2741
 9073SOL     OW38851   3.095   1.265   7.960 -0.3758  0.3882  0.1848
 9073SOL    HW138852   3.141   1.252   8.043  0.2923 -1.4612 -0.4710
 9073SOL    HW238853   3.038   1.341   7.975  0.6233  0.8749  1.4947
 9074SOL     OW38854   1.498   3.892   7.038 -0.4171 -0.1881 -0.6734
 9074SOL    HW138855   1.470   3.973   7.080 -0.9740 -0.6088 -0.2305
 9074SOL    HW238856   1.556   3.857   7.106  4.4436  0.7596 -4.3049
 9075SOL     OW38857   0.390   0.634   6.921 -0.8533  0.1461 -0.3231
 9075SOL    HW138858   0.391   0.717   6.969  1.1331  1.3660 -2.4231
 9075SOL    HW238859   0.482   0.609   6.930 -1.0653 -0.8269 -0.8602
 9076SOL     OW38860   0.891   1.576   3.418  0.3030 -0.6219 -0.3819
 9076SOL    HW138861   0.875   1.628   3.340 -1.2777 -0.7183 -0.1158
 9076SOL    HW238862   0.985   1.584   3.436  0.3347 -2.0924  0.1498
 9077SOL     OW38863   3.702   0.356   0.153 -0.1604 -0.2476  0.2306
 9077SOL    HW138864   3.625   0.334   0.101  0.0428 -0.9974  0.2361
 9077SOL    HW238865   3.749   0.418   0.097 -1.0162 -0.0927 -0.3010
 9078SOL     OW38866   2.865   0.997  10.172  0.6836 -0.1384 -0.0736
 9078SOL    HW138867   2.773   1.021  10.181 -0.0022 -1.9298 -2.4510
 9078SOL    HW238868   2.889   1.054  10.245 -0.7668 -0.6529  0.7964
 9079SOL     OW38869   3.641   1.225   2.521  0.6013  0.1522  0.3079
 9079SOL    HW138870   3.715   1.215   2.582  1.2237 -3.4549 -1.0415
 9079SOL    HW238871   3.577   1.281   2.566  1.4775 -0.4202  2.2752
 9080SOL     OW38872   2.090   4.558  17.677  0.4858 -0.4339  1.0076
 9080SOL    HW138873   2.172   4.576  17.631  0.2922  0.6185  1.0803
 9080SOL    HW238874   2.027   4.599  17.619  3.6535  0.6965 -1.6499
 9081SOL     OW38875   1.309   0.314  16.015 -0.3726  0.1833  0.4914
 9081SOL    HW138876   1.234   0.350  16.061 -1.3830 -1.6607  0.2725
 9081SOL    HW238877   1.367   0.291  16.087 -0.8362 -0.6498  0.5958
 9082SOL     OW38878   2.705   3.306   7.394 -0.5353 -0.1606 -0.4609
 9082SOL    HW138879   2.767   3.236   7.414  0.8655  1.5756  1.2709
 9082SOL    HW238880   2.618   3.265   7.400 -0.2356 -1.0593 -2.3926
 9083SOL     OW38881   4.467   3.042   0.186 -0.0805  0.7289  0.1419
 9083SOL    HW138882   4.532   3.111   0.181 -0.8992  1.5018  0.0960
 9083SOL    HW238883   4.389   3.096   0.201 -0.0895  1.5524 -2.8369
 9084SOL     OW38884   1.499   3.637   2.415  0.1597  0.1527  0.5006
 9084SOL    HW138885   1.459   3.593   2.340  2.0499 -2.5727  1.1172
 9084SOL    HW238886   1.440   3.713   2.422  1.8357  1.4973  0.1181
 9085SOL     OW38887   2.209   1.134  12.139 -0.0283 -0.9122 -0.4379
 9085SOL    HW138888   2.131   1.182  12.168  0.0374 -0.8193 -0.4140
 9085SOL    HW238889   2.286   1.176  12.178 -0.4098 -2.1223  1.6149
 9086SOL     OW38890   2.563   3.372   3.307 -0.1247  0.0625 -0.2250
 9086SOL    HW138891   2.651   3.359   3.342  1.3800  0.2577 -3.8280
 9086SOL    HW238892   2.519   3.300   3.351 -0.2055 -0.5976 -1.3702
 9087SOL     OW38893   2.412   3.163   4.874  0.1175  0.3057  0.1763
 9087SOL    HW138894   2.424   3.216   4.795  0.6014 -1.1939 -0.7537
 9087SOL    HW238895   2.329   3.197   4.906 -0.0001  0.1505  0.0322
 9088SOL     OW38896   1.619   3.260   3.928 -0.3814  0.3524 -0.8886
 9088SOL    HW138897   1.626   3.180   3.877 -2.2706 -0.5935  0.3326
 9088SOL    HW238898   1.540   3.302   3.894 -1.7904 -1.7013 -0.1517
 9089SOL     OW38899   4.453   2.009  17.130  0.0634  0.1369 -0.2501
 9089SOL    HW138900   4.488   2.088  17.091 -0.0865 -0.4127 -1.4833
 9089SOL    HW238901   4.365   2.008  17.092 -0.9268  0.0105  1.9942
 9090SOL     OW38902   1.940   2.304   9.246 -0.2702 -0.5130 -0.1993
 9090SOL    HW138903   1.956   2.347   9.162  0.1906  0.8741  0.5942
 9090SOL    HW238904   2.022   2.255   9.253 -0.7204 -1.4256 -1.3568
 9091SOL     OW38905   3.251   1.840   8.395  0.5268  0.2031  0.1112
 9091SOL    HW138906   3.177   1.813   8.450 -0.2325 -3.1837 -2.5922
 9091SOL    HW238907   3.265   1.762   8.341 -0.1390  0.8905 -1.0650
 9092SOL     OW38908   3.027   1.528  11.631  0.3604 -0.3421 -0.5566
 9092SOL    HW138909   3.098   1.485  11.583  1.1859  1.3301 -0.8408
 9092SOL    HW238910   3.067   1.547  11.716 -1.1279  1.1046 -0.1979
 9093SOL     OW38911   4.271   3.442  15.360 -0.0387 -0.7772  0.5368
 9093SOL    HW138912   4.185   3.478  15.382 -0.1995 -1.5027  1.0747
 9093SOL    HW238913   4.267   3.440  15.264 -1.9327  1.4690  0.5596
 9094SOL     OW38914   3.068   3.595  17.244 -0.5735  0.1228 -0.1557
 9094SOL    HW138915   3.114   3.613  17.326  0.7962 -0.6925 -0.7559
 9094SOL    HW238916   3.145   3.561  17.199 -0.1409  0.1127  0.5941
 9095SOL     OW38917   1.612   0.675   1.151 -0.0435  0.4954 -0.0296
 9095SOL    HW138918   1.679   0.622   1.110 -1.6415 -1.6895  0.1740
 9095SOL    HW238919   1.553   0.602   1.169 -1.2931  1.1736 -1.3385
 9096SOL     OW38920   0.683   3.735  14.740  0.7282 -0.3789  0.3342
 9096SOL    HW138921   0.669   3.829  14.736  0.0610 -0.4268  1.5789
 9096SOL    HW238922   0.707   3.723  14.648 -0.7369  2.8694 -0.4507
 9097SOL     OW38923   2.632   4.440   9.239 -0.0386  0.2679 -0.3252
 9097SOL    HW138924   2.587   4.383   9.177  0.4107  0.7936 -1.1383
 9097SOL    HW238925   2.679   4.373   9.290 -2.0006 -0.1452  0.9234
 9098SOL     OW38926   4.702   0.451   3.259 -0.6934  0.5496 -0.3374
 9098SOL    HW138927   4.633   0.480   3.199  0.9667  2.6059 -1.2313
 9098SOL    HW238928   4.674   0.360   3.269  1.1505  0.3667  2.8703
 9099SOL     OW38929   4.161   3.535  10.485  0.4879 -0.1175 -0.0762
 9099SOL    HW138930   4.246   3.549  10.528  0.9564  1.6047 -1.5169
 9099SOL    HW238931   4.111   3.615  10.500 -0.5299 -0.8092  0.1817
 9100SOL     OW38932   0.107   3.225   8.019 -0.3467  0.3871  0.0633
 9100SOL    HW138933   0.173   3.291   7.997  4.2335 -3.9191  0.9529
 9100SOL    HW238934   0.120   3.160   7.951  3.5434  0.1524  1.0461
 9101SOL     OW38935   1.420   0.061   5.418 -0.0985  0.5868 -0.3130
 9101SOL    HW138936   1.468   0.018   5.489  0.0366  3.4622  1.3523
 9101SOL    HW238937   1.491   0.097   5.364  0.5175 -0.2774 -0.0835
 9102SOL     OW38938   1.443   2.879  14.998  0.1192 -0.5943 -0.2777
 9102SOL    HW138939   1.459   2.895  14.905 -1.5079 -1.9366 -0.8013
 9102SOL    HW238940   1.353   2.912  15.003  0.0746 -0.9229  0.8880
 9103SOL     OW38941   0.985   2.782   1.235 -0.4498 -0.0165  0.3299
 9103SOL    HW138942   1.060   2.790   1.294 -0.2822  2.6368 -0.2360
 9103SOL    HW238943   1.002   2.868   1.195 -0.3235 -0.1853  0.0210
 9104SOL     OW38944   3.285   1.172  10.068 -0.2552 -0.2810 -0.2614
 9104SOL    HW138945   3.258   1.187  10.159  0.4194 -3.5045  0.4939
 9104SOL    HW238946   3.329   1.253  10.042  0.8899 -0.5964  0.6744
 9105SOL     OW38947   2.644   4.452  12.000  0.1316 -0.1499 -0.6856
 9105SOL    HW138948   2.682   4.414  11.921  1.1358  0.6193 -0.5616
 9105SOL    HW238949   2.686   4.400  12.069  0.7628  1.9686  0.5455
 9106SOL     OW38950   0.694   2.329  15.729 -0.4477 -0.4035 -0.5831
 9106SOL    HW138951   0.718   2.259  15.667 -1.6155 -0.3050 -1.1347
 9106SOL    HW238952   0.639   2.285  15.793 -0.5872  2.0295  0.9710
 9107SOL     OW38953   2.422   1.066   6.004  0.0216  0.3794 -0.1142
 9107SOL    HW138954   2.364   1.037   6.075 -0.2276 -1.2196 -0.9761
 9107SOL    HW238955   2.426   1.161   6.014 -0.6452  0.4147 -0.1893
 9108SOL     OW38956   4.527   1.465   5.095 -0.1000  0.2420  0.2415
 9108SOL    HW138957   4.546   1.415   5.174  0.8535  0.0386 -0.1250
 9108SOL    HW238958   4.612   1.470   5.052  0.2429  0.5696  0.9792
 9109SOL     OW38959   0.352   3.040   8.370  0.4848  0.2454 -0.1879
 9109SOL    HW138960   0.280   3.038   8.306 -0.0817 -3.2278  0.5867
 9109SOL    HW238961   0.421   3.005   8.314 -2.3106 -0.5598 -3.1590
 9110SOL     OW38962   0.156   0.513   2.165  0.8172  0.2361  0.3969
 9110SOL    HW138963   0.192   0.484   2.081  0.9498 -1.4837  1.0665
 9110SOL    HW238964   0.087   0.451   2.190  0.0870  0.2191 -1.6864
 9111SOL     OW38965   0.337   0.602  12.128 -0.5993  0.5182  0.3330
 9111SOL    HW138966   0.285   0.675  12.160 -0.8099 -0.2112  1.6495
 9111SOL    HW238967   0.411   0.605  12.188  0.3174  0.7092 -0.8020
 9112SOL     OW38968   3.549   4.113   8.909 -0.0275 -0.1343  0.3268
 9112SOL    HW138969   3.594   4.166   8.844  0.4671 -1.0374 -0.0685
 9112SOL    HW238970   3.463   4.154   8.896 -0.8667 -1.6864  0.8669
 9113SOL     OW38971   2.442   1.118  15.840 -0.3303  0.6440  0.2235
 9113SOL    HW138972   2.470   1.193  15.892 -1.8133  0.7516  0.8765
 9113SOL    HW238973   2.456   1.045  15.901  0.9418 -0.0209 -0.8613
 9114SOL     OW38974   3.181   3.249   9.540  0.1354  0.6558 -0.0465
 9114SOL    HW138975   3.245   3.182   9.565 -3.5824 -1.8662  2.7032
 9114SOL    HW238976   3.138   3.191   9.478  1.2394  1.1153 -1.2527
 9115SOL     OW38977   0.519   3.573  16.887 -0.1579  0.4098 -0.4067
 9115SOL    HW138978   0.563   3.529  16.959  3.8597  0.5103 -2.8198
 9115SOL    HW238979   0.587   3.587  16.822  0.4296  0.6116  0.2566
 9116SOL     OW38980   1.003   0.297  17.061 -0.0907  0.2522 -0.3323
 9116SOL    HW138981   0.981   0.294  17.154 -1.1255  1.7961 -0.5262
 9116SOL    HW238982   1.099   0.300  17.066 -0.1260  0.1079  0.4217
 9117SOL     OW38983   3.802   1.147  16.726 -0.0345 -0.2316  0.2734
 9117SOL    HW138984   3.748   1.095  16.786 -1.6128 -1.6956 -2.4187
 9117SOL    HW238985   3.763   1.229  16.756  0.2558 -1.0034  2.7123
 9118SOL     OW38986   1.149   0.776   5.215  0.3614  0.2923  0.7053
 9118SOL    HW138987   1.059   0.772   5.248 -0.2086  3.1612 -0.4756
 9118SOL    HW238988   1.190   0.803   5.297  1.0544  0.9445  0.1425
 9119SOL     OW38989   2.618   0.939   8.310 -0.5630 -0.0589 -0.5409
 9119SOL    HW138990   2.589   0.960   8.221 -1.5438  1.7626  0.2047
 9119SOL    HW238991   2.538   0.900   8.345  0.5869 -2.3104 -0.4139
 9120SOL     OW38992   0.450   2.760   2.842 -0.2466 -0.0655 -0.2089
 9120SOL    HW138993   0.356   2.745   2.828 -0.3912 -1.7871  2.4814
 9120SOL    HW238994   0.468   2.693   2.909  1.2425 -0.0207 -0.5701
 9121SOL     OW38995   2.282   3.229   8.584 -0.4092  0.7377  0.2511
 9121SOL    HW138996   2.306   3.320   8.605 -1.3063  1.1499 -0.4939
 9121SOL    HW238997   2.309   3.218   8.492 -0.6135  1.1793  0.1350
 9122SOL     OW38998   1.084   1.751   3.896  0.2349  0.4581  0.4913
 9122SOL    HW138999   0.993   1.722   3.904  1.1409 -2.9744 -1.8083
 9122SOL    HW239000   1.092   1.785   3.986  0.0082  1.1871  0.2391
 9123SOL     OW39001   3.990   3.506   6.717  0.0347  0.0531 -0.4541
 9123SOL    HW139002   4.085   3.497   6.711 -0.0599 -1.4250  0.1903
 9123SOL    HW239003   3.963   3.457   6.639 -1.1112 -0.2894  0.1650
 9124SOL     OW39004   4.585   2.185  13.532  0.6336  0.5950 -0.2185
 9124SOL    HW139005   4.510   2.234  13.564 -0.3052 -0.5905 -0.6230
 9124SOL    HW239006   4.534   2.105  13.529  0.3412  0.7544  0.5362
 9125SOL     OW39007   1.771   0.949  11.460  0.0385 -0.1169 -0.2737
 9125SOL    HW139008   1.860   0.928  11.432  0.8365  1.1044  1.3232
 9125SOL    HW239009   1.733   0.867  11.429 -1.8998  0.8491 -0.4363
 9126SOL     OW39010   2.094   4.339   1.348 -0.0878  0.1324  0.2401
 9126SOL    HW139011   2.052   4.420   1.321  0.0848  0.6349  1.4763
 9126SOL    HW239012   2.143   4.357   1.428  1.2812 -1.6419 -0.1886
 9127SOL     OW39013   3.553   3.407   6.421  0.3880 -0.1204 -0.2601
 9127SOL    HW139014   3.527   3.318   6.442  0.8428 -0.3437 -0.6438
 9127SOL    HW239015   3.521   3.426   6.333 -1.4817  0.3360  0.5243
 9128SOL     OW39016   4.606   0.960   7.359 -0.2030 -0.4019  0.2705
 9128SOL    HW139017   4.625   0.986   7.268  1.7405 -1.6299  0.3133
 9128SOL    HW239018   4.555   0.880   7.351 -0.7467  0.0047 -0.3046
 9129SOL     OW39019   1.895   1.777   9.316  0.1922  0.4276  0.4664
 9129SOL    HW139020   1.851   1.860   9.337  0.4967  0.2108  1.9155
 9129SOL    HW239021   1.914   1.744   9.404  1.3497 -1.0908 -0.3738
 9130SOL     OW39022   0.870   1.915   3.005  0.2148  0.3823 -0.4500
 9130SOL    HW139023   0.891   2.004   2.977 -0.1850  0.4126 -0.6533
 9130SOL    HW239024   0.899   1.859   2.933 -0.6436 -2.6604  1.5573
 9131SOL     OW39025   1.689   3.730   0.156  0.4967  0.3197 -0.1470
 9131SOL    HW139026   1.659   3.683   0.233 -1.1444 -0.1040 -1.0472
 9131SOL    HW239027   1.682   3.666   0.086  4.3278 -0.6193  0.3315
 9132SOL     OW39028   2.088   3.673   3.386 -0.2079 -0.8002 -0.1074
 9132SOL    HW139029   2.125   3.676   3.474  1.3472 -0.8050 -0.7494
 9132SOL    HW239030   2.160   3.632   3.337 -1.2245 -1.3625 -1.1365
 9133SOL     OW39031   1.338   4.666  10.492  0.1102 -0.2481 -0.1924
 9133SOL    HW139032   1.254   4.704  10.467  0.8703  2.2706  1.0883
 9133SOL    HW239033   1.390   4.661  10.411 -1.0002 -0.1216 -0.9074
 9134SOL     OW39034   0.260   3.065   1.271  0.1575 -1.1216 -0.4590
 9134SOL    HW139035   0.272   2.999   1.340 -1.9889 -0.5594  0.4685
 9134SOL    HW239036   0.205   3.028   1.203  0.6167 -0.1578 -1.3499
 9135SOL     OW39037   3.070   0.368  17.753 -0.2583 -0.4694 -0.1182
 9135SOL    HW139038   3.089   0.295  17.693 -0.0764  0.0680 -0.7127
 9135SOL    HW239039   3.091   0.340   0.071 -1.3499 -0.4454  0.1415
 9136SOL     OW39040   3.154   2.554   1.512 -0.3803  0.5397 -0.4228
 9136SOL    HW139041   3.082   2.539   1.574 -0.6742 -0.7304 -1.0716
 9136SOL    HW239042   3.129   2.502   1.435 -0.0741 -0.1474 -0.0549
 9137SOL     OW39043   1.191   1.786   7.499  0.2867  0.3640 -0.3104
 9137SOL    HW139044   1.162   1.757   7.585 -0.9172  1.6967 -0.2682
 9137SOL    HW239045   1.102   1.790   7.463 -0.2722 -0.5997  0.9662
 9138SOL     OW39046   4.603   4.643   4.552 -0.0711  0.2298 -0.0580
 9138SOL    HW139047   4.547   4.601   4.617  0.1058 -0.0973 -0.1132
 9138SOL    HW239048   4.551   4.718   4.525  0.6828  0.9239  0.3978
 9139SOL     OW39049   4.506   1.250   9.279  0.9563  0.3326 -0.6543
 9139SOL    HW139050   4.465   1.275   9.197 -2.8629  2.2854  1.8334
 9139SOL    HW239051   4.461   1.168   9.300 -0.4370  1.5750  1.2146
 9140SOL     OW39052   2.267   2.825   7.559 -0.3438 -0.3750 -0.0917
 9140SOL    HW139053   2.236   2.794   7.644  0.5085  1.0543  0.7325
 9140SOL    HW239054   2.219   2.908   7.558  2.4321  1.2267  0.3061
 9141SOL     OW39055   0.852   0.990   8.111  0.2286  0.0391  0.1789
 9141SOL    HW139056   0.824   0.995   8.020  2.3502 -1.5670 -0.5570
 9141SOL    HW239057   0.946   0.993   8.094 -0.0350 -2.8609 -1.7363
 9142SOL     OW39058   2.898   4.639   9.172 -0.6323  0.0686 -0.2447
 9142SOL    HW139059   2.802   4.639   9.164 -0.5275  1.6300 -1.4488
 9142SOL    HW239060   2.929   4.582   9.102  1.5255 -0.3897  1.1030
 9143SOL     OW39061   1.159   2.193   4.091  0.2310 -0.3226  0.1051
 9143SOL    HW139062   1.219   2.199   4.165 -0.1954  2.5689  0.2123
 9143SOL    HW239063   1.078   2.165   4.133 -0.1910  2.5546  1.1885
 9144SOL     OW39064   2.839   2.617   9.115  0.3152 -0.2969  0.2228
 9144SOL    HW139065   2.898   2.568   9.058  1.5062  1.2502  0.1258
 9144SOL    HW239066   2.813   2.547   9.175  0.2245 -0.1004  0.4113
 9145SOL     OW39067   0.241   4.478   6.399 -0.2933 -0.3396  0.3656
 9145SOL    HW139068   0.155   4.440   6.417 -0.2158 -1.7204 -2.1346
 9145SOL    HW239069   0.221   4.545   6.334 -0.4841 -0.8707 -0.1298
 9146SOL     OW39070   1.918   4.318  12.359 -0.2996  0.6466 -0.0216
 9146SOL    HW139071   1.983   4.295  12.425 -3.0535 -2.2843  1.6659
 9146SOL    HW239072   1.976   4.339  12.286 -2.3480  2.3456 -1.1847
 9147SOL     OW39073   2.584   2.275  10.601 -0.5691  0.2183  0.0159
 9147SOL    HW139074   2.628   2.200  10.641  0.7801 -0.1937 -2.2596
 9147SOL    HW239075   2.495   2.252  10.626 -1.0693  2.3718  0.2110
 9148SOL     OW39076   0.400   3.687  17.332  0.1644  0.2398  0.4837
 9148SOL    HW139077   0.407   3.635  17.252  4.3003  2.2330 -0.4420
 9148SOL    HW239078   0.433   3.772  17.301  1.6064 -0.3121  0.5347
 9149SOL     OW39079   4.411   1.449   6.733 -0.0428  0.1765 -0.1652
 9149SOL    HW139080   4.501   1.449   6.701  0.2260  1.7896  0.6019
 9149SOL    HW239081   4.378   1.364   6.704 -3.9097  0.8961  2.0974
 9150SOL     OW39082   2.899   4.375   5.429  0.4296  0.2475  0.2430
 9150SOL    HW139083   2.995   4.377   5.434  0.4592 -3.5392  1.3814
 9150SOL    HW239084   2.894   4.280   5.423  1.7744  0.0197  2.3770
 9151SOL     OW39085   2.833   4.138   3.093 -0.0318 -0.0347 -0.2211
 9151SOL    HW139086   2.768   4.171   3.155 -0.0346 -1.2507  0.4298
 9151SOL    HW239087   2.859   4.223   3.059 -0.6627  0.1339 -0.2895
 9152SOL     OW39088   1.317   0.193   3.525 -0.1602 -0.4387 -0.4052
 9152SOL    HW139089   1.276   0.276   3.549 -1.2413 -0.2968 -2.7702
 9152SOL    HW239090   1.238   0.144   3.503 -0.2831  0.2644 -1.5205
 9153SOL     OW39091   0.246   0.877  16.583 -0.4323 -0.1116  0.0468
 9153SOL    HW139092   0.304   0.826  16.639  0.9698  0.6235 -0.7410
 9153SOL    HW239093   0.255   0.965  16.620  3.1699 -0.3267 -0.3098
 9154SOL     OW39094   4.469   3.046  10.255 -0.1035  0.2305  0.5514
 9154SOL    HW139095   4.477   3.030  10.348  1.8377  0.6343  0.4523
 9154SOL    HW239096   4.558   3.080  10.242 -1.0843  2.3350 -0.6477
 9155SOL     OW39097   1.120   1.868   7.948 -0.1394 -0.8552  0.4988
 9155SOL    HW139098   1.191   1.804   7.957 -0.1436 -0.8667  0.4483
 9155SOL    HW239099   1.168   1.951   7.945  1.1439 -1.5271  2.2744
 9156SOL     OW39100   0.558   1.082   6.662  0.2690 -0.2869 -0.3126
 9156SOL    HW139101   0.538   1.059   6.753 -2.5103  2.3815 -0.2468
 9156SOL    HW239102   0.622   1.021   6.626  1.1875  0.5310 -0.0296
 9157SOL     OW39103   4.055   1.260   9.787 -0.1428 -0.0067  0.1401
 9157SOL    HW139104   3.987   1.320   9.756 -0.3918 -1.2013 -1.6811
 9157SOL    HW239105   4.134   1.312   9.793  1.9699 -3.1860  0.0701
 9158SOL     OW39106   2.896   1.764   1.724 -0.3294  0.6808 -0.3030
 9158SOL    HW139107   2.955   1.834   1.694  3.0590 -2.0767 -0.0833
 9158SOL    HW239108   2.919   1.755   1.816  2.5925 -0.4578 -1.1524
 9159SOL     OW39109   2.117   3.391   8.325 -0.3898  0.0831  0.4850
 9159SOL    HW139110   2.101   3.397   8.231  1.1364 -0.9996  0.1653
 9159SOL    HW239111   2.137   3.299   8.310  1.7433  0.4535  1.1251
 9160SOL     OW39112   4.738   0.667   1.157 -0.1890 -0.0343 -0.6733
 9160SOL    HW139113   4.719   0.595   1.216 -1.2410  1.4014  0.7378
 9160SOL    HW239114   4.737   0.629   1.069  2.9593  0.8556 -1.1065
 9161SOL     OW39115   2.882   4.642   2.767 -0.1014 -0.5985 -0.4205
 9161SOL    HW139116   2.866   4.607   2.679  0.1422 -0.6102 -0.4600
 9161SOL    HW239117   2.792   4.655   2.796  0.2675  0.7645  0.1056
 9162SOL     OW39118   1.147   2.516   4.863 -0.1204  0.4921  1.1194
 9162SOL    HW139119   1.145   2.420   4.865  0.6996  0.4713  1.2826
 9162SOL    HW239120   1.058   2.542   4.887 -0.5861  0.6241 -0.7890
 9163SOL     OW39121   3.732   0.251  11.152  0.3759 -0.4531  0.3115
 9163SOL    HW139122   3.746   0.157  11.157  4.0925 -0.0348 -1.5834
 9163SOL    HW239123   3.638   0.260  11.140  0.5570  1.7107  0.4810
 9164SOL     OW39124   3.552   4.277   9.660 -0.2275 -0.3390 -0.5150
 9164SOL    HW139125   3.598   4.215   9.603 -3.2756 -1.0813 -2.1577
 9164SOL    HW239126   3.612   4.351   9.657 -1.2918  0.5104 -1.2094
 9165SOL     OW39127   0.732   0.967   3.144 -0.2777  0.8852  0.3510
 9165SOL    HW139128   0.654   0.950   3.195 -0.4228 -2.2385 -0.8907
 9165SOL    HW239129   0.805   0.950   3.203  1.3291 -2.3836 -2.5258
 9166SOL     OW39130   1.108   0.386  16.175  0.0646  0.2062  0.3781
 9166SOL    HW139131   1.056   0.466  16.169  0.6132  0.5288 -0.0406
 9166SOL    HW239132   1.046   0.319  16.204 -0.9373  0.8083 -0.3719
 9167SOL     OW39133   4.107   2.068   9.482  0.7482 -0.0836 -0.1100
 9167SOL    HW139134   4.093   2.135   9.548 -1.1948  1.0171 -1.6578
 9167SOL    HW239135   4.022   2.081   9.441  1.0904 -0.9135 -1.0905
 9168SOL     OW39136   1.157   3.651  17.725 -0.3064  0.4101  0.2910
 9168SOL    HW139137   1.087   3.638   0.017 -0.4256  1.3217  0.3566
 9168SOL    HW239138   1.204   3.568  17.732 -1.4414 -0.4052 -2.0362
 9169SOL     OW39139   3.290   1.371   4.555  0.6770 -0.3751  0.2521
 9169SOL    HW139140   3.245   1.363   4.639 -0.6031  2.4965 -0.1711
 9169SOL    HW239141   3.314   1.282   4.529 -0.3293 -0.8506  0.9760
 9170SOL     OW39142   4.663   2.896   2.920 -0.6315  0.4014 -0.5956
 9170SOL    HW139143   4.741   2.940   2.887  0.6785 -0.9247  0.7467
 9170SOL    HW239144   4.647   2.833   2.850  1.6428  0.8681 -1.5394
 9171SOL     OW39145   0.340   3.582   1.465  0.1502  0.4474 -0.1581
 9171SOL    HW139146   0.301   3.507   1.421 -1.4349  0.1050  1.8139
 9171SOL    HW239147   0.322   3.566   1.558  2.5376  2.5185  0.6665
 9172SOL     OW39148   2.719   0.103   4.614  0.0941 -0.7797 -0.0902
 9172SOL    HW139149   2.684   0.162   4.547 -0.8904 -1.5433 -0.2516
 9172SOL    HW239150   2.732   0.026   4.558 -1.9673 -0.4019 -1.0827
 9173SOL     OW39151   3.904   2.049   1.501 -0.0130  0.2142  0.2201
 9173SOL    HW139152   3.921   2.069   1.409  2.3144  2.9587  1.2438
 9173SOL    HW239153   3.814   2.079   1.511 -0.5866 -1.7018  0.8424
 9174SOL     OW39154   2.088   3.551  16.316  0.5491 -0.2460  0.0674
 9174SOL    HW139155   2.053   3.483  16.259 -2.5638  1.6805 -0.3004
 9174SOL    HW239156   2.101   3.500  16.396 -1.0228  0.2211  0.6213
 9175SOL     OW39157   4.545   0.593   9.103 -0.1188 -0.1609  0.2785
 9175SOL    HW139158   4.457   0.585   9.140 -0.1438 -3.0619 -0.4040
 9175SOL    HW239159   4.597   0.540   9.164  0.9897  0.4182 -0.1694
 9176SOL     OW39160   4.462   0.386   4.359  0.0703 -0.4126  0.0126
 9176SOL    HW139161   4.535   0.405   4.301 -0.1410 -2.2230 -0.8728
 9176SOL    HW239162   4.495   0.429   4.437  0.4963  1.1510 -1.0360
 9177SOL     OW39163   4.269   0.944   8.747 -0.0147  0.4687  0.0315
 9177SOL    HW139164   4.345   0.895   8.778 -0.5509 -0.5925 -0.3187
 9177SOL    HW239165   4.318   1.023   8.728  1.8063 -0.5708  0.4009
 9178SOL     OW39166   0.303   3.269   9.265 -0.9257 -0.1007  0.3407
 9178SOL    HW139167   0.378   3.260   9.324 -0.4917 -1.1991 -0.3546
 9178SOL    HW239168   0.281   3.360   9.281 -2.9948 -0.2790 -1.5406
 9179SOL     OW39169   3.050   0.945   6.024 -0.5464 -0.1635  0.1001
 9179SOL    HW139170   3.099   0.865   6.043  0.1485  0.6310  1.6274
 9179SOL    HW239171   3.003   0.955   6.107 -1.5483  2.3076 -0.7491
 9180SOL     OW39172   3.522   4.594  12.422 -0.1821  0.5252 -0.3788
 9180SOL    HW139173   3.463   4.603  12.347  1.1741  0.2214 -1.4716
 9180SOL    HW239174   3.610   4.588  12.384  0.7421 -2.5859  2.3071
 9181SOL     OW39175   2.148   3.071   7.547  0.4171  0.1076 -0.8913
 9181SOL    HW139176   2.092   3.081   7.470 -0.8643 -0.9458 -0.0957
 9181SOL    HW239177   2.166   3.162   7.572  2.5787 -0.6434  0.3661
 9182SOL     OW39178   3.070   3.889   9.018  0.3240 -0.3004  0.4959
 9182SOL    HW139179   2.991   3.835   9.022 -0.1348  0.4668  1.7138
 9182SOL    HW239180   3.097   3.867   8.929 -3.5583  0.9248 -0.9729
 9183SOL     OW39181   4.144   3.617  15.079  0.9043  0.3859  0.1137
 9183SOL    HW139182   4.101   3.641  14.996 -0.0216  0.4118  0.5992
 9183SOL    HW239183   4.077   3.583  15.138  1.5157 -1.2732 -0.1241
 9184SOL     OW39184   3.219   1.934  13.770 -0.6190  1.2193 -0.4875
 9184SOL    HW139185   3.151   1.987  13.727  0.9358  4.0266  0.4916
 9184SOL    HW239186   3.188   1.933  13.861  1.5993 -0.6245  0.2450
 9185SOL     OW39187   2.935   0.075   4.198  0.6978  0.3463 -0.3267
 9185SOL    HW139188   2.928   0.078   4.103 -1.0705 -0.3845 -0.2228
 9185SOL    HW239189   3.028   0.055   4.198  0.6508  0.0745  1.0358
 9186SOL     OW39190   3.678   1.823   3.182  0.2079 -0.2601 -0.1025
 9186SOL    HW139191   3.586   1.845   3.195  0.9400  3.5084 -1.2124
 9186SOL    HW239192   3.682   1.792   3.092 -2.6906  0.3579 -0.4211
 9187SOL     OW39193   4.279   3.366   5.552  0.3774 -0.4574  0.1198
 9187SOL    HW139194   4.202   3.312   5.534 -0.6171  1.1495 -0.5333
 9187SOL    HW239195   4.240   3.453   5.541  0.5699 -0.2255  1.3524
 9188SOL     OW39196   3.501   4.429   3.767  0.5392  0.0865 -0.0208
 9188SOL    HW139197   3.536   4.344   3.793  0.0623  0.2265  1.0574
 9188SOL    HW239198   3.421   4.402   3.723  0.6289  2.6891 -1.8332
 9189SOL     OW39199   4.738   4.004  10.546  0.9843  0.0147  0.3399
 9189SOL    HW139200   4.735   4.099  10.562 -1.9535 -0.2816  1.6428
 9189SOL    HW239201   0.028   3.986  10.634  0.8874 -2.4463 -0.1436
 9190SOL     OW39202   3.043   1.799   4.027  0.3779  0.2649  0.2247
 9190SOL    HW139203   3.040   1.752   4.110 -0.5204  1.0170  0.6152
 9190SOL    HW239204   3.080   1.882   4.057  0.4301  0.4094 -0.2358
 9191SOL     OW39205   3.319   2.424  11.473 -0.4263 -0.4848  0.3530
 9191SOL    HW139206   3.283   2.440  11.560 -0.5126  1.6682 -0.1020
 9191SOL    HW239207   3.342   2.516  11.462  1.2617 -0.9915 -0.4234
 9192SOL     OW39208   4.483   1.074   8.024 -0.1466 -0.1829  0.0938
 9192SOL    HW139209   4.536   0.999   8.053  1.1852 -0.4076 -2.9427
 9192SOL    HW239210   4.414   1.072   8.090  0.5955 -0.5621  0.8671
 9193SOL     OW39211   4.656   1.423   7.325  0.1511 -0.6807  0.0967
 9193SOL    HW139212   4.604   1.368   7.384 -0.0878  1.1737  1.6075
 9193SOL    HW239213   0.002   1.393   7.338  0.8755  1.7122  0.5940
 9194SOL     OW39214   3.635   2.918  13.344 -0.3804  0.2190  0.0011
 9194SOL    HW139215   3.574   2.873  13.285 -2.3073  1.1154  1.2975
 9194SOL    HW239216   3.611   2.878  13.427  0.4689 -0.2946 -0.0008
 9195SOL     OW39217   3.774   4.088   3.810  0.3613  0.4128  0.5750
 9195SOL    HW139218   3.734   4.083   3.723 -0.1638  0.6173  0.8030
 9195SOL    HW239219   3.737   4.012   3.854  1.3806 -1.4495 -1.8035
 9196SOL     OW39220   4.270   0.581  10.258  1.0899  0.3141  0.5145
 9196SOL    HW139221   4.276   0.581  10.163 -1.2014  2.3150  0.3591
 9196SOL    HW239222   4.179   0.606  10.276  0.9465  0.9332 -1.1211
 9197SOL     OW39223   0.046   2.251   3.161 -0.0250 -0.2226  0.3597
 9197SOL    HW139224   0.073   2.340   3.183  1.5956 -1.1866  2.4186
 9197SOL    HW239225   0.096   2.239   3.080 -0.9163  0.6068 -0.3107
 9198SOL     OW39226   1.019   2.281  14.412  0.3179  0.0701  0.4609
 9198SOL    HW139227   0.923   2.282  14.418  0.3463 -0.3816  1.0946
 9198SOL    HW239228   1.053   2.311  14.496  2.1337 -3.3466  0.9665
 9199SOL     OW39229   1.371   4.004  17.632  0.2852  0.1665  0.2896
 9199SOL    HW139230   1.417   3.997  17.548  0.2372  0.1510  0.2646
 9199SOL    HW239231   1.414   3.939  17.687  2.3705  0.5340 -0.9323
 9200SOL     OW39232   2.311   4.126   6.733  0.1426 -0.4191 -0.0925
 9200SOL    HW139233   2.252   4.070   6.783 -0.3812 -0.1042 -0.3574
 9200SOL    HW239234   2.324   4.090   6.645  0.5678 -2.3279  0.7575
 9201SOL     OW39235   1.479   4.505   6.919 -0.1680 -0.5039 -0.1177
 9201SOL    HW139236   1.410   4.449   6.883  0.1933 -1.0377  0.0228
 9201SOL    HW239237   1.458   4.592   6.884  0.7294 -0.3231 -0.2131
 9202SOL     OW39238   3.145   0.699   6.059  0.3197 -0.3431 -0.1366
 9202SOL    HW139239   3.238   0.679   6.069  0.8462  2.0774 -0.1951
 9202SOL    HW239240   3.104   0.658   6.134 -0.8450  1.5490  0.2516
 9203SOL     OW39241   0.333   3.383   8.044  0.1538 -0.0587 -0.3371
 9203SOL    HW139242   0.329   3.479   8.040 -0.6231 -0.1231 -1.0189
 9203SOL    HW239243   0.378   3.369   8.128 -1.2981 -0.1884  0.4177
 9204SOL     OW39244   2.186   0.706   6.605 -0.4814 -0.1873 -0.3577
 9204SOL    HW139245   2.234   0.686   6.686 -0.9845  1.4196  0.3427
 9204SOL    HW239246   2.220   0.638   6.547  2.9880  2.2381 -1.1899
 9205SOL     OW39247   3.017   1.823   1.976 -0.2294  0.0838 -0.5930
 9205SOL    HW139248   3.004   1.789   2.064  2.2903 -1.0871 -0.6834
 9205SOL    HW239249   3.042   1.912   2.000 -1.3099  1.0966 -3.0949
 9206SOL     OW39250   0.039   3.521   1.559  0.0776  0.1406 -0.6931
 9206SOL    HW139251   4.714   3.457   1.542  0.8022 -0.2314 -2.2278
 9206SOL    HW239252   0.037   3.583   1.485 -3.3108  1.0941  0.1664
 9207SOL     OW39253   4.733   2.980   0.717  0.2471  0.2788  0.3006
 9207SOL    HW139254   4.706   2.921   0.788 -0.2133  0.3131  0.1562
 9207SOL    HW239255   0.069   3.026   0.741 -0.3191  2.3441 -1.7495
 9208SOL     OW39256   2.459   1.832  10.534  0.4120  0.0867  0.1163
 9208SOL    HW139257   2.413   1.873  10.461  1.3616 -0.0112 -0.5508
 9208SOL    HW239258   2.545   1.825  10.491  0.8121  1.8258  0.6231
 9209SOL     OW39259   0.065   0.573   0.917 -0.0222  0.3474 -0.5580
 9209SOL    HW139260   0.140   0.597   0.863  1.1448  0.4537  1.1163
 9209SOL    HW239261   0.053   0.481   0.895  0.3646  0.2907 -0.5198
 9210SOL     OW39262   2.011   0.045   6.829 -0.2102  0.4788  0.5803
 9210SOL    HW139263   2.020   0.029   6.923 -1.7795  1.7434  0.9375
 9210SOL    HW239264   2.074   0.112   6.805 -0.1575  0.4033  0.5067
 9211SOL     OW39265   4.610   3.632   4.999  0.0024 -0.0683 -0.2276
 9211SOL    HW139266   4.643   3.544   5.014 -3.2375 -1.1486  0.5341
 9211SOL    HW239267   4.665   3.658   4.925 -0.1692  0.9330 -0.0096
 9212SOL     OW39268   1.017   0.064   3.839  0.0430 -0.4161 -0.2721
 9212SOL    HW139269   0.964   0.075   3.918 -0.9833 -1.2179 -0.8558
 9212SOL    HW239270   1.081   0.132   3.860 -0.3320 -0.6256  1.5173
 9213SOL     OW39271   3.956   0.107   0.014  0.1429  0.1149 -0.4933
 9213SOL    HW139272   4.043   0.091   0.049 -0.1984 -0.4617  0.1138
 9213SOL    HW239273   3.968   0.179  17.724 -1.9011 -1.1074 -2.3441
 9214SOL     OW39274   0.219   1.284  16.347 -0.7217 -0.2545 -0.2395
 9214SOL    HW139275   0.246   1.270  16.438 -3.9924 -0.0002  0.7784
 9214SOL    HW239276   0.155   1.214  16.336 -1.9181  1.2935 -3.0276
 9215SOL     OW39277   3.434   2.698   4.763  0.1668 -0.1208  0.0567
 9215SOL    HW139278   3.497   2.645   4.712  1.3778  0.7938  0.5940
 9215SOL    HW239279   3.371   2.626   4.771  1.1737 -0.8601  1.3531
 9216SOL     OW39280   2.773   2.795   5.612  0.3716 -0.0270 -0.5679
 9216SOL    HW139281   2.860   2.791   5.573  1.7378  1.2707  2.4504
 9216SOL    HW239282   2.729   2.757   5.536  0.4589 -0.0068 -0.6283
 9217SOL     OW39283   3.527   0.379  13.355  0.5139  0.5667 -0.4150
 9217SOL    HW139284   3.541   0.433  13.277 -0.6836 -1.4638 -2.0323
 9217SOL    HW239285   3.484   0.447  13.406 -1.2166 -1.5003  0.8722
 9218SOL     OW39286   3.936   1.721  17.542 -0.7589  0.3347 -0.5041
 9218SOL    HW139287   3.885   1.796  17.513  0.3096  1.2175 -0.1422
 9218SOL    HW239288   3.880   1.690  17.613 -0.0223  0.4967  0.1539
 9219SOL     OW39289   2.546   1.725  11.067 -0.0106  0.0537 -0.1405
 9219SOL    HW139290   2.595   1.672  11.130  1.9489  2.0047 -0.0253
 9219SOL    HW239291   2.513   1.790  11.128 -0.5793  0.5593 -0.9906
 9220SOL     OW39292   2.612   2.409   8.243  0.6432 -0.0089 -0.0638
 9220SOL    HW139293   2.574   2.472   8.182  1.6849 -0.8165 -1.5305
 9220SOL    HW239294   2.567   2.434   8.323 -2.2109 -0.2528 -1.6172
 9221SOL     OW39295   2.233   4.068   8.953  0.3802  0.4122  0.5985
 9221SOL    HW139296   2.182   4.114   9.019  0.0171 -0.5117  0.9642
 9221SOL    HW239297   2.164   4.013   8.916  0.0277  0.7120  0.8103
 9222SOL     OW39298   0.739   2.636  11.190  0.1801  1.2125  0.0630
 9222SOL    HW139299   0.680   2.708  11.167 -3.6970 -1.9147  0.3461
 9222SOL    HW239300   0.800   2.676  11.252  3.6798 -0.4087 -2.3019
 9223SOL     OW39301   3.995   4.103   4.125  0.0328 -0.1026  0.5133
 9223SOL    HW139302   4.060   4.132   4.189 -0.7101 -0.3030  1.3636
 9223SOL    HW239303   3.991   4.181   4.068 -0.6157  0.3824  1.2190
 9224SOL     OW39304   3.838   4.386   4.328 -0.2359 -0.5725 -0.3801
 9224SOL    HW139305   3.759   4.335   4.306 -0.7072  0.2389 -0.5635
 9224SOL    HW239306   3.838   4.427   4.242 -0.1636 -0.5137 -0.3517
 9225SOL     OW39307   0.266   3.450   3.953  0.2287  0.0890 -0.0055
 9225SOL    HW139308   0.210   3.438   3.877  1.0178  1.0731 -0.7419
 9225SOL    HW239309   0.315   3.524   3.916 -0.2847 -0.3602 -1.5762
 9226SOL     OW39310   1.235   3.856  12.357 -0.4786  0.1417  0.2173
 9226SOL    HW139311   1.213   3.948  12.341 -0.9255  0.0582  0.3472
 9226SOL    HW239312   1.152   3.812  12.338 -0.1694  0.0192 -0.8489
 9227SOL     OW39313   1.444   1.438  13.234  0.0990  0.1236 -0.5405
 9227SOL    HW139314   1.374   1.484  13.281 -1.5471 -1.3555 -1.5658
 9227SOL    HW239315   1.415   1.350  13.256  1.8065 -0.8724 -2.3323
 9228SOL     OW39316   3.840   4.577  10.320  0.3157  0.2220  0.3762
 9228SOL    HW139317   3.834   4.529  10.403 -1.1779 -2.2695 -1.1763
 9228SOL    HW239318   3.885   4.657  10.347 -0.6613  0.4409  1.3762
 9229SOL     OW39319   4.688   0.316   4.871 -0.0377 -0.2138  0.5682
 9229SOL    HW139320   0.010   0.289   4.936  2.4581 -0.1858 -1.9350
 9229SOL    HW239321   4.687   0.230   4.828  0.2965  1.1829 -2.1958
 9230SOL     OW39322   0.264   2.942   3.846 -0.0678 -0.0780 -0.1525
 9230SOL    HW139323   0.261   2.886   3.924  2.0252  1.6205  1.1444
 9230SOL    HW239324   0.220   2.900   3.772  0.6372 -1.2182  0.0695
 9231SOL     OW39325   0.787   2.356   3.150 -0.3690  0.0512 -0.3856
 9231SOL    HW139326   0.742   2.298   3.211 -0.6144  0.6289 -0.0123
 9231SOL    HW239327   0.875   2.334   3.180  0.7973  2.4525 -2.0418
 9232SOL     OW39328   1.761   0.561   8.816 -0.2888 -0.5132  0.3052
 9232SOL    HW139329   1.800   0.524   8.736  0.6830  0.9331  0.1102
 9232SOL    HW239330   1.799   0.505   8.884  1.1333  1.6187  1.2456
 9233SOL     OW39331   3.497   0.226  10.107  0.7405  0.3321 -0.0152
 9233SOL    HW139332   3.580   0.182  10.090  0.5900 -0.4335  1.2957
 9233SOL    HW239333   3.517   0.284  10.181  1.1386 -3.2618  2.6677
 9234SOL     OW39334   0.611   4.490   6.010  0.2335 -0.8740 -0.3179
 9234SOL    HW139335   0.643   4.504   5.921  1.6617  0.6289  0.4384
 9234SOL    HW239336   0.587   4.579   6.033 -1.2043 -1.4070  0.2631
 9235SOL     OW39337   3.622   2.780   5.126 -0.5940  0.8081  0.4921
 9235SOL    HW139338   3.647   2.872   5.130  1.7617  0.1495  1.1693
 9235SOL    HW239339   3.706   2.736   5.137 -1.1985 -0.2388  0.9155
 9236SOL     OW39340   4.582   3.605  17.071 -0.3693 -0.5169 -0.2797
 9236SOL    HW139341   4.503   3.606  17.016  0.8496  3.3518 -1.9547
 9236SOL    HW239342   4.587   3.696  17.099 -2.0248 -1.1348  1.9637
 9237SOL     OW39343   2.334   0.913  12.910  0.1855 -0.1761  0.8904
 9237SOL    HW139344   2.387   0.839  12.881 -0.4727 -1.4828  3.0323
 9237SOL    HW239345   2.399   0.981  12.928 -0.1698  0.4672 -0.2811
 9238SOL     OW39346   0.743   2.595  15.821 -0.0038  0.4880 -0.2554
 9238SOL    HW139347   0.722   2.506  15.795  0.1430  0.5184 -0.4785
 9238SOL    HW239348   0.688   2.658  15.773  2.3613  0.1814 -3.3295
 9239SOL     OW39349   2.434   1.747   5.007 -0.3353 -0.1393 -0.1824
 9239SOL    HW139350   2.496   1.754   4.935 -0.3146 -0.3333 -0.1836
 9239SOL    HW239351   2.450   1.658   5.037 -0.7937 -1.0645 -2.6269
 9240SOL     OW39352   4.595   1.625  16.077  0.3177  0.3532 -0.2282
 9240SOL    HW139353   4.594   1.571  15.998 -2.0351 -0.1743  0.1772
 9240SOL    HW239354   4.672   1.587  16.120  0.4853  2.0189  0.9385
 9241SOL     OW39355   3.390   1.926   4.362  0.3034  0.2507 -0.4666
 9241SOL    HW139356   3.450   1.852   4.359 -0.8497 -0.8120  2.8814
 9241SOL    HW239357   3.418   1.971   4.442  1.4706  1.3671 -1.4858
 9242SOL     OW39358   1.075   3.233   3.306 -0.0728 -0.4745 -0.3197
 9242SOL    HW139359   1.167   3.220   3.330  0.0933 -1.7779 -1.6269
 9242SOL    HW239360   1.059   3.321   3.339  2.5447 -1.0593  2.4231
 9243SOL     OW39361   0.967   3.427  15.752 -0.2850  0.8060  0.8555
 9243SOL    HW139362   0.950   3.447  15.844  1.7220  0.0096  1.3899
 9243SOL    HW239363   1.037   3.363  15.755  1.0149  2.2638  1.5008
 9244SOL     OW39364   2.797   1.250   3.022 -1.1173 -0.6190 -0.2756
 9244SOL    HW139365   2.737   1.265   2.949 -0.5716  0.0150 -0.5996
 9244SOL    HW239366   2.815   1.158   3.005  2.6920  0.0249  0.3203
 9245SOL     OW39367   0.142   3.619  14.966  0.2303  0.1110  0.1921
 9245SOL    HW139368   0.064   3.673  14.981  1.7416  2.1947  0.5063
 9245SOL    HW239369   0.106   3.547  14.915  0.6150  0.7794 -1.0116
 9246SOL     OW39370   0.159   1.900   3.674 -0.1809  0.3389  0.6127
 9246SOL    HW139371   0.071   1.862   3.665 -1.3440  3.1263  0.2395
 9246SOL    HW239372   0.186   1.880   3.585 -0.4607  2.6296  0.0178
 9247SOL     OW39373   0.543   0.752   2.064  0.0927  0.1102  0.1633
 9247SOL    HW139374   0.543   0.818   2.134  1.3707  0.1683  0.1165
 9247SOL    HW239375   0.575   0.675   2.112 -1.0581 -1.4190 -1.5355
 9248SOL     OW39376   0.837   4.032   2.299 -0.0673 -0.2572  0.0704
 9248SOL    HW139377   0.782   4.088   2.244 -2.3949 -1.4260  1.2312
 9248SOL    HW239378   0.802   3.946   2.277  2.9263 -1.1492 -1.1678
 9249SOL     OW39379   2.955   1.630   6.595  0.3575 -0.5426 -0.2038
 9249SOL    HW139380   2.941   1.654   6.503  1.3331  0.1035 -0.1855
 9249SOL    HW239381   3.046   1.658   6.606  0.0254 -0.6208  2.7894
 9250SOL     OW39382   3.794   3.206   9.457 -0.7837 -0.4015  0.2306
 9250SOL    HW139383   3.752   3.291   9.464 -1.9331 -1.1500  2.6216
 9250SOL    HW239384   3.844   3.192   9.537  2.0455 -3.0708 -1.9914
 9251SOL     OW39385   2.609   3.739  14.187  0.4351  0.4820  0.7259
 9251SOL    HW139386   2.565   3.799  14.248 -1.6055  1.2318 -1.5082
 9251SOL    HW239387   2.623   3.662  14.242  0.7621  0.8684  1.1866
 9252SOL     OW39388   3.611   3.724  10.914 -0.7784 -0.3810 -0.4471
 9252SOL    HW139389   3.580   3.681  10.994 -2.8602  1.7110 -0.1110
 9252SOL    HW239390   3.673   3.780  10.960 -2.3284  0.8076  0.2154
 9253SOL     OW39391   0.444   0.834   3.986  0.3438  0.2434  1.0405
 9253SOL    HW139392   0.429   0.805   4.076 -0.0117  0.6117  1.0994
 9253SOL    HW239393   0.378   0.783   3.939  0.9450 -1.8073  2.4080
 9254SOL     OW39394   1.879   4.259   6.223 -0.1047  0.2831  0.4882
 9254SOL    HW139395   1.937   4.193   6.262  1.4252  0.9985 -0.5769
 9254SOL    HW239396   1.889   4.323   6.294  0.6736  1.8082 -0.9999
 9255SOL     OW39397   0.551   1.204   4.961 -0.0766  0.4999 -0.2284
 9255SOL    HW139398   0.591   1.193   5.048  2.7311  1.1400 -1.4326
 9255SOL    HW239399   0.631   1.238   4.921 -0.3069  1.2913 -0.0002
 9256SOL     OW39400   3.961   0.943   1.782  0.2251 -0.3006 -0.0249
 9256SOL    HW139401   3.913   0.866   1.815 -0.6688 -0.0881 -0.8226
 9256SOL    HW239402   4.027   0.906   1.723  0.2199  0.3178 -0.4151
 9257SOL     OW39403   4.154   0.440  14.384  0.6373  0.2330  0.2274
 9257SOL    HW139404   4.172   0.474  14.296  1.9029 -0.4628  0.2257
 9257SOL    HW239405   4.062   0.468  14.390  1.0999  2.0329 -0.9696
 9258SOL     OW39406   4.530   2.452   0.694  0.3678 -0.4396 -0.1203
 9258SOL    HW139407   4.578   2.406   0.763 -0.7858  0.1281  1.0723
 9258SOL    HW239408   4.519   2.386   0.626 -2.1717 -0.3053  0.1250
 9259SOL     OW39409   3.652   0.103   8.805  0.2927 -0.3002 -0.5523
 9259SOL    HW139410   3.587   0.037   8.781  0.1866 -0.0720 -0.8802
 9259SOL    HW239411   3.657   0.095   8.901 -2.0182 -0.3072 -0.4383
 9260SOL     OW39412   3.012   3.084   2.729  0.0450 -0.1291 -0.6075
 9260SOL    HW139413   2.980   3.022   2.795 -0.2233 -0.4826 -1.0678
 9260SOL    HW239414   2.943   3.080   2.663  0.4924 -1.5282 -0.9980
 9261SOL     OW39415   1.047   0.652  11.964 -0.2741 -0.1465  0.5163
 9261SOL    HW139416   1.045   0.746  11.947 -0.8571 -0.1080  0.7867
 9261SOL    HW239417   0.964   0.624  11.925  1.3703  2.2515 -4.6833
 9262SOL     OW39418   2.347   1.101  13.878 -0.2072 -0.2358 -0.5255
 9262SOL    HW139419   2.421   1.076  13.823 -0.0544  0.1544 -0.5013
 9262SOL    HW239420   2.294   1.145  13.812  2.2332  1.1469 -1.5485
 9263SOL     OW39421   0.213   1.546   6.063  0.4384 -0.0533 -0.1096
 9263SOL    HW139422   0.297   1.499   6.062  1.7793  2.3502 -3.0667
 9263SOL    HW239423   0.157   1.477   6.097 -1.2455  0.4625 -1.8486
 9264SOL     OW39424   2.136   1.969   7.363 -0.0002 -0.1124 -0.4056
 9264SOL    HW139425   2.225   1.968   7.399  0.0861  2.4706 -0.4892
 9264SOL    HW239426   2.096   2.014   7.438  0.2943  1.2762 -1.0676
 9265SOL     OW39427   0.718   2.248   5.754  0.3330  0.1357 -0.4157
 9265SOL    HW139428   0.654   2.304   5.711 -0.8556  1.5913  3.2945
 9265SOL    HW239429   0.740   2.177   5.693 -0.2853 -0.1463 -0.3080
 9266SOL     OW39430   1.108   0.678   5.887  0.0077  0.6911 -0.5497
 9266SOL    HW139431   1.095   0.686   5.792  1.2501  2.7810 -0.5452
 9266SOL    HW239432   1.065   0.760   5.912 -0.5448  0.3609 -0.4210
 9267SOL     OW39433   2.871   4.694   8.751 -0.1367 -0.0848 -0.2465
 9267SOL    HW139434   2.944   4.646   8.790  1.6038  1.5634 -1.5008
 9267SOL    HW239435   2.910   0.033   8.724 -1.1921  0.9360  1.3981
 9268SOL     OW39436   4.684   2.742   8.468 -0.4561  0.0416 -0.4443
 9268SOL    HW139437   4.730   2.814   8.512  0.7006 -1.6484  1.1462
 9268SOL    HW239438   4.633   2.788   8.402  1.1862  2.2279 -0.1999
 9269SOL     OW39439   2.644   2.167   6.802 -0.1776 -0.3527 -0.1199
 9269SOL    HW139440   2.663   2.218   6.723  2.8927  1.3415  1.7141
 9269SOL    HW239441   2.666   2.081   6.765 -0.6161  0.2184 -1.7432
 9270SOL     OW39442   1.584   0.207   8.747  0.4519 -0.8863  0.4247
 9270SOL    HW139443   1.632   0.227   8.827  0.4200  0.4646  0.1086
 9270SOL    HW239444   1.518   0.138   8.761  0.1393 -0.5511  0.5895
 9271SOL     OW39445   4.111   1.514   8.281  0.1026 -0.2932 -0.0285
 9271SOL    HW139446   4.094   1.551   8.194 -1.1611  0.6323  0.6021
 9271SOL    HW239447   4.046   1.570   8.324 -0.0209 -1.0830  0.8062
 9272SOL     OW39448   1.854   3.379   4.035  0.3882  0.5652 -0.0435
 9272SOL    HW139449   1.775   3.351   3.989  0.5796 -0.5553  0.3321
 9272SOL    HW239450   1.885   3.297   4.073 -1.3243  0.4240  1.0166
 9273SOL     OW39451   4.464   2.910   6.367  0.1358  0.6543  0.3147
 9273SOL    HW139452   4.543   2.931   6.415  0.1338 -0.2254  0.7041
 9273SOL    HW239453   4.470   2.815   6.353 -0.0058  0.6332  0.3894
 9274SOL     OW39454   2.994   1.722   5.195  0.0915 -0.0634 -0.3232
 9274SOL    HW139455   3.079   1.714   5.237 -0.3422 -0.0619  0.5527
 9274SOL    HW239456   2.938   1.699   5.269 -0.7986 -0.1173 -1.0049
 9275SOL     OW39457   3.774   3.394   5.002  0.5760 -0.2027  0.0655
 9275SOL    HW139458   3.700   3.339   4.977  0.8954 -0.8194  0.4663
 9275SOL    HW239459   3.794   3.361   5.090  1.8584  0.4361  0.0213
 9276SOL     OW39460   3.351   1.774  13.286 -0.2050  0.1022 -0.3191
 9276SOL    HW139461   3.321   1.698  13.336 -0.3518 -0.0212 -0.5927
 9276SOL    HW239462   3.281   1.832  13.315  0.6505  1.1360 -0.3155
 9277SOL     OW39463   3.000   3.247   8.854 -0.4255  0.6523 -0.7816
 9277SOL    HW139464   2.986   3.217   8.944 -1.3041 -0.4037 -1.2785
 9277SOL    HW239465   3.095   3.242   8.860 -0.5372 -0.1173  0.5272
 9278SOL     OW39466   3.830   2.005   5.258 -0.1736 -0.3924 -0.3477
 9278SOL    HW139467   3.769   2.078   5.250 -1.9077 -2.1971 -4.2321
 9278SOL    HW239468   3.900   2.052   5.213  1.2374 -1.9626  0.2132
 9279SOL     OW39469   0.247   2.423   1.836 -0.2078  0.3329 -0.3906
 9279SOL    HW139470   0.196   2.360   1.886 -1.4623  0.3009 -1.6974
 9279SOL    HW239471   0.230   2.508   1.878  0.4079  0.1894  0.1496
 9280SOL     OW39472   0.986   4.666   6.930 -0.2683 -0.6294 -0.0029
 9280SOL    HW139473   0.919   4.611   6.972 -1.8961  1.5078  0.1604
 9280SOL    HW239474   1.031   4.597   6.881  0.2079 -1.7650  2.0231
 9281SOL     OW39475   2.225   4.677  10.738 -0.0531 -0.6889 -0.0389
 9281SOL    HW139476   2.300   4.664  10.679  0.0621  1.6727 -0.3977
 9281SOL    HW239477   2.189   4.589  10.753 -2.1193  0.0273 -0.8585
 9282SOL     OW39478   1.397   3.644   9.160  0.2485  0.1925 -0.1894
 9282SOL    HW139479   1.430   3.591   9.232  0.7304  0.1848 -0.4099
 9282SOL    HW239480   1.417   3.584   9.088 -2.5313  0.5882 -1.2719
 9283SOL     OW39481   1.984   3.164   7.856  0.5188  0.9305 -0.1680
 9283SOL    HW139482   2.052   3.230   7.868  0.6397  1.3182 -2.8702
 9283SOL    HW239483   1.957   3.188   7.767  2.9713 -1.6234 -1.5924
 9284SOL     OW39484   2.253   3.631   4.265 -0.7096  0.1426  0.6632
 9284SOL    HW139485   2.167   3.673   4.262 -0.9119 -0.4398 -1.2866
 9284SOL    HW239486   2.237   3.545   4.227  2.1883 -0.7452  1.4081
 9285SOL     OW39487   0.959   3.236   2.132  0.2116  0.3932 -0.6639
 9285SOL    HW139488   0.891   3.179   2.097  0.2923  1.1038 -1.9755
 9285SOL    HW239489   0.947   3.234   2.226 -3.6282  0.2703 -1.1850
 9286SOL     OW39490   2.816   2.262   9.456  0.3287  0.0692 -0.5215
 9286SOL    HW139491   2.798   2.207   9.533 -1.4046  0.3082 -0.7631
 9286SOL    HW239492   2.908   2.241   9.441  0.6921  1.1532  0.2173
 9287SOL     OW39493   1.109   3.809   7.209  0.0382 -0.2253  0.2191
 9287SOL    HW139494   1.059   3.727   7.220  1.9947 -1.1937  1.8553
 9287SOL    HW239495   1.058   3.873   7.161  0.6501 -0.7797 -1.1665
 9288SOL     OW39496   0.443   2.246   7.064  0.0759  0.5782 -0.0225
 9288SOL    HW139497   0.534   2.266   7.039 -0.4152 -0.8657 -2.8423
 9288SOL    HW239498   0.449   2.152   7.047 -0.0325  0.6793 -0.5998
 9289SOL     OW39499   1.447   2.179   2.252 -0.2895  0.1945  0.4440
 9289SOL    HW139500   1.357   2.152   2.236  0.4193 -1.5993 -0.4979
 9289SOL    HW239501   1.460   2.245   2.183  0.9806  0.6493  1.1170
 9290SOL     OW39502   1.414   1.199   3.321  0.5599 -0.7654 -0.0333
 9290SOL    HW139503   1.346   1.177   3.258  0.0386  3.0421 -0.7767
 9290SOL    HW239504   1.480   1.251   3.275  0.9956  1.0660  2.6380
 9291SOL     OW39505   3.473   0.644   6.661  0.3646  0.0084  0.4763
 9291SOL    HW139506   3.429   0.726   6.637 -3.4482 -1.6688  1.7488
 9291SOL    HW239507   3.556   0.660   6.706  0.9214 -3.4905  0.6948
 9292SOL     OW39508   0.512   3.297   5.031 -0.1612 -0.6035  0.4236
 9292SOL    HW139509   0.581   3.364   5.029 -0.0187 -0.7336  1.1633
 9292SOL    HW239510   0.565   3.218   5.022  0.3449 -0.3836  1.4429
 9293SOL     OW39511   1.688   4.486   4.337  0.1402  0.1987  0.1872
 9293SOL    HW139512   1.651   4.500   4.249  1.6988 -0.4960 -0.5745
 9293SOL    HW239513   1.727   4.571   4.357  2.1671 -0.9734  1.1356
 9294SOL     OW39514   3.452   1.366   5.389 -0.2193  0.7298  0.3823
 9294SOL    HW139515   3.450   1.319   5.306  1.0826  1.5156 -0.1036
 9294SOL    HW239516   3.359   1.369   5.409  0.0349 -1.4857  1.9128
 9295SOL     OW39517   2.987   2.530   1.715  0.0660  0.3636 -0.3928
 9295SOL    HW139518   3.038   2.501   1.791 -2.1596 -2.5645 -0.0056
 9295SOL    HW239519   2.897   2.503   1.733  0.2457  0.1907  0.2499
 9296SOL     OW39520   0.482   0.307  11.552 -0.2128  0.8719 -0.5444
 9296SOL    HW139521   0.565   0.297  11.505  1.0026  0.1597  1.7151
 9296SOL    HW239522   0.415   0.278  11.490 -0.4869  0.4803 -0.0634
 9297SOL     OW39523   3.152   4.712   3.783 -0.2864  0.5464 -0.2217
 9297SOL    HW139524   3.206   4.648   3.830  1.8313  2.2754 -0.2911
 9297SOL    HW239525   3.082   4.652   3.755 -1.3146  2.3112 -1.4131
 9298SOL     OW39526   4.371   2.991   6.799 -0.2621 -1.0236  0.3095
 9298SOL    HW139527   4.376   2.926   6.730  0.2626 -0.2488 -0.3764
 9298SOL    HW239528   4.397   3.071   6.754 -0.0140 -1.5969 -0.5660
 9299SOL     OW39529   3.395   1.952   5.662  0.2461 -0.4140  0.2557
 9299SOL    HW139530   3.355   1.909   5.737 -2.9793  3.5303  0.7923
 9299SOL    HW239531   3.338   2.029   5.661 -0.7672 -1.1584  2.1498
 9300SOL     OW39532   2.398   3.993   5.469 -0.5565  0.2537  0.0919
 9300SOL    HW139533   2.370   3.903   5.450 -1.0026  0.2421  0.8013
 9300SOL    HW239534   2.493   3.980   5.470 -0.3001  1.9023 -2.4432
 9301SOL     OW39535   3.112   4.504   6.759 -0.2528 -0.1832  0.2506
 9301SOL    HW139536   3.070   4.470   6.680  1.2028 -3.3148  0.8294
 9301SOL    HW239537   3.134   4.422   6.804 -0.0219  0.3968  1.1868
 9302SOL     OW39538   1.422   4.413   1.947 -0.0073 -0.2465  1.0183
 9302SOL    HW139539   1.499   4.386   1.997  1.8996  1.0039 -1.2393
 9302SOL    HW239540   1.457   4.488   1.898 -1.5594  0.3719  0.8667
 9303SOL     OW39541   0.418   0.502  13.032  0.3529  0.1353  0.4650
 9303SOL    HW139542   0.482   0.516  12.963 -1.2853  1.0951 -0.8598
 9303SOL    HW239543   0.457   0.426  13.076 -3.4458 -1.1760  1.5710
 9304SOL     OW39544   1.234   4.279   0.979  0.1067  0.5131  0.0776
 9304SOL    HW139545   1.201   4.307   0.893  2.4729 -1.6854 -1.5541
 9304SOL    HW239546   1.201   4.189   0.984  1.7840 -0.0844  0.4543
 9305SOL     OW39547   3.764   1.194   0.895 -0.7568 -0.2537 -0.1505
 9305SOL    HW139548   3.710   1.184   0.973 -2.0268  0.5981 -0.9130
 9305SOL    HW239549   3.765   1.102   0.869 -1.2165  0.0795 -1.3737
 9306SOL     OW39550   1.602   3.360   3.281  0.4712 -0.0093  0.3632
 9306SOL    HW139551   1.689   3.381   3.248  0.2720  0.4413  0.1290
 9306SOL    HW239552   1.559   3.368   3.196 -0.3599 -2.7059  0.5332
 9307SOL     OW39553   2.623   1.097  10.161  0.0453 -0.7540  0.2285
 9307SOL    HW139554   2.539   1.126  10.198  0.0099 -1.6529  0.8479
 9307SOL    HW239555   2.641   1.162  10.093  0.8103 -0.3548  0.8249
 9308SOL     OW39556   0.419   3.045   9.462 -0.4093  0.0542  0.5827
 9308SOL    HW139557   0.506   3.075   9.436 -0.4342 -0.6884 -0.3836
 9308SOL    HW239558   0.383   3.118   9.512  0.6605  1.0759 -0.1402
 9309SOL     OW39559   4.251   2.522  16.006 -0.9489  0.6423  0.2327
 9309SOL    HW139560   4.227   2.516  15.914 -1.6627  0.7776  0.4096
 9309SOL    HW239561   4.317   2.452  16.002 -0.9244  0.6407  0.6644
 9310SOL     OW39562   3.609   2.709   7.299  0.2093  0.1118  0.2483
 9310SOL    HW139563   3.678   2.648   7.272  1.8115  2.0888 -0.1249
 9310SOL    HW239564   3.633   2.774   7.233 -0.2191 -1.2819 -1.2703
 9311SOL     OW39565   3.699   3.777   7.566 -0.0423  0.4761  0.1771
 9311SOL    HW139566   3.766   3.827   7.518 -1.2521  1.5036 -0.4568
 9311SOL    HW239567   3.638   3.846   7.590 -0.5275 -0.5755  1.9198
 9312SOL     OW39568   3.256   3.310  10.076 -0.3976 -0.7026 -0.1026
 9312SOL    HW139569   3.167   3.333  10.049  0.1217  2.4043  0.7903
 9312SOL    HW239570   3.303   3.318   9.993 -1.4491  1.8127 -0.4528
 9313SOL     OW39571   2.886   2.980   4.676 -0.0403  0.2084  0.0686
 9313SOL    HW139572   2.811   2.921   4.667  0.3350  0.3384 -3.8330
 9313SOL    HW239573   2.934   2.939   4.748  0.5398  1.1808  0.2410
 9314SOL     OW39574   0.744   0.211   5.015  0.0639 -1.1056  0.2185
 9314SOL    HW139575   0.666   0.253   4.978 -0.1664 -1.1583  0.6423
 9314SOL    HW239576   0.815   0.237   4.956 -0.4535  1.3777  0.6746
 9315SOL     OW39577   1.627   2.615   8.157 -0.6653 -0.1839  0.1667
 9315SOL    HW139578   1.702   2.654   8.202 -1.6368  0.4185  1.2627
 9315SOL    HW239579   1.577   2.597   8.237 -0.3486  1.6872  0.7803
 9316SOL     OW39580   2.969   1.328   3.240  0.4646 -0.2839  0.0593
 9316SOL    HW139581   3.007   1.377   3.167  1.2935 -1.0828 -0.0538
 9316SOL    HW239582   2.900   1.280   3.196 -1.6103  0.7858  2.1408
 9317SOL     OW39583   2.736   4.510   6.347 -0.2142  0.0527  0.0555
 9317SOL    HW139584   2.781   4.493   6.430  1.0001  1.8492 -0.2270
 9317SOL    HW239585   2.815   4.533   6.297 -0.1822  1.4678  0.7337
 9318SOL     OW39586   2.861   1.092   7.817  0.3122  0.4108 -0.8230
 9318SOL    HW139587   2.941   1.139   7.795  1.2485  0.0702  1.8551
 9318SOL    HW239588   2.826   1.060   7.734  1.2380 -0.0002 -1.0652
 9319SOL     OW39589   0.248   4.188  15.859 -0.4784 -0.1105  0.5958
 9319SOL    HW139590   0.223   4.217  15.947  0.8733  3.4167 -0.1989
 9319SOL    HW239591   0.227   4.264  15.805 -1.0419  0.1945  1.2371
 9320SOL     OW39592   3.034   0.635  10.855 -0.2177  0.3575  0.3132
 9320SOL    HW139593   3.103   0.665  10.795  1.1179  0.2761  1.7965
 9320SOL    HW239594   3.013   0.557  10.804 -0.5726  1.6055 -1.4876
 9321SOL     OW39595   0.774   3.401   0.231 -0.2337  0.3552  0.1131
 9321SOL    HW139596   0.800   3.338   0.164 -0.8762  1.1049 -0.8404
 9321SOL    HW239597   0.748   3.349   0.307 -1.4233 -0.5969 -0.9366
 9322SOL     OW39598   2.808   1.861  13.368 -0.2602 -0.8852  0.2253
 9322SOL    HW139599   2.755   1.784  13.344 -0.0892 -1.9053  3.1633
 9322SOL    HW239600   2.753   1.897  13.437 -0.4469  1.9010 -1.3793
 9323SOL     OW39601   0.453   3.460   6.023  0.0433 -0.6781  0.2961
 9323SOL    HW139602   0.480   3.371   6.045  1.1405 -0.7413 -1.2902
 9323SOL    HW239603   0.371   3.448   5.975  0.3491 -0.1050 -0.3757
 9324SOL     OW39604   1.740   4.430   8.907 -0.1261 -0.0609 -0.0267
 9324SOL    HW139605   1.790   4.371   8.850 -0.9449 -1.6141  0.8401
 9324SOL    HW239606   1.650   4.408   8.883 -1.8013  2.3249  4.1639
 9325SOL     OW39607   2.526   1.857   6.492  0.2721 -0.0605 -0.3894
 9325SOL    HW139608   2.509   1.821   6.405  1.8549  1.4288 -1.3117
 9325SOL    HW239609   2.500   1.787   6.551  1.6523 -1.6408 -1.6805
 9326SOL     OW39610   2.548   4.323   2.717  0.9631  0.1652 -0.0865
 9326SOL    HW139611   2.462   4.320   2.760  0.8513 -2.5403 -0.5519
 9326SOL    HW239612   2.577   4.414   2.724 -2.1476  1.2297 -0.8548
 9327SOL     OW39613   1.225   2.810   1.522 -0.4033  0.0299 -0.0912
 9327SOL    HW139614   1.145   2.859   1.540  1.3728  3.0067 -0.2269
 9327SOL    HW239615   1.235   2.756   1.600 -2.2667  2.0909  1.5683
 9328SOL     OW39616   2.282   2.910  13.618  0.2262 -0.5592 -0.1581
 9328SOL    HW139617   2.270   2.968  13.693  0.3901 -0.8590  0.1028
 9328SOL    HW239618   2.357   2.870  13.663 -0.4320 -0.6456  0.8599
 9329SOL     OW39619   2.447   2.889   3.120  0.5153  0.1720  0.1595
 9329SOL    HW139620   2.379   2.847   3.069  0.8598  0.6148 -0.6622
 9329SOL    HW239621   2.433   2.866   3.212  0.0122  1.4608  0.4036
 9330SOL     OW39622   0.210   2.917  14.102  0.0582 -0.3638  0.3952
 9330SOL    HW139623   0.265   2.841  14.119  2.0990  0.5276 -2.2460
 9330SOL    HW239624   0.264   2.996  14.105  0.1144 -0.3300 -1.6888
 9331SOL     OW39625   0.688   2.391   4.490 -0.2578  0.5704  0.1449
 9331SOL    HW139626   0.775   2.430   4.497 -0.2886  0.7814 -0.7012
 9331SOL    HW239627   0.667   2.381   4.583 -1.1751 -2.7816 -0.4185
 9332SOL     OW39628   0.049   2.869   2.430 -0.0124  0.1383 -0.0465
 9332SOL    HW139629   4.705   2.885   2.464  0.2933  0.2363  0.6822
 9332SOL    HW239630   0.103   2.866   2.509  1.2490  0.3547 -0.8873
 9333SOL     OW39631   4.692   3.237   8.529 -0.0197  0.7550  0.4237
 9333SOL    HW139632   4.607   3.222   8.488 -0.3630 -0.7277  1.6612
 9333SOL    HW239633   4.666   3.310   8.586  0.5017  1.4151 -0.1851
 9334SOL     OW39634   3.488   0.347   7.930  0.2845 -0.7228  0.2043
 9334SOL    HW139635   3.554   0.354   7.861 -0.2131 -0.0896 -0.2082
 9334SOL    HW239636   3.453   0.259   7.913  0.2410 -0.5188 -0.7859
 9335SOL     OW39637   1.071   1.762  15.352 -0.2897 -0.3524  0.1335
 9335SOL    HW139638   1.025   1.759  15.269 -0.3084 -2.0675  0.2095
 9335SOL    HW239639   1.154   1.798  15.320 -0.7782  2.9177  2.4553
 9336SOL     OW39640   4.023   3.078   3.722  0.0411  0.2254 -0.7731
 9336SOL    HW139641   4.094   3.080   3.658  1.2856  2.6198  0.6585
 9336SOL    HW239642   3.950   3.083   3.661 -1.0633 -0.5499  0.4680
 9337SOL     OW39643   1.175   1.293   5.969  0.1744 -0.3656 -0.5338
 9337SOL    HW139644   1.084   1.309   5.945 -0.1504 -0.9502  0.3088
 9337SOL    HW239645   1.201   1.215   5.921  0.5034  0.3833 -1.5651
 9338SOL     OW39646   3.314   1.688   2.095 -0.0989 -0.6556 -0.0930
 9338SOL    HW139647   3.288   1.664   2.006 -2.6987  1.1955  0.1589
 9338SOL    HW239648   3.364   1.769   2.083 -0.9024  0.0485  1.3002
 9339SOL     OW39649   1.377   2.694   7.984  0.1283 -0.1552  0.4295
 9339SOL    HW139650   1.460   2.734   7.957 -0.1949  0.4758  0.3561
 9339SOL    HW239651   1.329   2.769   8.021 -1.1878 -0.8225  0.0614
 9340SOL     OW39652   0.009   3.824  16.097  0.2985 -0.2972  0.2640
 9340SOL    HW139653   4.687   3.791  16.159  0.0778  0.0829  0.2318
 9340SOL    HW239654   0.071   3.871  16.153  0.2143 -1.3467  1.2384
 9341SOL     OW39655   4.455   2.347   4.740  0.1997  0.2807 -0.4660
 9341SOL    HW139656   4.490   2.410   4.677 -0.7519 -1.7043 -2.9238
 9341SOL    HW239657   4.370   2.390   4.742  1.1287  2.2036 -1.3537
 9342SOL     OW39658   3.602   3.394   3.036 -0.1157  0.4454 -0.2650
 9342SOL    HW139659   3.573   3.345   2.959 -1.6724  0.2456  0.4460
 9342SOL    HW239660   3.665   3.335   3.077 -2.9564 -2.2229  0.3198
 9343SOL     OW39661   0.304   2.475   3.865  0.0528  0.0776 -0.2204
 9343SOL    HW139662   0.380   2.533   3.865 -0.3174  0.5385  0.9822
 9343SOL    HW239663   0.324   2.411   3.934 -0.5352  1.5696  1.3186
 9344SOL     OW39664   4.667   2.703   6.160  0.1542  0.1216  0.2245
 9344SOL    HW139665   4.736   2.770   6.152  0.1285  0.3783  2.3626
 9344SOL    HW239666   4.617   2.731   6.083 -1.8053 -3.0518  0.3874
 9345SOL     OW39667   1.211   4.618   3.731  0.3016 -0.3416  0.2644
 9345SOL    HW139668   1.149   4.684   3.763 -0.1710 -1.0327  0.7694
 9345SOL    HW239669   1.240   4.580   3.814  1.4321 -0.6787 -0.2840
 9346SOL     OW39670   2.941   1.176  11.351  0.3944 -0.4052 -0.0786
 9346SOL    HW139671   2.885   1.113  11.397  1.0779 -1.7360 -1.0675
 9346SOL    HW239672   3.019   1.122  11.366  1.2595  1.0129  0.5309
 9347SOL     OW39673   0.877   3.504   2.321  0.2036  0.2424  0.0668
 9347SOL    HW139674   0.873   3.414   2.352  0.9858  0.0201 -0.4576
 9347SOL    HW239675   0.940   3.538   2.384 -0.7811  2.2614 -0.0433
 9348SOL     OW39676   1.373   1.490  14.483  0.5556  0.3382 -0.0372
 9348SOL    HW139677   1.360   1.554  14.413  1.1186  0.8538  0.3439
 9348SOL    HW239678   1.311   1.527  14.546  0.1561 -1.6159  0.7221
 9349SOL     OW39679   1.410   3.957   6.487  0.1806 -0.2378  0.4482
 9349SOL    HW139680   1.400   3.869   6.451  0.9381 -0.2229  0.2062
 9349SOL    HW239681   1.428   3.929   6.577  1.0612  0.0236  0.3513
 9350SOL     OW39682   3.484   1.986   1.634  0.5178  0.4794 -0.0114
 9350SOL    HW139683   3.562   1.982   1.578  1.3175 -0.8650  1.2039
 9350SOL    HW239684   3.526   1.981   1.719  1.6513 -0.0800 -0.6162
 9351SOL     OW39685   2.391   4.337   6.879  0.1862 -0.2095 -0.5977
 9351SOL    HW139686   2.412   4.288   6.958  1.7025 -1.1808 -1.5981
 9351SOL    HW239687   2.356   4.263   6.829 -0.5288  0.5880 -1.2585
 9352SOL     OW39688   4.380   3.919   3.086 -0.0127 -0.0171 -0.0695
 9352SOL    HW139689   4.395   3.966   3.003 -0.5792  1.9331  0.9135
 9352SOL    HW239690   4.465   3.929   3.128 -0.0796  1.0597 -0.1748
 9353SOL     OW39691   3.316   1.383   6.425 -0.3291 -0.5792  0.5140
 9353SOL    HW139692   3.278   1.380   6.513 -2.9431  0.4982 -0.5835
 9353SOL    HW239693   3.267   1.459   6.396 -1.8150 -1.7108  0.0586
 9354SOL     OW39694   3.405   1.254  16.870 -0.1095 -0.1250 -0.1543
 9354SOL    HW139695   3.480   1.200  16.895  1.1119  1.4818 -0.3311
 9354SOL    HW239696   3.425   1.269  16.778 -1.3402  0.1893 -0.3644
 9355SOL     OW39697   1.498   4.353   5.715 -0.4924 -0.2319 -0.0911
 9355SOL    HW139698   1.520   4.427   5.772  3.9920 -3.7202  2.7434
 9355SOL    HW239699   1.427   4.307   5.759 -0.5162 -1.6238 -1.5703
 9356SOL     OW39700   4.348   2.690   2.935 -0.0227 -0.1943 -0.2971
 9356SOL    HW139701   4.279   2.624   2.926 -1.3054  0.8311  1.9941
 9356SOL    HW239702   4.422   2.629   2.938  0.1533  0.0611  0.6814
 9357SOL     OW39703   1.424   1.691   2.289  0.2004  0.1880 -0.2864
 9357SOL    HW139704   1.358   1.624   2.307 -1.0655  1.7322  0.8712
 9357SOL    HW239705   1.366   1.763   2.262 -2.9497 -1.8967  0.8672
 9358SOL     OW39706   4.083   0.750   9.680  0.1459 -0.2752  0.4314
 9358SOL    HW139707   4.168   0.726   9.717 -0.6623 -0.5005  2.1108
 9358SOL    HW239708   4.063   0.829   9.730 -1.3324 -1.1899  1.2785
 9359SOL     OW39709   1.929   0.305   7.837 -0.1773  0.2511  0.3704
 9359SOL    HW139710   1.978   0.235   7.793  0.3851  1.1361 -0.4123
 9359SOL    HW239711   1.998   0.348   7.889  0.0462  0.0139  0.2692
 9360SOL     OW39712   4.231   1.738   5.679  0.0399  0.2789  0.2016
 9360SOL    HW139713   4.236   1.763   5.587  0.9864  1.5475  0.5895
 9360SOL    HW239714   4.136   1.744   5.691 -0.1290  0.0125 -1.0298
 9361SOL     OW39715   3.402   2.075   3.415 -0.1664  0.0046  0.5638
 9361SOL    HW139716   3.479   2.029   3.448 -0.3219 -0.7308 -0.1165
 9361SOL    HW239717   3.342   2.008   3.383 -0.3505  1.2014 -1.5734
 9362SOL     OW39718   0.558   2.552  16.286 -0.1293 -0.0592  0.1341
 9362SOL    HW139719   0.620   2.495  16.241 -0.5257  1.0270 -1.7917
 9362SOL    HW239720   0.559   2.630  16.230 -2.9953 -2.2584 -2.9559
 9363SOL     OW39721   4.252   2.741   3.219 -0.1869 -0.2213  0.2747
 9363SOL    HW139722   4.276   2.762   3.128 -0.9529 -0.6382 -0.0208
 9363SOL    HW239723   4.225   2.650   3.211  0.5112 -0.5833  2.2020
 9364SOL     OW39724   3.646   1.707   2.257  0.0906 -0.2136  0.1523
 9364SOL    HW139725   3.602   1.631   2.219 -0.8829  0.8532 -0.8910
 9364SOL    HW239726   3.677   1.745   2.175 -0.5687 -0.8269 -0.3757
 9365SOL     OW39727   1.631   0.901   9.043  0.4306 -0.1387  0.0395
 9365SOL    HW139728   1.659   0.969   9.104 -0.2677  0.3817 -0.2152
 9365SOL    HW239729   1.579   0.839   9.094 -1.9611  0.4823 -1.6023
 9366SOL     OW39730   1.739   3.520  13.279  0.0124  0.1066  0.1877
 9366SOL    HW139731   1.674   3.450  13.275  2.6790 -2.3255 -0.7603
 9366SOL    HW239732   1.818   3.495  13.231  0.8597 -1.3718  2.3570
 9367SOL     OW39733   3.830   2.601   1.241 -0.2889  0.4655  0.0748
 9367SOL    HW139734   3.799   2.688   1.265 -1.2432  0.2537 -0.3775
 9367SOL    HW239735   3.747   2.556   1.253 -0.0532  0.0528  0.1427
 9368SOL     OW39736   3.975   3.762   9.275  0.1075 -0.4438 -0.2247
 9368SOL    HW139737   3.976   3.667   9.261 -0.5533 -0.6118  0.8966
 9368SOL    HW239738   3.977   3.753   9.370  1.8733 -0.4286 -0.2618
 9369SOL     OW39739   1.749   0.963   5.318 -0.3593  0.0474 -0.3014
 9369SOL    HW139740   1.803   0.946   5.241 -1.6235  0.6513 -1.3288
 9369SOL    HW239741   1.733   1.057   5.310 -0.0909  0.0315 -1.0392
 9370SOL     OW39742   3.941   4.706  12.913 -0.5378 -0.5310  0.1879
 9370SOL    HW139743   3.913   4.648  12.842  0.7569  0.3318 -1.0421
 9370SOL    HW239744   3.901   4.672  12.993 -1.0511  2.0688  1.0346
 9371SOL     OW39745   4.207   2.345   8.837  0.2259 -0.2320 -0.0761
 9371SOL    HW139746   4.128   2.353   8.783 -1.4251 -0.1304  2.3586
 9371SOL    HW239747   4.221   2.250   8.831  2.5637  0.3261 -3.1462
 9372SOL     OW39748   2.973   2.292  17.298  0.3422 -0.0731 -0.6486
 9372SOL    HW139749   2.964   2.387  17.287 -0.4995 -0.0750  0.0364
 9372SOL    HW239750   2.897   2.262  17.249  0.5717  1.2504 -1.8248
 9373SOL     OW39751   3.778   3.251   3.715  1.0011 -0.2032  0.1557
 9373SOL    HW139752   3.698   3.203   3.691  0.3281  0.5898  0.8083
 9373SOL    HW239753   3.777   3.269   3.809 -0.3259  0.0704  0.0952
 9374SOL     OW39754   1.412   3.503  15.829 -0.2652  0.4265  0.1243
 9374SOL    HW139755   1.362   3.574  15.868 -1.0654 -1.2001  2.0742
 9374SOL    HW239756   1.461   3.479  15.908  0.3742  0.5379 -0.2363
 9375SOL     OW39757   4.672   0.144   1.310 -0.5263  0.1518 -0.5400
 9375SOL    HW139758   4.583   0.135   1.346 -0.1382 -1.5266 -0.0145
 9375SOL    HW239759   4.678   0.064   1.258 -1.2673 -1.9653  2.6345
 9376SOL     OW39760   3.450   2.909   4.079  0.3243  0.2637  0.0974
 9376SOL    HW139761   3.417   2.867   4.159 -1.1438  2.3201  0.5717
 9376SOL    HW239762   3.378   2.900   4.017  0.7173 -1.7528 -0.0618
 9377SOL     OW39763   0.787   0.350   3.598  0.7864 -0.2366  0.3359
 9377SOL    HW139764   0.815   0.440   3.582 -1.9099  0.5476  0.0303
 9377SOL    HW239765   0.775   0.357   3.692 -1.0418  0.8136  0.0152
 9378SOL     OW39766   0.180   3.887   5.969 -0.5445  0.0034  0.0835
 9378SOL    HW139767   0.130   3.879   5.888  0.6150 -0.6990 -0.5712
 9378SOL    HW239768   0.250   3.943   5.934  0.6128 -2.0305 -0.9366
 9379SOL     OW39769   0.591   3.978  16.553 -0.3677 -0.0433 -0.3560
 9379SOL    HW139770   0.639   4.059  16.536  0.3125 -0.8323 -2.1878
 9379SOL    HW239771   0.623   3.947  16.638 -0.4516  0.9009  0.0256
 9380SOL     OW39772   2.100   1.243   1.596 -0.3483 -0.0620 -0.2493
 9380SOL    HW139773   2.018   1.207   1.563 -0.6282  2.0278 -1.8242
 9380SOL    HW239774   2.083   1.333   1.623  0.0788 -0.1506  0.2986
 9381SOL     OW39775   0.270   3.279   1.000  0.7407 -0.1034  0.4634
 9381SOL    HW139776   0.244   3.371   1.004 -0.4366 -0.4159 -0.0430
 9381SOL    HW239777   0.263   3.258   1.093  0.9403  1.4416  0.8278
 9382SOL     OW39778   4.481   3.601  16.005  0.5131  0.4944 -0.1874
 9382SOL    HW139779   4.534   3.528  15.974  1.7082 -0.4775  4.1763
 9382SOL    HW239780   4.515   3.674  15.953  2.5761  0.2749  0.8662
 9383SOL     OW39781   0.429   0.111  15.969  0.1033 -0.2119 -0.7161
 9383SOL    HW139782   0.452   0.202  15.990 -0.2471 -0.7615  1.9971
 9383SOL    HW239783   0.367   0.121  15.896 -0.1990 -1.9430 -0.6921
 9384SOL     OW39784   2.782   1.700   2.564 -0.1527  0.2398 -0.1289
 9384SOL    HW139785   2.804   1.655   2.483  1.1532  0.2190  0.2429
 9384SOL    HW239786   2.852   1.677   2.625  0.1562 -2.3398 -1.4657
 9385SOL     OW39787   2.438   2.452   7.071  0.3567 -0.3031 -0.3065
 9385SOL    HW139788   2.497   2.499   7.013 -0.4034  1.8687  0.6810
 9385SOL    HW239789   2.358   2.504   7.060  0.3559 -0.3625 -0.5645
 9386SOL     OW39790   1.219   3.969   3.116  0.1222 -0.0832 -0.2984
 9386SOL    HW139791   1.237   4.063   3.111 -0.4283 -0.0149 -1.0941
 9386SOL    HW239792   1.222   3.947   3.023 -0.1691 -0.1286 -0.2970
 9387SOL     OW39793   0.565   4.294   4.334  0.3130 -0.3331 -0.0338
 9387SOL    HW139794   0.595   4.384   4.340  1.5501 -0.8349  1.1692
 9387SOL    HW239795   0.517   4.300   4.251  0.1364 -0.2218  0.0761
 9388SOL     OW39796   4.723   1.231   3.191  0.4288  0.8480 -0.8303
 9388SOL    HW139797   0.068   1.204   3.167  0.6472  0.5251  0.3447
 9388SOL    HW239798   4.700   1.303   3.133  1.0236  0.6218 -1.3464
 9389SOL     OW39799   2.139   4.264  10.581 -0.5571 -0.1524 -0.1308
 9389SOL    HW139800   2.072   4.330  10.599 -1.3794 -0.4819 -1.9868
 9389SOL    HW239801   2.210   4.298  10.635 -0.1854 -0.4486 -0.4419
 9390SOL     OW39802   0.805   2.733   8.050 -0.2491 -0.5936 -0.2758
 9390SOL    HW139803   0.760   2.805   8.005  0.7659 -0.5086 -1.1508
 9390SOL    HW239804   0.790   2.755   8.142 -1.3646  1.4973 -0.9428
 9391SOL     OW39805   3.890   1.666   2.571  0.2103 -0.2730  0.2482
 9391SOL    HW139806   3.888   1.570   2.574  0.6291 -0.2853  0.1654
 9391SOL    HW239807   3.926   1.685   2.658  1.7584  1.2313 -0.7299
 9392SOL     OW39808   2.090   4.365   8.273  0.2036 -1.1158  0.0606
 9392SOL    HW139809   2.036   4.292   8.242 -1.1918 -0.4553  0.9215
 9392SOL    HW239810   2.023   4.419   8.315 -0.0169 -0.5072 -1.0955
 9393SOL     OW39811   0.153   4.727   6.259 -0.3854  0.0505  0.6904
 9393SOL    HW139812   0.073   4.696   6.302 -0.4919  0.5000  0.8207
 9393SOL    HW239813   0.127   4.717   6.167  0.6174 -0.0075  0.4188
 9394SOL     OW39814   1.590   0.617   6.851 -0.4128  0.0388  0.4175
 9394SOL    HW139815   1.596   0.530   6.812 -1.7338  0.7609 -1.4188
 9394SOL    HW239816   1.539   0.617   6.932 -0.6539  0.0281  0.2689
 9395SOL     OW39817   3.374   0.068   0.149  0.0772 -0.3547 -0.2248
 9395SOL    HW139818   3.302   0.073   0.086  1.0394 -2.2778 -1.4960
 9395SOL    HW239819   3.420   4.731   0.126  1.5472  0.3846  0.1580
 9396SOL     OW39820   3.830   1.275   3.350  0.0492  0.6183  0.0646
 9396SOL    HW139821   3.735   1.266   3.336 -0.4001  1.3002  2.5990
 9396SOL    HW239822   3.851   1.183   3.367 -0.1489  0.6771  0.6616
 9397SOL     OW39823   3.972   0.744   4.870  0.3456  0.0586 -0.1059
 9397SOL    HW139824   3.936   0.833   4.869 -1.1003 -0.5218  0.1973
 9397SOL    HW239825   3.967   0.728   4.776  2.5219  1.9809 -0.5514
 9398SOL     OW39826   0.714   2.207   1.260 -0.1097 -0.3161 -0.2383
 9398SOL    HW139827   0.695   2.115   1.242 -2.0725  0.0478  0.0636
 9398SOL    HW239828   0.736   2.243   1.174 -0.6544  0.8586  0.1180
 9399SOL     OW39829   4.114   4.566   8.981  0.2001  0.4843 -0.1635
 9399SOL    HW139830   4.031   4.581   9.025 -0.2977  0.9674 -1.2911
 9399SOL    HW239831   4.094   4.510   8.907 -0.6518 -0.9573  1.1514
 9400SOL     OW39832   0.478   0.285  11.821  0.2653  0.0029 -0.3149
 9400SOL    HW139833   0.478   0.276  11.726 -2.5268 -2.6488 -0.0801
 9400SOL    HW239834   0.478   0.191  11.840 -2.3040  0.3619  1.4940
 9401SOL     OW39835   0.816   4.684   4.797 -0.4747 -0.6914 -0.2993
 9401SOL    HW139836   0.881   0.001   4.833 -1.3890 -0.0523  0.2739
 9401SOL    HW239837   0.781   4.731   4.721 -1.5374  0.9688  1.2164
 9402SOL     OW39838   3.134   3.047   7.778  0.2908 -0.0515  0.2659
 9402SOL    HW139839   3.202   3.091   7.829 -1.0358  1.2932  0.8780
 9402SOL    HW239840   3.189   2.973   7.750 -1.3297 -0.8708 -0.7310
 9403SOL     OW39841   2.475   1.447   9.997  0.1688  0.8008 -0.1859
 9403SOL    HW139842   2.555   1.403   9.969 -1.3109 -1.3472 -0.9645
 9403SOL    HW239843   2.440   1.477   9.913  0.1922  0.0926 -0.4440
 9404SOL     OW39844   2.056   3.687   1.595 -0.4992  0.1740 -0.2015
 9404SOL    HW139845   2.004   3.631   1.654  0.0442 -0.8050 -0.6561
 9404SOL    HW239846   2.138   3.698   1.644 -0.3849  1.7254 -0.7430
 9405SOL     OW39847   1.358   2.314  15.806 -0.0757 -0.7169 -0.8222
 9405SOL    HW139848   1.431   2.269  15.763  1.5687  1.1307  0.0271
 9405SOL    HW239849   1.352   2.385  15.741 -3.8897 -1.0320 -0.8108
 9406SOL     OW39850   1.344   0.571   3.678  0.4601 -0.0987 -0.7052
 9406SOL    HW139851   1.323   0.607   3.764  0.4191 -1.5278 -0.1246
 9406SOL    HW239852   1.434   0.602   3.676 -0.0025  1.4023  2.1424
 9407SOL     OW39853   3.536   3.196   2.371 -0.2422 -0.0790 -0.3410
 9407SOL    HW139854   3.572   3.141   2.301 -1.7229 -0.7682 -0.5490
 9407SOL    HW239855   3.602   3.215   2.437 -1.5069 -2.3893  1.5484
 9408SOL     OW39856   2.998   1.188   7.029 -0.4570 -0.7260  0.0207
 9408SOL    HW139857   3.057   1.208   6.957 -0.3061  0.6622  0.5431
 9408SOL    HW239858   2.949   1.270   7.032 -1.7955 -1.4355 -2.4912
 9409SOL     OW39859   4.006   1.597  14.658 -0.2457 -0.4782 -0.1876
 9409SOL    HW139860   4.058   1.518  14.640  1.6148  0.9919 -1.2927
 9409SOL    HW239861   4.071   1.658  14.691 -0.0039 -0.4630 -0.6914
 9410SOL     OW39862   3.431   1.698   1.231 -0.2761  0.4793 -0.0920
 9410SOL    HW139863   3.375   1.712   1.155  1.5523  0.5137 -1.4344
 9410SOL    HW239864   3.512   1.674   1.186 -0.0287  0.1957  0.4962
 9411SOL     OW39865   1.533   2.409   9.107  0.1375 -0.1461 -0.5023
 9411SOL    HW139866   1.599   2.364   9.054  0.9003 -0.3333  0.5880
 9411SOL    HW239867   1.561   2.411   9.199  0.2384 -1.4893 -0.5016
 9412SOL     OW39868   1.699   0.125   5.421 -0.7222  0.3579 -0.0414
 9412SOL    HW139869   1.728   0.192   5.483 -0.0962 -0.7589  0.8705
 9412SOL    HW239870   1.764   0.058   5.446 -0.6953  0.3951 -0.0114
 9413SOL     OW39871   2.113   3.665   7.822  0.1684  0.6311  0.1975
 9413SOL    HW139872   2.183   3.700   7.878  1.5035  1.0893 -1.7426
 9413SOL    HW239873   2.077   3.753   7.817  0.2511  0.5517 -1.9477
 9414SOL     OW39874   3.125   0.004   8.539  0.1347  0.2309 -0.5489
 9414SOL    HW139875   3.161   0.088   8.567  1.5451 -1.9499  4.2193
 9414SOL    HW239876   3.038   0.029   8.508 -1.3102 -4.1388 -0.0409
 9415SOL     OW39877   3.120   2.069   7.276  0.1505  0.3170 -0.0522
 9415SOL    HW139878   3.138   2.153   7.319 -0.2999 -1.1145  2.9062
 9415SOL    HW239879   3.178   2.009   7.322  2.4360  3.0279  0.5946
 9416SOL     OW39880   0.544   2.183   9.704  0.0467 -0.3067 -0.7748
 9416SOL    HW139881   0.550   2.136   9.787  0.3136  0.1547 -0.5283
 9416SOL    HW239882   0.467   2.237   9.723  0.2641  0.0779 -0.9924
 9417SOL     OW39883   2.571   1.823   9.905  0.5615  0.6054 -0.0086
 9417SOL    HW139884   2.499   1.802   9.964  1.3935 -1.1510  0.3777
 9417SOL    HW239885   2.529   1.901   9.870 -0.2610  0.2643  0.2209
 9418SOL     OW39886   1.655   2.370  14.405  0.2565 -0.0712  0.2793
 9418SOL    HW139887   1.723   2.427  14.369  0.7049 -1.5054 -1.1215
 9418SOL    HW239888   1.573   2.409  14.375  0.8516  0.3348 -0.7994
 9419SOL     OW39889   2.301   3.251   6.706 -0.2579 -0.0663  0.4995
 9419SOL    HW139890   2.345   3.319   6.756  0.3328  0.1916 -0.3784
 9419SOL    HW239891   2.207   3.269   6.703 -0.1798  0.1051 -0.8312
 9420SOL     OW39892   3.339   2.682   6.942  0.3450 -0.1352  0.4716
 9420SOL    HW139893   3.320   2.734   6.863  1.3712  2.9648  2.2987
 9420SOL    HW239894   3.321   2.747   7.010 -2.2932 -0.3346 -0.0109
 9421SOL     OW39895   0.813   3.324   6.822 -0.4127 -0.3516  0.2127
 9421SOL    HW139896   0.727   3.304   6.783 -1.5349  2.9086  0.9974
 9421SOL    HW239897   0.818   3.258   6.891 -1.4808  0.0647  0.6899
 9422SOL     OW39898   3.649   4.218   7.019  0.1174  0.1106  0.0684
 9422SOL    HW139899   3.699   4.292   6.984  0.0663 -0.1323 -0.5238
 9422SOL    HW239900   3.561   4.246   7.043  0.3914  0.7042  0.3687
 9423SOL     OW39901   4.108   3.452   3.801 -0.2331  0.9919  0.2582
 9423SOL    HW139902   4.170   3.518   3.769  0.1405  0.5395  0.0601
 9423SOL    HW239903   4.076   3.408   3.723 -0.3163  3.9384 -1.3776
 9424SOL     OW39904   2.048   3.830   3.135  0.1842  0.5424 -0.0297
 9424SOL    HW139905   2.133   3.825   3.091 -0.9016 -0.5957 -1.9864
 9424SOL    HW239906   2.074   3.814   3.225 -0.4610 -0.8124 -0.0907
 9425SOL     OW39907   1.284   3.490   1.794  1.0804 -0.1093 -0.6885
 9425SOL    HW139908   1.217   3.520   1.733 -1.4395 -1.3908  1.4819
 9425SOL    HW239909   1.250   3.497   1.883  1.4266 -1.6849 -0.4248
 9426SOL     OW39910   2.051   4.065   6.020 -0.4553 -0.4009  0.0146
 9426SOL    HW139911   2.002   4.081   6.101  0.2325  0.2640  0.2978
 9426SOL    HW239912   2.067   3.970   6.028 -0.5271 -0.5836 -2.0190
 9427SOL     OW39913   2.688   2.189   5.966 -0.2308 -0.1668  0.1693
 9427SOL    HW139914   2.667   2.098   5.948 -0.4838  0.2348 -1.5805
 9427SOL    HW239915   2.657   2.187   6.056 -1.6652  0.3608 -0.3157
 9428SOL     OW39916   4.456   3.900  10.026 -0.5898  0.1487  0.2389
 9428SOL    HW139917   4.389   3.891  10.094  0.6437 -0.6056  1.3454
 9428SOL    HW239918   4.414   3.870   9.945  2.1769  2.8616 -2.2420
 9429SOL     OW39919   3.516   1.439   5.901  0.4901 -0.9224  0.1776
 9429SOL    HW139920   3.508   1.422   5.807  0.2424 -1.2877  0.2644
 9429SOL    HW239921   3.574   1.365   5.918  0.7292 -0.1406  2.7966
 9430SOL     OW39922   3.845   3.031   5.646 -0.1983 -0.1738  0.2672
 9430SOL    HW139923   3.782   3.025   5.718  0.3945  0.0752  0.8018
 9430SOL    HW239924   3.926   3.043   5.696  1.9493 -0.5744 -3.1510
 9431SOL     OW39925   3.193   0.704   4.808 -0.1012 -0.5568 -0.4947
 9431SOL    HW139926   3.103   0.736   4.800  0.0950  0.0843 -0.0993
 9431SOL    HW239927   3.182   0.625   4.861  3.5814  0.5623  1.8856
 9432SOL     OW39928   1.212   3.661   3.219  0.0423 -0.3265 -0.4131
 9432SOL    HW139929   1.222   3.579   3.171  1.0600 -1.0802  1.1031
 9432SOL    HW239930   1.296   3.706   3.212  0.2448 -0.6530 -0.0210
 9433SOL     OW39931   1.066   3.466   6.830 -0.2148  0.0027 -0.3559
 9433SOL    HW139932   0.979   3.427   6.843 -1.6602  3.3146  0.0433
 9433SOL    HW239933   1.043   3.505   6.746 -0.7936 -0.5955 -0.4730
 9434SOL     OW39934   2.791   2.446   6.668 -0.1249 -0.0438  0.2315
 9434SOL    HW139935   2.835   2.512   6.615  1.2410  0.0602  1.5078
 9434SOL    HW239936   2.740   2.388   6.611 -1.0188  0.5943  0.3666
 9435SOL     OW39937   2.451   0.352   2.510  0.3735 -0.1603  0.0928
 9435SOL    HW139938   2.376   0.291   2.506 -0.4844  0.9829 -1.2673
 9435SOL    HW239939   2.412   0.439   2.508 -0.6557 -0.5960  0.8554
 9436SOL     OW39940   3.834   1.867   3.388  0.1693 -0.4634  0.2987
 9436SOL    HW139941   3.904   1.809   3.358  0.0796 -1.5347  2.1292
 9436SOL    HW239942   3.781   1.853   3.310  0.9511 -1.1506 -0.1164
 9437SOL     OW39943   1.219   0.958  15.609 -0.6577 -0.8258 -0.5464
 9437SOL    HW139944   1.170   1.029  15.570 -2.7332 -3.1838 -2.1994
 9437SOL    HW239945   1.290   1.014  15.641 -1.8732  1.6383 -2.1782
 9438SOL     OW39946   3.536   4.608   0.139  0.8625 -0.0112 -0.1700
 9438SOL    HW139947   3.606   4.603   0.074 -1.0429  0.0074 -2.1984
 9438SOL    HW239948   3.538   4.531   0.196  0.4735 -0.6939 -1.0941
 9439SOL     OW39949   2.476   4.526   9.830  0.0071  0.4495  0.3899
 9439SOL    HW139950   2.426   4.495   9.906  0.5162 -1.8057 -0.1823
 9439SOL    HW239951   2.563   4.529   9.872  0.4037 -1.5645 -0.2805
 9440SOL     OW39952   3.603   1.947   1.872 -0.0644  0.2249  0.5665
 9440SOL    HW139953   3.519   1.926   1.914  0.4456 -1.9038  0.5153
 9440SOL    HW239954   3.650   1.993   1.941  0.7930  1.1244 -0.6178
 9441SOL     OW39955   3.164   0.473   4.947 -0.5415 -0.4446  0.2855
 9441SOL    HW139956   3.208   0.407   4.894  0.2719  1.9765 -2.0628
 9441SOL    HW239957   3.223   0.460   5.022  0.1558  0.6052 -0.0742
 9442SOL     OW39958   3.899   0.738  17.442 -0.4467  0.0609  0.3038
 9442SOL    HW139959   3.891   0.808  17.506 -2.0690 -0.3479  0.5406
 9442SOL    HW239960   3.956   0.678  17.490  0.1630  0.1677 -0.2817
 9443SOL     OW39961   4.244   4.654  12.243  0.3380  0.1152  0.2362
 9443SOL    HW139962   4.325   4.700  12.266  0.4603 -0.2514  0.5473
 9443SOL    HW239963   4.206   4.710  12.176  2.9029  1.7804  0.1700
 9444SOL     OW39964   2.874   1.496   5.003  0.3647 -0.0711 -0.0494
 9444SOL    HW139965   2.927   1.506   5.082 -2.0608 -1.1941  1.7157
 9444SOL    HW239966   2.937   1.517   4.934  0.5745 -0.2294  0.0902
 9445SOL     OW39967   0.274   0.169   1.201 -0.2663  0.0676  0.2595
 9445SOL    HW139968   0.247   0.085   1.238  0.2955 -0.9279 -1.5513
 9445SOL    HW239969   0.244   0.233   1.265 -0.0194  1.2633 -0.8099
 9446SOL     OW39970   2.088   2.162   4.090  0.0568 -0.6617  0.3302
 9446SOL    HW139971   2.026   2.100   4.130 -0.7880 -0.0636 -0.0590
 9446SOL    HW239972   2.035   2.181   4.013  1.2096  2.0369  0.1982
 9447SOL     OW39973   1.192   0.806   4.574 -0.0182 -0.1659 -0.2355
 9447SOL    HW139974   1.198   0.867   4.500 -3.1548 -1.3955 -1.5107
 9447SOL    HW239975   1.254   0.851   4.630 -0.6560  0.8583 -0.3420
 9448SOL     OW39976   0.982   1.340  16.991  0.0408 -0.1174  0.0275
 9448SOL    HW139977   0.910   1.340  17.055 -1.3448 -0.7257 -1.5221
 9448SOL    HW239978   0.937   1.378  16.915  0.5183 -2.0677 -1.2314
 9449SOL     OW39979   0.474   2.534   6.980  0.0795  0.1154  0.7175
 9449SOL    HW139980   0.458   2.599   7.049  0.8219  0.1174  0.8940
 9449SOL    HW239981   0.460   2.456   7.033 -1.2523  0.3971  0.7698
 9450SOL     OW39982   4.393   3.788  12.822  0.1276  0.2328 -0.0564
 9450SOL    HW139983   4.441   3.869  12.808 -1.1833  1.0244  0.0309
 9450SOL    HW239984   4.314   3.819  12.866 -0.9464 -0.4095 -1.5243
 9451SOL     OW39985   0.828   4.663   8.937  0.0615 -0.0889  0.5804
 9451SOL    HW139986   0.876   4.709   9.006  1.5723  0.5865 -0.9277
 9451SOL    HW239987   0.857   4.574   8.954 -3.3795 -0.5162  3.9669
 9452SOL     OW39988   0.921   2.022  17.253  0.1784 -0.6029 -0.0940
 9452SOL    HW139989   0.863   1.946  17.255 -0.8623  0.1457 -1.7247
 9452SOL    HW239990   0.859   2.093  17.265 -0.2686 -1.2924  1.6991
 9453SOL     OW39991   1.630   2.587   0.150 -0.0504 -0.5240 -0.2552
 9453SOL    HW139992   1.616   2.681   0.163  0.2750 -0.4316 -0.5790
 9453SOL    HW239993   1.542   2.554   0.130 -1.4754  1.5959  2.4640
 9454SOL     OW39994   3.904   1.979   8.934 -0.4271 -0.1271  0.2197
 9454SOL    HW139995   3.942   1.947   8.853 -1.0695 -0.4532  0.0442
 9454SOL    HW239996   3.829   2.032   8.908  0.0105  0.0139 -0.7625
 9455SOL     OW39997   3.352   0.769   8.572  1.0625 -0.3234  0.1623
 9455SOL    HW139998   3.297   0.700   8.609 -0.5337  0.4601 -0.7351
 9455SOL    HW239999   3.328   0.763   8.480 -0.6275 -1.9691  0.7086
 9456SOL     OW40000   0.568   2.866  11.112 -0.2420 -0.7871 -0.1417
 9456SOL    HW140001   0.505   2.938  11.112  1.4599  0.6950  2.0619
 9456SOL    HW240002   0.509   2.792  11.097 -0.8565 -0.6369  1.5549
 9457SOL     OW40003   2.588   0.800  10.261  0.0416  0.0012 -0.5026
 9457SOL    HW140004   2.646   0.766  10.329  1.0977  1.6905 -0.5447
 9457SOL    HW240005   2.614   0.893  10.261 -0.1717  0.0629  0.4640
 9458SOL     OW40006   1.754   1.940   4.475  0.9142  0.1670  0.2352
 9458SOL    HW140007   1.730   1.888   4.552 -1.8444  1.4865  0.2688
 9458SOL    HW240008   1.819   1.880   4.438 -0.7941 -2.8080  2.0569
 9459SOL     OW40009   2.595   3.314   8.545  0.0766 -0.3117 -0.2065
 9459SOL    HW140010   2.646   3.261   8.606 -0.8491  1.2370  1.9034
 9459SOL    HW240011   2.537   3.254   8.499  0.3475 -0.5620 -0.2257
 9460SOL     OW40012   1.477   3.587   8.684  0.0317 -0.7904 -0.1301
 9460SOL    HW140013   1.384   3.567   8.673 -0.2455  0.3512  0.1348
 9460SOL    HW240014   1.509   3.573   8.595 -2.4255  3.2242 -1.6681
 9461SOL     OW40015   1.615   1.017   7.028 -0.2145  0.6342  0.5236
 9461SOL    HW140016   1.627   1.001   6.935  1.5604  1.0445  0.6779
 9461SOL    HW240017   1.645   0.936   7.069 -1.2662  0.2076  0.4677
 9462SOL     OW40018   0.262   2.594   0.037 -0.3888  0.1765 -0.3475
 9462SOL    HW140019   0.341   2.542   0.056 -0.2341  1.2835  1.9673
 9462SOL    HW240020   0.304   2.680   0.045 -2.2763  1.0600 -0.0028
 9463SOL     OW40021   1.448   3.072   2.123 -0.3797 -0.0903 -0.1194
 9463SOL    HW140022   1.449   3.028   2.038 -0.1856  0.1314 -0.2289
 9463SOL    HW240023   1.353   3.083   2.119 -0.4708 -0.2471  1.6236
 9464SOL     OW40024   1.833   4.142   5.157 -0.2053  0.3405 -0.0931
 9464SOL    HW140025   1.848   4.232   5.128 -2.9220  1.3571  1.7166
 9464SOL    HW240026   1.794   4.158   5.243  1.9100  1.0549  0.7469
 9465SOL     OW40027   2.023   3.790   5.087 -0.5604  0.6782 -0.8417
 9465SOL    HW140028   2.108   3.830   5.071  0.3894 -1.9086 -2.1304
 9465SOL    HW240029   1.964   3.843   5.033  0.4449  2.4899 -0.1796
 9466SOL     OW40030   4.191   0.856  12.183 -0.3682  0.2655  0.1486
 9466SOL    HW140031   4.153   0.786  12.236 -1.5615  1.1322  0.4329
 9466SOL    HW240032   4.172   0.820  12.096  1.4658  1.6355 -0.8342
 9467SOL     OW40033   3.651   0.823  12.853 -0.9274 -0.2094  0.0159
 9467SOL    HW140034   3.626   0.743  12.900 -0.5884 -1.0426 -1.2222
 9467SOL    HW240035   3.722   0.794  12.796  0.3899 -0.6564  1.9052
 9468SOL     OW40036   1.737   0.010   4.391 -0.5050  0.4827 -0.1762
 9468SOL    HW140037   1.809   0.042   4.336  1.3511  0.3911  2.2204
 9468SOL    HW240038   1.664   0.068   4.368 -0.0178  0.9223 -0.6155
 9469SOL     OW40039   0.290   3.952   8.936 -0.2087 -0.4178 -0.2075
 9469SOL    HW140040   0.276   4.044   8.957 -1.9258 -0.2439 -2.0996
 9469SOL    HW240041   0.308   3.950   8.842  0.7052  1.7140 -0.0579
 9470SOL     OW40042   1.986   1.099   5.164  0.0541  0.5734 -0.3425
 9470SOL    HW140043   1.947   1.031   5.110  0.8760  1.1521 -1.6607
 9470SOL    HW240044   2.068   1.052   5.179 -0.7040 -0.6170  0.0866
 9471SOL     OW40045   3.021   4.001   4.165 -0.3788 -0.2109 -0.0130
 9471SOL    HW140046   2.990   3.976   4.078 -0.0626 -2.4782  0.5436
 9471SOL    HW240047   3.042   3.917   4.205 -2.3568 -1.7029 -2.0992
 9472SOL     OW40048   2.234   3.723   8.677  0.0751  0.0917  0.8319
 9472SOL    HW140049   2.152   3.738   8.630 -0.3195 -1.3299  1.0559
 9472SOL    HW240050   2.283   3.669   8.615  1.3651  0.1681  1.7824
 9473SOL     OW40051   0.131   3.985  16.255 -0.8583 -0.0528 -0.3655
 9473SOL    HW140052   0.194   4.056  16.268  1.9843 -2.6476  0.0715
 9473SOL    HW240053   0.049   4.034  16.249 -1.6763 -1.4429 -0.4171
 9474SOL     OW40054   0.875   3.460   5.556  0.1771 -0.8250  0.5819
 9474SOL    HW140055   0.935   3.393   5.521  1.4026  0.2648  0.5997
 9474SOL    HW240056   0.789   3.418   5.551  0.4564 -1.4286  0.8392
 9475SOL     OW40057   2.920   1.978   7.506 -0.0461 -0.1096 -0.0187
 9475SOL    HW140058   2.934   2.029   7.426  2.0416  1.6086  1.4492
 9475SOL    HW240059   2.909   1.896   7.459  1.6963 -0.5561  0.3615
 9476SOL     OW40060   1.523   1.291   7.698  0.1595 -0.1653 -0.0412
 9476SOL    HW140061   1.515   1.216   7.757  0.1813  1.4997  2.0848
 9476SOL    HW240062   1.571   1.243   7.631  0.1851 -0.7083  0.3637
 9477SOL     OW40063   4.594   3.126   4.417  0.9733 -0.1136  0.3876
 9477SOL    HW140064   4.592   3.060   4.348  3.6713 -0.3579  0.5343
 9477SOL    HW240065   4.550   3.087   4.492  0.0361  1.3808  0.6226
 9478SOL     OW40066   1.446   3.000   5.957  0.1166  0.2314  0.1605
 9478SOL    HW140067   1.403   3.077   5.995 -1.6678 -0.1059 -1.1577
 9478SOL    HW240068   1.473   3.025   5.869  0.9688 -1.3261 -0.0325
 9479SOL     OW40069   2.099   4.240   3.499  0.0538  0.4333 -0.2418
 9479SOL    HW140070   2.017   4.199   3.474 -0.7881  1.6015  0.5619
 9479SOL    HW240071   2.078   4.289   3.579 -1.4753 -1.1249  0.3057
 9480SOL     OW40072   2.020   1.484   5.943 -0.1644  0.0206  0.0608
 9480SOL    HW140073   1.927   1.473   5.961  0.2794 -0.2160  2.1852
 9480SOL    HW240074   2.026   1.483   5.847  2.7917 -2.0018  0.2710
 9481SOL     OW40075   0.385   2.022   6.906  0.3718 -0.0668 -0.3917
 9481SOL    HW140076   0.303   1.976   6.926 -0.8235  2.5635  0.7001
 9481SOL    HW240077   0.404   1.988   6.818  1.2730 -1.1648  0.2344
 9482SOL     OW40078   0.221   4.407   0.350 -0.2392  0.0178  0.5479
 9482SOL    HW140079   0.165   4.337   0.316  2.6728 -2.1684  0.1501
 9482SOL    HW240080   0.195   4.384   0.439 -0.7296  0.5825  0.5445
 9483SOL     OW40081   0.308   4.613   5.764  0.3600 -0.0947 -0.4274
 9483SOL    HW140082   0.235   4.577   5.814  1.1269  0.4846  1.1230
 9483SOL    HW240083   0.278   4.594   5.675  0.7181 -0.8655 -0.3789
 9484SOL     OW40084   0.181   4.256  11.211 -0.0294  0.2531 -0.6409
 9484SOL    HW140085   0.129   4.334  11.232 -0.6020 -0.3492  0.2308
 9484SOL    HW240086   0.177   4.201  11.289  1.2019 -1.8705 -2.0813
 9485SOL     OW40087   3.721   0.816  13.190  0.2690  0.5622  0.5882
 9485SOL    HW140088   3.659   0.785  13.125  1.2675  1.3424 -0.7229
 9485SOL    HW240089   3.737   0.902  13.152 -0.9455  0.6491  0.2962
 9486SOL     OW40090   4.422   4.406   6.754 -0.0608 -0.0929  0.4137
 9486SOL    HW140091   4.373   4.484   6.728  1.2662  0.5978  0.0081
 9486SOL    HW240092   4.488   4.406   6.684 -1.1924 -1.7194 -0.6559
 9487SOL     OW40093   4.440   1.741   8.107 -0.3707  0.3432 -0.1508
 9487SOL    HW140094   4.481   1.656   8.126 -0.6732 -0.1766 -1.8464
 9487SOL    HW240095   4.366   1.754   8.166 -2.2521  1.3501 -2.7553
 9488SOL     OW40096   1.253   3.100   8.666 -0.2570 -0.6215 -0.2805
 9488SOL    HW140097   1.273   3.066   8.578 -1.3859  1.7133 -1.4394
 9488SOL    HW240098   1.169   3.140   8.643  0.6222  1.3789  0.0124
 9489SOL     OW40099   4.121   1.350   3.376  0.4534  0.1410 -0.0489
 9489SOL    HW140100   4.043   1.294   3.372  0.4437  0.2026 -0.7327
 9489SOL    HW240101   4.165   1.314   3.299 -1.8211 -1.1545 -0.7382
 9490SOL     OW40102   3.339   4.409   5.666  0.0909 -0.2991 -0.1748
 9490SOL    HW140103   3.310   4.498   5.688 -0.7700  0.1405 -3.0070
 9490SOL    HW240104   3.383   4.373   5.742  0.5582  1.0397  0.1940
 9491SOL     OW40105   3.413   4.068   9.315 -0.1090  0.1030  0.2005
 9491SOL    HW140106   3.384   4.147   9.268 -3.4950 -0.2941  1.6100
 9491SOL    HW240107   3.433   4.003   9.248 -2.7416  1.2978 -1.7510
 9492SOL     OW40108   4.558   2.609   4.037 -0.4015 -0.1331  0.1298
 9492SOL    HW140109   4.526   2.592   4.125  0.3197  1.4267  0.6952
 9492SOL    HW240110   4.622   2.680   4.040 -0.9887  0.4194 -0.5898
 9493SOL     OW40111   4.470   2.396   7.192  0.4768  0.4496  0.1161
 9493SOL    HW140112   4.410   2.468   7.171  0.1415  0.6357  1.7127
 9493SOL    HW240113   4.432   2.357   7.271  3.4784 -3.4537 -0.4090
 9494SOL     OW40114   1.763   1.826  12.425 -0.0138  0.3394  0.0948
 9494SOL    HW140115   1.721   1.900  12.382  0.0981  0.0048 -0.5967
 9494SOL    HW240116   1.854   1.847  12.405 -0.0536 -0.8325 -1.3312
 9495SOL     OW40117   4.306   0.991   0.437 -0.0537 -0.6151 -0.2265
 9495SOL    HW140118   4.367   0.917   0.428  0.1558 -0.3749 -0.8156
 9495SOL    HW240119   4.369   1.056   0.468  0.5177 -1.5407  0.5550
 9496SOL     OW40120   3.222   0.426   7.221 -0.1220  0.3687  0.6834
 9496SOL    HW140121   3.151   0.421   7.285 -0.5119 -0.4370  0.1873
 9496SOL    HW240122   3.292   0.382   7.269  0.8921  1.1814 -0.0675
 9497SOL     OW40123   4.530   3.526   7.495 -0.9424 -0.5282  0.2527
 9497SOL    HW140124   4.496   3.582   7.426  3.9121  1.5160 -0.4644
 9497SOL    HW240125   4.614   3.569   7.509 -0.4522 -1.6220  0.6483
 9498SOL     OW40126   3.672   3.755   1.501  0.3792 -0.2114 -0.6913
 9498SOL    HW140127   3.741   3.703   1.543 -2.1444 -1.8679  1.4464
 9498SOL    HW240128   3.642   3.814   1.570  1.3964 -1.3282  0.7122
 9499SOL     OW40129   3.359   1.472   7.998  0.1876  0.1104  0.4492
 9499SOL    HW140130   3.281   1.423   7.973 -1.0222  1.5403  1.4545
 9499SOL    HW240131   3.325   1.561   8.009 -0.5638  0.2400 -3.0670
 9500SOL     OW40132   2.635   1.702   5.634  0.3488  0.0988 -0.2159
 9500SOL    HW140133   2.643   1.769   5.703  0.5242 -1.4481  1.2826
 9500SOL    HW240134   2.554   1.669   5.673  2.0979 -2.5153  1.2580
 9501SOL     OW40135   0.656   1.939   3.976  0.0665 -0.2463  0.1373
 9501SOL    HW140136   0.669   1.900   3.889 -0.2887  1.3127 -0.6209
 9501SOL    HW240137   0.594   2.007   3.946  2.1509  1.2280 -0.8185
 9502SOL     OW40138   2.936   0.869   6.865 -0.1978 -0.4913 -0.4632
 9502SOL    HW140139   2.927   0.934   6.795  1.3332 -1.4447 -1.5574
 9502SOL    HW240140   3.029   0.867   6.887 -0.2761 -1.2700 -0.2309
 9503SOL     OW40141   2.364   1.703   0.486  0.1783  0.0719  0.3061
 9503SOL    HW140142   2.429   1.723   0.553 -0.6614  0.1747  1.0835
 9503SOL    HW240143   2.315   1.626   0.516  0.4554  0.3351  1.4240
 9504SOL     OW40144   2.245   3.835   8.019 -0.4190 -0.4636  0.4857
 9504SOL    HW140145   2.234   3.861   8.111  1.9531 -0.9845  0.9059
 9504SOL    HW240146   2.262   3.914   7.968 -1.0743 -0.5779  0.0910
 9505SOL     OW40147   1.333   3.776  15.879 -0.3927  0.6918 -0.5707
 9505SOL    HW140148   1.302   3.784  15.969  4.1090  1.3614  0.9092
 9505SOL    HW240149   1.264   3.826  15.834  0.3849  2.1957 -0.1048
 9506SOL     OW40150   2.752   1.395   3.886 -0.3402 -0.1228  0.2467
 9506SOL    HW140151   2.704   1.454   3.828 -1.5604 -2.4536 -1.1003
 9506SOL    HW240152   2.764   1.442   3.968  0.3885 -3.9799  2.3327
 9507SOL     OW40153   3.414   0.663   7.678  0.8064  0.1600 -0.2922
 9507SOL    HW140154   3.483   0.721   7.647 -2.0583  4.4107  1.1842
 9507SOL    HW240155   3.338   0.719   7.663 -0.2255 -1.0868  0.2073
 9508SOL     OW40156   0.967   1.464   2.037 -0.2657  0.1751  0.0959
 9508SOL    HW140157   1.053   1.448   2.076 -0.5911  0.1175  0.8019
 9508SOL    HW240158   0.939   1.552   2.062 -3.1632 -0.1305 -2.0657
 9509SOL     OW40159   4.665   3.017  16.253 -0.0628 -0.0311 -0.0926
 9509SOL    HW140160   4.728   2.973  16.196  0.7244  1.0342 -0.0353
 9509SOL    HW240161   4.591   2.959  16.235 -0.2613 -0.2247  1.3064
 9510SOL     OW40162   4.420   1.454   6.078 -0.3697  0.2927  0.2515
 9510SOL    HW140163   4.472   1.533   6.063  0.0384 -0.1731 -0.8366
 9510SOL    HW240164   4.339   1.491   6.112 -0.1558  0.1601  0.9094
 9511SOL     OW40165   3.954   0.370   2.459 -0.0403  0.2339 -0.1965
 9511SOL    HW140166   3.959   0.363   2.364 -1.5834  2.2184 -0.4217
 9511SOL    HW240167   3.902   0.447   2.481  2.6140  1.9567  0.0569
 9512SOL     OW40168   1.513   4.613  10.674 -0.5308  0.1668  0.4388
 9512SOL    HW140169   1.437   4.633  10.620 -0.2038 -1.6538 -0.7245
 9512SOL    HW240170   1.474   4.538  10.718 -1.9496 -0.7186 -2.2961
 9513SOL     OW40171   0.477   2.816  17.589  0.1925  0.5931 -0.2738
 9513SOL    HW140172   0.520   2.898  17.564  0.9768  0.2466 -0.0616
 9513SOL    HW240173   0.477   2.821  17.685 -0.6404  1.1312 -0.3001
 9514SOL     OW40174   1.715   1.105  13.383 -0.1500  0.6127 -0.2688
 9514SOL    HW140175   1.695   1.195  13.408 -0.2444  0.3537  0.5564
 9514SOL    HW240176   1.734   1.125  13.291 -1.0938  0.0661 -0.5760
 9515SOL     OW40177   2.245   1.038   9.672 -0.3573 -0.2854  0.0068
 9515SOL    HW140178   2.267   1.080   9.755  1.9118 -2.9109  0.7423
 9515SOL    HW240179   2.273   0.947   9.684 -0.4079 -0.1290  1.2643
 9516SOL     OW40180   4.381   1.621   2.870  0.5801 -0.4524  0.5877
 9516SOL    HW140181   4.374   1.692   2.935  1.3685  1.5932 -1.5780
 9516SOL    HW240182   4.467   1.639   2.831  1.4909 -0.5796  2.5357
 9517SOL     OW40183   1.314   1.604   4.759  0.0163  0.0588  0.7645
 9517SOL    HW140184   1.300   1.531   4.700 -0.8984  1.7813 -1.1623
 9517SOL    HW240185   1.377   1.658   4.711  0.6555 -0.5019  0.9736
 9518SOL     OW40186   3.217   4.598   4.766 -0.6446 -0.5717  0.6622
 9518SOL    HW140187   3.279   4.672   4.769 -0.7473 -0.4375 -0.7334
 9518SOL    HW240188   3.130   4.636   4.775 -0.0625  0.9860 -0.2318
 9519SOL     OW40189   3.734   0.395   9.784  0.1312  0.3692 -0.0116
 9519SOL    HW140190   3.671   0.402   9.713 -0.3762 -0.7636  0.3212
 9519SOL    HW240191   3.815   0.429   9.745  0.5537 -0.2243  0.3433
 9520SOL     OW40192   0.091   1.964   7.941 -0.2569 -0.1827 -0.1105
 9520SOL    HW140193   0.067   1.919   7.860  0.0181  3.2040 -2.0782
 9520SOL    HW240194   0.147   2.034   7.905 -0.8525  0.2975 -0.1125
 9521SOL     OW40195   1.161   0.914  10.611 -0.0123 -0.1520 -0.0758
 9521SOL    HW140196   1.075   0.916  10.651 -1.1367  1.3638 -2.5622
 9521SOL    HW240197   1.214   0.935  10.688  0.6380 -0.2322 -0.4942
 9522SOL     OW40198   3.640   3.823   2.447 -0.0324 -0.4167 -0.0575
 9522SOL    HW140199   3.545   3.818   2.434 -0.0431 -2.3494  0.8150
 9522SOL    HW240200   3.641   3.770   2.527 -0.4228  0.6065  0.6286
 9523SOL     OW40201   1.020   3.680   2.535 -0.1493 -0.1539 -0.0185
 9523SOL    HW140202   0.976   3.758   2.569 -0.1986 -0.2262  0.0838
 9523SOL    HW240203   1.072   3.664   2.614 -1.1131 -2.3940  0.1577
 9524SOL     OW40204   4.419   3.679  17.416  0.2495 -0.5855  0.0153
 9524SOL    HW140205   4.512   3.699  17.408  0.4449 -1.5010 -0.0471
 9524SOL    HW240206   4.390   3.723  17.496  1.8053  0.1064  0.2057
 9525SOL     OW40207   4.401   3.304   1.748 -0.2761 -0.5985 -0.0683
 9525SOL    HW140208   4.421   3.390   1.785 -1.3999 -0.8079  0.9964
 9525SOL    HW240209   4.453   3.247   1.804  0.3289  0.0940  0.0667
 9526SOL     OW40210   0.625   3.702  15.014  0.1724  0.3755 -0.9395
 9526SOL    HW140211   0.693   3.768  15.027  0.2085  0.3054 -0.7717
 9526SOL    HW240212   0.649   3.670  14.927  0.5658 -0.5429 -0.4941
 9527SOL     OW40213   3.899   0.515   0.031  0.0288 -0.6861  0.2694
 9527SOL    HW140214   3.907   0.601   0.072  1.9066 -1.7585  2.1728
 9527SOL    HW240215   3.885   0.538  17.710 -1.6889 -0.2915  0.6391
 9528SOL     OW40216   1.534   3.871   7.756  0.0911  0.3860 -0.3336
 9528SOL    HW140217   1.499   3.808   7.818 -1.2963  1.1221 -0.3744
 9528SOL    HW240218   1.627   3.878   7.778 -0.5918  0.4379  2.4812
 9529SOL     OW40219   2.863   0.531  17.712 -0.4749  0.6061 -0.2472
 9529SOL    HW140220   2.872   0.538  17.617  0.3076  2.0127 -0.0855
 9529SOL    HW240221   2.934   0.468  17.724  1.0582  1.7604 -3.2270
 9530SOL     OW40222   0.921   3.004   4.152  0.3016 -0.0211 -0.2256
 9530SOL    HW140223   0.860   2.943   4.110 -0.7601  1.4184 -0.7578
 9530SOL    HW240224   0.877   3.024   4.234  2.1625 -0.9972  1.0229
 9531SOL     OW40225   1.490   0.874   4.332  0.1580  0.4200 -0.3201
 9531SOL    HW140226   1.498   0.779   4.324  2.1177  0.6088 -0.6335
 9531SOL    HW240227   1.530   0.899   4.249 -0.9337  0.6509 -0.7826
 9532SOL     OW40228   3.149   3.442   6.730  0.0023 -0.5709  0.2914
 9532SOL    HW140229   3.183   3.368   6.680  0.0912  1.6021 -2.8868
 9532SOL    HW240230   3.225   3.482   6.773  1.1859 -1.6265 -0.7820
 9533SOL     OW40231   0.732   1.535   4.596  0.2802 -0.3498  0.1211
 9533SOL    HW140232   0.690   1.620   4.612  0.6492 -0.0913 -0.2713
 9533SOL    HW240233   0.780   1.542   4.514 -0.9598 -0.8953 -0.6562
 9534SOL     OW40234   0.790   0.510   4.900 -0.3295  0.1256 -0.3832
 9534SOL    HW140235   0.823   0.500   4.811  2.0447  4.6544 -0.0076
 9534SOL    HW240236   0.845   0.576   4.942 -1.1208  1.3704 -1.2919
 9535SOL     OW40237   4.269   3.891  10.237 -0.2753 -0.1978  0.1611
 9535SOL    HW140238   4.299   3.977  10.269  1.3195 -0.8524  0.4588
 9535SOL    HW240239   4.298   3.844  10.316 -0.5372 -0.3516  0.1625
 9536SOL     OW40240   1.734   3.612  11.155  0.8999 -0.5224 -0.3018
 9536SOL    HW140241   1.787   3.559  11.215  0.2522 -0.9820 -0.1357
 9536SOL    HW240242   1.711   3.547  11.089 -1.9850  1.1964 -1.0042
 9537SOL     OW40243   0.984   0.162  16.280 -0.4554 -0.0631  0.0587
 9537SOL    HW140244   1.060   0.120  16.318 -0.0414  0.2160 -0.4661
 9537SOL    HW240245   0.944   0.082  16.245  1.1203 -0.5749 -0.5603
 9538SOL     OW40246   1.558   0.950   2.201  0.0056 -0.3832 -0.3750
 9538SOL    HW140247   1.543   0.962   2.107 -1.6955 -0.8042 -0.1517
 9538SOL    HW240248   1.649   0.920   2.198  0.9149  2.2854  0.0256
 9539SOL     OW40249   0.416   2.730   9.578 -0.1209  0.4495  0.0796
 9539SOL    HW140250   0.452   2.654   9.624 -0.5695 -0.7471 -1.5167
 9539SOL    HW240251   0.478   2.798   9.601 -0.9411  0.5919  1.8192
 9540SOL     OW40252   1.296   1.375   7.557 -0.3348  0.4795  0.7887
 9540SOL    HW140253   1.330   1.447   7.505  1.9259  0.0620  1.6618
 9540SOL    HW240254   1.372   1.374   7.616 -0.8067 -5.4954  1.3671
 9541SOL     OW40255   2.265   1.002   6.197 -0.4258  0.1421 -0.4770
 9541SOL    HW140256   2.206   1.075   6.215 -1.1903 -0.5783 -0.0591
 9541SOL    HW240257   2.220   0.927   6.237 -0.8134  0.7189  0.1766
 9542SOL     OW40258   3.656   1.031   9.517  0.2890  0.1502  0.2877
 9542SOL    HW140259   3.666   1.082   9.597  1.2896  0.4103 -0.0047
 9542SOL    HW240260   3.655   1.098   9.448 -1.3488  1.5830  1.7001
 9543SOL     OW40261   4.687   2.756   1.801  0.5668  0.2966 -0.4061
 9543SOL    HW140262   4.667   2.702   1.878 -2.4429 -1.6986 -2.6052
 9543SOL    HW240263   4.677   2.681   1.742 -0.2300  0.2608 -0.2293
 9544SOL     OW40264   3.786   1.918  17.426 -0.1146 -0.0940 -0.4470
 9544SOL    HW140265   3.805   1.993  17.483 -1.1516  0.4297 -0.7885
 9544SOL    HW240266   3.706   1.958  17.392  0.4011  1.2115 -0.1108
 9545SOL     OW40267   4.046   2.327   3.482  0.0514 -0.3453  0.1504
 9545SOL    HW140268   4.067   2.294   3.394 -1.1951  0.0487 -0.3015
 9545SOL    HW240269   3.992   2.400   3.453  0.4617 -0.5621 -1.1443
 9546SOL     OW40270   4.572   4.117   4.708  0.8219  0.0898  0.0933
 9546SOL    HW140271   4.585   4.210   4.729 -1.4332  0.6855 -1.1187
 9546SOL    HW240272   4.547   4.079   4.791 -0.9416 -1.4827 -1.1737
 9547SOL     OW40273   4.411   3.294   1.030 -0.3342  0.2155 -0.8101
 9547SOL    HW140274   4.331   3.344   1.012  0.0114  1.5806  1.4418
 9547SOL    HW240275   4.379   3.205   1.014 -1.6174  1.0816 -3.0138
 9548SOL     OW40276   1.565   0.953   6.775  0.0386  0.1262  0.5996
 9548SOL    HW140277   1.612   0.904   6.707 -1.3331 -0.1247 -0.1498
 9548SOL    HW240278   1.562   1.037   6.729 -0.8318 -0.5494 -0.5765
 9549SOL     OW40279   3.500   3.102   8.476  0.1245  0.1483 -0.2370
 9549SOL    HW140280   3.411   3.108   8.442  0.2533 -0.4485 -0.6703
 9549SOL    HW240281   3.545   3.033   8.429 -0.4242  0.6406 -1.4794
 9550SOL     OW40282   1.712   3.598   4.336 -0.1810 -0.0527  0.0049
 9550SOL    HW140283   1.684   3.653   4.410 -0.0877 -0.3294  0.2457
 9550SOL    HW240284   1.633   3.583   4.283 -0.7404 -0.1058  0.8453
 9551SOL     OW40285   0.122   3.625   6.878 -0.3478  0.4970 -1.5069
 9551SOL    HW140286   0.198   3.680   6.900 -0.8714  0.4711  0.3893
 9551SOL    HW240287   0.155   3.568   6.809 -0.0221 -0.3032 -0.6855
 9552SOL     OW40288   0.666   0.543   2.181  0.4817  0.3004 -0.1207
 9552SOL    HW140289   0.760   0.551   2.165  0.7217  1.5352  1.8499
 9552SOL    HW240290   0.658   0.482   2.254 -1.8152  0.4082 -0.2848
 9553SOL     OW40291   1.046   4.008   4.643  0.5557 -0.2569  0.0013
 9553SOL    HW140292   1.116   3.954   4.606  1.2530 -0.0157  0.9731
 9553SOL    HW240293   1.007   3.953   4.712 -0.2814 -0.2159 -0.4354
 9554SOL     OW40294   2.095   1.478   7.923  0.0722  0.4320  0.0310
 9554SOL    HW140295   2.135   1.397   7.955 -2.9702 -0.6915  0.9480
 9554SOL    HW240296   2.008   1.448   7.897 -1.0578  1.8213  2.2379
 9555SOL     OW40297   3.887   2.029  12.709 -0.2323 -0.0414 -0.4327
 9555SOL    HW140298   3.934   1.948  12.729 -1.2946 -0.4111  0.6236
 9555SOL    HW240299   3.927   2.101  12.759  0.2469  1.0900 -2.4331
 9556SOL     OW40300   2.293   4.452   9.255  0.5475 -0.3391  0.3324
 9556SOL    HW140301   2.386   4.468   9.238  0.4241 -1.1564 -1.0628
 9556SOL    HW240302   2.274   4.475   9.346 -2.1915  1.3936 -0.6519
 9557SOL     OW40303   2.763   0.902   5.924  0.2518  0.1133 -0.8111
 9557SOL    HW140304   2.744   0.891   5.830  0.5368  2.3013 -1.1310
 9557SOL    HW240305   2.851   0.870   5.942  0.5785  0.4005 -1.9097
 9558SOL     OW40306   1.672   0.530   2.593  0.0627 -0.5339 -0.4549
 9558SOL    HW140307   1.630   0.460   2.642 -3.0140  1.6039 -0.0841
 9558SOL    HW240308   1.763   0.516   2.619 -0.5332 -2.2781  0.6603
 9559SOL     OW40309   4.399   1.819   5.863  0.1796  0.6633  0.4960
 9559SOL    HW140310   4.349   1.845   5.940 -2.1888  0.3148 -0.9387
 9559SOL    HW240311   4.334   1.800   5.795  1.7232  0.0230 -0.8225
 9560SOL     OW40312   3.418   4.063  14.643 -0.1170 -0.2140 -0.3609
 9560SOL    HW140313   3.506   4.080  14.678  0.8186 -2.1231 -1.7948
 9560SOL    HW240314   3.428   4.068  14.548  0.9374  0.6535 -0.1966
 9561SOL     OW40315   3.613   1.030   9.167  0.2042  0.2914 -0.2071
 9561SOL    HW140316   3.575   1.098   9.223  0.0963  0.7250 -0.8079
 9561SOL    HW240317   3.707   1.044   9.176  0.4775 -0.7463 -1.4500
 9562SOL     OW40318   2.205   2.261   5.056  0.1520  0.5135  0.1478
 9562SOL    HW140319   2.199   2.284   4.963 -0.1787 -1.3186 -0.2904
 9562SOL    HW240320   2.294   2.226   5.066  0.2951  0.8546  0.0595
 9563SOL     OW40321   4.101   0.859   7.960  0.3430 -0.0014  0.1186
 9563SOL    HW140322   4.070   0.776   7.996  0.5618  0.0070  0.3321
 9563SOL    HW240323   4.174   0.880   8.019 -0.3821 -1.7538  1.6282
 9564SOL     OW40324   2.709   4.054   5.848 -0.7160 -0.1709  0.6492
 9564SOL    HW140325   2.736   4.078   5.937 -0.6771 -2.1620  1.1608
 9564SOL    HW240326   2.615   4.041   5.864 -0.5552 -0.7710  1.1137
 9565SOL     OW40327   1.274   4.272   3.992  0.3093  0.1765  0.2887
 9565SOL    HW140328   1.184   4.238   3.995  0.0114  0.9069 -0.1062
 9565SOL    HW240329   1.271   4.358   4.035  2.4621 -0.5900  1.9815
 9566SOL     OW40330   3.756   4.385   7.750  0.3174 -0.1469 -0.1263
 9566SOL    HW140331   3.845   4.420   7.742  0.0565  0.6082  0.2016
 9566SOL    HW240332   3.781   4.298   7.780 -1.3644 -0.5303  0.1294
 9567SOL     OW40333   0.763   4.694   9.792 -0.1152 -0.1703  0.4272
 9567SOL    HW140334   0.690   0.011   9.800 -1.1679 -1.6934  2.4662
 9567SOL    HW240335   0.717   4.611   9.808  1.8325 -1.3841 -0.2646
 9568SOL     OW40336   2.655   3.146   3.700 -0.3059 -0.5069  1.1232
 9568SOL    HW140337   2.651   3.241   3.715  0.7535 -0.5142  1.4769
 9568SOL    HW240338   2.710   3.112   3.770  1.5285  0.3910  0.1278
 9569SOL     OW40339   1.596   0.662   3.605  0.1311 -0.5769 -0.9653
 9569SOL    HW140340   1.689   0.640   3.613 -0.5671 -2.7484  1.3531
 9569SOL    HW240341   1.599   0.693   3.514 -0.7665 -0.3882 -0.9285
 9570SOL     OW40342   0.162   4.383   3.483 -0.1462  0.3859 -0.0055
 9570SOL    HW140343   0.194   4.473   3.483 -0.6874  0.5774 -0.6391
 9570SOL    HW240344   0.075   4.400   3.520  0.3258  1.1548  0.7464
 9571SOL     OW40345   2.586   1.463  15.870 -0.5084 -0.5343 -0.2698
 9571SOL    HW140346   2.679   1.464  15.895 -0.2937  3.3553 -1.1207
 9571SOL    HW240347   2.587   1.439  15.777 -2.5899  0.6611 -0.5998
   4.74364   4.74364  17.77124
