Membrane in water
40347
    1TMC1    C1    1   2.909   1.324  11.483 -0.4420  0.8237 -0.0385
    1TMC1    C2    2   2.904   1.316  11.353 -0.1603 -0.3353 -0.0219
    1TMC1    C3    3   2.905   1.425  11.268  1.2644  0.3669  0.8325
    1TMC1    C4    4   2.909   1.449  11.535  0.7272  0.2349  0.8253
    1TMC1    C5    5   2.923   1.563  11.456  0.2690 -0.6532 -0.4793
    1TMC1    C6    6   2.923   1.549  11.322  0.6422  0.0615 -0.5838
    1TMC1     C    7   2.882   1.197  11.553 -0.5488  0.1841 -0.4212
    1TMC1     O    8   2.949   1.105  11.517 -0.2597  0.1229  0.4132
    1TMC1     H    9   2.883   1.219  11.309 -0.4862 -0.4758  0.4387
    1TMC1    H1   10   2.886   1.464  11.640  2.8391 -0.7829  1.4172
    1TMC1    H2   11   2.937   1.636  11.258 -2.0340  0.2015 -0.9734
    1TMC1    C7   12   2.928   1.702  11.499 -0.2143 -0.3262  0.0687
    1TMC1    C8   13   2.905   1.411  11.124  0.6141  0.7664 -0.1751
    1TMC1    O1   14   2.941   1.786  11.414 -0.0534 -0.5705  0.2534
    1TMC1    O2   15   2.920   1.301  11.075  0.5107  0.1568 -0.2264
    1TMC1    O3   16   2.966   1.710  11.635  1.1600  0.3636 -0.4360
    1TMC1    H3   17   2.966   1.624  11.682  1.3391  0.7890  0.3342
    1TMC1    O5   18   2.807   1.498  11.080  0.0986 -0.1765  0.0129
    1TMC1    H5   19   2.774   1.566  11.142  0.4152 -0.3043  0.3239
    2MPD2     C   20   2.572   0.879  11.808 -0.1050 -0.4312  0.0796
    2MPD2    C1   21   2.513   1.003  11.805 -0.1754  0.1438 -0.3559
    2MPD2    C2   22   2.571   1.106  11.731  0.5103 -0.0504  0.7649
    2MPD2    C3   23   2.692   1.095  11.678  0.0023  0.3191  0.2421
    2MPD2    C4   24   2.750   0.977  11.687 -0.1735 -0.3191 -0.2068
    2MPD2    C5   25   2.690   0.868  11.745  0.0275  0.4617 -0.4704
    2MPD2     H   26   2.526   1.205  11.731  1.1925  0.2593  2.0947
    2MPD2    H1   27   2.850   0.957  11.649  0.5052 -0.7612  1.8281
    2MPD2    H2   28   2.528   0.792  11.857 -0.2908 -0.1498  0.4116
    2MPD2    H3   29   2.741   0.773  11.738 -0.9327 -0.0935  0.1757
    2MPD2     N   30   2.757   1.201  11.616  0.2359  0.5738 -0.1075
    2MPD2    H5   31   2.707   1.287  11.633 -1.7371 -0.4331 -0.8700
    2MPD2    N1   32   2.396   1.041  11.872  0.3411  0.4984  0.2556
    2MPD2    H7   33   2.371   1.138  11.854  1.4117  0.9802  1.3964
    3TMC1    C1   34   0.990   2.017  10.680 -0.0250 -0.0859  0.0362
    3TMC1    C2   35   0.963   2.145  10.709 -0.0219  0.1615  0.0605
    3TMC1    C3   36   0.966   2.233  10.598 -0.4620  0.6187  0.0966
    3TMC1    C4   37   1.009   1.967  10.554 -0.1409 -0.3421  0.1327
    3TMC1    C5   38   0.982   2.049  10.450 -0.0620 -0.2490 -0.6397
    3TMC1    C6   39   0.969   2.184  10.466 -0.1521  0.6474 -0.0448
    3TMC1     C   40   0.987   1.923  10.790 -0.4326  0.5696 -0.7634
    3TMC1     O   41   0.944   1.807  10.765 -0.1788 -0.0869 -0.1009
    3TMC1     H   42   0.953   2.187  10.809 -0.3157 -0.3519  0.2468
    3TMC1    H1   43   1.015   1.860  10.536  0.7393 -0.0940 -0.9522
    3TMC1    H2   44   0.955   2.250  10.382 -0.6989 -0.0308 -0.4872
    3TMC1    C7   45   1.010   2.002  10.313 -0.1189  0.4155  1.1322
    3TMC1    C8   46   0.928   2.366  10.627 -0.5491  0.2107  0.1356
    3TMC1    O1   47   1.091   2.058  10.243  0.1513  0.1968  0.6561
    3TMC1    O2   48   0.952   2.464  10.556 -0.1160  0.0396 -0.0271
    3TMC1    O3   49   0.884   1.987  10.268 -0.2060 -0.1411  0.6369
    3TMC1    H3   50   0.829   1.948  10.339  1.2580  1.6219  2.7096
    3TMC1    O5   51   0.811   2.356  10.692 -0.5274  0.6315  0.5144
    3TMC1    H5   52   0.788   2.269  10.730  1.9462 -0.4583 -0.5048
    4MPD2     C   53   1.018   1.769  11.283 -0.1551  0.6032 -0.0264
    4MPD2    C1   54   1.057   1.903  11.290  0.1800 -0.4613 -0.6955
    4MPD2    C2   55   1.062   1.968  11.166  0.4711  0.4709  0.3656
    4MPD2    C3   56   1.026   1.903  11.042  0.2427  0.1210  0.1363
    4MPD2    C4   57   0.981   1.774  11.050  0.5293  0.1858 -0.1476
    4MPD2    C5   58   0.977   1.705  11.168  0.3280 -0.5258  0.9751
    4MPD2     H   59   1.103   2.068  11.157 -0.5825  0.8065 -0.5499
    4MPD2    H1   60   0.949   1.718  10.962  1.2794  1.2028 -1.0704
    4MPD2    H2   61   1.020   1.705  11.370  0.9444  0.6571 -0.0164
    4MPD2    H3   62   0.960   1.599  11.182  0.0704 -0.5090  0.7785
    4MPD2     N   63   1.033   1.970  10.911 -0.0294  0.3681 -0.2694
    4MPD2    H5   64   1.062   2.067  10.910  0.9275  0.0712 -0.8277
    4MPD2    N1   65   1.094   1.976  11.405 -0.1566 -0.0912  0.5729
    4MPD2    H7   66   1.129   2.071  11.398  1.3273 -0.6773  0.2000
    5TCq1    O1   67   1.706   4.455  11.168  0.4268 -0.7569  0.6009
    5TCq1    C1   68   1.585   4.463  11.210 -0.1168 -0.2418 -0.4655
    5TCq1    O2   69   1.527   4.569  11.227 -0.1395  0.2578 -0.2923
    5TCq1    C2   70   1.507   4.349  11.168  0.1719 -0.1646 -0.0126
    5TCq1    C3   71   1.378   4.379  11.129  0.1953  0.1411 -0.2941
    5TCq1    C4   72   1.297   4.272  11.104  0.3528  0.3180  0.1401
    5TCq1    C5   73   1.341   4.140  11.104  0.0441  0.6256  0.3379
    5TCq1    C6   74   1.464   4.119  11.150  0.5066 -0.2492 -0.6605
    5TCq1    C7   75   1.557   4.221  11.179  0.0778 -0.0574 -0.3031
    5TCq1    C8   76   1.535   3.998  11.103  0.1912 -0.6175  0.4478
    5TCq1    O4   77   1.657   4.007  11.077  0.0081 -0.4582  0.5141
    5TCq1    C9   78   1.158   4.296  11.070 -0.2373 -0.9952  0.1636
    5TCq1    O5   79   1.082   4.198  11.060 -0.2399  0.2621  0.1687
    5TCq1    O6   80   1.130   4.405  11.019  0.3911  0.2774  0.6267
    5TCq1    H1   81   1.732   4.365  11.138 -1.0738 -0.9647 -0.0677
    5TCq1    H2   82   1.333   4.477  11.134  0.3267  0.1407  1.0554
    5TCq1    H3   83   1.273   4.064  11.068  0.6457  0.6750 -0.8934
    5TCq1    H4   84   1.659   4.187  11.191  0.3906  1.4395  1.2693
    6MPD2     C   85   1.377   3.677  11.046  0.4658  0.6639  0.7917
    6MPD2    C1   86   1.489   3.762  11.052 -0.2235 -0.1368 -0.0574
    6MPD2    C2   87   1.616   3.715  11.018  0.5694 -0.5825  0.1557
    6MPD2    C3   88   1.634   3.587  10.976  0.5451 -0.9540 -1.0336
    6MPD2    C4   89   1.528   3.505  10.971  0.1734 -0.0627 -0.2481
    6MPD2    C5   90   1.402   3.547  11.015  0.2436  0.3835 -0.2526
    6MPD2     H   91   1.703   3.777  11.032  0.2633 -0.3923  1.2753
    6MPD2    H1   92   1.546   3.402  10.945  1.8400 -0.0056  0.6528
    6MPD2    H2   93   1.277   3.714  11.067  0.4361  0.3719  1.1608
    6MPD2    H3   94   1.333   3.465  11.031  1.3934 -0.5247  0.1553
    6MPD2     N   95   1.765   3.551  10.934 -0.1760  0.2684  0.3632
    6MPD2    H5   96   1.831   3.628  10.930 -1.3951  1.3431  0.8905
    6MPD2    N1   97   1.455   3.891  11.086 -0.1783  0.0228  0.0809
    6MPD2    H7   98   1.360   3.924  11.101  0.3397  2.3105 -1.6449
    7TCq1    O1   99   4.404   3.422  12.876 -0.0743 -0.5227  0.2760
    7TCq1    C1  100   4.500   3.331  12.920  0.3180 -0.3116 -0.5550
    7TCq1    O2  101   4.610   3.359  12.971 -0.4422 -0.1220 -0.1235
    7TCq1    C2  102   4.457   3.201  12.885  0.4612  0.8279  0.7735
    7TCq1    C3  103   4.440   3.179  12.745 -0.3062 -0.0610  0.8203
    7TCq1    C4  104   4.466   3.054  12.698  0.7171  0.1525  0.4841
    7TCq1    C5  105   4.489   2.944  12.781  0.3296  0.3553 -0.0012
    7TCq1    C6  106   4.515   2.973  12.907 -0.0440  0.5218 -0.5646
    7TCq1    C7  107   4.492   3.101  12.969 -0.2418 -0.3532 -0.7678
    7TCq1    C8  108   4.580   2.871  12.989  0.2841 -0.1640 -0.2078
    7TCq1    O4  109   4.621   2.773  12.931 -0.1866 -0.2147 -0.1647
    7TCq1    C9  110   4.452   3.029  12.557  0.1914  0.0814 -0.5151
    7TCq1    O5  111   4.370   3.112  12.503 -0.2783  0.0115  0.0037
    7TCq1    O6  112   4.486   2.919  12.504 -0.4515  0.7425  0.4905
    7TCq1    H1  113   4.322   3.372  12.860 -0.3472 -0.4689  1.5025
    7TCq1    H2  114   4.414   3.258  12.676 -1.0640  0.6127  1.8840
    7TCq1    H3  115   4.487   2.845  12.737  0.4147  0.4056 -0.1191
    7TCq1    H4  116   4.512   3.119  13.074 -3.2351  0.7593 -0.3901
    8MPD2     C  117   4.707   2.655  13.442  0.0225  0.2160 -0.2739
    8MPD2    C1  118   4.724   2.605  13.312 -0.6980 -0.0593  0.5323
    8MPD2    C2  119   4.691   2.682  13.203 -0.5815  0.0458  0.5700
    8MPD2    C3  120   4.632   2.810  13.224 -0.2147  0.6296 -0.1355
    8MPD2    C4  121   4.614   2.857  13.348 -0.2594 -0.4551  0.3832
    8MPD2    C5  122   4.647   2.782  13.458 -0.2965 -0.6587  0.5003
    8MPD2     H  123   4.710   2.653  13.100  1.9228  0.5188  0.9146
    8MPD2    H1  124   4.561   2.948  13.372 -0.8314 -0.4242 -1.0052
    8MPD2    H2  125   4.727   2.595  13.529  2.2580 -0.8178 -1.5038
    8MPD2    H3  126   4.624   2.806  13.561 -1.3559 -0.0297  0.1204
    8MPD2     N  127   4.573   2.894  13.122 -0.8172 -0.1653  0.9092
    8MPD2    H5  128   4.514   2.968  13.159  0.6127  0.7091  1.4481
    8MPD2    N1  129   0.034   2.475  13.302  0.6824  0.2316  0.4965
    8MPD2    H7  130   0.038   2.417  13.386  0.1997  0.7869  0.8988
    9TMC1    C1  131   1.640   2.502  10.752  0.2750  0.1482  0.1145
    9TMC1    C2  132   1.686   2.627  10.733  0.2819 -0.1061 -0.2659
    9TMC1    C3  133   1.617   2.731  10.780 -0.6549 -0.1622  0.3362
    9TMC1    C4  134   1.516   2.477  10.806  0.5384  0.5125 -0.3911
    9TMC1    C5  135   1.449   2.589  10.847 -0.0472 -0.5872 -0.3559
    9TMC1    C6  136   1.493   2.720  10.832 -0.3245  0.4403 -0.0871
    9TMC1     C  137   1.710   2.410  10.667 -0.3832  0.7477  0.5142
    9TMC1     O  138   1.797   2.450  10.588 -0.5316 -0.2601  0.2858
    9TMC1     H  139   1.779   2.646  10.681  1.5242  1.2716  2.4333
    9TMC1    H1  140   1.477   2.377  10.824  1.2792  0.1772 -0.6583
    9TMC1    H2  141   1.438   2.812  10.842  0.2536  0.6065  1.4511
    9TMC1    C7  142   1.340   2.563  10.942 -0.4813  0.1697 -0.4760
    9TMC1    C8  143   1.668   2.865  10.755  0.7949 -0.5130  0.2357
    9TMC1    O1  144   1.316   2.447  10.975 -0.0178 -0.1807 -0.1349
    9TMC1    O2  145   1.593   2.952  10.715 -0.0823 -0.8171 -0.0530
    9TMC1    O3  146   1.332   2.669  11.030 -0.3566  0.1374  0.0245
    9TMC1    H3  147   1.383   2.750  11.011  1.2118 -0.7931  0.2379
    9TMC1    O5  148   1.801   2.861  10.742  0.1871 -0.2115 -0.2738
    9TMC1    H5  149   1.851   2.790  10.788  1.6298  2.3288  2.1022
   10MPD2     C  150   1.852   2.179  10.570  0.2817  0.2697 -0.3298
   10MPD2    C1  151   1.781   2.182  10.686  0.3244  0.1290  0.4589
   10MPD2    C2  152   1.791   2.069  10.767  0.3002  0.3991  0.2534
   10MPD2    C3  153   1.891   1.978  10.755 -0.0542  0.2760  0.4121
   10MPD2    C4  154   1.979   1.989  10.652 -0.6632 -0.6073  0.6622
   10MPD2    C5  155   1.955   2.088  10.558 -0.7992 -0.0064 -0.3507
   10MPD2     H  156   1.715   2.069  10.845 -0.4582  3.5589 -0.4960
   10MPD2    H1  157   2.052   1.910  10.636 -0.2519 -0.2000  0.5008
   10MPD2    H2  158   1.854   2.252  10.490 -0.6739  0.2375 -0.3833
   10MPD2    H3  159   2.023   2.092  10.474 -2.0952 -1.3520 -1.4549
   10MPD2     N  160   1.906   1.858  10.832 -0.2334 -0.5521 -0.8429
   10MPD2    H5  161   1.980   1.791  10.814 -0.3439 -0.9280  0.0733
   10MPD2    N1  162   1.706   2.293  10.727  0.4604 -0.2114  0.6475
   10MPD2    H7  163   1.655   2.277  10.813 -1.7499 -0.0438 -0.6286
   11TCq1    O1  164   2.702   0.879  14.597 -0.2139  0.0881  1.0264
   11TCq1    C1  165   2.695   0.895  14.463 -0.4506 -0.1180 -0.0788
   11TCq1    O2  166   2.755   0.821  14.388 -0.4485  0.1188  0.3978
   11TCq1    C2  167   2.559   0.932  14.436 -0.1653 -0.0345 -0.1148
   11TCq1    C3  168   2.519   1.054  14.469  0.4492  0.1971 -0.7160
   11TCq1    C4  169   2.408   1.104  14.403 -0.0418  0.2401  0.0185
   11TCq1    C5  170   2.321   1.018  14.338  0.4361 -0.3006 -0.0075
   11TCq1    C6  171   2.362   0.892  14.310 -0.3718  0.2019 -0.1151
   11TCq1    C7  172   2.493   0.857  14.343 -0.2262 -0.5864  0.1278
   11TCq1    C8  173   2.277   0.816  14.215 -0.2821 -0.3011  0.6974
   11TCq1    O4  174   2.185   0.885  14.170 -0.0634  0.3903  0.1158
   11TCq1    C9  175   2.361   1.236  14.448  0.1419  0.1950 -0.4074
   11TCq1    O5  176   2.271   1.282  14.372  0.2446  0.4462 -0.1212
   11TCq1    O6  177   2.419   1.280  14.547 -0.1896  0.0225  0.6083
   11TCq1    H1  178   2.651   0.944  14.650 -0.3686 -0.6582  1.7845
   11TCq1    H2  179   2.577   1.119  14.533 -0.3777 -2.0956  2.3643
   11TCq1    H3  180   2.225   1.061  14.315  0.9125 -0.2363 -1.8830
   11TCq1    H4  181   2.534   0.759  14.324  1.2334 -0.2717  1.6598
   12MPD2     C  182   2.158   0.645  14.006  0.0456  0.4078 -0.8728
   12MPD2    C1  183   2.266   0.611  14.081 -0.3568 -0.6311 -0.2059
   12MPD2    C2  184   2.342   0.502  14.054  0.4253 -0.0800 -0.1005
   12MPD2    C3  185   2.310   0.424  13.948  0.7125  0.0092 -0.3529
   12MPD2    C4  186   2.193   0.453  13.879  0.4330 -0.6065  0.1153
   12MPD2    C5  187   2.115   0.562  13.907 -0.2850 -0.1994 -0.1752
   12MPD2     H  188   2.426   0.476  14.117  1.7880  1.4267 -1.3124
   12MPD2    H1  189   2.162   0.394  13.794 -0.5949  0.2637 -0.1125
   12MPD2    H2  190   2.114   0.743  14.023  1.7447  0.9781  0.2942
   12MPD2    H3  191   2.033   0.590  13.842  1.4517 -1.0884 -2.7640
   12MPD2     N  192   2.385   0.317  13.903 -0.1672 -0.5985 -0.4666
   12MPD2    H5  193   2.350   0.285  13.813 -0.1587  1.7117 -1.2776
   12MPD2    N1  194   2.321   0.693  14.184  0.4065 -0.4208 -0.2350
   12MPD2    H7  195   2.413   0.664  14.216  0.8660  0.8980 -0.3480
   13TCq1    O1  196   1.198   2.871  10.528  0.4465 -0.1509 -0.3177
   13TCq1    C1  197   1.198   2.769  10.617 -0.6185  0.4042  0.1536
   13TCq1    O2  198   1.189   2.777  10.740  0.0324 -0.2479 -0.1527
   13TCq1    C2  199   1.269   2.658  10.551  0.2486  0.9827 -0.8598
   13TCq1    C3  200   1.360   2.689  10.451 -0.2992  1.0809 -0.3952
   13TCq1    C4  201   1.442   2.594  10.404  0.9140  0.1128  0.0369
   13TCq1    C5  202   1.429   2.471  10.447  0.3822  0.3958  0.6452
   13TCq1    C6  203   1.328   2.438  10.539 -0.0535 -0.6437  0.2554
   13TCq1    C7  204   1.243   2.527  10.590  0.7968  0.6456  0.3864
   13TCq1    C8  205   1.321   2.305  10.602 -0.5893  0.4797 -0.1460
   13TCq1    O4  206   1.264   2.297  10.710  0.1331  0.2951  0.0130
   13TCq1    C9  207   1.534   2.617  10.299  0.6678  0.5225 -0.1989
   13TCq1    O5  208   1.538   2.733  10.251  0.3145 -0.7122 -0.9210
   13TCq1    O6  209   1.605   2.521  10.261 -0.3906 -0.0320 -0.1906
   13TCq1    H1  210   1.189   2.834  10.438 -0.2168  0.8105 -0.6582
   13TCq1    H2  211   1.385   2.791  10.422 -2.9299  1.8940  0.0943
   13TCq1    H3  212   1.497   2.399  10.401  1.0798  0.8602  0.9511
   13TCq1    H4  213   1.187   2.510  10.681  1.9929  0.1743  1.0344
   14MPD2     C  214   1.335   1.973  10.470  0.5880 -0.1512 -0.3812
   14MPD2    C1  215   1.354   2.069  10.568 -0.3571 -0.4684  0.7358
   14MPD2    C2  216   1.378   2.037  10.704 -0.3308 -0.5259 -0.1132
   14MPD2    C3  217   1.362   1.904  10.741 -0.8482 -0.1877 -0.3759
   14MPD2    C4  218   1.325   1.808  10.648 -0.0346 -0.4357  0.3177
   14MPD2    C5  219   1.322   1.839  10.509  0.2864 -0.1585  0.3265
   14MPD2     H  220   1.400   2.113  10.777  0.2353 -0.8705  0.0718
   14MPD2    H1  221   1.315   1.703  10.671  2.3243 -0.5372  0.8582
   14MPD2    H2  222   1.321   2.007  10.368 -1.6665  1.3274  0.4269
   14MPD2    H3  223   1.304   1.763  10.433  0.2928  0.6857 -0.5172
   14MPD2     N  224   1.373   1.875  10.879  0.0345  0.4835 -0.0700
   14MPD2    H5  225   1.405   1.948  10.941 -1.6623  1.3245 -0.2156
   14MPD2    N1  226   1.355   2.202  10.521  0.0670  0.7693  0.2323
   14MPD2    H7  227   1.353   2.215  10.421  0.0722 -0.2063  0.1071
   15TCq1    O1  228   4.465   4.204   1.935  0.0802 -0.0733  0.3686
   15TCq1    C1  229   4.456   4.151   1.811  0.6484 -0.1488 -0.0243
   15TCq1    O2  230   4.528   4.178   1.716  0.2600  0.7686 -0.1557
   15TCq1    C2  231   4.318   4.110   1.799  0.1849  0.3664  0.1126
   15TCq1    C3  232   4.246   4.056   1.906  0.2886  0.0765 -0.6617
   15TCq1    C4  233   4.114   4.022   1.893 -0.8612 -0.2079 -0.0565
   15TCq1    C5  234   4.056   4.033   1.770 -0.1969  0.8120  0.3743
   15TCq1    C6  235   4.133   4.074   1.666 -0.3935  0.9675  0.5838
   15TCq1    C7  236   4.266   4.110   1.677 -0.1920 -0.1754 -0.4027
   15TCq1    C8  237   4.084   4.025   1.535  0.0272  0.3597  0.3127
   15TCq1    O4  238   4.170   3.995   1.456 -0.3103 -0.0710  0.0321
   15TCq1    C9  239   4.036   3.978   2.009  0.7328  0.4140  0.4248
   15TCq1    O5  240   4.089   4.011   2.120 -0.2025  0.1905  0.3123
   15TCq1    O6  241   3.915   3.936   1.993  0.3523  0.2961  0.3568
   15TCq1    H1  242   4.388   4.179   1.990 -0.6284 -0.1121 -0.6417
   15TCq1    H2  243   4.298   4.022   1.995 -0.5711  0.4362 -0.0342
   15TCq1    H3  244   3.951   4.005   1.770 -0.7349  2.8621 -1.9041
   15TCq1    H4  245   4.322   4.154   1.595 -1.3206  0.0796 -1.0346
   16MPD2     C  246   3.731   4.001   1.434 -0.2563 -0.1647 -0.4839
   16MPD2    C1  247   3.871   3.997   1.421  0.1123 -0.9178  0.4373
   16MPD2    C2  248   3.922   3.964   1.295  0.5070  0.3778 -0.0163
   16MPD2    C3  249   3.840   3.914   1.195  0.2071 -0.1366 -0.2245
   16MPD2    C4  250   3.704   3.917   1.212 -0.4271  0.0679 -0.3460
   16MPD2    C5  251   3.649   3.966   1.330 -0.9819 -0.6918  0.2176
   16MPD2     H  252   4.029   3.979   1.282  0.6321 -0.7480 -0.2220
   16MPD2    H1  253   3.638   3.887   1.131 -0.2540  2.8559 -1.5257
   16MPD2    H2  254   3.684   4.028   1.528 -0.4210 -1.0016 -0.3202
   16MPD2    H3  255   3.544   3.948   1.351 -1.1593  1.5491  1.2319
   16MPD2     N  256   3.909   3.863   1.084 -0.1823 -0.1571 -0.2937
   16MPD2    H5  257   4.010   3.868   1.094 -0.1923  0.8990 -0.8010
   16MPD2    N1  258   3.947   4.031   1.529  0.4938  0.6762  0.0524
   16MPD2    H7  259   3.885   4.075   1.596 -0.8116 -1.6984  0.4130
   17TMC1    C1  260   1.263   1.248  10.921 -0.0729 -0.7125  0.4914
   17TMC1    C2  261   1.149   1.201  10.864 -0.3150  0.3409 -0.2696
   17TMC1    C3  262   1.073   1.114  10.943  0.6473 -0.5213  0.1986
   17TMC1    C4  263   1.308   1.226  11.048  0.2658  0.9911  1.0807
   17TMC1    C5  264   1.239   1.127  11.117  0.1287  0.3620  0.4040
   17TMC1    C6  265   1.126   1.068  11.065  0.0208  0.2521 -0.5223
   17TMC1     C  266   1.347   1.335  10.835  0.6587 -0.2212 -0.0981
   17TMC1     O  267   1.290   1.395  10.742  0.0671  0.2045  0.2292
   17TMC1     H  268   1.123   1.231  10.763 -1.9687 -1.9038 -0.5102
   17TMC1    H1  269   1.383   1.290  11.094  1.0843 -0.6412  2.0166
   17TMC1    H2  270   1.079   0.989  11.122  2.4942 -1.1645 -0.4612
   17TMC1    C7  271   1.258   1.114  11.258  0.2295 -0.1949  0.2323
   17TMC1    C8  272   0.950   1.041  10.900  1.0178  0.0016 -0.7222
   17TMC1    O1  273   1.174   1.053  11.327 -0.1696  0.3655  0.0592
   17TMC1    O2  274   0.930   0.928  10.943 -0.0335  0.2484 -0.1127
   17TMC1    O3  275   1.394   1.105  11.267 -0.7752 -0.6994 -0.1599
   17TMC1    H3  276   1.464   1.156  11.222  0.7951 -1.6653  1.1947
   17TMC1    O5  277   0.872   1.111  10.814  0.0856 -0.3166  0.0440
   17TMC1    H5  278   0.899   1.202  10.791  0.4170 -0.8022 -1.4726
   18MPD2     C  279   1.551   1.511  10.703 -0.2464  1.1436  0.5780
   18MPD2    C1  280   1.579   1.410  10.790  1.2501  0.2139  0.0798
   18MPD2    C2  281   1.710   1.378  10.807  0.0559 -0.0138  0.4414
   18MPD2    C3  282   1.813   1.459  10.760  0.5544  0.0887  0.1025
   18MPD2    C4  283   1.784   1.560  10.669 -0.0060  0.4317  0.8247
   18MPD2    C5  284   1.651   1.574  10.630 -0.4019  0.1210 -0.0293
   18MPD2     H  285   1.723   1.291  10.870 -2.3700 -0.2876  0.5643
   18MPD2    H1  286   1.859   1.620  10.618 -1.2411  1.5532  0.3182
   18MPD2    H2  287   1.447   1.520  10.673  0.0274  0.8728 -0.4548
   18MPD2    H3  288   1.617   1.650  10.561 -0.2832 -0.1083 -0.3430
   18MPD2     N  289   1.949   1.427  10.787 -0.3109  0.4095  0.5739
   18MPD2    H5  290   2.018   1.478  10.733 -1.0809 -1.1179 -1.8097
   18MPD2    N1  291   1.482   1.330  10.859  0.4495  0.0295 -0.4923
   18MPD2    H7  292   1.521   1.261  10.923 -0.4924 -1.1194 -1.1685
   19TMC2    C1  293   3.588   0.859  14.092 -0.3524  0.3440  0.2602
   19TMC2    C2  294   3.498   0.938  14.021  0.0321 -0.4107  0.4244
   19TMC2    C3  295   3.395   0.879  13.949 -0.2675  0.2953  0.1301
   19TMC2    C4  296   3.576   0.717  14.092  0.2853 -0.0408  0.3956
   19TMC2    C5  297   3.477   0.664  14.019 -0.3140 -0.5753  0.0661
   19TMC2    C6  298   3.387   0.741  13.948  0.2035 -0.1473 -0.5527
   19TMC2     C  299   3.684   0.923  14.182  0.0525 -0.0061 -1.4938
   19TMC2     O  300   3.686   1.044  14.189  0.2740  0.3841  0.0778
   19TMC2     H  301   3.488   1.044  14.042  1.2762 -0.0393 -0.8813
   19TMC2    H1  302   3.638   0.656  14.156  0.4852 -0.8576 -0.5780
   19TMC2    H2  303   3.305   0.699  13.890 -0.5062  0.0592  0.3087
   19TMC2    C7  304   3.455   0.528  14.048 -0.1694  0.0493  0.3428
   19TMC2    C8  305   3.267   0.949  13.922 -0.6367  0.6933 -0.2830
   19TMC2    O1  306   3.553   0.464  14.081  0.4837  0.2717  0.7646
   19TMC2    O2  307   3.157   0.905  13.956 -0.7200  0.2667 -1.1000
   19TMC2    O5  308   3.291   1.076  13.890  0.5930  0.7578 -0.0398
   19TMC2    H5  309   3.371   1.096  13.837  1.0629  0.6091  0.6191
   20MPD2     C  310   3.933   0.975  14.350 -0.4095  0.4870 -0.4476
   20MPD2    C1  311   3.889   0.848  14.310 -0.0626  0.0730  0.3948
   20MPD2    C2  312   3.961   0.737  14.344 -0.7161 -0.4553 -0.6841
   20MPD2    C3  313   4.076   0.756  14.421  0.2901 -0.5075  0.1640
   20MPD2    C4  314   4.123   0.883  14.450  0.0531  0.4412  0.8520
   20MPD2    C5  315   4.051   0.991  14.419  0.1256  0.3271 -0.3980
   20MPD2     H  316   3.920   0.641  14.316  0.3436 -1.4119  1.0218
   20MPD2    H1  317   4.212   0.903  14.509  0.4675  0.4314  0.2288
   20MPD2    H2  318   3.877   1.067  14.335  1.5441  1.8556  0.6639
   20MPD2    H3  319   4.094   1.086  14.447 -0.2593 -0.2805  2.2873
   20MPD2     N  320   4.159   0.651  14.478  0.2243 -0.6337  0.1096
   20MPD2    H5  321   4.234   0.692  14.532  0.8546  0.4304 -1.6052
   20MPD2    N1  322   3.766   0.829  14.244 -0.0471  0.5911  0.2231
   20MPD2    H7  323   3.735   0.733  14.231  0.6845  0.3106  0.5613
   21TMC2    C1  324   0.985   0.696  14.605 -0.1192 -0.2106  0.9723
   21TMC2    C2  325   1.001   0.575  14.669 -0.2072 -0.0998  0.0533
   21TMC2    C3  326   0.975   0.577  14.803  0.0128  0.2309 -0.3065
   21TMC2    C4  327   0.979   0.817  14.674  0.2788 -1.0724  0.2374
   21TMC2    C5  328   0.960   0.807  14.809  0.3231  0.2770  0.5750
   21TMC2    C6  329   0.953   0.689  14.877 -0.7001 -0.1557 -0.2011
   21TMC2     C  330   1.017   0.688  14.467 -0.3823 -0.5370  0.1060
   21TMC2     O  331   1.107   0.605  14.446 -0.1957 -0.0962 -0.0243
   21TMC2     H  332   1.003   0.489  14.603  0.1298  0.1803 -0.2972
   21TMC2    H1  333   1.008   0.910  14.627 -0.2152 -1.1041 -0.1209
   21TMC2    H2  334   0.933   0.691  14.984  0.8451 -2.4507  0.1269
   21TMC2    C7  335   0.925   0.924  14.878  0.3445 -0.4126 -0.3452
   21TMC2    C8  336   0.986   0.446  14.872 -0.5796  0.1712  0.3640
   21TMC2    O1  337   0.906   0.928  15.003 -0.2482 -0.6256  0.0927
   21TMC2    O2  338   1.058   0.354  14.834 -0.5655  0.2164  0.2066
   21TMC2    O5  339   0.880   0.439  14.958  0.2133 -0.1331  0.1703
   21TMC2    H5  340   0.812   0.506  14.935 -1.2533 -2.5747 -2.6271
   22MPD2     C  341   1.252   1.043  14.186 -0.1298 -0.4258  0.0936
   22MPD2    C1  342   1.297   0.919  14.230  0.3282 -0.4922 -0.3968
   22MPD2    C2  343   1.204   0.830  14.293  0.0579 -0.1638  0.5300
   22MPD2    C3  344   1.068   0.865  14.316 -0.0424 -0.8745 -0.0819
   22MPD2    C4  345   1.033   0.996  14.283  0.2278 -0.8061 -0.0681
   22MPD2    C5  346   1.120   1.078  14.214  0.8210 -0.1535 -0.1531
   22MPD2     H  347   1.251   0.739  14.327  2.7659  0.4395 -1.5552
   22MPD2    H1  348   0.938   1.036  14.316  1.3122  0.8140  1.0937
   22MPD2    H2  349   1.319   1.124  14.159  0.0033 -0.2338  1.0073
   22MPD2    H3  350   1.089   1.178  14.186  0.6081  0.2799  1.6508
   22MPD2     N  351   0.987   0.803  14.404 -0.0429  0.5751  0.4827
   22MPD2    H5  352   0.898   0.841  14.432 -1.2608 -0.9303 -1.3483
   22MPD2    N1  353   1.427   0.876  14.213 -0.6210 -0.0483 -0.2046
   22MPD2    H7  354   1.449   0.779  14.231  1.4380  0.2994 -0.8241
   23TMC2    C1  355   2.415   2.532  14.136  0.6302  0.1594 -0.3312
   23TMC2    C2  356   2.469   2.594  14.026 -0.1403 -0.4423 -0.2782
   23TMC2    C3  357   2.399   2.594  13.906  0.3086 -0.5113 -0.0510
   23TMC2    C4  358   2.290   2.481  14.125  0.0714  0.2350 -0.6416
   23TMC2    C5  359   2.229   2.486  14.004  0.3935 -0.3171 -0.2530
   23TMC2    C6  360   2.278   2.535  13.891 -0.6144 -0.5429  0.2602
   23TMC2     C  361   2.503   2.480  14.236 -0.1487  0.8601  0.3771
   23TMC2     O  362   2.456   2.426  14.336  0.7034 -0.2938  0.5472
   23TMC2     H  363   2.571   2.630  14.026 -0.5435  0.6771 -0.0538
   23TMC2    H1  364   2.235   2.440  14.209  0.2332  2.3732  0.5242
   23TMC2    H2  365   2.209   2.532  13.807 -1.2351 -1.2608  0.7984
   23TMC2    C7  366   2.095   2.443  13.988  0.7431 -0.8954 -0.3075
   23TMC2    C8  367   2.482   2.643  13.799 -0.2078  0.3317 -0.5028
   23TMC2    O1  368   2.073   2.385  13.880 -0.3518 -0.4593 -0.4047
   23TMC2    O2  369   2.565   2.733  13.823  0.5831 -0.1244  0.2652
   23TMC2    O5  370   2.424   2.624  13.677  0.0770  0.2472  0.0578
   23TMC2    H5  371   2.376   2.539  13.665  0.5175  0.1573 -1.1506
   24MPD2     C  372   2.921   2.182  14.333  0.2976  0.6751 -0.5086
   24MPD2    C1  373   2.790   2.182  14.389 -0.2520 -0.1209 -0.5732
   24MPD2    C2  374   2.700   2.275  14.349  0.2014  0.2816  0.1039
   24MPD2    C3  375   2.730   2.364  14.245  0.2937 -0.4822 -0.3756
   24MPD2    C4  376   2.857   2.361  14.199 -0.4573  0.2232  0.4738
   24MPD2    C5  377   2.949   2.272  14.235  0.1794  0.9840 -0.2153
   24MPD2     H  378   2.599   2.276  14.388  1.6006  0.3822  3.7284
   24MPD2    H1  379   2.892   2.431  14.124  0.0309 -1.7759 -1.1590
   24MPD2    H2  380   3.002   2.119  14.368 -0.1362  0.4118  0.0189
   24MPD2    H3  381   3.041   2.282  14.179 -0.1083 -0.0089 -0.8717
   24MPD2     N  382   2.633   2.456  14.186 -0.4002  0.8304 -0.2492
   24MPD2    H5  383   2.659   2.506  14.102  0.1045 -2.3193 -1.9514
   24MPD2    N1  384   2.754   2.102  14.499  0.1478  0.0470 -0.2583
   24MPD2    H7  385   2.676   2.130  14.558  0.8368  0.0791  0.6379
   25TMC2    C1  386   1.640   0.621  11.755 -0.7124 -0.3187  0.4442
   25TMC2    C2  387   1.667   0.759  11.761 -0.3535 -0.1285 -0.2440
   25TMC2    C3  388   1.574   0.841  11.828  0.0905  0.1820  0.6225
   25TMC2    C4  389   1.533   0.568  11.826 -0.1227  0.2162 -0.4546
   25TMC2    C5  390   1.449   0.657  11.892 -0.3658  1.0728 -1.3928
   25TMC2    C6  391   1.464   0.794  11.890 -1.1785  0.3346  0.1681
   25TMC2     C  392   1.694   0.553  11.647 -0.2649  1.0917 -0.1945
   25TMC2     O  393   1.814   0.571  11.626  0.2662 -0.5740 -0.3910
   25TMC2     H  394   1.742   0.807  11.699  0.0204 -2.6646 -1.7252
   25TMC2    H1  395   1.507   0.463  11.836 -1.6314  0.7971  1.7441
   25TMC2    H2  396   1.399   0.862  11.943 -0.9114  1.7257 -1.2828
   25TMC2    C7  397   1.322   0.599  11.939  0.2588  0.2051  0.4428
   25TMC2    C8  398   1.588   0.988  11.837  0.6956 -0.2542  0.0344
   25TMC2    O1  399   1.317   0.481  11.972 -0.0159 -0.0322 -0.4360
   25TMC2    O2  400   1.490   1.057  11.869 -0.3844 -0.1385  0.1406
   25TMC2    O5  401   1.712   1.003  11.875  0.2130  0.1651 -0.1874
   25TMC2    H5  402   1.779   0.937  11.847  1.4607  1.7230 -0.9111
   26MPD2     C  403   1.681   0.133  11.375  0.4374 -0.5005 -0.3345
   26MPD2    C1  404   1.559   0.167  11.413 -0.3677 -0.5625  0.7118
   26MPD2    C2  405   1.535   0.276  11.488 -0.7951 -0.0916  0.5492
   26MPD2    C3  406   1.637   0.364  11.510 -0.7494  0.3422  0.0211
   26MPD2    C4  407   1.763   0.332  11.467 -0.8587  0.5725 -0.4651
   26MPD2    C5  408   1.789   0.216  11.403 -0.7188 -0.5487 -0.2479
   26MPD2     H  409   1.439   0.298  11.534 -0.9445 -0.8162  0.5892
   26MPD2    H1  410   1.848   0.396  11.492 -2.1371  1.5870  1.3024
   26MPD2    H2  411   1.702   0.040  11.323 -1.4046 -1.6217  0.9187
   26MPD2    H3  412   1.881   0.186  11.356 -1.8025  0.9374 -3.3265
   26MPD2     N  413   1.607   0.467  11.600 -0.2270  0.1055  0.3171
   26MPD2    H5  414   1.510   0.479  11.630 -0.3569  1.2900 -0.5937
   26MPD2    N1  415   1.460   0.079  11.382  0.8770  0.9259  0.3421
   26MPD2    H7  416   1.485   4.737  11.325 -0.7269 -0.3246  1.3813
   27TMC2    C1  417   0.207   1.498  12.476  0.8651 -0.0743 -0.7952
   27TMC2    C2  418   0.305   1.479  12.382 -0.2045 -0.5367  0.5880
   27TMC2    C3  419   0.416   1.419  12.419 -0.0172 -0.1577 -0.3533
   27TMC2    C4  420   0.208   1.446  12.609 -0.0493  0.3368  0.5793
   27TMC2    C5  421   0.327   1.384  12.641 -0.0066 -0.0464 -0.4416
   27TMC2    C6  422   0.433   1.362  12.542 -0.1322  0.1894  0.1229
   27TMC2     C  423   0.089   1.574  12.440  0.0388  0.0210 -0.4648
   27TMC2     O  424   0.101   1.652  12.344  0.1488  1.1639 -0.5953
   27TMC2     H  425   0.292   1.524  12.284  1.4270  2.9115  1.9713
   27TMC2    H1  426   0.141   1.465  12.691 -0.4560 -1.8120  0.7362
   27TMC2    H2  427   0.532   1.325  12.567 -0.3110 -0.8074 -0.6358
   27TMC2    C7  428   0.352   1.331  12.776  0.5650 -0.6413  0.5511
   27TMC2    C8  429   0.513   1.382  12.318  0.2925  0.2498 -0.2940
   27TMC2    O1  430   0.458   1.272  12.790 -0.1588  0.8757  0.3625
   27TMC2    O2  431   0.593   1.292  12.340  0.1356  0.1678 -0.5304
   27TMC2    O5  432   0.552   1.499  12.258  0.1107 -0.9016  0.1234
   27TMC2    H5  433   0.492   1.574  12.278 -0.0522 -0.2425 -2.8687
   28MPD2     C  434   4.316   1.609  12.445  0.0048  0.2096  0.0100
   28MPD2    C1  435   4.410   1.685  12.381  0.0451 -0.0290 -0.2725
   28MPD2    C2  436   4.542   1.657  12.396 -0.5762 -0.6160 -0.2636
   28MPD2    C3  437   4.581   1.551  12.473  0.3534 -0.9453 -0.7051
   28MPD2    C4  438   4.493   1.481  12.553  0.9472  0.4861  0.5745
   28MPD2    C5  439   4.361   1.516  12.536 -0.2141  0.3039 -0.1193
   28MPD2     H  440   4.620   1.708  12.341 -1.0227 -0.2379 -0.5474
   28MPD2    H1  441   4.519   1.396  12.614 -0.8791  1.5168  2.8035
   28MPD2    H2  442   4.211   1.634  12.437  0.2918  1.6571  0.7038
   28MPD2    H3  443   4.286   1.464  12.595  0.1976  0.2207  0.3288
   28MPD2     N  444   4.719   1.522  12.502  0.4380 -0.6588  0.3215
   28MPD2    H5  445   0.001   1.440  12.559 -0.1793 -0.8444  0.2796
   28MPD2    N1  446   4.364   1.798  12.297  0.0059 -0.2083 -0.2788
   28MPD2    H7  447   4.266   1.825  12.301  0.1628  0.1674  1.1106
   29TMC2    C1  448   4.305   4.178  14.665 -0.2819  0.1772 -0.2466
   29TMC2    C2  449   4.351   4.144  14.791  0.3607 -0.1878 -0.6458
   29TMC2    C3  450   4.389   4.255  14.866  0.1647 -0.5442 -0.1304
   29TMC2    C4  451   4.319   4.299  14.608  0.1876 -0.1274  0.0125
   29TMC2    C5  452   4.356   4.399  14.691 -0.1091  0.5160  0.5326
   29TMC2    C6  453   4.391   4.385  14.823  0.3152 -0.2971 -0.3739
   29TMC2     C  454   4.276   4.067  14.581  0.3992 -0.1154 -0.1461
   29TMC2     O  455   4.330   3.958  14.616  0.0019  0.3633 -0.5187
   29TMC2     H  456   4.336   4.043  14.825 -0.5196  0.0336 -0.3797
   29TMC2    H1  457   4.286   4.315  14.506 -1.8986  0.6946  0.8124
   29TMC2    H2  458   4.387   4.474  14.884  2.6730  0.5396 -1.4622
   29TMC2    C7  459   4.371   4.534  14.622  0.0841  0.2764 -0.8898
   29TMC2    C8  460   4.412   4.225  15.007  0.6087  0.3152  0.6993
   29TMC2    O1  461   4.323   4.562  14.510  0.0916 -0.1590 -0.4694
   29TMC2    O2  462   4.367   4.122  15.054  0.1076 -0.1293  0.6038
   29TMC2    O5  463   4.538   4.268  15.028  0.0005 -0.8278 -0.1947
   29TMC2    H5  464   4.557   4.354  14.985 -0.3710 -0.0166  1.2645
   30MPD2     C  465   4.092   3.859  14.155  0.0051 -0.3702 -0.2505
   30MPD2    C1  466   4.187   3.818  14.243 -0.0502 -0.5184 -0.3172
   30MPD2    C2  467   4.215   3.898  14.351  0.4129 -0.6829 -0.0972
   30MPD2    C3  468   4.141   4.006  14.384  0.3864  0.9371 -0.4151
   30MPD2    C4  469   4.032   4.035  14.296  0.6462  0.3348 -1.0842
   30MPD2    C5  470   4.009   3.961  14.184 -0.1350 -0.4196  0.0587
   30MPD2     H  471   4.299   3.867  14.413  0.0220 -1.2728  0.1408
   30MPD2    H1  472   3.971   4.123  14.308  0.6415  0.2102 -0.1488
   30MPD2    H2  473   4.071   3.812  14.060 -0.2644 -0.2687 -0.2413
   30MPD2    H3  474   3.946   4.003  14.106 -0.6706 -0.6699  0.3578
   30MPD2     N  475   4.175   4.093  14.491  0.0899  0.0973  0.0107
   30MPD2    H5  476   4.119   4.178  14.498  1.2599  0.8878 -0.2929
   30MPD2    N1  477   4.278   3.708  14.211 -0.0132  0.0296 -0.2247
   30MPD2    H7  478   4.363   3.704  14.267 -0.2445 -1.0277  0.0442
   31TMC2    C1  479   2.023   2.613  15.920  0.1009  0.6265 -0.0070
   31TMC2    C2  480   1.965   2.680  16.023 -0.3731  0.0551 -0.1005
   31TMC2    C3  481   1.939   2.608  16.140  0.6729  0.8132 -0.2347
   31TMC2    C4  482   2.065   2.481  15.931  0.4067  0.0672  0.8861
   31TMC2    C5  483   2.047   2.411  16.050 -0.3927 -0.3110  1.1198
   31TMC2    C6  484   1.981   2.476  16.152  0.5515 -0.2858 -0.0437
   31TMC2     C  485   2.076   2.686  15.804  0.1697 -0.2699  0.3657
   31TMC2     O  486   2.021   2.788  15.768 -0.4963 -0.2214 -0.1687
   31TMC2     H  487   1.936   2.784  16.010  0.5002  0.6073  2.4100
   31TMC2    H1  488   2.083   2.423  15.841  0.2341  0.6362  0.4796
   31TMC2    H2  489   1.969   2.426  16.248  0.4576  1.0172  0.6202
   31TMC2    C7  490   2.103   2.268  16.059  0.1830 -0.1093 -0.3006
   31TMC2    C8  491   1.813   2.614  16.202  0.3498  0.7964 -0.3848
   31TMC2    O1  492   2.156   2.222  15.958 -0.0679 -0.2438  0.3592
   31TMC2    O2  493   1.726   2.528  16.181 -0.5426  0.5579  0.3688
   31TMC2    O5  494   1.783   2.742  16.213  0.3749  0.2519  0.7119
   31TMC2    H5  495   1.857   2.801  16.236 -1.4354  3.1477 -1.0079
   32MPD2     C  496   2.468   2.749  15.506  0.3322  0.2500  0.4687
   32MPD2    C1  497   2.353   2.817  15.508  0.1663  0.0970  0.2620
   32MPD2    C2  498   2.251   2.772  15.591  0.1579  0.1584 -0.3084
   32MPD2    C3  499   2.277   2.654  15.668  0.0230  0.5647 -0.2590
   32MPD2    C4  500   2.386   2.582  15.653 -0.0286 -0.0630  0.1142
   32MPD2    C5  501   2.484   2.632  15.575 -1.1146  0.0611 -0.0851
   32MPD2     H  502   2.157   2.827  15.593  0.3454  0.4027  2.0615
   32MPD2    H1  503   2.407   2.494  15.712  0.8427  0.2460  0.2592
   32MPD2    H2  504   2.559   2.782  15.456  0.5057 -1.8770 -0.6098
   32MPD2    H3  505   2.567   2.569  15.546 -0.6842  1.7946 -2.6744
   32MPD2     N  506   2.187   2.618  15.769  0.2726 -0.2029  0.5523
   32MPD2    H5  507   2.212   2.529  15.812  0.7254 -0.9999 -1.3418
   32MPD2    N1  508   2.342   2.931  15.423  0.0131 -0.4448 -0.3816
   32MPD2    H7  509   2.425   2.944  15.365  1.6070  1.8555  2.4466
   33TMC2    C1  510   2.525   1.779  10.090 -0.3401 -1.2238  0.0346
   33TMC2    C2  511   2.404   1.782  10.023 -0.0861 -0.2139  0.6743
   33TMC2    C3  512   2.403   1.819   9.888  0.2902 -0.0188 -0.4712
   33TMC2    C4  513   2.642   1.809  10.021 -0.0518  0.1990 -0.1105
   33TMC2    C5  514   2.634   1.844   9.887  0.3976  0.5357  0.0426
   33TMC2    C6  515   2.517   1.858   9.820  0.2497 -0.1541 -0.6096
   33TMC2     C  516   2.527   1.698  10.210  0.0580 -0.3678 -0.2175
   33TMC2     O  517   2.418   1.663  10.257  0.3208  0.2668 -0.1102
   33TMC2     H  518   2.315   1.736  10.063 -0.7589  0.9912  0.5741
   33TMC2    H1  519   2.736   1.814  10.075  0.3300 -1.2430 -0.6560
   33TMC2    H2  520   2.511   1.915   9.728 -1.1366  1.3858  0.4426
   33TMC2    C7  521   2.763   1.882   9.831 -0.2312 -0.0357  0.3784
   33TMC2    C8  522   2.273   1.824   9.825  0.2164  0.6017  1.2226
   33TMC2    O1  523   2.862   1.881   9.906 -0.2829  0.9651 -0.4909
   33TMC2    O2  524   2.178   1.751   9.853  0.2846  0.2909 -0.5084
   33TMC2    O5  525   2.258   1.953   9.784  0.2712 -0.6438 -0.7705
   33TMC2    H5  526   2.343   1.997   9.762  1.0917 -0.5090  2.6314
   34MPD2     C  527   2.705   1.522  10.650  0.2765  0.0208 -0.4628
   34MPD2    C1  528   2.595   1.481  10.579  0.9243  0.5259  0.2295
   34MPD2    C2  529   2.575   1.530  10.446 -0.1124 -0.3148 -1.0181
   34MPD2    C3  530   2.668   1.627  10.398 -0.3012 -0.4551  0.2939
   34MPD2    C4  531   2.778   1.665  10.473 -0.4254  0.0849  0.0273
   34MPD2    C5  532   2.795   1.613  10.596 -0.1347 -0.4452  0.2142
   34MPD2     H  533   2.498   1.482  10.387 -1.3929 -0.7843  1.0451
   34MPD2    H1  534   2.853   1.732  10.433 -1.4759  0.4986 -1.2434
   34MPD2    H2  535   2.727   1.490  10.752 -3.9912 -0.8015  0.2085
   34MPD2    H3  536   2.880   1.644  10.656 -0.1501 -1.8730  0.9788
   34MPD2     N  537   2.646   1.696  10.276  0.4447  0.3705  0.7398
   34MPD2    H5  538   2.703   1.776  10.251  1.4325 -0.4282  0.4441
   34MPD2    N1  539   2.518   1.387  10.649  0.9472  0.3511 -0.6060
   34MPD2    H7  540   2.539   1.360  10.745 -1.8665 -0.3332 -0.1664
   35TMC2    C1  541   3.091   2.362  11.886  0.1293  0.9307 -0.1498
   35TMC2    C2  542   2.984   2.447  11.914 -0.3636 -0.5209 -0.0711
   35TMC2    C3  543   2.873   2.394  11.971 -0.1810  0.2595 -0.9672
   35TMC2    C4  544   3.071   2.224  11.894  1.0282  0.0831 -0.3602
   35TMC2    C5  545   2.971   2.182  11.975  0.0275  0.2403  0.4704
   35TMC2    C6  546   2.883   2.270  12.027 -0.7811  0.5701  0.1090
   35TMC2     C  547   3.216   2.423  11.847 -0.1396  0.0816 -0.0270
   35TMC2     O  548   3.213   2.541  11.813  0.0083 -0.1432  0.0282
   35TMC2     H  549   2.993   2.554  11.907 -5.4366 -0.3365 -3.0610
   35TMC2    H1  550   3.141   2.156  11.846  1.4812 -0.2094  0.7270
   35TMC2    H2  551   2.798   2.236  12.084  1.3224 -1.4345  2.0807
   35TMC2    C7  552   2.967   2.042  12.005  0.7591 -0.3278  0.1471
   35TMC2    C8  553   2.766   2.478  12.017  0.2286 -0.1162 -0.3885
   35TMC2    O1  554   3.026   1.967  11.928  0.5488 -0.5069 -0.0726
   35TMC2    O2  555   2.724   2.483  12.133  0.1683 -0.5367 -0.1727
   35TMC2    O5  556   2.758   2.585  11.933  0.0663  0.6728 -0.1646
   35TMC2    H5  557   2.806   2.575  11.848  0.2008 -3.0722  0.3602
   36MPD2     C  558   3.730   2.371  11.736  0.1387 -0.3560  0.4613
   36MPD2    C1  559   3.686   2.261  11.802 -0.3094  0.4088 -0.2113
   36MPD2    C2  560   3.552   2.256  11.838  0.3103  0.2679  0.8505
   36MPD2    C3  561   3.461   2.355  11.816 -0.0049 -0.3074 -0.5833
   36MPD2    C4  562   3.508   2.460  11.734 -0.4805 -0.5440  1.1139
   36MPD2    C5  563   3.643   2.471  11.697 -0.2142 -0.1224 -0.1875
   36MPD2     H  564   3.526   2.172  11.903  2.5070 -0.3623  0.9357
   36MPD2    H1  565   3.440   2.537  11.701 -0.3528 -0.2273  1.5981
   36MPD2    H2  566   3.834   2.382  11.706 -0.3419  2.2310 -0.2273
   36MPD2    H3  567   3.670   2.566  11.652  0.5985 -2.1822 -4.0207
   36MPD2     N  568   3.325   2.332  11.858  0.3322  0.0616  0.3610
   36MPD2    H5  569   3.314   2.255  11.924 -0.9046 -0.2302 -0.1781
   36MPD2    N1  570   3.777   2.156  11.820 -0.1240  0.0155 -0.2833
   36MPD2    H7  571   3.873   2.185  11.805  0.0440  0.2665  1.2359
   37TMC2    C1  572   1.740   2.700  11.894  0.1454  0.4344 -0.0280
   37TMC2    C2  573   1.731   2.729  11.756 -0.1716 -0.8203 -0.5607
   37TMC2    C3  574   1.854   2.763  11.698  0.6551 -0.0903 -0.1049
   37TMC2    C4  575   1.859   2.693  11.963  0.2251  0.1617  0.0232
   37TMC2    C5  576   1.975   2.726  11.900  0.3905  0.2554 -0.5953
   37TMC2    C6  577   1.969   2.763  11.769 -0.0056  0.2193 -0.5220
   37TMC2     C  578   1.611   2.667  11.959  0.2355 -0.0742  0.2414
   37TMC2     O  579   1.511   2.696  11.888 -0.0422  0.3377  0.2826
   37TMC2     H  580   1.639   2.758  11.706 -0.4202 -2.1750 -0.8855
   37TMC2    H1  581   1.861   2.693  12.071  2.9692  2.9774 -0.0167
   37TMC2    H2  582   2.056   2.795  11.712  0.5563 -1.3905 -0.5601
   37TMC2    C7  583   2.091   2.647  11.954  0.3785  0.4964  1.0293
   37TMC2    C8  584   1.839   2.769  11.554 -1.0113  0.3439 -0.2048
   37TMC2    O1  585   2.093   2.612  12.071 -0.1080 -0.2403 -0.1143
   37TMC2    O2  586   1.736   2.813  11.507  0.5513 -0.6372 -0.6552
   37TMC2    O5  587   1.955   2.761  11.492  0.6074 -0.0396 -0.0354
   37TMC2    H5  588   2.026   2.718  11.544 -0.6303 -0.2530  1.4872
   38MPD2     C  589   1.319   2.536  12.358  0.0657 -0.6768  0.3818
   38MPD2    C1  590   1.442   2.478  12.371  0.3518  0.3287  0.6727
   38MPD2    C2  591   1.542   2.508  12.275  0.2596 -0.0081 -0.1356
   38MPD2    C3  592   1.512   2.591  12.170 -0.3203  0.1611  0.1757
   38MPD2    C4  593   1.385   2.649  12.160 -1.1249 -0.0249  0.3325
   38MPD2    C5  594   1.288   2.615  12.246 -0.6136 -0.2335  0.2916
   38MPD2     H  595   1.644   2.474  12.289  0.0151 -0.8409 -0.3723
   38MPD2    H1  596   1.353   2.715  12.080  1.9450  0.3532 -0.6172
   38MPD2    H2  597   1.244   2.522  12.435 -0.0917  0.2348  0.3908
   38MPD2    H3  598   1.191   2.662  12.254 -0.4718 -0.0016  0.6917
   38MPD2     N  599   1.620   2.613  12.080 -0.4487  0.3009  0.1336
   38MPD2    H5  600   1.709   2.580  12.118  0.3545  3.4249  0.9281
   38MPD2    N1  601   1.470   2.391  12.478  0.6815  0.4837 -0.1239
   38MPD2    H7  602   1.567   2.370  12.502 -0.1209 -0.5813  2.2195
   39TMC2    C1  603   3.850   3.649   1.556 -0.3925 -0.1120  0.2192
   39TMC2    C2  604   3.762   3.663   1.658 -0.5292 -0.2082 -0.0216
   39TMC2    C3  605   3.810   3.700   1.782 -0.0973  0.7388  0.2244
   39TMC2    C4  606   3.987   3.649   1.579 -0.0109 -0.0203  0.0659
   39TMC2    C5  607   4.033   3.684   1.702  0.9238 -0.8464 -0.0311
   39TMC2    C6  608   3.944   3.705   1.807  0.6444  0.5827 -0.4856
   39TMC2     C  609   3.791   3.590   1.433  1.1367  0.6597 -0.3183
   39TMC2     O  610   3.666   3.582   1.432 -0.2126 -0.3762  0.3755
   39TMC2     H  611   3.658   3.659   1.626 -0.6843 -0.1234  0.4741
   39TMC2    H1  612   4.060   3.600   1.517 -0.5373 -0.6094 -0.0852
   39TMC2    H2  613   3.986   3.725   1.905 -1.5197  0.6349  0.4357
   39TMC2    C7  614   4.177   3.686   1.745  0.0909 -0.5366  0.6416
   39TMC2    C8  615   3.712   3.682   1.887  0.2721 -0.1663  0.1549
   39TMC2    O1  616   4.206   3.671   1.865 -0.2305 -0.3188  0.1750
   39TMC2    O2  617   3.599   3.642   1.869  0.4454 -0.9384  0.6316
   39TMC2    O5  618   3.751   3.755   1.996 -0.3510  0.0437  0.1869
   39TMC2    H5  619   3.828   3.813   1.978 -0.0416 -0.3226  0.3356
   40MPD2     C  620   3.963   3.444   1.146 -0.2985 -0.2446 -0.8698
   40MPD2    C1  621   3.854   3.496   1.214 -0.5028  0.2969 -0.7893
   40MPD2    C2  622   3.730   3.476   1.162  0.0093 -0.1272  0.4356
   40MPD2    C3  623   3.713   3.409   1.039  0.7458  0.5177  0.4454
   40MPD2    C4  624   3.825   3.380   0.965  0.1651 -0.5050  0.2653
   40MPD2    C5  625   3.948   3.373   1.028  0.1912 -0.1719  0.2584
   40MPD2     H  626   3.648   3.518   1.220 -0.7568  0.4396 -1.0561
   40MPD2    H1  627   3.817   3.321   0.874  0.9285  0.6022 -0.5155
   40MPD2    H2  628   4.060   3.450   1.195 -0.3357 -0.2999 -0.7903
   40MPD2    H3  629   4.033   3.322   0.986  1.0017  0.0158  1.6515
   40MPD2     N  630   3.587   3.372   0.990 -0.4099  0.4756 -0.4900
   40MPD2    H5  631   3.577   3.337   0.895 -2.2879  0.5334 -0.3246
   40MPD2    N1  632   3.885   3.561   1.336  0.1833 -0.9374 -0.3388
   40MPD2    H7  633   3.983   3.570   1.361  0.4117 -0.7385 -1.3098
   41TMC2    C1  634   3.781   2.164  13.394 -0.6774 -0.6119  0.7700
   41TMC2    C2  635   3.685   2.256  13.395 -0.0655  0.0622 -0.5328
   41TMC2    C3  636   3.667   2.331  13.288 -0.8069 -0.0961 -0.2678
   41TMC2    C4  637   3.865   2.146  13.289  0.3834 -0.7170  0.2282
   41TMC2    C5  638   3.845   2.219  13.176  0.2816 -0.3178 -0.0910
   41TMC2    C6  639   3.747   2.307  13.170 -0.3506  0.4389 -0.1796
   41TMC2     C  640   3.817   2.079  13.506  0.2542 -0.0153 -0.4321
   41TMC2     O  641   3.925   2.029  13.499 -0.0874 -0.2755  0.1908
   41TMC2     H  642   3.633   2.281  13.487  2.9131  1.4383  0.7843
   41TMC2    H1  643   3.943   2.071  13.290  0.1705 -0.9305  0.4988
   41TMC2    H2  644   3.758   2.380  13.091 -0.6502  2.1415  1.3508
   41TMC2    C7  645   3.914   2.183  13.055  0.0268  0.2464 -0.1983
   41TMC2    C8  646   3.575   2.445  13.281  0.1017  0.2765 -0.2759
   41TMC2    O1  647   4.025   2.129  13.061  0.1457  0.4978 -0.0924
   41TMC2    O2  648   3.567   2.530  13.192 -0.1105  0.2142  0.2504
   41TMC2    O5  649   3.495   2.436  13.386 -0.5931 -0.4695 -0.2208
   41TMC2    H5  650   3.520   2.351  13.430 -0.1859  0.5961  1.5976
   42MPD2     C  651   3.854   1.930  13.764  0.0237  0.1640 -0.1185
   42MPD2    C1  652   3.737   1.981  13.723 -0.5294 -0.5266  0.8988
   42MPD2    C2  653   3.624   1.959  13.801  0.0378 -0.0726  0.3206
   42MPD2    C3  654   3.636   1.880  13.919  0.1698 -0.0438 -0.7502
   42MPD2    C4  655   3.751   1.814  13.950 -0.3189 -0.2631 -0.1059
   42MPD2    C5  656   3.861   1.847  13.871 -0.4464  0.1971  1.0743
   42MPD2     H  657   3.526   1.989  13.764  0.5659  0.5072 -0.5961
   42MPD2    H1  658   3.751   1.744  14.033  0.6713 -0.8071 -0.5647
   42MPD2    H2  659   3.941   1.956  13.704  0.8608  0.7985  1.3592
   42MPD2    H3  660   3.959   1.807  13.893 -0.5004  0.3310  1.5449
   42MPD2     N  661   3.528   1.867  14.011 -0.4975  0.6354  0.2864
   42MPD2    H5  662   3.541   1.799  14.085 -1.7537  1.2495  1.0633
   42MPD2    N1  663   3.720   2.065  13.606  0.4717 -0.1090  0.3351
   42MPD2    H7  664   3.629   2.109  13.596  0.4059 -0.2677  0.2464
   43TMC2    C1  665   4.358   4.382   0.758 -0.3110  0.0167  0.0285
   43TMC2    C2  666   4.260   4.340   0.845  0.2254 -0.0513 -0.3490
   43TMC2    C3  667   4.258   4.390   0.969 -0.1008 -0.2534 -0.1527
   43TMC2    C4  668   4.452   4.472   0.792  0.5285  0.3211 -0.4933
   43TMC2    C5  669   4.449   4.514   0.924 -0.5546  0.3732 -0.1622
   43TMC2    C6  670   4.350   4.478   1.015  0.1160 -0.1903  0.2181
   43TMC2     C  671   4.363   4.325   0.623 -0.5673  0.5107 -0.4289
   43TMC2     O  672   4.476   4.316   0.573  0.1385  0.7929 -0.4245
   43TMC2     H  673   4.176   4.280   0.812  1.3269 -2.0023  0.3965
   43TMC2    H1  674   4.524   4.514   0.722  0.5914  3.7179  1.6175
   43TMC2    H2  675   4.350   4.526   1.112  0.0615 -0.4002  0.3230
   43TMC2    C7  676   4.566   4.594   0.972 -0.2224 -0.2105 -0.0960
   43TMC2    C8  677   4.148   4.357   1.058 -0.5600 -1.4439 -0.2683
   43TMC2    O1  678   4.655   4.609   0.891  0.1486 -0.2603 -0.3469
   43TMC2    O2  679   4.108   4.433   1.143 -0.0975 -0.0297 -0.5960
   43TMC2    O5  680   4.093   4.234   1.031 -0.1978 -0.0821 -0.4811
   43TMC2    H5  681   4.158   4.178   0.983 -1.1452 -2.4955  1.0008
   44MPD2     C  682   4.158   4.022   0.275  0.6038  0.7413  0.0066
   44MPD2    C1  683   4.292   4.054   0.296  0.4879  0.2038  0.5465
   44MPD2    C2  684   4.318   4.142   0.397 -0.2886 -0.3206 -0.3731
   44MPD2    C3  685   4.212   4.211   0.468 -0.2463 -0.4705  0.4650
   44MPD2    C4  686   4.082   4.179   0.446 -0.6142  0.3172 -0.3675
   44MPD2    C5  687   4.057   4.089   0.345 -0.2657  0.6740 -0.5786
   44MPD2     H  688   4.421   4.170   0.417 -1.1583  2.3519  0.4812
   44MPD2    H1  689   4.002   4.234   0.494  0.7417 -0.8562  3.2436
   44MPD2    H2  690   4.133   3.956   0.193  0.7849  0.5264  0.1219
   44MPD2    H3  691   3.956   4.056   0.322 -0.4579 -0.4409  1.8432
   44MPD2     N  692   4.240   4.301   0.572 -0.3742  0.6646  0.2695
   44MPD2    H5  693   4.163   4.341   0.625  1.2559 -0.2352  3.3405
   44MPD2    N1  694   4.395   3.995   0.226  0.1712  0.8673 -0.1295
   44MPD2    H7  695   4.488   4.035   0.226  0.7098 -0.3787 -1.0308
   45TMC2    C1  696   0.502   3.475   9.610  0.5300  0.2876  1.1725
   45TMC2    C2  697   0.440   3.538   9.508  0.0735 -0.3184 -0.0775
   45TMC2    C3  698   0.484   3.661   9.468 -0.1519 -0.1956 -0.7415
   45TMC2    C4  699   0.612   3.523   9.666  0.0811  0.3974 -0.1158
   45TMC2    C5  700   0.669   3.641   9.610 -0.0416 -0.0890  0.1966
   45TMC2    C6  701   0.611   3.707   9.503  0.6420 -0.5194 -0.8098
   45TMC2     C  702   0.473   3.339   9.631 -0.3901  0.0761  0.5840
   45TMC2     O  703   0.553   3.269   9.692  0.9857  0.2607  0.2863
   45TMC2     H  704   0.358   3.489   9.456 -0.0511 -0.8158  0.5817
   45TMC2    H1  705   0.658   3.483   9.756 -1.0328 -0.0909  0.2331
   45TMC2    H2  706   0.652   3.801   9.466  0.8176  0.6624  2.3766
   45TMC2    C7  707   0.764   3.708   9.693 -0.2317  0.0653 -0.3881
   45TMC2    C8  708   0.416   3.713   9.350 -0.7700  0.3895 -0.1994
   45TMC2    O1  709   0.772   3.685   9.815  0.3469 -0.0852  0.0925
   45TMC2    O2  710   0.360   3.648   9.259 -0.2442  0.1539 -0.5622
   45TMC2    O5  711   0.428   3.845   9.357 -0.3376 -0.0904 -0.6381
   45TMC2    H5  712   0.478   3.882   9.433  0.1914 -1.3317 -0.3771
   46MPD2     C  713   0.366   3.062   9.610 -0.7380 -0.7097 -0.0749
   46MPD2    C1  714   0.282   3.172   9.603 -0.0912 -0.2136 -0.0423
   46MPD2    C2  715   0.145   3.156   9.605  0.5283 -0.2213 -0.7380
   46MPD2    C3  716   0.081   3.034   9.617 -0.4247  0.0226  0.2071
   46MPD2    C4  717   0.166   2.925   9.617 -0.2775  0.2664  0.0046
   46MPD2    C5  718   0.302   2.939   9.612  0.3248 -0.0031 -0.6536
   46MPD2     H  719   0.086   3.247   9.601  2.2417  0.8777 -1.2305
   46MPD2    H1  720   0.131   2.824   9.639  2.3671 -0.2249  1.9905
   46MPD2    H2  721   0.474   3.069   9.603 -0.7002 -1.1124  0.1224
   46MPD2    H3  722   0.373   2.858   9.626  2.0822  1.4482 -1.1884
   46MPD2     N  723   4.686   3.034   9.656  0.4778  0.3372 -0.2236
   46MPD2    H5  724   4.644   3.127   9.655  1.5548  0.8471  1.6948
   46MPD2    N1  725   0.341   3.307   9.606 -0.7542 -0.0147  0.8165
   46MPD2    H7  726   0.278   3.384   9.586  1.1217  1.2174 -0.3720
   47TMC2    C1  727   3.272   4.148   9.657  0.2576  0.3754  0.1203
   47TMC2    C2  728   3.270   4.032   9.582  0.1987 -0.4970  0.0239
   47TMC2    C3  729   3.170   4.006   9.495 -0.8015  0.0619  0.7162
   47TMC2    C4  730   3.153   4.216   9.661 -0.2643  0.2018 -0.3819
   47TMC2    C5  731   3.041   4.175   9.587  0.3495  0.5065  0.1305
   47TMC2    C6  732   3.056   4.075   9.495  0.3945  0.1733  0.5113
   47TMC2     C  733   3.370   4.153   9.762 -0.0416  0.3323 -0.1463
   47TMC2     O  734   3.384   4.255   9.827 -0.2776 -0.1897  0.2390
   47TMC2     H  735   3.363   3.980   9.561 -0.2587 -0.4472 -2.1653
   47TMC2    H1  736   3.139   4.300   9.729  0.4820  1.8811 -2.2915
   47TMC2    H2  737   2.974   4.038   9.435  2.6253  0.0295 -2.5130
   47TMC2    C7  738   2.910   4.237   9.612 -0.2267  0.7821  0.9956
   47TMC2    C8  739   3.189   3.900   9.397  0.3654  0.3878  0.1186
   47TMC2    O1  740   2.915   4.359   9.630 -0.1774 -0.1579  0.6827
   47TMC2    O2  741   3.302   3.850   9.383 -0.3053 -0.4814 -0.6077
   47TMC2    O5  742   3.079   3.846   9.341  0.3729  0.4265 -0.1232
   47TMC2    H5  743   2.993   3.884   9.370  1.2109  1.7984  0.5709
   48MPD2     C  744   3.583   4.096   9.970 -0.1146 -0.5304 -0.7189
   48MPD2    C1  745   3.531   4.002   9.879  0.0355 -0.2374 -0.0873
   48MPD2    C2  746   3.580   3.875   9.891  0.3433  0.1369  0.2018
   48MPD2    C3  747   3.667   3.833   9.984  0.0707  0.3234 -0.5264
   48MPD2    C4  748   3.711   3.931  10.072  0.0544  0.3405 -0.3056
   48MPD2    C5  749   3.669   4.061  10.064 -0.2134 -0.3860 -0.7857
   48MPD2     H  750   3.529   3.803   9.828 -0.0604 -0.8245  1.6598
   48MPD2    H1  751   3.777   3.904  10.154  0.8747  1.2552 -0.6709
   48MPD2    H2  752   3.560   4.202   9.968  1.2028 -0.2085  1.1639
   48MPD2    H3  753   3.707   4.146  10.120  2.9324 -1.4758 -1.2652
   48MPD2     N  754   3.715   3.701   9.973  0.1443 -0.5177 -0.0997
   48MPD2    H5  755   3.654   3.653   9.908  0.9132 -0.0524 -1.1685
   48MPD2    N1  756   3.428   4.030   9.783  0.1175  0.0577  0.4540
   48MPD2    H7  757   3.388   3.960   9.721  1.3234  1.1415 -1.5582
   49TMC2    C1  758   0.420   0.149  10.681  0.3474  0.4674  0.1201
   49TMC2    C2  759   0.413   0.114  10.811  0.2165 -0.2481 -0.6631
   49TMC2    C3  760   0.321   0.024  10.852 -0.0648 -0.4098 -0.1153
   49TMC2    C4  761   0.331   0.097  10.579  0.6712 -0.2627 -0.0012
   49TMC2    C5  762   0.254   4.730  10.627  0.3940  0.0230 -0.1539
   49TMC2    C6  763   0.242   4.698  10.761  0.0377  0.4916  0.7724
   49TMC2     C  764   0.485   0.269  10.647 -0.1092 -0.6593  0.2217
   49TMC2     O  765   0.472   0.294  10.528 -0.4030 -0.4124  0.7073
   49TMC2     H  766   0.477   0.158  10.886 -0.1969 -1.9049  0.6653
   49TMC2    H1  767   0.319   0.132  10.477  2.7365 -0.6455 -0.3768
   49TMC2    H2  768   0.154   4.643  10.792 -0.6214  0.1402 -1.7471
   49TMC2    C7  769   0.147   4.689  10.529 -0.7458  0.3102 -0.0976
   49TMC2    C8  770   0.316   4.720  10.988 -0.2790 -0.6265 -0.8110
   49TMC2    O1  771   0.039   4.651  10.575 -0.4898  0.2182  0.3208
   49TMC2    O2  772   0.375   0.050  11.073  0.2697 -0.2642  0.3169
   49TMC2    O5  773   0.266   4.597  11.002 -0.4141  0.2964 -1.0011
   49TMC2    H5  774   0.250   4.549  10.918 -2.4726 -2.1449  0.7858
   50MPD2     C  775   0.661   0.521  10.633 -0.3564 -0.3355 -1.1471
   50MPD2    C1  776   0.633   0.446  10.746  0.4643  0.7427  0.1368
   50MPD2    C2  777   0.675   0.501  10.863  0.0305  0.0001  0.1172
   50MPD2    C3  778   0.725   0.630  10.867 -0.0426  0.1901 -0.1757
   50MPD2    C4  779   0.765   0.704  10.751 -0.7095 -0.4959  0.5561
   50MPD2    C5  780   0.726   0.645  10.634 -0.6361  0.0934  0.3655
   50MPD2     H  781   0.657   0.450  10.957  0.4276 -0.1112  0.1338
   50MPD2    H1  782   0.817   0.799  10.755 -1.3345 -0.1039 -0.6012
   50MPD2    H2  783   0.638   0.479  10.536 -2.1482 -1.1120 -0.3876
   50MPD2    H3  784   0.739   0.702  10.543 -3.8840  2.0727  1.1295
   50MPD2     N  785   0.763   0.693  10.990  0.7934  0.3107 -0.2786
   50MPD2    H5  786   0.804   0.786  10.978 -1.5145  1.3003 -0.3980
   50MPD2    N1  787   0.572   0.321  10.745 -0.7740 -0.1690  0.3445
   50MPD2    H7  788   0.575   0.266  10.830 -2.7211  0.1699  0.6475
   51TMC2    C1  789   0.783   3.578   0.352  0.1779  0.0336  0.3448
   51TMC2    C2  790   0.818   3.530   0.224 -0.4484 -0.4126  0.6072
   51TMC2    C3  791   0.866   3.625   0.134 -0.3871  0.3868 -0.3492
   51TMC2    C4  792   0.820   3.707   0.389 -0.4556 -0.5736 -0.2361
   51TMC2    C5  793   0.894   3.785   0.295  0.3574 -0.1049  0.1951
   51TMC2    C6  794   0.907   3.749   0.166  0.1914  0.5882 -0.1949
   51TMC2     C  795   0.753   3.484   0.459  0.2267 -0.2326 -0.3695
   51TMC2     O  796   0.773   3.364   0.436 -0.3368  0.0555 -0.7476
   51TMC2     H  797   0.794   3.428   0.199  0.0481  0.3016 -2.8211
   51TMC2    H1  798   0.788   3.751   0.482  1.6934 -2.1805  1.2638
   51TMC2    H2  799   0.960   3.810   0.094 -0.3241 -0.5009 -1.5027
   51TMC2    C7  800   0.985   3.880   0.352  0.1175  0.4778 -0.0471
   51TMC2    C8  801   0.865   3.610  17.744 -0.0713  0.0182 -0.1577
   51TMC2    O1  802   1.009   3.873   0.472 -0.1761  0.3563 -0.3659
   51TMC2    O2  803   0.885   3.699  17.662 -0.0337 -0.2789  0.0042
   51TMC2    O5  804   0.929   3.496  17.726  0.2194  0.0152  0.3576
   51TMC2    H5  805   0.966   3.459   0.058  0.6236  2.1481  1.1097
   52MPD2     C  806   0.662   3.375   0.953 -0.0871  0.5545  0.3736
   52MPD2    C1  807   0.727   3.298   0.851 -0.3522 -0.0259 -0.0929
   52MPD2    C2  808   0.735   3.352   0.721 -0.0255  0.0920 -0.4917
   52MPD2    C3  809   0.675   3.473   0.693 -0.5409 -0.4021 -0.3374
   52MPD2    C4  810   0.605   3.535   0.789  0.2115 -0.8230  0.0402
   52MPD2    C5  811   0.594   3.486   0.911  0.2328  0.2577  0.1824
   52MPD2     H  812   0.794   3.298   0.649  1.2535  0.8791 -0.0398
   52MPD2    H1  813   0.545   3.624   0.771  1.0676 -0.0342  1.0709
   52MPD2    H2  814   0.641   3.336   1.052 -0.0620 -1.0966 -0.2788
   52MPD2    H3  815   0.526   3.540   0.976  0.8060  1.5216 -0.2630
   52MPD2     N  816   0.691   3.539   0.570  0.2499 -0.1772  0.2810
   52MPD2    H5  817   0.653   3.633   0.558  1.0944  0.0447 -0.6410
   52MPD2    N1  818   0.803   3.186   0.870 -0.0676  0.0245 -0.4352
   52MPD2    H7  819   0.854   3.145   0.793  1.9029  0.9668  0.3623
   53TMC2    C1  820   2.436   2.136  12.281  0.4461 -0.3551  0.5829
   53TMC2    C2  821   2.490   2.015  12.329 -0.1440  0.3903  0.9531
   53TMC2    C3  822   2.448   1.962  12.450  0.3182  0.3476  0.7891
   53TMC2    C4  823   2.358   2.203  12.373  0.7101  0.1818 -0.3517
   53TMC2    C5  824   2.334   2.159  12.502  0.8452  0.8096  0.0309
   53TMC2    C6  825   2.374   2.038  12.537  0.5526  0.5182  0.4302
   53TMC2     C  826   2.486   2.195  12.156 -0.2812  0.7071  0.1041
   53TMC2     O  827   2.580   2.139  12.101  0.0500 -0.2962  0.7298
   53TMC2     H  828   2.567   1.961  12.276 -0.7415 -0.2693  0.7466
   53TMC2    H1  829   2.325   2.304  12.348 -1.0790 -1.0066 -2.7338
   53TMC2    H2  830   2.354   1.998  12.635 -0.0113  0.4836  0.3020
   53TMC2    C7  831   2.227   2.223  12.568 -0.4883  0.0563  0.7331
   53TMC2    C8  832   2.553   1.886  12.508  0.6422 -0.7324 -0.5702
   53TMC2    O1  833   2.148   2.281  12.496 -0.0617 -0.0912  0.4774
   53TMC2    O2  834   2.638   1.957  12.560 -0.2571  0.0729 -0.3886
   53TMC2    O5  835   2.492   1.787  12.574  0.6314  0.5093 -0.1118
   53TMC2    H5  836   2.414   1.760  12.522  1.2492  2.8918 -2.2354
   54MPD2     C  837   2.498   2.359  11.894  0.0373 -0.3870 -0.3311
   54MPD2    C1  838   2.395   2.355  11.985 -0.0592 -0.3829  0.5069
   54MPD2    C2  839   2.296   2.449  11.974 -0.2527 -1.0141 -0.5273
   54MPD2    C3  840   2.301   2.547  11.870  0.5387  0.2729 -0.3668
   54MPD2    C4  841   2.405   2.555  11.783 -0.0055 -0.4989  0.1160
   54MPD2    C5  842   2.503   2.462  11.800  0.1986 -0.4269 -0.1666
   54MPD2     H  843   2.203   2.425  12.024  0.6931  0.3372  1.8942
   54MPD2    H1  844   2.401   2.623  11.698 -0.4956 -2.1018 -1.1446
   54MPD2    H2  845   2.577   2.285  11.887  0.2926 -0.1812  0.3881
   54MPD2    H3  846   2.591   2.479  11.740 -0.2378 -0.7195 -0.8809
   54MPD2     N  847   2.186   2.630  11.854  0.1477  0.5708 -0.2473
   54MPD2    H5  848   2.187   2.688  11.771  2.7136  0.8213 -0.0393
   54MPD2    N1  849   2.388   2.271  12.102  0.4463 -0.1724  0.1894
   54MPD2    H7  850   2.300   2.280  12.151  0.1501  0.0469 -0.3727
   55TMC2    C1  851   3.102   0.784   0.686  0.0774  0.1772 -0.9791
   55TMC2    C2  852   3.193   0.888   0.696  0.8735  0.0162  0.0309
   55TMC2    C3  853   3.324   0.859   0.691  0.2009  0.0428  0.2690
   55TMC2    C4  854   3.139   0.651   0.677 -0.3707 -0.1745  0.4000
   55TMC2    C5  855   3.271   0.628   0.668 -0.4586 -0.6528  0.5445
   55TMC2    C6  856   3.366   0.731   0.668 -0.3311  0.3407 -0.0188
   55TMC2     C  857   2.965   0.812   0.673  0.2368 -0.7462  0.5603
   55TMC2     O  858   2.894   0.718   0.705 -0.1555 -0.2311  0.1087
   55TMC2     H  859   3.165   0.992   0.713 -1.4137 -0.5075 -0.5235
   55TMC2    H1  860   3.064   0.574   0.664 -0.2360 -0.5503  1.9128
   55TMC2    H2  861   3.470   0.705   0.653 -0.0908  1.2524  0.0779
   55TMC2    C7  862   3.322   0.494   0.635 -0.3512  0.3134 -0.1654
   55TMC2    C8  863   3.407   0.976   0.685 -0.0755  0.4208  0.0705
   55TMC2    O1  864   3.435   0.476   0.589  0.0807 -0.0022 -0.4757
   55TMC2    O2  865   3.364   1.088   0.670 -0.2763  0.0201  0.1961
   55TMC2    O5  866   3.517   0.953   0.759 -0.4543  0.7336 -0.4116
   55TMC2    H5  867   3.540   0.860   0.779  0.7927  0.6867 -2.0421
   56MPD2     C  868   2.820   1.050   0.420 -0.0558 -0.1893  0.1850
   56MPD2    C1  869   2.825   0.952   0.517 -0.2015 -0.5381 -0.0732
   56MPD2    C2  870   2.704   0.884   0.546  0.8858 -0.1438  0.4180
   56MPD2    C3  871   2.586   0.917   0.485  0.3484  0.4098  0.1983
   56MPD2    C4  872   2.589   1.018   0.396  0.2458  0.1855 -0.3079
   56MPD2    C5  873   2.701   1.088   0.363 -0.6867  0.5613 -0.8330
   56MPD2     H  874   2.705   0.819   0.633 -1.3883 -0.3913  0.2474
   56MPD2    H1  875   2.508   1.048   0.330  0.1618  1.1466  0.2245
   56MPD2    H2  876   2.913   1.103   0.404  0.1811 -0.0499  2.0840
   56MPD2    H3  877   2.692   1.171   0.294 -1.9385  0.4812 -0.7771
   56MPD2     N  878   2.469   0.843   0.530 -0.2255 -0.3141  0.3818
   56MPD2    H5  879   2.489   0.768   0.596  1.0913  0.5445  0.9767
   56MPD2    N1  880   2.949   0.912   0.578 -0.3328  0.4421  0.4816
   56MPD2    H7  881   3.034   0.962   0.551  0.7476 -0.7797  1.6184
   57TMC2    C1  882   2.251   1.171  14.011  0.0945 -0.4992  0.1779
   57TMC2    C2  883   2.283   1.289  14.058  0.1573  0.4801  0.2849
   57TMC2    C3  884   2.410   1.316  14.100 -0.2062 -0.8105  0.3042
   57TMC2    C4  885   2.347   1.075  13.991 -0.0805  0.4388  0.0082
   57TMC2    C5  886   2.472   1.105  14.035 -1.2291  0.5200 -1.3202
   57TMC2    C6  887   2.502   1.226  14.092 -0.7116 -0.0517  0.4795
   57TMC2     C  888   2.120   1.162  13.949  0.1181 -0.1989  0.0524
   57TMC2     O  889   2.077   1.267  13.903 -0.0930  0.2927 -0.4410
   57TMC2     H  890   2.209   1.369  14.062 -0.8424 -0.4799  1.1783
   57TMC2    H1  891   2.320   0.980  13.945 -0.7849  0.0309  1.2625
   57TMC2    H2  892   2.599   1.246  14.136 -0.0834 -0.2238 -0.8282
   57TMC2    C7  893   2.574   1.004  14.039 -0.0547 -0.5080 -0.5780
   57TMC2    C8  894   2.442   1.449  14.150  0.0758 -0.0147  0.4665
   57TMC2    O1  895   2.672   1.028  14.110  0.2126 -0.0779 -0.0949
   57TMC2    O2  896   2.528   1.524  14.100 -0.3251  0.0467 -0.3994
   57TMC2    O5  897   2.336   1.485  14.223  0.3448  0.1186  0.2903
   57TMC2    H5  898   2.293   1.408  14.267  1.7077 -0.3254  0.8576
   58MPD2     C  899   1.682   0.948  13.825  0.6092 -0.2716  0.2889
   58MPD2    C1  900   1.706   1.071  13.890 -0.2588  0.4721 -0.2802
   58MPD2    C2  901   1.836   1.107  13.918 -0.9575  1.1593 -0.3902
   58MPD2    C3  902   1.939   1.004  13.916  0.5661 -0.3065 -0.2473
   58MPD2    C4  903   1.899   0.878  13.883  0.4330 -0.0965  0.4681
   58MPD2    C5  904   1.771   0.851  13.835 -0.3559  0.0239 -0.1382
   58MPD2     H  905   1.853   1.210  13.948  0.9624  1.3915 -2.2670
   58MPD2    H1  906   1.964   0.791  13.875  0.6849  0.1742 -0.3923
   58MPD2    H2  907   1.585   0.923  13.783  1.5228 -3.2035 -0.0685
   58MPD2    H3  908   1.755   0.750  13.799  1.0120  0.1658 -1.1343
   58MPD2     N  909   2.069   1.032  13.953  0.0538 -0.0221  0.0806
   58MPD2    H5  910   2.121   0.959  14.000  0.4377 -0.8294 -1.5872
   58MPD2    N1  911   1.602   1.176  13.896 -0.3519  0.1507  0.3814
   58MPD2    H7  912   1.649   1.261  13.927 -0.7167 -0.0026  1.3677
   59TMC2    C1  913   4.156   1.577  12.935  0.1052 -0.2118 -0.0932
   59TMC2    C2  914   4.148   1.504  13.046 -0.3156  0.0568 -0.0609
   59TMC2    C3  915   4.028   1.459  13.085  0.1005 -0.5093  0.3792
   59TMC2    C4  916   4.057   1.583  12.846  0.0184  0.5018 -0.5812
   59TMC2    C5  917   3.941   1.523  12.873  0.2236  1.0846  0.4938
   59TMC2    C6  918   3.916   1.470  13.001  0.5415  0.0941  0.0297
   59TMC2     C  919   4.283   1.639  12.892  0.3311 -0.5074 -0.1269
   59TMC2     O  920   4.289   1.653  12.772  0.3046 -0.2817 -0.7527
   59TMC2     H  921   4.229   1.483  13.114 -2.0245 -1.4869  1.5243
   59TMC2    H1  922   4.076   1.634  12.752 -2.0683  2.1009 -0.1480
   59TMC2    H2  923   3.823   1.433  13.041 -0.9616  1.0126 -2.6307
   59TMC2    C7  924   3.824   1.537  12.779 -0.3497 -0.6044 -0.4003
   59TMC2    C8  925   4.001   1.419  13.227 -0.4773 -0.5029 -1.0265
   59TMC2    O1  926   3.718   1.486  12.812 -0.3358 -0.3851  0.0803
   59TMC2    O2  927   3.919   1.338  13.257  0.4839  0.3602 -0.6597
   59TMC2    O5  928   4.091   1.468  13.316 -0.1287  0.9243 -0.0879
   59TMC2    H5  929   4.143   1.545  13.284  1.4678 -0.4450 -0.7707
   60MPD2     C  930   4.568   1.690  12.840  0.2597  0.4295  0.6072
   60MPD2    C1  931   4.520   1.666  12.967  0.2641  0.2692 -0.0901
   60MPD2    C2  932   4.597   1.683  13.074 -0.1751 -0.2033  0.3519
   60MPD2    C3  933   4.734   1.687  13.058  0.1688  1.0758 -0.3665
   60MPD2    C4  934   0.051   1.709  12.935 -0.3463  0.5357  0.7825
   60MPD2    C5  935   4.701   1.710  12.829  0.1417  0.4653  0.5216
   60MPD2     H  936   4.552   1.682  13.173 -1.0618  0.7245 -0.0486
   60MPD2    H1  937   0.156   1.731  12.924 -0.8950  3.1395  0.7921
   60MPD2    H2  938   4.513   1.675  12.748  1.2396 -1.5806  0.3318
   60MPD2    H3  939   0.007   1.708  12.730  1.9622  2.2070  1.2993
   60MPD2     N  940   0.086   1.688  13.166  0.1324 -0.3802 -0.1589
   60MPD2    H5  941   0.183   1.709  13.142 -0.3366  1.0273 -0.8548
   60MPD2    N1  942   4.384   1.632  12.989 -0.6355 -0.0465 -0.4033
   60MPD2    H7  943   4.355   1.625  13.086  2.1708 -2.6642  0.2584
   61TMC2    C1  944   3.789   2.210  15.373  0.1465 -0.0962  0.3337
   61TMC2    C2  945   3.752   2.135  15.478 -0.2345 -0.2665 -0.3401
   61TMC2    C3  946   3.686   2.197  15.580 -0.0087  0.8391  0.4115
   61TMC2    C4  947   3.742   2.338  15.353  0.2844 -0.4901 -0.1960
   61TMC2    C5  948   3.673   2.394  15.455 -0.3725 -0.3350  0.0893
   61TMC2    C6  949   3.650   2.329  15.578 -0.3106 -0.6236  0.3855
   61TMC2     C  950   3.888   2.152  15.273  0.0329  0.2291 -0.8802
   61TMC2     O  951   3.944   2.045  15.296  0.3714 -0.2910  0.5177
   61TMC2     H  952   3.788   2.035  15.500  1.1333  0.1462 -0.6980
   61TMC2    H1  953   3.772   2.399  15.269 -1.4164  1.7072  0.8121
   61TMC2    H2  954   3.624   2.384  15.667 -0.5021  0.5444 -0.3899
   61TMC2    C7  955   3.605   2.516  15.422 -0.1937 -0.2941  0.1473
   61TMC2    C8  956   3.676   2.122  15.699  0.1202  0.2074  0.0290
   61TMC2    O1  957   3.641   2.588  15.331  0.4965 -0.3258 -0.1992
   61TMC2    O2  958   3.754   2.034  15.735 -0.5526  0.1955  0.6226
   61TMC2    O5  959   3.557   2.152  15.751 -0.1367 -0.6406  0.1211
   61TMC2    H5  960   3.496   2.211  15.702  0.0586 -1.4913 -1.1510
   62MPD2     C  961   4.116   2.139  15.085 -0.3129  0.3280 -0.6103
   62MPD2    C1  962   4.021   2.236  15.081  0.0704 -0.5224 -0.2582
   62MPD2    C2  963   4.023   2.337  14.987  0.2750 -0.4862  0.8624
   62MPD2    C3  964   4.122   2.343  14.896 -0.7934 -0.1854  0.1808
   62MPD2    C4  965   4.225   2.256  14.913  0.0779  0.3929 -0.8119
   62MPD2    C5  966   4.224   2.156  15.007 -0.3459  0.2577 -0.9319
   62MPD2     H  967   3.949   2.415  14.982  2.0724  1.1364 -0.3635
   62MPD2    H1  968   4.309   2.268  14.845  2.0007  0.1545  1.5481
   62MPD2    H2  969   4.127   2.067  15.166 -1.1451  1.9302  0.9198
   62MPD2    H3  970   4.315   2.100  15.023 -0.9402 -0.4482 -0.0525
   62MPD2     N  971   4.124   2.446  14.804  0.0077 -0.1812  0.0189
   62MPD2    H5  972   4.040   2.503  14.795 -1.0162 -1.5560  0.9222
   62MPD2    N1  973   3.909   2.241  15.166  0.4491  0.0368  0.7764
   62MPD2    H7  974   3.837   2.312  15.152 -2.2068 -2.5233  1.5074
   63TMC2    C1  975   3.295   3.559  10.663 -0.3345 -0.1983 -0.0737
   63TMC2    C2  976   3.325   3.516  10.789  0.2873  0.4680 -0.0137
   63TMC2    C3  977   3.432   3.576  10.847  0.1320  0.3132  0.3430
   63TMC2    C4  978   3.357   3.667  10.614  0.0799 -0.3141  0.2766
   63TMC2    C5  979   3.439   3.742  10.690 -0.4882 -0.6800 -0.2805
   63TMC2    C6  980   3.486   3.694  10.808  0.1287  0.5574 -0.1057
   63TMC2     C  981   3.200   3.498  10.574  0.6043 -0.5673 -0.2389
   63TMC2     O  982   3.111   3.569  10.529  0.0423  0.2842  0.2787
   63TMC2     H  983   3.278   3.424  10.820 -1.5073  0.7326 -1.9778
   63TMC2    H1  984   3.331   3.683  10.509 -0.1291 -2.1604  0.0541
   63TMC2    H2  985   3.569   3.739  10.863  0.8357 -0.2196 -0.5352
   63TMC2    C7  986   3.497   3.860  10.637 -0.4906 -0.2827  0.0839
   63TMC2    C8  987   3.501   3.491  10.932 -0.4047 -0.0026 -0.7564
   63TMC2    O1  988   3.607   3.890  10.679  0.2318 -0.0940  0.2070
   63TMC2    O2  989   3.440   3.392  10.974  0.0740 -0.0002 -0.1137
   63TMC2    O5  990   3.626   3.484  10.876  0.1366 -0.2791  0.6906
   63TMC2    H5  991   3.668   3.572  10.863 -1.7504  0.5752  0.3024
   64MPD2     C  992   3.021   3.090  10.309 -0.9200 -0.2853  0.6078
   64MPD2    C1  993   3.122   3.049  10.390 -0.0636 -0.3640 -0.3058
   64MPD2    C2  994   3.179   3.145  10.469 -0.8605  0.3618  0.4949
   64MPD2    C3  995   3.152   3.277  10.470 -0.8224 -0.6168 -0.4566
   64MPD2    C4  996   3.060   3.318  10.381 -0.3151  0.7001  0.8111
   64MPD2    C5  997   3.004   3.228  10.298 -0.1724 -0.6784  0.4904
   64MPD2     H  998   3.254   3.105  10.537 -0.7507 -0.8421 -0.3320
   64MPD2    H1  999   3.029   3.421  10.365 -0.7284  0.6548  1.3275
   64MPD2    H2 1000   2.973   3.032  10.231 -1.1668  1.2999 -0.4379
   64MPD2    H3 1001   2.929   3.265  10.229  0.3614 -0.7469 -0.1341
   64MPD2     N 1002   3.218   3.359  10.568  0.0266 -0.2747 -0.2670
   64MPD2    H5 1003   3.284   3.310  10.628  2.4373  0.9869 -1.9087
   64MPD2    N1 1004   3.165   2.914  10.396 -0.4126  0.3022 -0.0054
   64MPD2    H7 1005   3.239   2.898  10.463  2.0253 -0.0553 -2.8000
   65TMC2    C1 1006   4.131   1.955  15.622 -0.3978  0.0722  0.4040
   65TMC2    C2 1007   4.234   1.928  15.535  0.5550 -0.4741  0.1512
   65TMC2    C3 1008   4.260   2.027  15.444 -0.3748  0.1111 -0.7225
   65TMC2    C4 1009   4.064   2.074  15.634 -0.0513 -0.3217 -0.0738
   65TMC2    C5 1010   4.099   2.170  15.532 -1.0882  0.1046 -0.4471
   65TMC2    C6 1011   4.205   2.148  15.450  0.6554  0.0476  0.5655
   65TMC2     C 1012   4.092   1.847  15.708 -0.2444  0.1683 -0.1867
   65TMC2     O 1013   4.027   1.878  15.808  0.5451 -0.4180 -0.2534
   65TMC2     H 1014   4.295   1.839  15.532  0.4524 -0.6425  3.1557
   65TMC2    H1 1015   3.979   2.077  15.701  1.0461  1.6374  1.2347
   65TMC2    H2 1016   4.237   2.213  15.370 -2.3776  0.9175  0.0734
   65TMC2    C7 1017   4.057   2.308  15.536 -0.1735 -0.4454  0.0133
   65TMC2    C8 1018   4.369   2.026  15.353 -0.3882 -0.5950  0.5147
   65TMC2    O1 1019   4.071   2.373  15.429 -0.0480  0.1631  0.0703
   65TMC2    O2 1020   4.398   1.947  15.268 -0.3146  0.0486  0.2265
   65TMC2    O5 1021   4.460   2.098  15.426  0.5515 -0.2583  0.1180
   65TMC2    H5 1022   4.420   2.132  15.509  0.6475  0.9051 -0.3108
   66MPD2     C 1023   4.087   1.595  15.863  0.2223  0.0158 -0.3950
   66MPD2    C1 1024   4.129   1.608  15.731 -0.3248  0.2614 -0.4621
   66MPD2    C2 1025   4.159   1.494  15.666 -0.5452 -1.1855  0.2127
   66MPD2    C3 1026   4.153   1.370  15.720 -0.4379 -0.1622  0.2841
   66MPD2    C4 1027   4.108   1.353  15.853  0.4611 -0.1759  0.7963
   66MPD2    C5 1028   4.082   1.472  15.923 -0.2579  0.0284  1.0114
   66MPD2     H 1029   4.182   1.506  15.561  1.4852  0.2495  0.8347
   66MPD2    H1 1030   4.111   1.259  15.907 -1.8013 -0.1325  1.0000
   66MPD2    H2 1031   4.052   1.683  15.916 -1.6923 -0.3270 -1.0892
   66MPD2    H3 1032   4.057   1.470  16.028 -0.3875  2.8407  1.0274
   66MPD2     N 1033   4.180   1.256  15.646 -0.4091 -0.8500  0.5832
   66MPD2    H5 1034   4.170   1.171  15.700 -1.4824  0.3594  2.3162
   66MPD2    N1 1035   4.140   1.728  15.662 -0.0825  0.0061 -0.4078
   66MPD2    H7 1036   4.168   1.721  15.564  1.8457 -2.4759  0.3129
   67TMC2    C1 1037   4.646   1.241  14.304 -0.5647  0.1671 -0.2689
   67TMC2    C2 1038   4.538   1.162  14.352 -0.1886 -0.5790  0.2238
   67TMC2    C3 1039   4.547   1.132  14.487  0.1917  1.0954 -0.1838
   67TMC2    C4 1040   0.012   1.288  14.378 -0.6430  0.0541  0.4091
   67TMC2    C5 1041   0.011   1.250  14.507  0.5273 -0.9270 -0.1166
   67TMC2    C6 1042   4.648   1.178  14.566  0.3196 -0.7304  0.2898
   67TMC2     C 1043   4.627   1.301  14.179  0.8364  0.1156 -0.9978
   67TMC2     O 1044   4.731   1.335  14.125  0.1928 -0.1884 -0.0825
   67TMC2     H 1045   4.454   1.123  14.296 -1.3580 -1.4231  2.6105
   67TMC2    H1 1046   0.104   1.327  14.335 -0.2219 -0.5767  0.7427
   67TMC2    H2 1047   4.662   1.150  14.670  1.5248 -2.6174 -0.3716
   67TMC2    C7 1048   0.126   1.270  14.588 -0.2321 -0.3751 -0.0487
   67TMC2    C8 1049   4.485   1.016  14.533  0.1139  0.0848 -0.5195
   67TMC2    O1 1050   0.236   1.239  14.546 -0.1977  0.3097 -0.2732
   67TMC2    O2 1051   4.472   0.990  14.653  0.0938  0.6230 -0.4512
   67TMC2    O5 1052   4.506   0.922  14.439  0.1179  0.0758  0.0092
   67TMC2    H5 1053   4.537   0.945  14.348 -1.0203 -1.2259 -0.7016
   68MPD2     C 1054   4.524   1.432  13.937 -0.4473  0.1656 -0.5357
   68MPD2    C1 1055   4.442   1.391  14.036  0.0410  0.4658 -0.3141
   68MPD2    C2 1056   4.302   1.406  14.021 -0.3171  0.0769  0.1184
   68MPD2    C3 1057   4.254   1.463  13.905 -0.1029  0.6395  0.0468
   68MPD2    C4 1058   4.345   1.506  13.806 -0.7360 -0.7064  0.0439
   68MPD2    C5 1059   4.477   1.483  13.822 -0.5175  0.4994  0.4994
   68MPD2     H 1060   4.238   1.378  14.104  0.5992  1.0444  1.1584
   68MPD2    H1 1061   4.311   1.552  13.714 -0.5907  0.9897  0.8378
   68MPD2    H2 1062   4.631   1.415  13.946 -0.3388  0.3478 -1.5017
   68MPD2    H3 1063   4.551   1.507  13.746 -0.9898  1.1510  0.2506
   68MPD2     N 1064   4.116   1.482  13.880 -0.4993 -0.1149  0.1403
   68MPD2    H5 1065   4.086   1.512  13.788 -1.7297  1.0553  0.9083
   68MPD2    N1 1066   4.493   1.320  14.150 -0.0988 -0.2790 -0.5306
   68MPD2    H7 1067   4.429   1.297  14.225 -0.3982 -0.9238 -0.9819
   69TMC2    C1 1068   1.284   3.232  12.400  0.0590  0.4823 -0.4052
   69TMC2    C2 1069   1.171   3.171  12.353 -0.4963 -0.1356  0.2443
   69TMC2    C3 1070   1.156   3.177  12.216  0.7014 -0.3123  0.1158
   69TMC2    C4 1071   1.383   3.291  12.325  0.4353 -0.3430 -0.3778
   69TMC2    C5 1072   1.352   3.306  12.192 -0.4377 -0.3322  0.7268
   69TMC2    C6 1073   1.255   3.230  12.132  0.4772 -0.7388 -0.0816
   69TMC2     C 1074   1.320   3.174  12.521 -0.8568 -0.3013  0.6475
   69TMC2     O 1075   1.253   3.089  12.571  0.0202 -0.4067  0.2141
   69TMC2     H 1076   1.099   3.128  12.422  0.1955 -2.0649 -0.2337
   69TMC2    H1 1077   1.466   3.347  12.366 -0.8386 -0.0170  1.7874
   69TMC2    H2 1078   1.227   3.240  12.027 -0.7310  0.7520  0.3755
   69TMC2    C7 1079   1.468   3.330  12.113 -0.2948 -0.6270  0.4091
   69TMC2    C8 1080   1.086   3.062  12.169  0.0242 -0.4903  0.7743
   69TMC2    O1 1081   1.582   3.301  12.160 -0.6214 -0.1161 -1.1260
   69TMC2    O2 1082   0.964   3.051  12.174 -0.4971 -0.0498  0.6852
   69TMC2    O5 1083   1.176   2.972  12.211 -0.3740  0.1059  0.1802
   69TMC2    H5 1084   1.269   2.996  12.233 -0.7477  1.6377  0.0935
   70MPD2     C 1085   1.640   3.188  12.675  0.1938  0.1204 -0.3436
   70MPD2    C1 1086   1.512   3.146  12.672 -0.2201 -0.6411  0.1015
   70MPD2    C2 1087   1.469   3.063  12.771 -0.0385 -0.1662 -0.7753
   70MPD2    C3 1088   1.551   3.019  12.873 -0.6746 -0.8477 -0.3184
   70MPD2    C4 1089   1.676   3.063  12.881 -0.2683 -0.0122  0.7306
   70MPD2    C5 1090   1.719   3.142  12.775  0.5484  0.2076  0.4155
   70MPD2     H 1091   1.368   3.025  12.759  0.5974 -2.0755  0.0688
   70MPD2    H1 1092   1.752   3.034  12.953 -0.3714 -1.9861  0.0669
   70MPD2    H2 1093   1.693   3.257  12.611  0.8885 -1.3294 -1.3133
   70MPD2    H3 1094   1.823   3.171  12.777  0.9705 -1.3006  0.7573
   70MPD2     N 1095   1.510   2.937  12.977  0.0193  0.7634 -0.4724
   70MPD2    H5 1096   1.587   2.914  13.040  1.3667  0.4681 -2.2170
   70MPD2    N1 1097   1.440   3.207  12.564 -0.4632  0.1557 -0.0545
   70MPD2    H7 1098   1.498   3.262  12.502  0.6686 -0.3388  0.5626
   71TMC2    C1 1099   4.593   2.461   1.119 -0.0519  0.6896 -0.3101
   71TMC2    C2 1100   4.715   2.459   1.187 -0.3115 -0.7075  0.7439
   71TMC2    C3 1101   4.714   2.449   1.323  0.6970 -0.4407  0.6050
   71TMC2    C4 1102   4.479   2.443   1.187  0.1130  0.5525  0.3689
   71TMC2    C5 1103   4.488   2.439   1.324 -0.5160  0.0187 -0.1291
   71TMC2    C6 1104   4.602   2.451   1.393 -0.9762  0.1557  0.1016
   71TMC2     C 1105   4.588   2.457   0.978  0.0015 -0.9205  0.4882
   71TMC2     O 1106   4.689   2.448   0.908 -0.2385 -0.4100 -0.3033
   71TMC2     H 1107   0.066   2.471   1.127 -1.8089  0.0492 -1.3427
   71TMC2    H1 1108   4.378   2.438   1.148  0.9877 -0.0980 -1.7658
   71TMC2    H2 1109   4.606   2.433   1.500  2.9196 -2.3004 -0.4637
   71TMC2    C7 1110   4.373   2.405   1.408  0.0510 -0.5470 -0.7661
   71TMC2    C8 1111   0.106   2.465   1.384 -0.3580  0.7142  0.2984
   71TMC2    O1 1112   4.402   2.360   1.519 -0.6414  0.4820  0.2685
   71TMC2    O2 1113   0.111   2.500   1.501  0.6887 -0.2298 -0.4581
   71TMC2    O5 1114   0.180   2.371   1.325 -0.7630 -0.2355 -0.0971
   71TMC2    H5 1115   0.146   2.330   1.243  2.9008 -3.0629 -0.2164
   72MPD2     C 1116   4.349   2.529   0.530  0.8354  0.5297  0.1378
   72MPD2    C1 1117   4.259   2.566   0.630 -0.6701  1.0390 -0.9321
   72MPD2    C2 1118   4.300   2.546   0.762 -0.4154 -0.0128  0.4073
   72MPD2    C3 1119   4.432   2.495   0.793  0.2079  0.9204  0.1097
   72MPD2    C4 1120   4.518   2.466   0.686  0.8807 -0.3101 -0.1466
   72MPD2    C5 1121   4.474   2.478   0.558  0.3630  1.1123  0.6557
   72MPD2     H 1122   4.238   2.579   0.844 -1.0349 -0.2686  0.0425
   72MPD2    H1 1123   4.617   2.423   0.698  0.6049 -0.6120  1.0498
   72MPD2    H2 1124   4.307   2.514   0.431  0.3446 -0.5325  0.5027
   72MPD2    H3 1125   4.540   2.446   0.479 -0.5890 -1.6443  0.9611
   72MPD2     N 1126   4.466   2.480   0.930 -0.0901  1.1044 -0.0308
   72MPD2    H5 1127   4.390   2.513   0.989 -0.4968 -2.1218  1.2483
   72MPD2    N1 1128   4.124   2.608   0.616  0.1330  0.4237  0.2908
   72MPD2    H7 1129   4.067   2.614   0.700  0.7487 -0.4406  0.7661
   73TMC2    C1 1130   3.893   0.245  14.008 -0.7695 -0.2717 -0.0641
   73TMC2    C2 1131   3.811   0.245  14.112 -0.3951 -0.5110 -0.7087
   73TMC2    C3 1132   3.860   0.190  14.223  0.0262  0.5374 -0.1641
   73TMC2    C4 1133   4.023   0.204  14.021 -0.0598  0.1021  0.2526
   73TMC2    C5 1134   4.072   0.155  14.135  0.4257 -0.5952  0.1428
   73TMC2    C6 1135   3.989   0.148  14.243  0.2332  0.8238  0.0521
   73TMC2     C 1136   3.899   0.371  13.934 -0.7348 -0.2360  0.3835
   73TMC2     O 1137   4.010   0.428  13.935  0.8050 -0.1695  0.5799
   73TMC2     H 1138   3.715   0.297  14.114 -0.6929 -1.0628 -0.7521
   73TMC2    H1 1139   4.087   0.215  13.934 -1.3173  0.1202 -0.6769
   73TMC2    H2 1140   4.031   0.144  14.343 -1.7158  1.6034  0.9087
   73TMC2    C7 1141   4.190   0.221  14.180  0.0962 -0.1903  0.3238
   73TMC2    C8 1142   3.787   0.199  14.352 -0.6415 -0.3054 -0.2541
   73TMC2    O1 1143   4.261   0.167  14.262  0.2891 -0.4548 -0.3335
   73TMC2    O2 1144   3.841   0.186  14.462  0.3676  0.4601 -0.2143
   73TMC2    O5 1145   3.655   0.169  14.329  0.6894  0.1194  0.6065
   73TMC2    H5 1146   3.643   0.143  14.236  1.5767  0.9508  0.2558
   74MPD2     C 1147   3.677   0.780  13.734  0.1665 -0.1553  1.2377
   74MPD2    C1 1148   3.789   0.774  13.812 -0.0039 -0.5388 -0.2647
   74MPD2    C2 1149   3.829   0.646  13.847  0.1261 -0.4461 -0.5135
   74MPD2    C3 1150   3.760   0.531  13.815  0.0331 -0.4260  0.6311
   74MPD2    C4 1151   3.637   0.547  13.753  0.3286 -0.5066  0.1234
   74MPD2    C5 1152   3.601   0.670  13.706 -0.0337  0.6772 -0.6009
   74MPD2     H 1153   3.915   0.628  13.911 -0.7899 -0.1223  0.7907
   74MPD2    H1 1154   3.575   0.463  13.721  0.8005 -1.4489  1.7037
   74MPD2    H2 1155   3.654   0.876  13.688  0.9107 -1.0671 -1.0318
   74MPD2    H3 1156   3.510   0.683  13.649 -0.3975 -0.8012 -0.3762
   74MPD2     N 1157   3.789   0.401  13.863  0.6931  0.3736 -0.2611
   74MPD2    H5 1158   3.719   0.328  13.855 -1.0039  1.5561  3.3726
   74MPD2    N1 1159   3.850   0.892  13.849 -0.5463 -0.5106 -1.0627
   74MPD2    H7 1160   3.810   0.981  13.821  0.5676  0.3014 -0.0861
   75TMC2    C1 1161   3.881   1.486  13.886 -0.5615  0.4613 -0.1467
   75TMC2    C2 1162   3.761   1.472  13.954  0.3945  0.0021  0.8118
   75TMC2    C3 1163   3.641   1.509  13.892  0.1420 -0.4530 -0.3312
   75TMC2    C4 1164   3.874   1.521  13.753 -0.5012  0.5053  0.1699
   75TMC2    C5 1165   3.752   1.558  13.699  0.2269  0.3519 -0.2254
   75TMC2    C6 1166   3.639   1.564  13.767  0.1714 -0.0363  0.2846
   75TMC2     C 1167   4.008   1.442  13.956  0.8005  1.2863  0.2868
   75TMC2     O 1168   4.004   1.403  14.069  0.2293 -0.3193  0.0218
   75TMC2     H 1169   3.767   1.459  14.061  0.0908 -2.1481  0.5700
   75TMC2    H1 1170   3.956   1.528  13.683 -0.7251 -0.3967 -0.1854
   75TMC2    H2 1171   3.545   1.606  13.731  0.0816 -1.5891 -1.3201
   75TMC2    C7 1172   3.731   1.599  13.557 -0.0630  0.0675  0.3182
   75TMC2    C8 1173   3.533   1.527  13.989 -0.0891  0.8839  0.1477
   75TMC2    O1 1174   3.613   1.600  13.521 -0.0163 -0.5414  0.3527
   75TMC2    O2 1175   3.558   1.594  14.088  0.2528  0.3088  0.1452
   75TMC2    O5 1176   3.422   1.542  13.916 -0.1735  0.2546 -0.1259
   75TMC2    H5 1177   3.412   1.462  13.860  0.7434 -1.0598  1.5884
   76TMC2    C1 1178   2.394   2.728  12.240 -0.0983 -0.1171 -0.8186
   76TMC2    C2 1179   2.262   2.726  12.278  0.7401  0.1684 -0.3513
   76TMC2    C3 1180   2.227   2.636  12.376 -0.1902 -0.0753 -0.1213
   76TMC2    C4 1181   2.494   2.652  12.300 -0.0673  0.3380  0.8609
   76TMC2    C5 1182   2.454   2.581  12.409 -0.9290 -0.0730 -0.1782
   76TMC2    C6 1183   2.321   2.573  12.453 -0.1271  0.2790  0.3985
   76TMC2     C 1184   2.422   2.841  12.151 -0.3369 -0.2118 -0.0699
   76TMC2     O 1185   2.326   2.874  12.086 -0.3220  0.3484 -0.6296
   76TMC2     H 1186   2.181   2.785  12.237 -0.4595 -0.0810  1.6207
   76TMC2    H1 1187   2.597   2.667  12.270 -0.1264  0.1546  0.5684
   76TMC2    H2 1188   2.293   2.526  12.546 -1.2432 -1.6523 -0.9213
   76TMC2    C7 1189   2.539   2.481  12.473  0.1036  0.1964 -0.2653
   76TMC2    C8 1190   2.091   2.637  12.435  0.1008 -0.6642 -0.2317
   76TMC2    O1 1191   2.489   2.407  12.552  0.1763 -0.0870 -0.0578
   76TMC2    O2 1192   2.066   2.618  12.553  0.0041 -0.6237 -0.4958
   76TMC2    O5 1193   2.017   2.600  12.329  0.6448 -0.0440  0.2913
   76TMC2    H5 1194   2.060   2.603  12.241  2.5706 -0.8461  1.2211
   77MPD2     C 1195   2.656   3.282  12.031  0.0411 -0.5605  0.5174
   77MPD2    C1 1196   2.523   3.246  12.042 -0.1536  0.8810 -0.1029
   77MPD2    C2 1197   2.490   3.120  12.080  0.2064  0.0108  0.3669
   77MPD2    C3 1198   2.582   3.028  12.121 -0.5495  0.2988 -0.2281
   77MPD2    C4 1199   2.711   3.077  12.125 -0.2655  0.1672 -0.2470
   77MPD2    C5 1200   2.753   3.197  12.073 -0.2981  0.5566  0.0487
   77MPD2     H 1201   2.383   3.103  12.087 -0.4395  2.7653 -2.5841
   77MPD2    H1 1202   2.784   3.001  12.149 -1.3474 -0.4244  1.1402
   77MPD2    H2 1203   2.691   3.378  11.993  1.1951 -1.3059 -0.2989
   77MPD2    H3 1204   2.860   3.211  12.063  0.0560 -2.7696 -0.8749
   77MPD2     N 1205   2.547   2.899  12.171  0.3644 -0.4678 -0.0424
   77MPD2    H5 1206   2.621   2.838  12.202  0.9536 -0.9489 -2.3698
   77MPD2    N1 1207   2.414   3.334  12.015 -0.0514  1.3398 -0.6408
   77MPD2    H7 1208   2.318   3.301  12.014 -0.3255  2.1565 -1.0104
   78TMC2    C1 1209   3.649   3.066   1.229 -0.8710 -0.0268  0.6110
   78TMC2    C2 1210   3.674   3.111   1.357  0.5832  0.0395 -0.5103
   78TMC2    C3 1211   3.802   3.132   1.390  0.6768 -0.0295  0.0612
   78TMC2    C4 1212   3.748   3.041   1.135  0.2341 -0.7764 -0.3650
   78TMC2    C5 1213   3.880   3.069   1.177 -0.4191  0.2336  0.9926
   78TMC2    C6 1214   3.905   3.108   1.305  0.0548 -0.3006  0.2312
   78TMC2     C 1215   3.509   3.048   1.183  0.4518  1.1172  0.1764
   78TMC2     O 1216   3.499   2.975   1.085 -0.0879  0.2300  0.8688
   78TMC2     H 1217   3.590   3.139   1.419 -1.1808  0.4432 -3.0954
   78TMC2    H1 1218   3.717   3.014   1.035  0.8972  0.1685 -0.8343
   78TMC2    H2 1219   4.006   3.131   1.335 -0.0399  0.8680 -0.3325
   78TMC2    C7 1220   3.989   3.059   1.088  0.1498 -0.9540 -0.4591
   78TMC2    C8 1221   3.831   3.183   1.518 -0.3400 -0.2621 -0.1870
   78TMC2    O1 1222   4.104   3.044   1.135 -0.2677 -0.3504  0.0635
   78TMC2    O2 1223   3.918   3.265   1.541  0.2900  0.3286  0.1064
   78TMC2    O5 1224   3.761   3.119   1.613  0.2572  0.1996  0.0986
   78TMC2    H5 1225   3.712   3.042   1.576  0.1980 -0.3246  1.2758
   79MPD1     C 1226   3.014   3.054   1.221  0.2423 -0.1489  0.5736
   79MPD1    C1 1227   3.090   3.012   1.120  0.0275 -0.7590 -0.3039
   79MPD1    C2 1228   3.224   3.032   1.132  0.4554 -0.2803  0.4725
   79MPD1    C3 1229   3.275   3.109   1.234 -0.1734  0.8403 -0.3735
   79MPD1    C4 1230   3.196   3.163   1.331  0.0253  0.5254  0.3322
   79MPD1    C5 1231   3.068   3.130   1.321 -0.3285  0.4395 -1.0294
   79MPD1     H 1232   3.285   2.990   1.053 -2.0476  0.4219 -1.8337
   79MPD1    H1 1233   3.246   3.206   1.417 -1.3592  3.1229 -0.1481
   79MPD1    H2 1234   2.910   3.029   1.203  0.2708 -0.7976  1.2479
   79MPD1    H3 1235   3.005   3.172   1.399 -1.1853  0.8237 -1.9264
   79MPD1     N 1236   3.411   3.112   1.261 -0.7753  0.0483  0.0347
   79MPD1    H5 1237   3.445   3.164   1.342 -0.2921 -1.9713  1.1417
   79MPD1    N1 1238   3.036   2.935   1.018 -0.8568  0.0077 -0.3259
   79MPD1    H6 1239   3.087   2.947   0.931 -0.9380  0.9964 -0.2296
   79MPD1    H7 1240   2.938   2.956   0.996 -0.5916  0.6798 -0.8448
   80TMC2    C1 1241   2.143   1.676  12.284  0.1908  0.2987  0.9049
   80TMC2    C2 1242   2.227   1.716  12.185  0.9259 -0.0198  0.1341
   80TMC2    C3 1243   2.194   1.687  12.056 -0.7876  0.1044 -0.7155
   80TMC2    C4 1244   2.027   1.605  12.259  0.3488 -0.5574 -0.1576
   80TMC2    C5 1245   1.989   1.589  12.124  0.1765 -0.2935  0.0241
   80TMC2    C6 1246   2.075   1.629  12.023 -0.0425  0.0016 -0.4921
   80TMC2     C 1247   2.159   1.738  12.412 -0.0828 -0.6700  0.6068
   80TMC2     O 1248   2.272   1.725  12.458 -0.0814 -0.4308  0.3554
   80TMC2     H 1249   2.330   1.731  12.213  1.1865 -1.7599  0.1105
   80TMC2    H1 1250   1.962   1.589  12.345  1.1974  0.5998  0.6960
   80TMC2    H2 1251   2.047   1.614  11.919  1.8828  1.5925 -1.2353
   80TMC2    C7 1252   1.854   1.546  12.091  0.2356 -0.2955  0.6887
   80TMC2    C8 1253   2.279   1.730  11.949 -0.5484 -0.4307  0.0823
   80TMC2    O1 1254   1.800   1.586  11.991 -0.5710  0.6078 -0.4591
   80TMC2    O2 1255   2.326   1.645  11.879 -0.8555  0.0346  0.5248
   80TMC2    O5 1256   2.345   1.837  11.991  0.2220  0.0748 -0.0289
   80TMC2    H5 1257   2.288   1.888  12.053  0.0450 -0.1798  0.0178
   81MPD2     C 1258   2.129   1.806  12.693  0.1525  0.7835 -0.3621
   81MPD2    C1 1259   2.052   1.865  12.592  0.5764 -0.3514 -0.8396
   81MPD2    C2 1260   1.962   1.956  12.631  0.4683  0.3528 -0.0636
   81MPD2    C3 1261   1.945   1.993  12.765  0.0151 -0.5869 -0.2275
   81MPD2    C4 1262   2.026   1.934  12.855  0.2147  0.1342 -0.3360
   81MPD2    C5 1263   2.120   1.844  12.823  0.0557  0.1020 -0.2606
   81MPD2     H 1264   1.901   2.001  12.554  0.2867  1.4290  0.7133
   81MPD2    H1 1265   2.010   1.956  12.960  0.0015 -3.0951  0.3185
   81MPD2    H2 1266   2.189   1.718  12.673  0.2405  0.3396  1.9238
   81MPD2    H3 1267   2.164   1.782  12.900 -0.5670 -0.9166 -0.7194
   81MPD2     N 1268   1.843   2.077  12.807  0.6790 -0.5073 -0.2026
   81MPD2    H5 1269   1.832   2.091  12.907  0.7719  0.3592 -0.3140
   81MPD2    N1 1270   2.053   1.814  12.456  0.4386 -0.3530 -0.4249
   81MPD2    H7 1271   1.987   1.851  12.389 -1.1651 -2.4188  0.0498
   82TMC2    C1 1272   0.062   1.305  11.723 -0.2609 -0.6503  0.5112
   82TMC2    C2 1273   0.180   1.301  11.788 -0.4741 -1.2535  0.7961
   82TMC2    C3 1274   0.198   1.202  11.879 -0.2241  0.0206  0.1729
   82TMC2    C4 1275   4.691   1.232  11.754 -0.1207 -0.2564  0.2970
   82TMC2    C5 1276   4.711   1.145  11.859  0.0557  0.0896 -0.1230
   82TMC2    C6 1277   0.094   1.116  11.913 -0.5009 -0.3007 -0.2716
   82TMC2     C 1278   0.048   1.382  11.602  0.1801  0.6504 -0.4285
   82TMC2     O 1279   4.675   1.407  11.553  0.3086 -0.9331  0.1993
   82TMC2     H 1280   0.258   1.376  11.786 -0.1901 -1.5947 -0.6365
   82TMC2    H1 1281   4.599   1.251  11.701  0.1763  0.9651  0.2011
   82TMC2    H2 1282   0.088   1.049  11.998  0.3547  0.5001  0.4186
   82TMC2    C7 1283   4.604   1.064  11.911  0.1648  0.2604 -0.1069
   82TMC2    C8 1284   0.319   1.209  11.968 -0.2017 -0.3043 -0.2845
   82TMC2    O1 1285   4.612   1.035  12.029  0.0831  0.9510  0.2692
   82TMC2    O2 1286   0.318   1.199  12.086  0.3465  0.2390 -0.0413
   82TMC2    O5 1287   0.429   1.229  11.892  0.2938 -0.1799  0.6420
   82TMC2    H5 1288   0.405   1.209  11.799 -0.9307 -1.2215  1.1709
   83MPD2     C 1289   0.295   1.733  11.326  0.5360  0.0864  0.4168
   83MPD2    C1 1290   0.157   1.725  11.349 -0.8490  0.6356 -0.7635
   83MPD2    C2 1291   0.109   1.611  11.428 -0.1544  0.2791 -0.1343
   83MPD2    C3 1292   0.202   1.521  11.474  0.1418 -0.6695 -0.1558
   83MPD2    C4 1293   0.337   1.534  11.453 -0.2765 -0.2006  0.1110
   83MPD2    C5 1294   0.382   1.634  11.369  0.2878 -0.1379 -0.1784
   83MPD2     H 1295   0.008   1.595  11.462  0.3978 -1.8581  0.5215
   83MPD2    H1 1296   0.417   1.466  11.481  1.5276  0.7914 -2.6605
   83MPD2    H2 1297   0.333   1.819  11.271 -1.0588 -0.6470 -1.8388
   83MPD2    H3 1298   0.486   1.632  11.339  0.2624 -0.5887 -0.2309
   83MPD2     N 1299   0.170   1.407  11.552 -0.5784  0.0875 -0.1415
   83MPD2    H5 1300   0.240   1.341  11.584 -0.3650  1.9282  3.1470
   83MPD2    N1 1301   0.081   1.809  11.279  0.1810 -0.6976 -0.3399
   83MPD2    H7 1302   0.119   1.895  11.241 -1.0692  0.0365  0.0640
   84TMC2    C1 1303   0.869   0.917  11.313 -0.5444  0.3612  0.2234
   84TMC2    C2 1304   0.927   0.860  11.422 -0.0971  0.4300  0.2845
   84TMC2    C3 1305   0.939   0.723  11.425  0.0537  0.3368 -0.3316
   84TMC2    C4 1306   0.844   0.849  11.202 -0.0681 -0.3071 -0.0613
   84TMC2    C5 1307   0.843   0.712  11.209 -0.5072 -0.2218  0.7177
   84TMC2    C6 1308   0.895   0.642  11.318 -0.1344  0.1403 -0.2838
   84TMC2     C 1309   0.814   1.049  11.341 -0.0998  0.7430 -0.0242
   84TMC2     O 1310   0.790   1.077  11.456  0.5459  0.2045  0.3795
   84TMC2     H 1311   0.955   0.926  11.503 -1.3127 -1.0956  1.9361
   84TMC2    H1 1312   0.791   0.885  11.115 -0.5196 -2.0708 -0.5195
   84TMC2    H2 1313   0.918   0.537  11.315  2.5943  0.7635 -1.2248
   84TMC2    C7 1314   0.774   0.625  11.114 -0.4846  0.3179  0.1720
   84TMC2    C8 1315   1.003   0.660  11.537 -1.2977 -0.1735 -0.2379
   84TMC2    O1 1316   0.774   0.507  11.135  0.6802  0.3059 -0.2986
   84TMC2    O2 1317   1.070   0.559  11.523 -0.6866 -0.1689  0.0359
   84TMC2    O5 1318   0.939   0.694  11.645 -0.4577 -0.1880 -1.2068
   84TMC2    H5 1319   0.874   0.766  11.634  2.5213  2.4388 -1.4602
   85TMC2    C1 1320   1.112   2.939  15.829 -0.6341 -0.1866  0.1830
   85TMC2    C2 1321   0.996   2.956  15.765  0.4885  0.8009 -0.8400
   85TMC2    C3 1322   0.982   3.073  15.700  0.6278  0.0201  0.3061
   85TMC2    C4 1323   1.206   3.038  15.837 -0.0849  0.4974  0.1088
   85TMC2    C5 1324   1.180   3.160  15.781 -0.0780 -0.1556 -0.4513
   85TMC2    C6 1325   1.065   3.179  15.713  0.4358 -0.4679  0.3138
   85TMC2     C 1326   1.140   2.797  15.847  0.0146 -0.7543 -0.4154
   85TMC2     O 1327   1.055   2.716  15.817 -0.2110 -0.0851 -0.1141
   85TMC2     H 1328   0.930   2.871  15.753  1.2754  0.0046  0.4934
   85TMC2    H1 1329   1.299   3.029  15.893  0.1781  0.3341 -0.3490
   85TMC2    H2 1330   1.032   3.265  15.656  0.2438 -1.9487 -1.8050
   85TMC2    C7 1331   1.269   3.264  15.834 -0.2649 -0.3624 -0.2513
   85TMC2    C8 1332   0.866   3.075  15.618 -0.6133  0.6773 -0.3472
   85TMC2    O1 1333   1.375   3.229  15.871  0.2581 -0.1341 -0.3818
   85TMC2    O2 1334   0.766   3.027  15.669 -0.1277  0.3838 -0.0062
   85TMC2    O5 1335   0.913   3.037  15.505 -0.2072  0.4309  0.6051
   85TMC2    H5 1336   1.006   3.066  15.491  0.1542 -0.5849  0.8352
   86MPD2     C 1337   1.468   2.403  15.908 -0.3500  1.0762  0.5424
   86MPD2    C1 1338   1.328   2.400  15.893 -0.6716 -0.2738  0.5127
   86MPD2    C2 1339   1.261   2.519  15.889  0.3650  0.0359  0.1110
   86MPD2    C3 1340   1.328   2.643  15.882  0.7282 -0.4669  0.1088
   86MPD2    C4 1341   1.461   2.640  15.904  0.0277  0.4204  0.1598
   86MPD2    C5 1342   1.529   2.524  15.921 -0.3601 -0.1270 -0.2331
   86MPD2     H 1343   1.154   2.520  15.873 -0.0849 -1.0806  3.1121
   86MPD2    H1 1344   1.516   2.733  15.906  2.0379 -0.7549 -0.4207
   86MPD2    H2 1345   1.518   2.307  15.921 -1.4476  0.7188  2.0473
   86MPD2    H3 1346   1.637   2.529  15.928 -0.6430  3.7142  1.5504
   86MPD2     N 1347   1.271   2.772  15.869  0.0736  0.2630  0.1339
   86MPD2    H5 1348   1.330   2.850  15.896  1.2978 -0.0078 -1.6784
   86MPD2    N1 1349   1.248   2.285  15.881  0.0594 -0.5371  0.1491
   86MPD2    H7 1350   1.148   2.294  15.861  0.0354 -2.4278 -0.6229
   87TMC2    C1 1351   0.093   1.724   1.413  0.1040 -0.2743  0.1988
   87TMC2    C2 1352   0.152   1.770   1.526 -0.8671 -0.5609  0.2480
   87TMC2    C3 1353   0.068   1.835   1.611  0.5817  0.4308  0.3442
   87TMC2    C4 1354   4.699   1.748   1.371 -0.2158 -0.0029  1.0662
   87TMC2    C5 1355   4.628   1.811   1.466 -0.0168 -0.0680  0.1790
   87TMC2    C6 1356   4.676   1.855   1.585  1.2545  0.7776 -0.2598
   87TMC2     C 1357   0.168   1.656   1.315 -0.1537  0.3026 -0.3252
   87TMC2     O 1358   0.146   1.686   1.198 -0.2319  0.0987 -0.3224
   87TMC2     H 1359   0.257   1.756   1.549 -0.9167 -1.5332 -0.1278
   87TMC2    H1 1360   4.658   1.715   1.276 -0.1723  1.9342  0.3789
   87TMC2    H2 1361   4.612   1.878   1.669 -0.3930  2.3897 -1.9453
   87TMC2    C7 1362   4.486   1.816   1.447  0.2113  0.4967  0.2111
   87TMC2    C8 1363   0.125   1.888   1.735 -0.0917 -0.1913 -0.5263
   87TMC2    O1 1364   4.445   1.753   1.350 -0.2717 -0.7861 -0.3385
   87TMC2    O2 1365   0.241   1.865   1.762  0.0972  0.0346  0.1438
   87TMC2    O5 1366   0.048   1.996   1.777 -0.0953 -0.1738  0.1412
   87TMC2    H5 1367   4.701   2.019   1.733  0.8230 -0.6922 -1.8962
   88MPD2     C 1368   4.219   1.917   1.669 -0.3725 -0.0221 -0.6496
   88MPD2    C1 1369   4.280   1.906   1.548 -0.3374 -0.7021 -0.1407
   88MPD2    C2 1370   4.199   1.893   1.435 -0.1513 -0.2124 -0.1530
   88MPD2    C3 1371   4.063   1.906   1.447 -0.2006 -0.3228 -0.2818
   88MPD2    C4 1372   4.008   1.925   1.572 -0.3045  0.1018  0.6063
   88MPD2    C5 1373   4.084   1.926   1.685 -0.4313  0.3863  0.2817
   88MPD2     H 1374   4.245   1.874   1.338  0.6021 -1.1075  0.3658
   88MPD2    H1 1375   3.905   1.957   1.583 -0.4309  0.1982 -0.8868
   88MPD2    H2 1376   4.286   1.918   1.754 -0.1246  0.5724 -0.8463
   88MPD2    H3 1377   4.044   1.933   1.785  3.0694  0.3512  1.6852
   88MPD2     N 1378   3.997   1.908   1.317 -0.1601  0.1441  0.5422
   88MPD2    H5 1379   4.047   1.899   1.229  0.8178 -2.1621  1.3194
   88MPD2    N1 1380   4.417   1.880   1.547  0.7652  0.0825 -0.2792
   88MPD2    H7 1381   4.472   1.918   1.623 -0.8646  2.6738 -0.3775
   89TMC2    C1 1382   4.662   4.062   1.246  0.3043  0.8491 -0.2446
   89TMC2    C2 1383   4.639   4.055   1.116  0.0714  0.4311 -0.3485
   89TMC2    C3 1384   4.702   4.144   1.030 -0.5086 -0.1328  0.2097
   89TMC2    C4 1385   0.004   4.160   1.299 -0.7904  0.8561  0.2534
   89TMC2    C5 1386   0.067   4.249   1.213 -0.0378 -0.4014  0.7591
   89TMC2    C6 1387   0.042   4.247   1.077 -0.5228  0.0184 -0.3765
   89TMC2     C 1388   4.593   3.977   1.329 -0.2083  1.0041 -0.3472
   89TMC2     O 1389   4.492   3.936   1.277 -0.0996  0.2148 -0.1904
   89TMC2     H 1390   4.574   3.977   1.079 -1.6849  2.3778 -1.3059
   89TMC2    H1 1391   0.006   4.176   1.407  2.1306 -0.3226  0.3671
   89TMC2    H2 1392   0.088   4.316   1.007 -0.0440 -1.3336 -1.3924
   89TMC2    C7 1393   0.154   4.347   1.272  0.5671 -0.3569 -0.1352
   89TMC2    C8 1394   4.686   4.150   0.890  0.0593 -0.2482  0.8062
   89TMC2    O1 1395   0.135   4.376   1.393  0.1796  0.2162  0.3166
   89TMC2    O2 1396   0.027   4.201   0.814 -0.0115  0.4984 -0.1328
   89TMC2    O5 1397   4.553   4.143   0.876  0.0183  0.3027 -0.1760
   89TMC2    H5 1398   4.502   4.102   0.949  1.4945  0.4753  0.9417
   90MPD2     C 1399   4.477   3.713   1.761 -0.6154  0.6297 -0.6777
   90MPD2    C1 1400   4.393   3.752   1.654  0.2938  0.7499  1.1198
   90MPD2    C2 1401   4.451   3.822   1.552 -0.5838  0.1748 -0.5272
   90MPD2    C3 1402   4.586   3.866   1.550  0.6725  0.4525 -0.1364
   90MPD2    C4 1403   4.662   3.840   1.664 -0.0271 -0.7833  0.3673
   90MPD2    C5 1404   4.604   3.755   1.756 -0.2824 -0.6194  0.3960
   90MPD2     H 1405   4.396   3.852   1.464 -2.0664 -0.1101  0.2999
   90MPD2    H1 1406   0.027   3.868   1.679  0.1694 -2.2300  1.7223
   90MPD2    H2 1407   4.448   3.649   1.844  1.2901 -0.2050 -0.6595
   90MPD2    H3 1408   4.668   3.738   1.842 -0.1990  0.8370  0.6319
   90MPD2     N 1409   4.648   3.945   1.449  0.4343  0.4703  0.4490
   90MPD2    H5 1410   4.738   3.977   1.482  1.1357 -1.1187  0.0719
   90MPD2    N1 1411   4.257   3.726   1.644 -0.3823  0.1002  0.2466
   90MPD2    H7 1412   4.210   3.755   1.560 -1.6067  0.7845  1.1663
   91TMC2    C1 1413   1.430   4.107  16.174 -0.2259 -0.4720 -0.6232
   91TMC2    C2 1414   1.456   4.129  16.304 -0.4572 -0.4093  0.1283
   91TMC2    C3 1415   1.359   4.115  16.395 -0.4491  0.1419  0.0453
   91TMC2    C4 1416   1.312   4.075  16.132 -0.4369 -0.8503 -0.2638
   91TMC2    C5 1417   1.219   4.048  16.232  0.0271  0.0224  0.3884
   91TMC2    C6 1418   1.242   4.058  16.366  0.6650  0.2722 -0.8723
   91TMC2     C 1419   1.536   4.053  16.095  0.5182 -0.0731 -0.3404
   91TMC2     O 1420   1.516   4.015  15.978 -0.0639 -0.1349 -0.9022
   91TMC2     H 1421   1.555   4.154  16.341 -0.1136 -1.1016 -0.3290
   91TMC2    H1 1422   1.288   4.035  16.034 -0.5288  1.1107 -1.0426
   91TMC2    H2 1423   1.162   4.060  16.439  0.6196  1.7493 -0.9625
   91TMC2    C7 1424   1.084   4.006  16.191 -0.2778 -0.6854 -0.1230
   91TMC2    C8 1425   1.391   4.166  16.527 -0.0492 -0.1624 -0.2915
   91TMC2    O1 1426   1.019   3.947  16.277 -0.0889 -0.3426 -0.2443
   91TMC2    O2 1427   1.443   4.273  16.553  0.1524  0.2898  0.3737
   91TMC2    O5 1428   1.351   4.078  16.621  0.3150 -0.3717 -0.0642
   91TMC2    H5 1429   1.310   3.993  16.593  0.0479  0.1329 -1.2266
   92MPD2     C 1430   1.807   4.046  15.967  0.1097  0.4062  0.5687
   92MPD2    C1 1431   1.786   4.035  16.101 -0.8898 -0.2385 -0.0121
   92MPD2    C2 1432   1.901   4.029  16.178  0.5688  0.1903 -0.6052
   92MPD2    C3 1433   2.023   4.030  16.114  0.1200  0.1759 -0.9451
   92MPD2    C4 1434   2.038   4.025  15.975  0.0598 -0.9514  0.0352
   92MPD2    C5 1435   1.925   4.039  15.901  0.0049  0.0113  0.3751
   92MPD2     H 1436   1.885   4.025  16.285  0.4627  2.1689 -0.5484
   92MPD2    H1 1437   2.132   4.019  15.921 -1.3684  0.1183 -2.6085
   92MPD2    H2 1438   1.717   4.056  15.907  1.1521  0.7371 -0.9404
   92MPD2    H3 1439   1.926   4.047  15.793  0.9323  2.3172  0.5597
   92MPD2     N 1440   2.143   4.020  16.191  0.2472  0.5516 -0.0610
   92MPD2    H5 1441   2.137   3.989  16.287  0.0154  1.7068  0.3023
   92MPD2    N1 1442   1.657   4.047  16.165  0.2997  0.1148 -0.5669
   92MPD2    H7 1443   1.664   4.068  16.264  4.2531  1.0226 -1.0331
   93TMC2    C1 1444   4.123   4.258  13.941  0.2452 -0.6437  0.1105
   93TMC2    C2 1445   4.208   4.177  14.004  0.3362 -1.1622 -0.3079
   93TMC2    C3 1446   4.300   4.244  14.081 -0.2977 -0.0314 -0.1195
   93TMC2    C4 1447   4.125   4.394  13.949 -0.8117  0.1035  0.4423
   93TMC2    C5 1448   4.221   4.456  14.026  0.4424  0.0337 -0.1870
   93TMC2    C6 1449   4.312   4.378  14.091 -0.2304  0.2896 -0.5671
   93TMC2     C 1450   4.003   4.202  13.876  0.1474  0.0423 -0.2917
   93TMC2     O 1451   3.913   4.279  13.841 -0.3720 -0.0194 -0.9703
   93TMC2     H 1452   4.215   4.069  13.995  1.4753 -1.0479 -0.8963
   93TMC2    H1 1453   4.054   4.445  13.884  0.9336  0.4265 -1.2156
   93TMC2    H2 1454   4.401   4.422  14.134 -1.2850 -0.1505  2.0486
   93TMC2    C7 1455   4.286   4.565  13.959 -0.7009  0.4694 -0.1742
   93TMC2    C8 1456   4.403   4.165  14.149  0.2834 -0.9365  0.1416
   93TMC2    O1 1457   4.273   4.571  13.836  0.3968  0.5407  0.2019
   93TMC2    O2 1458   4.429   4.049  14.135 -0.4319  0.0528  0.1472
   93TMC2    O5 1459   4.447   4.233  14.258 -0.0177 -0.2112  0.1957
   93TMC2    H5 1460   4.428   4.329  14.273 -0.0836  0.0898 -1.8394
   94MPD2     C 1461   3.914   3.847  13.829 -0.4236  0.2022 -0.2728
   94MPD2    C1 1462   3.897   3.979  13.852 -0.5837 -0.3552 -0.6200
   94MPD2    C2 1463   3.767   4.022  13.851 -0.3194 -0.2801 -0.3621
   94MPD2    C3 1464   3.658   3.934  13.844 -0.0344 -0.9626  0.1351
   94MPD2    C4 1465   3.683   3.799  13.845  0.2212 -0.4642  0.7221
   94MPD2    C5 1466   3.815   3.753  13.830  0.6966 -0.2527 -0.6557
   94MPD2     H 1467   3.747   4.128  13.849  1.1463 -0.0146 -1.1486
   94MPD2    H1 1468   3.604   3.725  13.840 -1.8006  1.6688  1.3917
   94MPD2    H2 1469   4.012   3.813  13.798  1.3632  4.2230  0.9050
   94MPD2    H3 1470   3.831   3.650  13.800  2.6329 -0.1549  0.0089
   94MPD2     N 1471   3.523   3.963  13.856  0.1934 -1.0250 -0.1445
   94MPD2    H5 1472   3.456   3.887  13.855 -0.4180 -0.5016  0.3721
   94MPD2    N1 1473   4.011   4.062  13.863 -1.0255  0.3599 -0.2518
   94MPD2    H7 1474   4.104   4.021  13.855 -0.4167  1.2570  2.4699
   95TMC2    C1 1475   3.835   0.301  15.733 -0.4267  0.5858 -0.2131
   95TMC2    C2 1476   3.867   0.198  15.655  0.0302 -0.8807  0.0966
   95TMC2    C3 1477   3.875   0.085  15.726  0.0151 -0.3704 -0.0856
   95TMC2    C4 1478   3.796   0.305  15.864  0.2492 -0.2029  0.9457
   95TMC2    C5 1479   3.797   0.185  15.925  0.2198 -1.3323 -0.3534
   95TMC2    C6 1480   3.831   0.076  15.853 -0.0475  0.1107  0.1960
   95TMC2     C 1481   3.833   0.424  15.656  0.0049 -0.6764 -0.3017
   95TMC2     O 1482   3.871   0.527  15.713 -0.6924 -0.4858 -0.2071
   95TMC2     H 1483   3.904   0.195  15.554  0.4730 -0.2942  0.2465
   95TMC2    H1 1484   3.796   0.404  15.908 -0.5814 -0.1829  0.9020
   95TMC2    H2 1485   3.839   4.717  15.899 -0.8611 -0.1475 -0.2217
   95TMC2    C7 1486   3.786   0.174  16.065  0.6770  0.0597  0.2802
   95TMC2    C8 1487   3.945   4.713  15.667 -0.4527  0.6223  1.1192
   95TMC2    O1 1488   3.811   0.066  16.117 -0.5052  0.6284 -0.2086
   95TMC2    O2 1489   4.042   4.727  15.587  0.0433  0.5871  0.0029
   95TMC2    O5 1490   3.861   4.611  15.671 -0.0519  0.8830  0.6571
   95TMC2    H5 1491   3.787   4.622  15.735  0.3405 -0.0224  1.2635
   96MPD2     C 1492   3.769   0.631  15.193  0.4083  0.4321 -0.3199
   96MPD2    C1 1493   3.824   0.682  15.306 -0.4142  0.2259  0.0568
   96MPD2    C2 1494   3.831   0.610  15.423  0.0366 -0.6206  0.0141
   96MPD2    C3 1495   3.772   0.485  15.426 -0.1854  0.0449  0.3546
   96MPD2    C4 1496   3.709   0.432  15.316  0.5902  0.3629 -0.2393
   96MPD2    C5 1497   3.707   0.511  15.197 -0.6888  0.6002 -0.1327
   96MPD2     H 1498   3.881   0.652  15.509  0.3027  0.7492 -0.8007
   96MPD2    H1 1499   3.675   0.330  15.303  2.7511 -0.4306  0.3978
   96MPD2    H2 1500   3.777   0.674  15.094 -0.5956  0.0992 -0.5526
   96MPD2    H3 1501   3.659   0.466  15.110  1.4979 -1.6713 -0.1827
   96MPD2     N 1502   3.768   0.402  15.537  0.1437  0.7953  0.1889
   96MPD2    H5 1503   3.714   0.316  15.532 -0.8566  1.4513 -0.3882
   96MPD2    N1 1504   3.877   0.814  15.297 -0.1791 -0.0455 -0.0400
   96MPD2    H7 1505   3.879   0.858  15.205  1.4707  2.4853  1.2215
   97TMC2    C1 1506   1.634   3.300  17.692 -0.4707  0.1070 -0.5423
   97TMC2    C2 1507   1.603   3.265  17.568 -0.2410 -0.1097 -0.2727
   97TMC2    C3 1508   1.635   3.350  17.469 -0.1206 -0.4621  0.2010
   97TMC2    C4 1509   1.704   3.415  17.721  0.6418  0.4225 -0.5847
   97TMC2    C5 1510   1.729   3.498  17.618 -0.1049  0.1080  0.3762
   97TMC2    C6 1511   1.696   3.468  17.494  0.3024 -0.5165 -0.4639
   97TMC2     C 1512   1.564   3.224   0.046  0.0701  0.2053 -0.6100
   97TMC2     O 1513   1.509   3.124   0.007  0.5819  0.5444  0.0889
   97TMC2     H 1514   1.564   3.167  17.542  0.9349 -0.5037 -0.5551
   97TMC2    H1 1515   1.743   3.442   0.067  0.8122 -1.0596 -0.2428
   97TMC2    H2 1516   1.723   3.524  17.405  1.4740 -2.5454 -1.3741
   97TMC2    C7 1517   1.791   3.631  17.645  0.2419 -0.3654 -0.0922
   97TMC2    C8 1518   1.687   3.291  17.351  0.1419 -0.1738 -0.1334
   97TMC2    O1 1519   1.868   3.648  17.740  0.3736  0.1495 -0.4103
   97TMC2    O2 1520   1.801   3.320  17.321  0.2382  0.7424 -0.2801
   97TMC2    O5 1521   1.608   3.191  17.312  0.0614 -0.0867 -0.2167
   97TMC2    H5 1522   1.518   3.188  17.351  0.2927  0.4970  0.3552
   98MPD2     C 1523   1.316   3.149   0.482 -0.7011 -0.2348  0.1375
   98MPD2    C1 1524   1.349   3.064   0.381 -0.0022  0.1497  0.0474
   98MPD2    C2 1525   1.431   3.107   0.282  0.7341 -0.2322 -0.1756
   98MPD2    C3 1526   1.471   3.239   0.268  0.8840 -0.2924  0.5884
   98MPD2    C4 1527   1.439   3.327   0.367  0.0589 -0.1633 -0.0019
   98MPD2    C5 1528   1.365   3.278   0.473 -0.1566 -0.6010 -0.0787
   98MPD2     H 1529   1.461   3.029   0.213  0.9619  0.6387 -1.0587
   98MPD2    H1 1530   1.462   3.431   0.350  1.4065 -0.5359 -0.4260
   98MPD2    H2 1531   1.264   3.121   0.573 -1.1164 -1.9962 -0.6297
   98MPD2    H3 1532   1.351   3.354   0.550  0.4599  0.7620 -1.3208
   98MPD2     N 1533   1.548   3.288   0.157  0.6432  0.0373  0.4995
   98MPD2    H5 1534   1.577   3.384   0.170 -1.5860  0.9471 -1.1715
   98MPD2    N1 1535   1.311   2.926   0.401  0.0451  0.6186  0.4012
   98MPD2    H7 1536   1.255   2.916   0.486  5.2698 -1.4604  3.5945
   99TMC2    C1 1537   0.091   0.110   1.731  0.1108  0.1569  0.1208
   99TMC2    C2 1538   0.200   0.124   1.807  0.1085 -0.0477 -0.6500
   99TMC2    C3 1539   0.185   0.201   1.923  0.4295 -0.3719 -0.5780
   99TMC2    C4 1540   4.713   0.179   1.763 -0.2376 -0.3970 -0.5810
   99TMC2    C5 1541   4.698   0.241   1.883  0.5717  0.0736 -0.3716
   99TMC2    C6 1542   0.063   0.255   1.964 -0.8297 -0.9976  0.2022
   99TMC2     C 1543   0.125   0.088   1.590  0.0059 -0.1793  0.4585
   99TMC2     O 1544   0.246   0.070   1.565 -0.0242 -0.3912  0.0325
   99TMC2     H 1545   0.296   0.084   1.776  0.1814 -0.3884  0.0409
   99TMC2    H1 1546   4.625   0.194   1.701  0.8537  0.3762 -1.9442
   99TMC2    H2 1547   0.056   0.302   2.062 -0.1765 -1.1010  0.2989
   99TMC2    C7 1548   4.588   0.340   1.912  0.1021 -0.4166 -0.3934
   99TMC2    C8 1549   0.295   0.221   2.014  0.2436 -0.3542 -0.1434
   99TMC2    O1 1550   4.622   0.446   1.964 -0.3934  0.9623  0.1720
   99TMC2    O2 1551   0.295   0.307   2.097 -0.1037  0.0543  0.8790
   99TMC2    O5 1552   0.364   0.104   2.018  0.0053  0.1672  0.2879
   99TMC2    H5 1553   0.343   0.032   1.955 -1.3354 -0.7016  1.7199
  100MPD2     C 1554   0.133   0.092   1.299  0.6793  0.2696  0.1227
  100MPD2    C1 1555   0.021   0.067   1.369 -0.7723  1.1632 -0.1719
  100MPD2    C2 1556   4.657   0.017   1.293 -1.0277  0.1223  0.2442
  100MPD2    C3 1557   4.666   4.727   1.155 -0.5871  0.8253  0.6921
  100MPD2    C4 1558   0.034   0.040   1.083  0.4262  0.1339 -0.2878
  100MPD2    C5 1559   0.143   0.082   1.164 -0.2339 -0.0815 -0.0736
  100MPD2     H 1560   4.571   4.716   1.347 -0.4932 -1.4265 -0.0201
  100MPD2    H1 1561   0.044   0.037   0.976  0.5896 -0.9617 -0.2481
  100MPD2    H2 1562   0.227   0.121   1.345  0.4570 -0.9452  1.3252
  100MPD2    H3 1563   0.233   0.114   1.113 -0.4691  1.6180  0.5568
  100MPD2     N 1564   4.565   4.645   1.098 -0.1074  0.3537 -0.3090
  100MPD2    H5 1565   4.505   4.602   1.168  0.5873  1.4644  0.9743
  100MPD2    N1 1566   0.013   0.082   1.510 -0.0971  0.0034 -0.3032
  100MPD2    H7 1567   4.662   0.065   1.555  0.5119  0.1653  0.9534
  101TMC2    C1 1568   0.694   2.067  12.728 -0.9021 -0.2854  0.3705
  101TMC2    C2 1569   0.619   2.044  12.611 -0.2643 -0.5267  0.3226
  101TMC2    C3 1570   0.621   2.145  12.517  0.7117 -0.0860  0.0632
  101TMC2    C4 1571   0.761   2.190  12.750  0.0398  0.3757  0.0551
  101TMC2    C5 1572   0.745   2.290  12.659 -0.0232  0.3126  0.3227
  101TMC2    C6 1573   0.688   2.266  12.535 -0.0817  0.5251  0.1201
  101TMC2     C 1574   0.683   1.971  12.834  0.2458 -0.2150 -0.2115
  101TMC2     O 1575   0.616   1.869  12.817 -0.2171  0.2559  0.1789
  101TMC2     H 1576   0.559   1.954  12.605  0.1628 -0.8599  1.0050
  101TMC2    H1 1577   0.819   2.222  12.836  2.5020 -0.4093 -1.2790
  101TMC2    H2 1578   0.677   2.340  12.456  0.1746  0.3533 -0.0767
  101TMC2    C7 1579   0.846   2.400  12.664  0.3905  0.7469  0.0535
  101TMC2    C8 1580   0.567   2.126  12.388  0.2089  0.5584 -0.1670
  101TMC2    O1 1581   0.936   2.388  12.750 -0.6363 -0.3071 -0.0652
  101TMC2    O2 1582   0.538   2.216  12.314  0.2969 -0.6802 -0.0552
  101TMC2    O5 1583   0.570   1.997  12.359  0.1051  0.2398 -0.0124
  101TMC2    H5 1584   0.621   1.946  12.426 -1.5402  1.4890  2.2165
  102MPD2     C 1585   0.886   1.952  13.150 -0.5527  0.0650 -0.0516
  102MPD2    C1 1586   0.774   1.931  13.061  0.2377 -0.5768 -0.1342
  102MPD2    C2 1587   0.662   1.858  13.111 -0.6613 -0.3256  0.2520
  102MPD2    C3 1588   0.666   1.817  13.239 -0.2862  0.3049  0.7609
  102MPD2    C4 1589   0.775   1.833  13.324  0.4688  0.5786  0.2784
  102MPD2    C5 1590   0.879   1.908  13.273 -0.2642 -0.1286  0.1797
  102MPD2     H 1591   0.569   1.841  13.059 -0.3147 -0.8712 -0.1889
  102MPD2    H1 1592   0.793   1.795  13.424  1.2971  0.7556  0.1943
  102MPD2    H2 1593   0.978   2.002  13.121  0.0359  0.7803  3.0383
  102MPD2    H3 1594   0.959   1.934  13.341  1.5286 -0.7286 -1.7271
  102MPD2     N 1595   0.544   1.763  13.280 -0.4865  0.7238 -0.0239
  102MPD2    H5 1596   0.488   1.724  13.205  0.7786 -0.0658 -0.5533
  102MPD2    N1 1597   0.774   1.997  12.937 -0.0499  0.0174  0.0305
  102MPD2    H7 1598   0.842   2.068  12.912  0.7209 -1.1919 -1.3380
  103TMC2    C1 1599   3.322   2.398  12.262  0.7073 -0.1164 -0.1182
  103TMC2    C2 1600   3.375   2.497  12.191 -0.1158  0.3541 -0.1668
  103TMC2    C3 1601   3.508   2.530  12.205  0.1484  0.3153 -0.3308
  103TMC2    C4 1602   3.391   2.341  12.369  0.7848  0.2679  0.1227
  103TMC2    C5 1603   3.514   2.393  12.403 -0.3981  0.3759  0.5002
  103TMC2    C6 1604   3.577   2.490  12.320  0.0626 -0.6221  0.2040
  103TMC2     C 1605   3.173   2.392  12.259 -0.1806  0.1016  0.0901
  103TMC2     O 1606   3.112   2.487  12.206  0.2134 -0.1760 -0.5130
  103TMC2     H 1607   3.320   2.533  12.104  1.5078  0.9769 -0.9336
  103TMC2    H1 1608   3.341   2.268  12.432  1.6073 -0.7174 -0.3628
  103TMC2    H2 1609   3.659   2.551  12.355 -0.1584  0.2314 -0.7426
  103TMC2    C7 1610   3.583   2.320  12.499  0.5959 -0.2259 -0.0888
  103TMC2    C8 1611   3.551   2.656  12.137 -0.4987  0.1822 -0.4528
  103TMC2    O1 1612   3.525   2.238  12.573  0.5063 -0.0946  0.2755
  103TMC2    O2 1613   3.463   2.714  12.070  0.4243  1.1863  0.5243
  103TMC2    O5 1614   3.681   2.647  12.103  0.0217 -0.2180  0.2756
  103TMC2    H5 1615   3.722   2.569  12.146 -0.5852 -1.0417 -0.6407
  104MPD2     C 1616   2.954   2.174  12.471 -0.3626  0.3747  0.2024
  104MPD2    C1 1617   2.990   2.284  12.392 -0.7006 -0.3511 -0.2850
  104MPD2    C2 1618   2.886   2.376  12.370  0.2388  0.4974 -0.9584
  104MPD2    C3 1619   2.764   2.372  12.437 -0.1253 -0.4266 -0.2842
  104MPD2    C4 1620   2.745   2.278  12.542  0.7174 -0.5187 -0.0480
  104MPD2    C5 1621   2.838   2.175  12.551 -0.0677  0.5526 -0.1728
  104MPD2     H 1622   2.901   2.455  12.299  0.4596  2.0240  0.7851
  104MPD2    H1 1623   2.662   2.284  12.612 -0.6351  1.0609 -1.7914
  104MPD2    H2 1624   3.024   2.093  12.492  1.0661  1.6016  0.1528
  104MPD2    H3 1625   2.809   2.097  12.621 -0.5281  0.6592 -0.2483
  104MPD2     N 1626   2.665   2.473  12.410 -0.5289 -0.0149  0.0907
  104MPD2    H5 1627   2.676   2.538  12.333 -0.9402  1.7774  1.5392
  104MPD2    N1 1628   3.125   2.294  12.341  0.0474  0.3070 -0.2637
  104MPD2    H7 1629   3.193   2.225  12.370 -1.5716 -1.3857 -0.4583
  105TMC2    C1 1630   0.327   1.148   0.521  0.0163  0.9755  0.8312
  105TMC2    C2 1631   0.218   1.224   0.486  0.3207 -0.5998  0.2858
  105TMC2    C3 1632   0.184   1.320   0.579  0.2631 -0.0906  0.0222
  105TMC2    C4 1633   0.397   1.171   0.640  0.1874 -0.3200  0.5205
  105TMC2    C5 1634   0.360   1.273   0.722  0.1472  0.5847 -0.0951
  105TMC2    C6 1635   0.252   1.345   0.692  0.5239  0.2782 -0.0687
  105TMC2     C 1636   0.365   1.034   0.448 -0.0347 -0.2313 -0.2102
  105TMC2     O 1637   0.428   0.949   0.505 -0.0693  0.0002 -0.6075
  105TMC2     H 1638   0.152   1.200   0.403 -1.4790  1.0310  1.2541
  105TMC2    H1 1639   0.490   1.119   0.656 -0.2373 -1.8834 -2.0816
  105TMC2    H2 1640   0.227   1.434   0.750  0.1279 -0.0937  0.3284
  105TMC2    C7 1641   0.414   1.262   0.858  0.7791 -0.0813  0.2020
  105TMC2    C8 1642   0.052   1.385   0.573 -0.2401  0.3855  0.1154
  105TMC2    O1 1643   0.511   1.190   0.871 -0.1683  0.0793 -0.0797
  105TMC2    O2 1644   0.015   1.494   0.617  0.0542 -0.1523  0.4924
  105TMC2    O5 1645   4.713   1.279   0.539  0.5066 -0.2776  0.4658
  105TMC2    H5 1646   0.014   1.190   0.541 -0.0676 -0.5816 -1.9194
  106MPD2     C 1647   0.394   0.732   0.033 -0.3208  0.3585  0.0088
  106MPD2    C1 1648   0.378   0.861  17.746 -0.7032  0.2319  0.3084
  106MPD2    C2 1649   0.368   0.963   0.086 -0.1405  0.2250  0.0720
  106MPD2    C3 1650   0.357   0.931   0.221  0.3251 -0.1594 -0.6010
  106MPD2    C4 1651   0.374   0.801   0.261 -0.4244  0.5212  0.0543
  106MPD2    C5 1652   0.400   0.696   0.166 -0.1095  0.0428  0.4146
  106MPD2     H 1653   0.370   1.067   0.056  0.5076  0.3383  0.5133
  106MPD2    H1 1654   0.371   0.773   0.365 -1.2065 -1.8712 -0.6048
  106MPD2    H2 1655   0.392   0.648  17.716 -0.9198 -1.8566  2.7396
  106MPD2    H3 1656   0.392   0.594   0.202  1.2105 -0.7469 -1.5535
  106MPD2     N 1657   0.329   1.039   0.315 -0.3333  0.4306 -0.9450
  106MPD2    H5 1658   0.303   1.131   0.280 -2.8277  0.3433  0.6688
  106MPD2    N1 1659   0.373   0.914  17.613 -0.0419  0.4459  0.5470
  106MPD2    H7 1660   0.359   1.014  17.612 -1.4631  0.2234 -0.9862
  107TMC2    C1 1661   0.607   1.820  11.726 -0.4919  0.3009  0.8221
  107TMC2    C2 1662   0.700   1.766  11.813  0.3488  0.0772 -0.3192
  107TMC2    C3 1663   0.822   1.723  11.760  1.0809  0.7081  0.2896
  107TMC2    C4 1664   0.633   1.841  11.590 -1.1345 -0.0985  0.0795
  107TMC2    C5 1665   0.747   1.787  11.544 -0.0457 -0.5735 -0.0034
  107TMC2    C6 1666   0.844   1.730  11.626 -0.7307 -0.2207 -0.2475
  107TMC2     C 1667   0.473   1.812  11.778 -0.0479  0.1993 -0.3822
  107TMC2     O 1668   0.467   1.751  11.882 -0.6606 -0.3919 -0.3725
  107TMC2     H 1669   0.682   1.751  11.919  0.4112 -2.2560 -0.6396
  107TMC2    H1 1670   0.553   1.856  11.518 -2.4726  0.2951  1.6549
  107TMC2    H2 1671   0.927   1.674  11.584  0.6855  2.3536 -0.8551
  107TMC2    C7 1672   0.728   1.714  11.417 -0.2240  0.0176  0.0292
  107TMC2    C8 1673   0.928   1.674  11.851  0.3022  0.0949 -0.2761
  107TMC2    O1 1674   0.683   1.787  11.330  0.6011  0.1426 -0.3144
  107TMC2    O2 1675   0.919   1.623  11.961 -0.2157 -0.6423  0.3268
  107TMC2    O5 1676   1.035   1.725  11.796 -0.7103  0.0278  0.0174
  107TMC2    H5 1677   1.016   1.771  11.711 -4.1509 -0.3511  0.5975
  108MPD2     C 1678   0.163   1.942  11.624 -0.0754 -0.0541 -0.1862
  108MPD2    C1 1679   0.242   1.857  11.701  0.0020 -0.2759 -0.5429
  108MPD2    C2 1680   0.183   1.763  11.787 -0.5407 -0.0026 -0.5489
  108MPD2    C3 1681   0.049   1.737  11.787 -0.4233 -0.1848  1.1513
  108MPD2    C4 1682   4.711   1.807  11.696  0.6999  0.5513 -0.1775
  108MPD2    C5 1683   0.033   1.900  11.613 -0.3111  0.8788 -0.4565
  108MPD2     H 1684   0.257   1.707  11.842 -0.1734  0.3238 -0.7135
  108MPD2    H1 1685   4.610   1.777  11.671  1.6862 -1.5158 -1.6856
  108MPD2    H2 1686   0.209   2.021  11.564 -0.3093  0.3212  0.1250
  108MPD2    H3 1687   4.717   1.956  11.537  2.2498  0.4438 -2.6076
  108MPD2     N 1688   4.725   1.644  11.878 -0.0926 -0.3679  0.6857
  108MPD2    H5 1689   4.626   1.620  11.880 -0.3180  0.5619  0.3284
  108MPD2    N1 1690   0.379   1.868  11.695 -0.9211  0.1141  0.3414
  108MPD2    H7 1691   0.426   1.934  11.633 -0.0405  1.7731  2.7678
  109TMC2    C1 1692   0.168   2.537  17.509 -0.7755  0.2617  0.1733
  109TMC2    C2 1693   0.148   2.519  17.379  0.0338 -0.3366  0.3584
  109TMC2    C3 1694   0.262   2.507  17.301  0.2371 -0.8419  0.0122
  109TMC2    C4 1695   0.291   2.544  17.576 -0.1191  0.4505 -0.3617
  109TMC2    C5 1696   0.402   2.524  17.493  0.1477 -0.1915 -0.0975
  109TMC2    C6 1697   0.391   2.516  17.354 -0.6667  0.1209 -0.1030
  109TMC2     C 1698   0.039   2.576  17.577  0.1037 -0.6359 -0.4030
  109TMC2     O 1699   4.688   2.615  17.502  0.9807 -0.3480 -0.2265
  109TMC2     H 1700   0.051   2.511  17.332  0.3126 -3.3539  0.3316
  109TMC2    H1 1701   0.293   2.566  17.682 -1.9965 -0.4197 -0.1557
  109TMC2    H2 1702   0.479   2.511  17.290 -1.6882  0.3270 -1.5375
  109TMC2    C7 1703   0.526   2.507  17.567  0.1094  0.2263  0.0009
  109TMC2    C8 1704   0.237   2.503  17.155 -0.5782 -0.2684 -0.1414
  109TMC2    O1 1705   0.505   2.496  17.687  1.0712 -0.1783 -0.2465
  109TMC2    O2 1706   0.129   2.527  17.100 -0.2316 -0.2485 -0.3204
  109TMC2    O5 1707   0.349   2.455  17.098  0.1075 -0.2068 -0.0756
  109TMC2    H5 1708   0.436   2.433  17.138  1.0865  0.8232 -1.6078
  110MPD2     C 1709   4.466   2.681   0.217 -0.2463  0.3841  0.6758
  110MPD2    C1 1710   4.598   2.673   0.267 -1.1748 -0.6137  0.2694
  110MPD2    C2 1711   4.700   2.628   0.191 -0.3901 -0.1073  0.2530
  110MPD2    C3 1712   4.676   2.609   0.053 -0.3798  0.3215  0.3354
  110MPD2    C4 1713   4.550   2.600   0.011 -0.2515  0.2658  0.5420
  110MPD2    C5 1714   4.445   2.636   0.092 -0.7391  0.4874 -0.6381
  110MPD2     H 1715   0.064   2.651   0.219 -0.2103 -1.1276  0.4342
  110MPD2    H1 1716   4.527   2.560  17.664 -1.6526  1.8894  0.2119
  110MPD2    H2 1717   4.380   2.713   0.275 -0.5683 -0.5515  0.7078
  110MPD2    H3 1718   4.345   2.627   0.050  0.2131  0.8611 -2.9601
  110MPD2     N 1719   0.041   2.582  17.716  0.0516  0.2501 -0.0021
  110MPD2    H5 1720   0.130   2.556   0.006  0.1837 -0.8064 -0.9303
  110MPD2    N1 1721   4.612   2.712   0.406 -0.2129  0.4669  0.7814
  110MPD2    H7 1722   4.528   2.751   0.448 -0.1362  2.0486 -0.5524
  111TMC2    C1 1723   1.606   3.112  11.674  0.2766  0.4765  0.0426
  111TMC2    C2 1724   1.719   3.132  11.601 -0.2980  1.3615  0.2255
  111TMC2    C3 1725   1.840   3.102  11.653  0.0634 -0.7209  0.1711
  111TMC2    C4 1726   1.614   3.092  11.814  0.3745 -0.6061  0.1206
  111TMC2    C5 1727   1.743   3.084  11.867 -0.5117 -0.4809 -0.5908
  111TMC2    C6 1728   1.853   3.082  11.788 -0.3286  0.2549 -0.1620
  111TMC2     C 1729   1.476   3.135  11.612 -0.6195  0.2238  0.0552
  111TMC2     O 1730   1.479   3.160  11.491 -0.5325 -0.3151 -0.1169
  111TMC2     H 1731   1.709   3.171  11.500 -2.5275  1.1405  0.3604
  111TMC2    H1 1732   1.537   3.093  11.891  0.7599  1.8165  0.4852
  111TMC2    H2 1733   1.952   3.059  11.825 -0.0085 -0.5436 -1.5163
  111TMC2    C7 1734   1.754   3.036  12.009 -0.6801  0.5573  0.0526
  111TMC2    C8 1735   1.959   3.130  11.576  0.3936  0.4927  0.2909
  111TMC2    O1 1736   1.653   3.001  12.068  0.0437 -0.6199  0.1444
  111TMC2    O2 1737   2.060   3.171  11.631  0.2471  0.8865 -0.0552
  111TMC2    O5 1738   1.922   3.165  11.449 -0.5795 -0.7914  0.1136
  111TMC2    H5 1739   1.834   3.132  11.420 -0.5756 -0.0180 -0.7790
  112MPD2     C 1740   0.970   3.226  11.618 -0.7676  0.0613 -0.1115
  112MPD2    C1 1741   1.069   3.289  11.543 -0.1207 -0.3484  0.1405
  112MPD2    C2 1742   1.201   3.247  11.554  0.2599  0.1257  0.6766
  112MPD2    C3 1743   1.236   3.155  11.646  0.7736  0.1800 -0.4213
  112MPD2    C4 1744   1.137   3.106  11.735 -0.4155 -0.3039 -0.5676
  112MPD2    C5 1745   1.006   3.135  11.718  0.6163  0.7230  0.3741
  112MPD2     H 1746   1.282   3.286  11.492 -1.3615 -1.4403 -2.3752
  112MPD2    H1 1747   1.159   3.042  11.820  0.8463  2.7905  1.4186
  112MPD2    H2 1748   0.864   3.250  11.622 -1.0616 -1.5162  1.5848
  112MPD2    H3 1749   0.936   3.080  11.780  1.0086  1.9121  1.8669
  112MPD2     N 1750   1.367   3.117  11.686 -0.1147  0.6061 -0.0319
  112MPD2    H5 1751   1.368   3.055  11.767 -2.2498  1.8223  0.9097
  112MPD2    N1 1752   1.043   3.394  11.452  0.6263 -0.3129  0.1438
  112MPD2    H7 1753   1.123   3.432  11.402  0.9695 -0.9941  0.1716
  113TMC2    C1 1754   3.567   0.111   1.281  1.4436  0.1626  0.0123
  113TMC2    C2 1755   3.465   0.178   1.332  0.5674  1.1842 -0.5498
  113TMC2    C3 1756   3.341   0.124   1.336  0.6465 -0.2680 -0.3013
  113TMC2    C4 1757   3.537   4.728   1.220  0.1952 -0.1477 -0.3875
  113TMC2    C5 1758   3.410   4.670   1.227 -0.8337  0.1769 -0.5514
  113TMC2    C6 1759   3.305   0.004   1.284  0.1250 -0.6723  0.5208
  113TMC2     C 1760   3.698   0.155   1.331  0.4401  0.2235 -0.3287
  113TMC2     O 1761   3.711   0.263   1.385  0.4812  0.1589  0.5687
  113TMC2     H 1762   3.474   0.281   1.364  3.3798  1.0673 -1.0185
  113TMC2    H1 1763   3.621   4.670   1.183  1.0343  1.1402 -0.5003
  113TMC2    H2 1764   3.202   4.710   1.287  0.2949 -1.2404  0.1164
  113TMC2    C7 1765   3.372   4.585   1.120 -0.0584  0.5249 -0.3414
  113TMC2    C8 1766   3.236   0.220   1.362  0.1861  0.5425  0.5011
  113TMC2    O1 1767   3.464   4.566   1.043 -0.6008  0.0018 -0.0048
  113TMC2    O2 1768   3.237   0.339   1.341 -0.0591  0.4641 -0.3351
  113TMC2    O5 1769   3.143   0.160   1.439  0.1308 -0.9305 -0.5133
  113TMC2    H5 1770   3.176   0.074   1.474  0.2413 -0.3023  0.9088
  114MPD2     C 1771   4.208   0.056   1.364  0.1439  0.3251 -0.4956
  114MPD2    C1 1772   4.137   0.168   1.400 -0.0037 -0.7694 -0.1392
  114MPD2    C2 1773   4.001   0.173   1.373 -0.0882 -0.0287 -0.2778
  114MPD2    C3 1774   3.932   0.068   1.317  0.5128 -0.5116  0.2603
  114MPD2    C4 1775   4.007   4.694   1.284  0.1956  0.1971  0.0535
  114MPD2    C5 1776   4.144   4.691   1.310  0.4913 -0.5530 -0.0511
  114MPD2     H 1777   3.948   0.264   1.397 -0.6446 -0.7085  1.0699
  114MPD2    H1 1778   3.959   4.613   1.230  3.0384  0.0208 -2.1933
  114MPD2    H2 1779   4.314   0.041   1.379 -0.5896 -3.2709  1.1925
  114MPD2    H3 1780   4.205   4.611   1.270  0.2547 -1.1406  0.7510
  114MPD2     N 1781   3.792   0.060   1.297  1.1593 -0.3237 -0.7992
  114MPD2    H5 1782   3.761   4.717   1.245  0.5622 -0.1764 -0.6804
  114MPD2    N1 1783   4.199   0.277   1.448 -0.1322  0.0998  0.1715
  114MPD2    H7 1784   4.145   0.361   1.467 -1.4827 -0.7397  0.0502
  115TMC2    C1 1785   4.332   2.864  17.457 -0.2358 -0.3303  0.6105
  115TMC2    C2 1786   4.461   2.857  17.499 -0.0444 -0.9962  0.0845
  115TMC2    C3 1787   4.526   2.971  17.545  0.1922 -0.3418 -0.2761
  115TMC2    C4 1788   4.274   2.988  17.441 -0.0108  0.3564  1.1795
  115TMC2    C5 1789   4.346   3.095  17.461  0.5088 -0.3102  0.7825
  115TMC2    C6 1790   4.469   3.094  17.528 -0.8724 -0.7078 -0.1648
  115TMC2     C 1791   4.264   2.738  17.441 -0.3728  0.1725  0.0292
  115TMC2     O 1792   4.334   2.634  17.445  0.1208 -0.1310 -0.5369
  115TMC2     H 1793   4.499   2.759  17.527 -1.3372 -1.5783 -0.2062
  115TMC2    H1 1794   4.167   3.002  17.438 -0.1654 -0.6783  2.0973
  115TMC2    H2 1795   4.527   3.177  17.566 -2.7288 -0.3166  1.8164
  115TMC2    C7 1796   4.275   3.217  17.479  0.7548 -0.3261 -0.4532
  115TMC2    C8 1797   4.667   2.976  17.569  0.1727  0.4197  0.0918
  115TMC2    O1 1798   4.156   3.213  17.477  0.1263  0.0394 -0.1897
  115TMC2    O2 1799   4.727   3.077  17.603  0.0356 -0.5484 -0.4577
  115TMC2    O5 1800   4.731   2.863  17.533 -0.2735  0.1972  0.3732
  115TMC2    H5 1801   4.682   2.797  17.480  1.2835 -3.4379  3.4669
  116MPD2     C 1802   3.822   2.508  17.296  0.1501  0.8641 -0.3181
  116MPD2    C1 1803   3.944   2.450  17.331  0.2357  0.2534 -0.8010
  116MPD2    C2 1804   4.053   2.531  17.370  0.3888  0.1811 -0.0722
  116MPD2    C3 1805   4.036   2.670  17.378 -0.1626  0.1191 -0.6155
  116MPD2    C4 1806   3.910   2.719  17.359 -0.6855 -0.3583 -0.3590
  116MPD2    C5 1807   3.808   2.637  17.318  0.3905  0.5496  0.5322
  116MPD2     H 1808   4.151   2.488  17.382  1.2733  1.7748 -1.4858
  116MPD2    H1 1809   3.869   2.818  17.375 -0.0607  0.2165 -2.2539
  116MPD2    H2 1810   3.737   2.454  17.257 -0.7442  0.8519  1.6851
  116MPD2    H3 1811   3.716   2.692  17.301 -0.1946 -0.1182  1.5149
  116MPD2     N 1812   4.133   2.762  17.420  0.2892  0.2518  0.6008
  116MPD2    H5 1813   4.103   2.858  17.432  1.9594  0.5735  2.2058
  116MPD2    N1 1814   3.948   2.316  17.310 -0.5149  0.8025 -0.2505
  116MPD2    H7 1815   3.859   2.275  17.285 -1.3575  3.1061 -1.0128
  117TMC2    C1 1816   3.395   4.350  14.169  0.1701  0.1882 -0.2917
  117TMC2    C2 1817   3.522   4.304  14.158  0.3256 -0.1650 -0.7172
  117TMC2    C3 1818   3.620   4.393  14.175 -0.5892  0.3888 -0.1602
  117TMC2    C4 1819   3.367   4.487  14.204 -0.1741 -0.4120  0.5443
  117TMC2    C5 1820   3.471   4.571  14.204 -0.8413 -0.0183 -0.1452
  117TMC2    C6 1821   3.600   4.528  14.186  0.1755 -0.2903  0.0041
  117TMC2     C 1822   3.287   4.262  14.133 -0.4267 -0.7840 -0.1312
  117TMC2     O 1823   3.308   4.139  14.125 -0.0471 -0.0208 -0.6950
  117TMC2     H 1824   3.542   4.198  14.150  3.7586  0.5366 -1.4171
  117TMC2    H1 1825   3.264   4.520  14.215  0.4215  1.3006  0.8588
  117TMC2    H2 1826   3.682   4.598  14.177 -0.5002  0.6829  1.3246
  117TMC2    C7 1827   3.449   4.713  14.179 -0.2443  0.9443  0.2012
  117TMC2    C8 1828   3.751   4.334  14.160 -0.0103 -0.1155  0.1665
  117TMC2    O1 1829   3.552   0.032  14.132 -0.6919  0.5568 -0.7532
  117TMC2    O2 1830   3.770   4.221  14.186  0.8544  0.0189 -0.0920
  117TMC2    O5 1831   3.844   4.436  14.164 -0.1126 -0.3765  0.0122
  117TMC2    H5 1832   3.822   4.517  14.113  0.8584  0.3387  0.7256
  118MPD2     C 1833   3.130   0.118  14.081  0.3396  0.5306  0.3303
  118MPD2    C1 1834   3.263   0.126  14.117  0.2756 -0.0656 -0.3182
  118MPD2    C2 1835   3.344   0.239  14.084  0.4035  0.0675  0.4831
  118MPD2    C3 1836   3.278   0.352  14.026 -0.4417  0.2227 -0.0244
  118MPD2    C4 1837   3.147   0.342  13.997 -0.4577  0.6012 -0.2042
  118MPD2    C5 1838   3.077   0.223  14.013 -0.0786 -0.9756  0.1298
  118MPD2     H 1839   3.447   0.251  14.118 -0.3501  2.2007  2.0054
  118MPD2    H1 1840   3.088   0.421  13.950 -1.3411  1.2227  1.9694
  118MPD2    H2 1841   3.077   0.026  14.103  0.8012 -0.4142 -2.5223
  118MPD2    H3 1842   2.975   0.217  13.978 -0.0351 -0.1763 -0.1372
  118MPD2     N 1843   3.329   0.482  14.011 -0.5119 -0.1896  0.1113
  118MPD2    H5 1844   3.258   0.551  13.988 -2.9776 -2.5907  0.5714
  118MPD2    N1 1845   3.319   0.011  14.173 -0.3705 -0.2624 -0.2987
  118MPD2    H7 1846   3.249   4.694  14.222 -0.4589  1.4692  1.4954
  119TMC2    C1 1847   1.530   1.333  13.239 -0.3268  0.1972 -0.2943
  119TMC2    C2 1848   1.580   1.248  13.334 -0.1629 -0.1231  0.0868
  119TMC2    C3 1849   1.498   1.174  13.410  0.0417  0.3537 -0.1374
  119TMC2    C4 1850   1.401   1.330  13.210 -0.4809  0.0554  0.6696
  119TMC2    C5 1851   1.312   1.261  13.296 -1.2376  0.6150 -0.3880
  119TMC2    C6 1852   1.361   1.179  13.394 -0.0557  0.2622  0.5600
  119TMC2     C 1853   1.613   1.397  13.143 -0.4688  0.2122  0.0066
  119TMC2     O 1854   1.600   1.386  13.023  0.0343 -0.5524 -0.2159
  119TMC2     H 1855   1.688   1.249  13.342 -0.1796 -0.4520  0.3812
  119TMC2    H1 1856   1.359   1.404  13.143  0.1645 -0.8835 -0.7739
  119TMC2    H2 1857   1.296   1.135  13.468  0.1247 -1.9001 -0.5682
  119TMC2    C7 1858   1.175   1.308  13.301 -0.1989  0.2967  0.4672
  119TMC2    C8 1859   1.542   1.056  13.478  0.3241  0.2990  0.4733
  119TMC2    O1 1860   1.148   1.402  13.227 -0.2849 -0.0665  0.0753
  119TMC2    O2 1861   1.459   0.966  13.515 -0.9768  0.1211  0.2067
  119TMC2    O5 1862   1.680   1.052  13.484  0.0843  0.4654 -0.3955
  119TMC2    H5 1863   1.713   1.144  13.498  3.1784 -0.4692 -1.7580
  120MPD2     C 1864   1.807   1.600  13.588 -0.3818 -0.8856  0.1845
  120MPD2    C1 1865   1.675   1.565  13.560  0.5001  0.1106 -0.0439
  120MPD2    C2 1866   1.641   1.529  13.428  0.3911  0.0871  0.5593
  120MPD2    C3 1867   1.741   1.513  13.329  0.4546 -0.3879 -0.1346
  120MPD2    C4 1868   1.866   1.553  13.355  0.0492 -0.7758  0.4950
  120MPD2    C5 1869   1.899   1.590  13.481 -0.2119  0.0360 -0.6121
  120MPD2     H 1870   1.539   1.501  13.404  0.3897  0.5820 -0.0170
  120MPD2    H1 1871   1.950   1.548  13.287  0.8114 -2.0165  1.5111
  120MPD2    H2 1872   1.831   1.615  13.693  0.3942  2.5258 -0.4845
  120MPD2    H3 1873   2.003   1.605  13.506  0.0908 -2.2773 -0.5055
  120MPD2     N 1874   1.724   1.468  13.200 -0.6915 -0.6213 -0.1157
  120MPD2    H5 1875   1.799   1.497  13.139  1.7347 -0.9347  2.7255
  120MPD2    N1 1876   1.586   1.565  13.670  0.7255 -0.8995 -0.1541
  120MPD2    H7 1877   1.628   1.580  13.761  2.3405 -0.5436 -0.9512
  121TMC2    C1 1878   3.102   2.825  14.120  0.4738 -0.4620 -0.1631
  121TMC2    C2 1879   3.184   2.718  14.116 -0.0924 -0.3104 -0.3579
  121TMC2    C3 1880   3.165   2.612  14.194  0.2243 -0.3233  0.7412
  121TMC2    C4 1881   3.001   2.828  14.214 -0.9272  0.0174 -0.0523
  121TMC2    C5 1882   2.983   2.716  14.288 -0.2308  0.0162  0.1125
  121TMC2    C6 1883   3.060   2.608  14.279  0.0232  0.0428 -0.2720
  121TMC2     C 1884   3.134   2.940  14.030 -0.4805  0.2207  0.9477
  121TMC2     O 1885   3.240   2.931  13.965 -0.5197 -0.1355 -0.3932
  121TMC2     H 1886   3.274   2.714  14.055  0.6490 -0.4279  0.7565
  121TMC2    H1 1887   2.934   2.914  14.214 -0.8671  0.0515  1.6818
  121TMC2    H2 1888   3.044   2.513  14.329  0.2236  0.5715  0.7996
  121TMC2    C7 1889   2.857   2.696  14.359 -0.1697  0.0416  0.0887
  121TMC2    C8 1890   3.278   2.521  14.221 -0.2786 -0.7819 -0.0472
  121TMC2    O1 1891   2.875   2.627  14.457 -0.3109  0.1681  0.5789
  121TMC2    O2 1892   3.280   2.407  14.171  0.1137  0.0872  0.6268
  121TMC2    O5 1893   3.386   2.595  14.228  0.7973 -0.3805  0.4319
  121TMC2    H5 1894   3.375   2.669  14.292 -3.8661 -0.6594 -0.0858
  122MPD2     C 1895   2.978   3.263  14.008 -0.3416 -0.1573 -0.4904
  122MPD2    C1 1896   3.055   3.163  13.960 -0.2137 -0.5885  0.4876
  122MPD2    C2 1897   3.129   3.178  13.846 -0.1702 -0.8655  0.0615
  122MPD2    C3 1898   3.117   3.297  13.779  0.2667 -0.0531 -0.0963
  122MPD2    C4 1899   3.050   3.403  13.835 -0.4184  0.1798  0.1719
  122MPD2    C5 1900   2.981   3.390  13.950 -0.4837  0.3255  1.0877
  122MPD2     H 1901   3.185   3.093  13.810  0.4937  0.4556 -2.0245
  122MPD2    H1 1902   3.060   3.505  13.800 -0.8297 -1.6895 -5.3292
  122MPD2    H2 1903   2.923   3.261  14.102  0.5554  0.8183  0.0550
  122MPD2    H3 1904   2.929   3.477  13.989 -0.6826  0.3604  0.7461
  122MPD2     N 1905   3.162   3.310  13.643 -0.0284  0.4467  0.1041
  122MPD2    H5 1906   3.150   3.401  13.600 -0.8925 -0.2130 -1.0432
  122MPD2    N1 1907   3.047   3.042  14.039 -0.3178 -0.2016  0.2084
  122MPD2    H7 1908   2.978   3.047  14.113  0.7789  3.3769  0.9992
  123TMC2    C1 1909   0.574   2.192   9.708  0.5413  0.8403 -0.3273
  123TMC2    C2 1910   0.693   2.163   9.771  0.0475 -0.1135  0.1126
  123TMC2    C3 1911   0.707   2.036   9.830 -0.2607  0.1314 -0.3702
  123TMC2    C4 1912   0.475   2.097   9.691 -0.3915 -0.2905 -0.4162
  123TMC2    C5 1913   0.499   1.976   9.752 -0.1199 -0.0026 -0.6127
  123TMC2    C6 1914   0.615   1.940   9.815 -0.2674 -0.3255 -1.2709
  123TMC2     C 1915   0.574   2.315   9.637  0.3954 -0.1479 -0.0245
  123TMC2     O 1916   0.672   2.385   9.634  0.6268  0.0154  0.1073
  123TMC2     H 1917   0.779   2.229   9.777  0.7257 -1.0222  0.4640
  123TMC2    H1 1918   0.396   2.099   9.616 -0.6246 -0.7938 -0.1865
  123TMC2    H2 1919   0.614   1.849   9.874  1.3216  0.1619 -0.5216
  123TMC2    C7 1920   0.396   1.871   9.751  0.6028  0.4711 -0.5482
  123TMC2    C8 1921   0.760   2.046   9.960 -0.3230  0.8158 -0.1615
  123TMC2    O1 1922   0.433   1.758   9.772  0.0309 -0.0156 -0.0707
  123TMC2    O2 1923   0.783   2.163   9.995  0.5963  0.1042  0.0015
  123TMC2    O5 1924   0.848   1.953   9.942 -0.1230  0.4382 -0.5286
  123TMC2    H5 1925   0.825   1.872   9.892  0.5327  0.5444 -1.0034
  124MPD2     C 1926   0.342   2.670   9.337 -0.5314 -0.1088  0.2980
  124MPD2    C1 1927   0.245   2.595   9.399 -0.2282 -0.7123  0.6243
  124MPD2    C2 1928   0.284   2.488   9.478  0.7458  0.2020 -0.2202
  124MPD2    C3 1929   0.417   2.462   9.509 -0.1402 -0.0174  1.0383
  124MPD2    C4 1930   0.510   2.550   9.460  0.5605 -0.9815  0.1546
  124MPD2    C5 1931   0.474   2.649   9.370 -0.6266 -0.2971  0.1086
  124MPD2     H 1932   0.205   2.431   9.526  0.3041  1.2146  0.2556
  124MPD2    H1 1933   0.617   2.536   9.466  0.1359 -4.1822  0.0722
  124MPD2    H2 1934   0.326   2.754   9.271 -0.0233  2.0090  2.8323
  124MPD2    H3 1935   0.554   2.705   9.322  0.1190 -1.8683 -0.4552
  124MPD2     N 1936   0.445   2.350   9.589  0.0230 -0.0346  0.0863
  124MPD2    H5 1937   0.369   2.288   9.616 -0.7591  0.5228 -0.8470
  124MPD2    N1 1938   0.116   2.641   9.372  0.1407  1.2019 -0.1809
  124MPD2    H7 1939   0.119   2.722   9.312  1.1130 -0.1736 -1.9867
  125TMC2    C1 1940   2.340   0.099   9.671 -0.2062  0.5429 -0.6069
  125TMC2    C2 1941   2.226   0.148   9.719 -0.5055  0.8549  0.0765
  125TMC2    C3 1942   2.154   0.073   9.806 -0.1107 -0.1803 -0.8502
  125TMC2    C4 1943   2.390   4.720   9.711  0.0588  0.1662  0.4339
  125TMC2    C5 1944   2.313   4.649   9.797  0.5795 -0.2570  0.0039
  125TMC2    C6 1945   2.189   4.690   9.844  0.1254  0.0458  0.2873
  125TMC2     C 1946   2.433   0.186   9.594 -0.2140  0.4825 -0.7761
  125TMC2     O 1947   2.506   0.122   9.521  0.5917  0.3379 -0.0671
  125TMC2     H 1948   2.183   0.239   9.678  0.7946  2.5522  2.4348
  125TMC2    H1 1949   2.489   4.687   9.681 -0.2359 -0.3816  0.0674
  125TMC2    H2 1950   2.147   4.644   9.934 -0.0788  0.7489  0.5511
  125TMC2    C7 1951   2.349   4.506   9.819 -0.3299 -0.3194  0.1614
  125TMC2    C8 1952   2.043   0.137   9.875 -0.8544 -0.0306 -0.6243
  125TMC2    O1 1953   2.283   4.455   9.906 -0.4104  0.4096  0.1385
  125TMC2    O2 1954   1.969   0.064   9.940 -0.5462 -0.1817  0.4810
  125TMC2    O5 1955   2.077   0.263   9.908  0.2647 -0.5383 -0.2324
  125TMC2    H5 1956   2.160   0.301   9.873  1.4128 -1.7524  1.1682
  126MPD1     C 1957   2.559   0.615   9.352 -0.4526 -0.2266 -0.1296
  126MPD1    C1 1958   2.499   0.656   9.466 -0.0820 -0.4527 -0.2003
  126MPD1    C2 1959   2.451   0.559   9.555 -0.8102 -0.8053 -0.7077
  126MPD1    C3 1960   2.474   0.419   9.532 -0.4656  0.2289 -0.0406
  126MPD1    C4 1961   2.535   0.384   9.415 -0.4512  0.3288  0.4805
  126MPD1    C5 1962   2.586   0.484   9.332 -0.6961  0.2975 -0.3843
  126MPD1     H 1963   2.401   0.590   9.646 -0.0895  2.8955 -1.5571
  126MPD1    H1 1964   2.531   0.281   9.382  0.4058  0.8790 -1.3461
  126MPD1    H2 1965   2.619   0.680   9.290 -1.2320 -0.1838 -0.8312
  126MPD1    H3 1966   2.646   0.446   9.250  1.2325 -1.5718  1.8842
  126MPD1     N 1967   2.410   0.324   9.616  0.0559  0.3356  0.1461
  126MPD1    H5 1968   2.349   0.354   9.691  0.5319  0.4046  0.5017
  126MPD1    N1 1969   2.461   0.793   9.492  0.7867  0.1951  0.0680
  126MPD1    H6 1970   2.520   0.864   9.450  0.7248 -0.5128 -1.2190
  126MPD1    H7 1971   2.462   0.812   9.592 -2.5963 -0.1598  0.1471
  127TMC2    C1 1972   3.466   2.431   9.789 -0.0596 -0.0523  0.0951
  127TMC2    C2 1973   3.528   2.340   9.871  0.2738 -0.1218 -0.1744
  127TMC2    C3 1974   3.499   2.212   9.863 -0.3655 -0.1161  0.3230
  127TMC2    C4 1975   3.372   2.390   9.695 -0.3007 -0.3128  0.0645
  127TMC2    C5 1976   3.356   2.254   9.681  0.8162  0.1785 -0.0313
  127TMC2    C6 1977   3.412   2.168   9.768  0.0105  0.7031  0.0353
  127TMC2     C 1978   3.496   2.577   9.810  0.1724 -0.4387 -0.0555
  127TMC2     O 1979   3.566   2.601   9.910  0.4540  0.8248 -0.3256
  127TMC2     H 1980   3.606   2.374   9.938 -2.4376  1.7354  2.0339
  127TMC2    H1 1981   3.323   2.458   9.627  0.4001  0.0288 -0.0953
  127TMC2    H2 1982   3.397   2.062   9.756 -0.0236  0.5904  1.0594
  127TMC2    C7 1983   3.258   2.213   9.582  1.1235 -0.6680  0.1043
  127TMC2    C8 1984   3.543   2.118   9.959  0.0008  0.3596 -0.3619
  127TMC2    O1 1985   3.243   2.270   9.477 -0.2497  0.1483  0.0130
  127TMC2    O2 1986   3.523   1.999   9.938  0.3763  0.3104  0.0994
  127TMC2    O5 1987   3.507   2.176  10.070 -0.2071 -0.1087  0.5255
  127TMC2    H5 1988   3.498   2.273  10.075  1.2552 -0.0748  2.8946
  128MPD2     C 1989   3.405   2.853   9.591 -0.2649  0.0210  0.2552
  128MPD2    C1 1990   3.461   2.796   9.702 -1.8026 -0.1169 -0.6573
  128MPD2    C2 1991   3.499   2.874   9.813 -0.2382 -0.2664  0.1598
  128MPD2    C3 1992   3.514   3.011   9.798  0.0776  0.5335  0.5914
  128MPD2    C4 1993   3.465   3.068   9.684  0.2746  0.2767 -0.1257
  128MPD2    C5 1994   3.407   2.990   9.588 -0.0623  0.3804 -0.1995
  128MPD2     H 1995   3.533   2.827   9.905  0.6217 -1.7174 -0.8977
  128MPD2    H1 1996   3.469   3.175   9.665 -0.9044  0.1164 -1.2783
  128MPD2    H2 1997   3.373   2.792   9.507 -1.1144  1.1726 -0.2502
  128MPD2    H3 1998   3.368   3.037   9.498 -3.2625 -1.1646  0.3869
  128MPD2     N 1999   3.567   3.097   9.897 -0.0437 -0.1549  0.1702
  128MPD2    H5 2000   3.607   3.053   9.979 -0.4371  1.4784  1.2466
  128MPD2    N1 2001   3.456   2.656   9.703 -0.0412  0.3056 -0.3559
  128MPD2    H7 2002   3.413   2.619   9.619 -0.4820 -0.4777  0.2092
  129TMC2    C1 2003   1.293   1.927   0.960 -0.1082 -0.7071 -0.8028
  129TMC2    C2 2004   1.230   1.929   0.839 -0.2042  0.3200 -0.0507
  129TMC2    C3 2005   1.278   1.834   0.754 -0.0300  1.0348 -0.3333
  129TMC2    C4 2006   1.395   1.844   0.998 -0.1230 -0.0450 -0.5361
  129TMC2    C5 2007   1.452   1.765   0.898  0.1188 -0.6098  0.1863
  129TMC2    C6 2008   1.392   1.760   0.780 -0.2198  1.0166 -0.0465
  129TMC2     C 2009   1.226   1.993   1.071  0.5939  0.5143 -0.0427
  129TMC2     O 2010   1.241   1.937   1.179  0.1500  0.1927  0.1514
  129TMC2     H 2011   1.163   2.008   0.805  1.1667  0.6519 -1.9645
  129TMC2    H1 2012   1.444   1.856   1.094 -1.5255  3.4015 -0.2332
  129TMC2    H2 2013   1.436   1.699   0.702 -0.4966  1.7327 -0.7714
  129TMC2    C7 2014   1.520   1.638   0.932  0.1419 -0.2825 -0.3011
  129TMC2    C8 2015   1.210   1.837   0.629 -0.2320  1.1135  0.2668
  129TMC2    O1 2016   1.474   1.577   1.026 -0.5379  0.3107 -1.1154
  129TMC2    O2 2017   1.196   1.935   0.558 -0.0257 -0.9323 -0.0519
  129TMC2    O5 2018   1.215   1.710   0.591  0.3788  0.1695  0.5953
  129TMC2    H5 2019   1.215   1.647   0.667 -1.9474 -0.1211  0.3551
  130MPD2     C 2020   1.069   2.187   1.245  0.1977  0.4025  0.2351
  130MPD2    C1 2021   1.118   2.215   1.123  0.1846 -0.3845 -0.5478
  130MPD2    C2 2022   1.099   2.347   1.081  0.3299 -0.5252 -0.4014
  130MPD2    C3 2023   1.035   2.444   1.154 -0.6296  0.1037 -0.4640
  130MPD2    C4 2024   0.991   2.411   1.281 -0.2103  0.0413  0.0575
  130MPD2    C5 2025   1.018   2.283   1.320  0.1918 -0.2630  0.7180
  130MPD2     H 2026   1.146   2.378   0.988 -2.3446 -0.4097 -1.7225
  130MPD2    H1 2027   0.952   2.493   1.341  0.9786  0.1711  0.6507
  130MPD2    H2 2028   1.066   2.088   1.288  0.5959  0.6058  0.7277
  130MPD2    H3 2029   0.978   2.254   1.417  0.3136 -3.2495 -0.1204
  130MPD2     N 2030   1.032   2.575   1.094  0.5690 -0.5499 -0.3505
  130MPD2    H5 2031   1.057   2.590   0.997 -0.4850 -1.3748 -0.7452
  130MPD2    N1 2032   1.169   2.111   1.035  0.4214 -0.2747 -0.3518
  130MPD2    H7 2033   1.183   2.144   0.940  1.3052  1.0644  0.2442
  131TMC2    C1 2034   0.508   3.357   9.225  0.5607  0.0800  0.3759
  131TMC2    C2 2035   0.527   3.458   9.137  0.0164  0.2037  0.5659
  131TMC2    C3 2036   0.655   3.501   9.116 -0.0502  0.1134  0.1029
  131TMC2    C4 2037   0.609   3.310   9.301 -0.1693 -0.0055  0.7006
  131TMC2    C5 2038   0.730   3.373   9.295 -0.0666  0.4657  0.3427
  131TMC2    C6 2039   0.757   3.468   9.199  0.1483  0.4944 -0.7319
  131TMC2     C 2040   0.379   3.299   9.241  0.6388  0.8518 -0.1878
  131TMC2     O 2041   0.371   3.185   9.273 -0.3515  0.7730  0.2943
  131TMC2     H 2042   0.448   3.483   9.067 -0.9932 -0.7551  1.3587
  131TMC2    H1 2043   0.601   3.224   9.368 -0.4971 -0.3888  0.1674
  131TMC2    H2 2044   0.850   3.525   9.206  0.4143 -0.0437  0.1021
  131TMC2    C7 2045   0.819   3.343   9.404  0.4206  0.2959  0.0184
  131TMC2    C8 2046   0.677   3.624   9.053  0.3406  0.4327  0.2189
  131TMC2    O1 2047   0.786   3.249   9.480 -0.1568 -0.4639 -0.4550
  131TMC2    O2 2048   0.583   3.701   9.029 -0.0542  0.6326 -0.3814
  131TMC2    O5 2049   0.784   3.611   8.974 -0.1145 -0.0106 -0.2689
  131TMC2    H5 2050   0.853   3.559   9.020 -0.1242  1.2075  1.1172
  132MPD2     C 2051   0.051   3.463   9.294 -0.0632  0.0290 -0.9889
  132MPD2    C1 2052   0.137   3.359   9.270  0.1594 -0.3480 -0.3018
  132MPD2    C2 2053   0.080   3.235   9.275  0.4061  0.1370  0.5192
  132MPD2    C3 2054   4.686   3.208   9.304  0.1112  0.6773  0.0428
  132MPD2    C4 2055   4.603   3.311   9.321 -1.1935 -0.3300  0.0418
  132MPD2    C5 2056   4.655   3.439   9.323  0.6214  0.4987  0.3202
  132MPD2     H 2057   0.141   3.145   9.273 -0.2492 -0.2600 -1.7964
  132MPD2    H1 2058   4.503   3.292   9.358 -0.3388 -0.0263  2.4958
  132MPD2    H2 2059   0.084   3.566   9.285 -0.6370  0.1597 -1.5810
  132MPD2    H3 2060   4.585   3.519   9.344  0.8750  0.5957  0.7960
  132MPD2     N 2061   4.647   3.073   9.307  0.2998 -0.2454  0.1175
  132MPD2    H5 2062   4.722   3.009   9.283 -0.5089  0.2384 -3.8503
  132MPD2    N1 2063   0.274   3.389   9.229 -0.4485  0.2011  0.4866
  132MPD2    H7 2064   0.299   3.488   9.226 -1.3397  0.4745  2.2154
  133TMC2    C1 2065   0.105   3.805  10.064  0.3165 -0.2205  0.1510
  133TMC2    C2 2066   0.122   3.938  10.015  0.2235  0.2532  0.2710
  133TMC2    C3 2067   0.210   4.013  10.079 -0.3783  0.3167  0.5753
  133TMC2    C4 2068   0.188   3.752  10.160  1.1391  0.1867  0.0863
  133TMC2    C5 2069   0.295   3.825  10.206 -0.5865  0.6489  0.9473
  133TMC2    C6 2070   0.304   3.959  10.170 -0.1040 -0.1714  0.9070
  133TMC2     C 2071   0.009   3.710  10.006 -0.3980 -0.4919  0.2815
  133TMC2     O 2072   4.737   3.601  10.063  0.1052  0.4288 -0.7220
  133TMC2     H 2073   0.048   3.996   9.962 -0.3207 -1.1575 -0.5272
  133TMC2    H1 2074   0.175   3.650  10.194 -1.0543  0.6187  0.5643
  133TMC2    H2 2075   0.387   4.022  10.201 -0.9174  0.9892  0.7595
  133TMC2    C7 2076   0.387   3.772  10.295 -0.5712  0.0170  0.2178
  133TMC2    C8 2077   0.238   4.139  10.013 -0.4608 -0.2527 -0.4089
  133TMC2    O1 2078   0.479   3.844  10.327  0.3310 -0.7996  0.1967
  133TMC2    O2 2079   0.217   4.148   9.890  0.2555  0.2335  0.4957
  133TMC2    O5 2080   0.211   4.232  10.102  0.6834 -0.0113 -0.0972
  133TMC2    H5 2081   0.243   4.204  10.191  0.7909  1.0221  0.1975
  134MPD2     C 2082   4.597   3.720   9.667  0.0512 -0.4896 -0.3555
  134MPD2    C1 2083   4.620   3.674   9.792 -0.5014  0.1350  0.5544
  134MPD2    C2 2084   4.576   3.547   9.823 -0.2670 -0.1838 -0.1140
  134MPD2    C3 2085   4.507   3.470   9.730 -0.8266  0.3528  0.2315
  134MPD2    C4 2086   4.489   3.516   9.600  0.3530  0.6674  0.4167
  134MPD2    C5 2087   4.533   3.643   9.572 -0.0817 -0.4387 -0.2945
  134MPD2     H 2088   4.598   3.499   9.917 -1.9243 -0.2423  0.2523
  134MPD2    H1 2089   4.462   3.452   9.517 -1.8561  2.4743 -0.2437
  134MPD2    H2 2090   4.642   3.814   9.640  1.6817 -1.8194 -2.1931
  134MPD2    H3 2091   4.517   3.680   9.471 -1.9487  0.5216  0.3501
  134MPD2     N 2092   4.453   3.342   9.756 -0.3534  0.1972 -0.5471
  134MPD2    H5 2093   4.417   3.289   9.677 -0.1294  0.0380 -0.5420
  134MPD2    N1 2094   4.702   3.748   9.880  0.1001 -0.3665  0.2650
  134MPD2    H7 2095   4.736   3.840   9.856  0.8425 -0.3628  1.3217
  135TMC2    C1 2096   2.207   4.598  10.274  0.3209  0.0940  0.0035
  135TMC2    C2 2097   2.226   4.483  10.215  0.7601 -0.6623 -0.1462
  135TMC2    C3 2098   2.166   4.370  10.271  1.0906 -0.5275  0.8960
  135TMC2    C4 2099   2.132   4.606  10.388  0.5468 -0.5558 -0.0670
  135TMC2    C5 2100   2.052   4.495  10.426  0.4262  0.5075  0.5048
  135TMC2    C6 2101   2.074   4.372  10.366 -0.3613  0.2667  0.3309
  135TMC2     C 2102   2.251   4.725  10.220 -0.7353  0.5615  0.0858
  135TMC2     O 2103   2.182   0.082  10.258 -0.0047 -0.3020  0.4110
  135TMC2     H 2104   2.313   4.478  10.150  1.8165  1.4023  1.1047
  135TMC2    H1 2105   2.118   4.698  10.443  2.1732  0.7035 -1.7659
  135TMC2    H2 2106   2.015   4.281  10.370  1.0664 -0.7799 -2.4998
  135TMC2    C7 2107   1.955   4.518  10.524 -0.3566 -0.6201 -0.1864
  135TMC2    C8 2108   2.200   4.239  10.213 -0.0301 -0.2833 -0.3299
  135TMC2    O1 2109   1.924   4.632  10.558 -0.1952 -0.4708  0.6075
  135TMC2    O2 2110   2.192   4.132  10.274  0.3465 -0.2991 -0.0586
  135TMC2    O5 2111   2.202   4.250  10.078 -0.7067 -0.6921  0.2234
  135TMC2    H5 2112   2.200   4.346  10.058  1.0895 -0.9236 -1.2101
  136MPD2     C 2113   2.377   0.222  10.093 -0.8404 -0.3746 -0.3155
  136MPD2    C1 2114   2.419   0.094  10.072  0.1196  0.1553 -0.0631
  136MPD2    C2 2115   2.528   0.075   9.992  0.6348  0.6710 -0.1271
  136MPD2    C3 2116   2.587   0.182   9.926 -0.3010 -0.3554  0.2147
  136MPD2    C4 2117   2.541   0.311   9.944 -0.4970  0.1686 -0.7897
  136MPD2    C5 2118   2.447   0.331  10.044  0.3781 -0.5340 -0.2375
  136MPD2     H 2119   2.551   4.709   9.974  0.2917  0.3853  1.0373
  136MPD2    H1 2120   2.586   0.397   9.898  0.5650 -0.9331 -1.8140
  136MPD2    H2 2121   2.288   0.243  10.150 -1.0940  0.5702 -1.0651
  136MPD2    H3 2122   2.408   0.426  10.079  0.4613 -0.8134  0.6197
  136MPD2     N 2123   2.703   0.168   9.845  0.0714  0.7697  0.1236
  136MPD2    H5 2124   2.740   0.259   9.817  1.0249  0.3733  0.1013
  136MPD2    N1 2125   2.357   4.724  10.141 -0.0837  0.5128  0.3700
  136MPD2    H7 2126   2.408   4.638  10.123  1.6563  1.3551  1.2786
  137TMC2    C1 2127   2.385   3.985   9.434 -0.3312  0.7911  0.3159
  137TMC2    C2 2128   2.502   4.019   9.374 -0.0887 -0.5318  0.5654
  137TMC2    C3 2129   2.522   4.149   9.340  0.0295 -0.4501 -0.1542
  137TMC2    C4 2130   2.294   4.079   9.469  0.3437  0.1032  0.4926
  137TMC2    C5 2131   2.318   4.208   9.439  1.1954 -0.0386 -0.0703
  137TMC2    C6 2132   2.432   4.244   9.374 -0.4441  0.3164 -0.2749
  137TMC2     C 2133   2.380   3.865   9.519  0.1082 -1.1795  0.2499
  137TMC2     O 2134   2.327   3.884   9.627 -0.2501 -0.1439  0.3001
  137TMC2     H 2135   2.564   3.941   9.331  0.0020  0.3608 -0.9159
  137TMC2    H1 2136   2.206   4.044   9.522  0.8620 -2.0222 -0.0399
  137TMC2    H2 2137   2.440   4.346   9.337 -2.6831  1.2018  1.6383
  137TMC2    C7 2138   2.214   4.308   9.463 -0.0763 -0.1499  0.0665
  137TMC2    C8 2139   2.641   4.202   9.276  0.4274  0.4459 -0.2059
  137TMC2    O1 2140   2.244   4.426   9.455 -0.9429  0.4577  0.1318
  137TMC2    O2 2141   2.650   4.314   9.231 -0.0729 -0.0690 -0.2269
  137TMC2    O5 2142   2.743   4.122   9.309 -0.6736  0.1343 -0.0486
  137TMC2    H5 2143   2.735   4.035   9.354  0.2419 -0.1992 -0.5284
  138MPD2     C 2144   2.447   3.513   9.426  0.7496 -0.4306 -0.4965
  138MPD2    C1 2145   2.424   3.615   9.513  0.7994 -0.1157 -0.1523
  138MPD2    C2 2146   2.398   3.580   9.643  0.0889 -0.4260  0.5594
  138MPD2    C3 2147   2.399   3.454   9.688  0.0816  0.9002 -0.0032
  138MPD2    C4 2148   2.440   3.352   9.607 -0.0913  0.1358  0.0238
  138MPD2    C5 2149   2.454   3.384   9.471  0.3043 -0.4508 -0.1372
  138MPD2     H 2150   2.365   3.662   9.706  1.3129  0.4206  0.0941
  138MPD2    H1 2151   2.461   3.250   9.638  0.4896  0.5754  1.0938
  138MPD2    H2 2152   2.458   3.542   9.322  3.7205 -0.6407 -0.2534
  138MPD2    H3 2153   2.469   3.309   9.395  0.0967  0.0566 -0.6766
  138MPD2     N 2154   2.354   3.431   9.818  0.0014  0.0964 -0.5338
  138MPD2    H5 2155   2.332   3.516   9.868  0.4610  0.5311 -1.0752
  138MPD2    N1 2156   2.421   3.748   9.463 -0.2984 -0.1710 -0.2551
  138MPD2    H7 2157   2.439   3.767   9.365 -1.9836  1.9035 -0.1625
  139TMC2    C1 2158   3.109   1.152  13.319  0.5186 -0.0228  0.4017
  139TMC2    C2 2159   3.166   1.197  13.206  0.0577 -0.4345  0.3293
  139TMC2    C3 2160   3.110   1.292  13.131 -0.7720 -0.2720 -0.3329
  139TMC2    C4 2161   2.989   1.201  13.365  0.5017 -0.4094 -0.7868
  139TMC2    C5 2162   2.936   1.303  13.296  0.8684 -0.2103 -0.0448
  139TMC2    C6 2163   2.993   1.348  13.177  0.0010 -0.2247 -0.4800
  139TMC2     C 2164   3.171   1.032  13.384  0.3588 -0.1877 -0.2886
  139TMC2     O 2165   3.278   0.987  13.337 -0.1024 -0.7187 -0.1601
  139TMC2     H 2166   3.263   1.156  13.183 -0.7802 -2.0345 -0.2897
  139TMC2    H1 2167   2.946   1.170  13.460  3.9544  0.6424  1.1179
  139TMC2    H2 2168   2.958   1.437  13.126 -1.8027  0.9704  2.8391
  139TMC2    C7 2169   2.834   1.392  13.369 -0.4211 -0.1586 -0.4496
  139TMC2    C8 2170   3.099   1.281  12.986  0.1829  0.6357  0.0684
  139TMC2    O1 2171   2.804   1.487  13.299 -0.2440 -0.6757  0.2842
  139TMC2    O2 2172   2.986   1.307  12.941 -0.2465 -0.1517  0.1112
  139TMC2    O5 2173   3.158   1.160  12.978 -0.0184 -0.2022  0.1094
  139TMC2    H5 2174   3.256   1.159  12.982 -0.0922 -0.0370  1.6928
  140MPD2     C 2175   3.036   0.823  13.660 -0.5083  0.7593 -0.1803
  140MPD2    C1 2176   3.103   0.849  13.543 -0.3093 -0.0494  0.0034
  140MPD2    C2 2177   3.180   0.745  13.483  0.4196  0.0775 -0.9085
  140MPD2    C3 2178   3.185   0.621  13.535 -1.2985 -0.0075  0.2334
  140MPD2    C4 2179   3.121   0.600  13.656  0.2295  1.1026  0.6501
  140MPD2    C5 2180   3.051   0.698  13.715 -0.0280  0.4699  0.7915
  140MPD2     H 2181   3.241   0.762  13.396  0.1481  2.0473 -0.7293
  140MPD2    H1 2182   3.120   0.502  13.702  1.2822 -0.2825 -2.3000
  140MPD2    H2 2183   2.970   0.891  13.713 -0.6630  0.3358  0.1712
  140MPD2    H3 2184   3.002   0.678  13.810 -1.3039  0.0686  0.0464
  140MPD2     N 2185   3.257   0.529  13.454 -0.3034 -0.2633  0.2417
  140MPD2    H5 2186   3.315   0.566  13.379 -0.5931 -0.8603 -0.2837
  140MPD2    N1 2187   3.089   0.977  13.489  0.6824 -0.3065  0.0118
  140MPD2    H7 2188   3.024   1.035  13.540 -0.2179 -0.0809 -1.4023
  141TMC2    C1 2189   3.344   1.925  14.132  0.5218  0.2770  0.3610
  141TMC2    C2 2190   3.317   1.802  14.184 -0.1676  0.2504 -0.1489
  141TMC2    C3 2191   3.253   1.805  14.308 -0.1216  0.4093  0.0282
  141TMC2    C4 2192   3.314   2.041  14.201  0.2590  0.5038  0.2113
  141TMC2    C5 2193   3.259   2.034  14.326  0.4958 -0.3737 -0.7780
  141TMC2    C6 2194   3.226   1.917  14.383  0.4956 -0.4956 -0.2449
  141TMC2     C 2195   3.413   1.938  14.009 -0.3014 -0.3715 -0.3636
  141TMC2     O 2196   3.382   2.038  13.944 -0.4375 -0.0194  0.5744
  141TMC2     H 2197   3.351   1.714  14.131  0.4092  0.9473 -0.9422
  141TMC2    H1 2198   3.343   2.133  14.153  2.3167  0.0759  0.6301
  141TMC2    H2 2199   3.187   1.902  14.483 -2.7544  1.3043 -1.2302
  141TMC2    C7 2200   3.282   2.159  14.406  0.0462 -0.2657  0.1416
  141TMC2    C8 2201   3.233   1.673  14.372 -0.1546  0.6841  0.0803
  141TMC2    O1 2202   3.200   2.182  14.493 -0.0736 -0.3512  0.0524
  141TMC2    O2 2203   3.321   1.641  14.448 -0.1132 -0.0126 -0.1393
  141TMC2    O5 2204   3.175   1.587  14.282  0.3173  0.2405 -0.0999
  141TMC2    H5 2205   3.124   1.625  14.207 -1.2892 -0.4456  0.6509
  142TMC2    C1 2206   4.734   1.105   9.927  0.0534 -0.1153 -0.2000
  142TMC2    C2 2207   4.643   1.052   9.837 -0.6074 -0.6536  0.4936
  142TMC2    C3 2208   4.630   1.117   9.715 -0.4715 -0.0903 -0.2053
  142TMC2    C4 2209   0.072   1.217   9.907  0.6809 -0.1580 -0.9285
  142TMC2    C5 2210   0.040   1.291   9.798 -0.0053 -0.7030 -0.5047
  142TMC2    C6 2211   4.684   1.244   9.707 -0.1466 -0.1313 -0.4333
  142TMC2     C 2212   0.016   1.023  10.049  0.1042  0.2105 -0.0732
  142TMC2     O 2213   4.708   0.907  10.044  0.2857  0.0418 -0.0693
  142TMC2     H 2214   4.578   0.970   9.868 -0.7283 -0.9523 -0.5612
  142TMC2    H1 2215   0.128   1.266   9.986 -2.4101  1.4649  0.2847
  142TMC2    H2 2216   4.685   1.293   9.610 -0.8436 -1.4050 -1.0846
  142TMC2    C7 2217   0.085   1.426   9.791 -0.5817  0.2654  0.1639
  142TMC2    C8 2218   4.536   1.064   9.614 -0.1647 -0.3851  0.3805
  142TMC2    O1 2219   0.184   1.460   9.849 -0.5242  0.1090 -0.2962
  142TMC2    O2 2220   4.503   0.945   9.610  0.2579 -0.2052 -0.1389
  142TMC2    O5 2221   4.514   1.155   9.515 -0.0311  0.0668  0.4362
  142TMC2    H5 2222   4.522   1.251   9.532  0.7707 -0.5364  3.5372
  143MPD2     C 2223   0.323   0.896  10.427 -0.3768 -0.6756 -0.3301
  143MPD2    C1 2224   0.245   0.818  10.346 -0.5726 -0.3956  0.4913
  143MPD2    C2 2225   0.169   0.874  10.247  0.2934 -0.4284  0.2073
  143MPD2    C3 2226   0.172   1.009  10.235 -0.2201  0.6822 -0.6134
  143MPD2    C4 2227   0.255   1.091  10.311  0.4520 -0.5371 -0.4430
  143MPD2    C5 2228   0.329   1.033  10.409  0.0642 -0.8967  0.3677
  143MPD2     H 2229   0.098   0.806  10.202  0.2297 -1.2602  1.5628
  143MPD2    H1 2230   0.247   1.199  10.299 -2.7102 -0.6106  0.8622
  143MPD2    H2 2231   0.384   0.849  10.503 -0.0507  1.9230  1.0031
  143MPD2    H3 2232   0.381   1.099  10.478 -0.7946  0.7651 -0.5802
  143MPD2     N 2233   0.093   1.082  10.144 -0.5387 -0.4816 -0.2557
  143MPD2    H5 2234   0.102   1.183  10.152 -0.4362 -0.7126  2.6021
  143MPD2    N1 2235   0.220   0.681  10.374  0.5382  0.3122 -0.1477
  143MPD2    H7 2236   0.153   0.630  10.317  0.6300 -0.8519  0.7851
  144TMC2    C1 2237   3.286   4.005   0.938 -0.0205 -0.0373  0.9524
  144TMC2    C2 2238   3.195   3.992   1.046  0.7271  0.3204 -0.2322
  144TMC2    C3 2239   3.214   4.062   1.158  0.1934 -0.6288  0.4023
  144TMC2    C4 2240   3.407   4.063   0.957  0.2333 -0.7147  0.4509
  144TMC2    C5 2241   3.430   4.138   1.073 -0.2877 -0.1374  0.0655
  144TMC2    C6 2242   3.332   4.129   1.173  0.1112 -0.1529  0.4716
  144TMC2     C 2243   3.253   3.960   0.809  0.3807 -0.6246 -0.1937
  144TMC2     O 2244   3.162   3.880   0.797  0.1428 -0.3463 -0.1165
  144TMC2     H 2245   3.096   3.950   1.033  0.4693  0.8176  0.1141
  144TMC2    H1 2246   3.481   4.050   0.879  2.3723  0.6512  2.2496
  144TMC2    H2 2247   3.349   4.166   1.273  1.6840  0.4458 -0.0289
  144TMC2    C7 2248   3.552   4.215   1.086  0.2324  0.2791  0.3553
  144TMC2    C8 2249   3.127   4.076   1.270  0.1938  0.1814 -0.5804
  144TMC2    O1 2250   3.644   4.170   1.020  0.0386 -0.6678 -0.2055
  144TMC2    O2 2251   3.129   4.171   1.350 -0.0925 -0.2318 -0.0661
  144TMC2    O5 2252   3.108   3.948   1.306 -0.3651  0.1348  0.0335
  144TMC2    H5 2253   3.117   3.881   1.235 -0.2150  0.3548 -0.1557
  145MPD2     C 2254   3.197   4.052   0.315  0.0840 -0.1699  0.2932
  145MPD2    C1 2255   3.176   3.933   0.382  0.1397 -0.2222  1.1302
  145MPD2    C2 2256   3.213   3.924   0.514 -0.4599  0.7253  0.2298
  145MPD2    C3 2257   3.262   4.037   0.574 -0.3278  0.1695 -0.4395
  145MPD2    C4 2258   3.283   4.154   0.504  0.4248 -0.7359 -0.0476
  145MPD2    C5 2259   3.255   4.157   0.370  0.0417 -0.0030  0.4428
  145MPD2     H 2260   3.201   3.837   0.578 -0.6690  1.9287  1.8420
  145MPD2    H1 2261   3.335   4.238   0.548 -2.2517  0.8828 -0.0107
  145MPD2    H2 2262   3.164   4.066   0.213  1.6061  2.7396  0.1660
  145MPD2    H3 2263   3.265   4.236   0.296  0.3403 -0.6335 -0.1901
  145MPD2     N 2264   3.301   4.044   0.712  0.1689  0.2293 -0.6934
  145MPD2    H5 2265   3.331   4.136   0.744 -1.7686  0.6081  0.0436
  145MPD2    N1 2266   3.100   3.828   0.330 -0.2410 -0.5506 -0.4746
  145MPD2    H7 2267   3.106   3.741   0.381  1.8754 -0.3614 -0.3644
  146TMC2    C1 2268   0.309   3.395  12.774 -0.0747 -0.1462  0.0300
  146TMC2    C2 2269   0.295   3.457  12.649 -0.3850 -0.2188 -0.3388
  146TMC2    C3 2270   0.365   3.414  12.545  0.2398 -0.4761 -0.3198
  146TMC2    C4 2271   0.372   3.273  12.778  0.4519 -0.4147 -0.2281
  146TMC2    C5 2272   0.432   3.231  12.667  0.4618  0.0279  0.7003
  146TMC2    C6 2273   0.441   3.300  12.549  0.1969  0.1996 -0.0432
  146TMC2     C 2274   0.255   3.450  12.890  0.4505 -0.7433 -0.5509
  146TMC2     O 2275   0.185   3.546  12.871  0.2531  0.5929 -0.7321
  146TMC2     H 2276   0.244   3.553  12.656 -1.5248 -0.7214 -1.6036
  146TMC2    H1 2277   0.365   3.215  12.869  1.0347 -1.5184 -0.8788
  146TMC2    H2 2278   0.486   3.248  12.465 -0.6233 -0.2104 -0.2188
  146TMC2    C7 2279   0.481   3.091  12.663 -0.7203 -0.4894  0.1989
  146TMC2    C8 2280   0.353   3.480  12.413 -0.5084  0.5827 -0.0226
  146TMC2    O1 2281   0.483   3.036  12.555 -0.2269 -0.5711  0.2378
  146TMC2    O2 2282   0.329   3.601  12.395  1.0534 -0.5943  0.1699
  146TMC2    O5 2283   0.344   3.380  12.326  0.0469  0.2826 -0.3193
  146TMC2    H5 2284   0.334   3.292  12.368 -1.0727  0.4068 -0.3314
  147MPD2     C 2285   0.655   2.649  12.891 -0.0040 -0.4572 -0.4711
  147MPD2    C1 2286   0.659   2.758  12.976  0.4836  0.2683 -0.0261
  147MPD2    C2 2287   0.608   2.876  12.934 -0.4259 -0.2749  0.3570
  147MPD2    C3 2288   0.569   2.906  12.806  0.2307 -0.1697  0.1551
  147MPD2    C4 2289   0.574   2.802  12.717 -0.4600  0.2836 -0.3925
  147MPD2    C5 2290   0.607   2.680  12.768 -0.0684 -0.0342  0.1477
  147MPD2     H 2291   0.621   2.964  12.997 -0.3847 -0.0159 -0.0098
  147MPD2    H1 2292   0.557   2.807  12.610  0.3203 -0.3411 -0.5393
  147MPD2    H2 2293   0.674   2.545  12.918 -1.4046  0.2089  3.1646
  147MPD2    H3 2294   0.593   2.598  12.699 -1.2491 -0.7100  1.1896
  147MPD2     N 2295   0.522   3.043  12.785  0.4115 -0.1563  0.9502
  147MPD2    H5 2296   0.520   3.107  12.863 -1.6581  0.0243  0.7578
  147MPD2    N1 2297   0.719   2.740  13.103  0.6384 -0.3002 -0.2271
  147MPD2    H7 2298   0.733   2.642  13.128 -2.9208 -1.5699 -3.1625
  148TMC2    C1 2299   0.884   2.804  10.843  0.1089  0.8306  0.4626
  148TMC2    C2 2300   0.893   2.892  10.948 -0.1486 -0.1932  0.8873
  148TMC2    C3 2301   0.955   2.850  11.064  0.3819 -0.0575 -0.2482
  148TMC2    C4 2302   0.925   2.673  10.866 -0.2332  0.0938 -0.8064
  148TMC2    C5 2303   0.961   2.635  10.993  0.1014  0.3661 -0.4804
  148TMC2    C6 2304   0.984   2.722  11.090 -0.1311 -0.3527  0.3214
  148TMC2     C 2305   0.800   2.840  10.725  0.2572 -0.9822  0.0217
  148TMC2     O 2306   0.754   2.955  10.735  0.4601 -0.0188  0.3738
  148TMC2     H 2307   0.858   2.995  10.944  1.0397  0.0704 -2.2356
  148TMC2    H1 2308   0.901   2.596  10.795 -0.1805 -1.2533  0.6453
  148TMC2    H2 2309   1.035   2.693  11.182  0.6180 -1.2549 -0.3800
  148TMC2    C7 2310   0.967   2.489  11.016  0.4276  0.7763 -0.7938
  148TMC2    C8 2311   1.028   2.947  11.143  0.2376  0.2226 -0.0282
  148TMC2    O1 2312   0.985   2.418  10.921  0.1205 -0.0413  0.2323
  148TMC2    O2 2313   1.048   2.937  11.263  0.0417 -0.4605 -0.3012
  148TMC2    O5 2314   1.025   3.066  11.081 -0.0550 -0.4240  0.0414
  148TMC2    H5 2315   1.048   3.055  10.986 -0.6935  1.3876 -0.3107
  149MPD2     C 2316   0.617   2.838  10.488 -1.0507 -0.2108 -0.2373
  149MPD2    C1 2317   0.653   2.725  10.561 -0.1201 -0.0777  0.2732
  149MPD2    C2 2318   0.588   2.608  10.535 -0.2864 -0.0924 -0.1029
  149MPD2    C3 2319   0.483   2.607  10.447  0.7235 -0.1685 -0.5238
  149MPD2    C4 2320   0.444   2.720  10.383  0.3367 -0.3692 -0.4575
  149MPD2    C5 2321   0.502   2.843  10.407 -0.1653  0.3231 -0.8657
  149MPD2     H 2322   0.635   2.524  10.584 -3.3011 -1.1317  0.9984
  149MPD2    H1 2323   0.352   2.721  10.325  1.0699  2.4073 -1.5333
  149MPD2    H2 2324   0.667   2.932  10.508  1.6650 -1.1837 -2.3820
  149MPD2    H3 2325   0.456   2.934  10.368 -1.5204  0.8532  1.9662
  149MPD2     N 2326   0.406   2.488  10.422  0.5791 -0.0940  0.0348
  149MPD2    H5 2327   0.329   2.498  10.356  1.7376  0.3203 -1.2611
  149MPD2    N1 2328   0.753   2.733  10.655  0.2532 -0.1961 -0.6454
  149MPD2    H7 2329   0.784   2.644  10.693  1.6482  1.0874  1.2575
  150TMC2    C1 2330   2.648   1.656  11.791 -1.0368  0.0140 -1.1077
  150TMC2    C2 2331   2.644   1.783  11.757  0.2358  0.3213 -0.2170
  150TMC2    C3 2332   2.664   1.869  11.855 -0.1458 -0.3929  0.1301
  150TMC2    C4 2333   2.677   1.611  11.918 -0.3404  0.2699  0.4587
  150TMC2    C5 2334   2.691   1.698  12.011  0.1688  0.0104 -0.0175
  150TMC2    C6 2335   2.680   1.828  11.985 -0.4078 -0.0249  1.5034
  150TMC2     C 2336   2.607   1.561  11.697  0.7183 -0.0132 -0.3375
  150TMC2     O 2337   2.654   1.447  11.702  0.7803 -0.0037  0.3819
  150TMC2     H 2338   2.637   1.823  11.656  0.9517  1.0148  0.0098
  150TMC2    H1 2339   2.668   1.507  11.947  2.4733  0.2074  1.0380
  150TMC2    H2 2340   2.688   1.906  12.060  0.3399  2.7541 -1.4544
  150TMC2    C7 2341   2.646   1.662  12.145  1.0329 -0.5392  0.0888
  150TMC2    C8 2342   2.621   2.004  11.835 -0.3389  0.6380 -0.7609
  150TMC2    O1 2343   2.564   1.739  12.195  0.4487  0.6245  0.3768
  150TMC2    O2 2344   2.672   2.077  11.750 -0.0498 -0.1923 -0.3780
  150TMC2    O5 2345   2.488   2.003  11.845 -0.1456 -0.3516 -0.0562
  150TMC2    H5 2346   2.453   1.948  11.918 -0.5206 -0.1811 -0.1032
  151MPD2     C 2347   2.408   1.439  11.235 -0.1531  0.3806 -0.1853
  151MPD2    C1 2348   2.333   1.534  11.301  0.3699  0.2480 -0.3275
  151MPD2    C2 2349   2.376   1.588  11.414  0.2805 -0.5021  0.2426
  151MPD2    C3 2350   2.488   1.541  11.476  0.5497 -0.1649 -0.5855
  151MPD2    C4 2351   2.559   1.433  11.424 -0.2741  0.2213  0.1064
  151MPD2    C5 2352   2.520   1.387  11.302 -0.0639  0.0336 -0.2687
  151MPD2     H 2353   2.311   1.658  11.464 -0.8925  0.2668 -2.3583
  151MPD2    H1 2354   2.657   1.408  11.464  0.6086 -0.9621 -2.7559
  151MPD2    H2 2355   2.375   1.398  11.140 -2.4808 -3.1504  2.1185
  151MPD2    H3 2356   2.579   1.308  11.258 -1.4145 -1.4013  0.4805
  151MPD2     N 2357   2.521   1.610  11.600 -0.1944 -0.8001  0.2434
  151MPD2    H5 2358   2.475   1.697  11.627 -1.3892 -1.4518  0.2961
  151MPD2    N1 2359   2.212   1.586  11.251  0.0336  0.2240  0.1648
  151MPD2    H7 2360   2.154   1.651  11.304  0.2799  0.4714  0.1305
  152TMC2    C1 2361   2.390   1.182  12.993 -0.6658 -0.4986  0.2093
  152TMC2    C2 2362   2.476   1.097  13.056  0.2294 -0.0917  0.1065
  152TMC2    C3 2363   2.612   1.121  13.052 -1.1068  0.1572  0.2631
  152TMC2    C4 2364   2.432   1.304  12.953  0.4173 -0.6041 -0.6591
  152TMC2    C5 2365   2.564   1.340  12.981  0.0492 -0.0367  0.0009
  152TMC2    C6 2366   2.654   1.250  13.030 -0.2802 -0.1746 -0.1475
  152TMC2     C 2367   2.251   1.161  12.987 -0.4750  0.0698 -0.1688
  152TMC2     O 2368   2.183   1.229  12.910 -0.2115 -0.0860  0.1549
  152TMC2     H 2369   2.450   0.997  13.090 -0.4578  0.4422  1.1599
  152TMC2    H1 2370   2.364   1.375  12.908 -0.0485 -0.0855  0.8804
  152TMC2    H2 2371   2.757   1.275  13.055 -0.0308 -0.6096 -0.7596
  152TMC2    C7 2372   2.610   1.468  12.916 -0.9384 -0.0525 -0.2859
  152TMC2    C8 2373   2.695   1.053  13.140  0.0635  0.1409  0.1270
  152TMC2    O1 2374   2.516   1.534  12.878 -0.4800 -0.0869  0.3862
  152TMC2    O2 2375   2.736   1.102  13.239  0.1824 -0.1915  0.3787
  152TMC2    O5 2376   2.661   0.919  13.121 -0.0900  0.2554 -0.1375
  152TMC2    H5 2377   2.675   0.894  13.027  1.6633 -0.4613  0.3199
  153MPD2     C 2378   2.060   0.957  13.223 -0.1553 -0.1623 -0.1218
  153MPD2    C1 2379   2.077   1.036  13.114  0.1019 -0.5412 -0.1360
  153MPD2    C2 2380   1.965   1.073  13.040 -0.1635 -0.3494  0.1412
  153MPD2    C3 2381   1.836   1.039  13.080  0.2433 -0.5919  0.3272
  153MPD2    C4 2382   1.819   0.959  13.191  0.2185 -0.4362 -0.1487
  153MPD2    C5 2383   1.933   0.917  13.264 -0.0869  0.0001  0.1697
  153MPD2     H 2384   1.978   1.124  12.945  0.9683 -2.2483 -0.7118
  153MPD2    H1 2385   1.723   0.918  13.222 -0.1696  2.0881  2.0674
  153MPD2    H2 2386   2.149   0.921  13.274  0.1862 -1.0946 -1.3718
  153MPD2    H3 2387   1.921   0.842  13.341 -2.0569  0.8060  0.6550
  153MPD2     N 2388   1.725   1.075  12.998 -0.0859  0.6735 -0.4896
  153MPD2    H5 2389   1.751   1.121  12.911  0.9533  0.7981 -0.1092
  153MPD2    N1 2390   2.209   1.071  13.078  0.1544 -0.2827  0.4088
  153MPD2    H7 2391   2.283   1.027  13.131  0.8673  1.1206  0.5473
  154TMC2    C1 2392   4.084   0.216   1.011  0.2872  0.1130 -0.5904
  154TMC2    C2 2393   4.190   0.262   1.086 -0.4296  1.0888  0.2662
  154TMC2    C3 2394   4.319   0.240   1.044 -0.5764 -0.3456  0.3445
  154TMC2    C4 2395   4.111   0.144   0.896  0.1641  1.0863  0.0062
  154TMC2    C5 2396   4.244   0.095   0.883  0.0906 -0.0453 -1.2227
  154TMC2    C6 2397   4.348   0.144   0.954 -0.5646 -0.5536 -0.2495
  154TMC2     C 2398   3.952   0.264   1.042  0.8791  0.4140 -0.6033
  154TMC2     O 2399   3.943   0.373   1.090  0.1912  0.3791  0.3608
  154TMC2     H 2400   4.164   0.333   1.164 -1.5850  0.1779  0.7117
  154TMC2    H1 2401   4.026   0.114   0.836  1.2079 -0.2190 -0.8232
  154TMC2    H2 2402   4.451   0.114   0.938 -0.8565 -2.2066  0.9217
  154TMC2    C7 2403   4.280   0.031   0.758 -0.0716 -0.3179 -0.2966
  154TMC2    C8 2404   4.430   0.322   1.086  0.7842  0.2662  0.4210
  154TMC2    O1 2405   4.387   0.066   0.703  0.3099  0.0339 -0.6102
  154TMC2    O2 2406   4.545   0.280   1.099 -0.6749  0.4265 -0.1589
  154TMC2    O5 2407   4.393   0.452   1.080  0.0809 -0.8725 -0.1072
  154TMC2    H5 2408   4.303   0.472   1.047  0.6829 -0.3310 -1.4107
  155MPD2     C 2409   3.632   0.142   0.900  0.3356  0.0403 -0.2540
  155MPD2    C1 2410   3.717   0.219   0.978 -0.0885  0.6714  0.5988
  155MPD2    C2 2411   3.662   0.329   1.037 -0.2642  0.1048  0.6745
  155MPD2    C3 2412   3.530   0.360   1.030  0.3131 -0.5928  0.4539
  155MPD2    C4 2413   3.442   0.280   0.968 -0.3879  0.9148 -0.4481
  155MPD2    C5 2414   3.491   0.178   0.896  0.4947  0.3812 -0.4699
  155MPD2     H 2415   3.730   0.390   1.096  1.9791 -1.5646 -0.1635
  155MPD2    H1 2416   3.336   0.303   0.965 -0.5559  0.0204 -1.4213
  155MPD2    H2 2417   3.663   0.058   0.838  0.8437  0.3593 -0.4335
  155MPD2    H3 2418   3.416   0.123   0.839 -2.1815  2.8449  0.6837
  155MPD2     N 2419   3.489   0.478   1.105  0.1642 -0.1847 -0.2635
  155MPD2    H5 2420   3.564   0.523   1.155 -0.0563  1.3730 -1.3369
  155MPD2    N1 2421   3.854   0.185   0.982  0.2811  0.3548 -0.4211
  155MPD2    H7 2422   3.893   0.108   0.929  0.9054  0.0710  0.4384
  156TMC2    C1 2423   1.793   3.961  11.604  0.2078  0.2531  0.5638
  156TMC2    C2 2424   1.669   3.912  11.618 -0.6424  0.1015 -0.4123
  156TMC2    C3 2425   1.562   3.992  11.576  0.4581 -0.0262 -0.5230
  156TMC2    C4 2426   1.818   4.080  11.545  0.4125 -0.2818  0.5441
  156TMC2    C5 2427   1.712   4.159  11.506  0.0616  0.4276  0.6744
  156TMC2    C6 2428   1.584   4.118  11.514  0.2740 -0.5373 -0.2434
  156TMC2     C 2429   1.889   3.914  11.705 -0.5783 -0.9585  0.3322
  156TMC2     O 2430   2.005   3.956  11.707 -0.1407 -0.4937 -0.3718
  156TMC2     H 2431   1.643   3.811  11.648 -0.7380  0.1515 -0.3285
  156TMC2    H1 2432   1.916   4.126  11.543  0.3263  0.0353  4.0856
  156TMC2    H2 2433   1.499   4.177  11.482  0.1100 -0.7336 -0.1677
  156TMC2    C7 2434   1.741   4.298  11.505 -0.2420  0.2194 -0.1872
  156TMC2    C8 2435   1.440   3.929  11.551  0.1172 -0.0008 -0.4287
  156TMC2    O1 2436   1.844   4.323  11.440  0.3139 -0.5203 -0.1078
  156TMC2    O2 2437   1.430   3.808  11.532  0.0184 -0.0496 -0.1761
  156TMC2    O5 2438   1.345   4.004  11.605  0.1097  0.1239  0.6428
  156TMC2    H5 2439   1.362   4.098  11.628  0.6331  0.1478  0.1626
  157MPD2     C 2440   1.804   3.715  11.997  0.2066 -0.0803 -0.1025
  157MPD2    C1 2441   1.885   3.797  11.924  0.5243 -0.5361 -0.1929
  157MPD2    C2 2442   2.012   3.823  11.970  0.2286  0.3455  0.2790
  157MPD2    C3 2443   2.057   3.771  12.091 -0.0928 -0.1145  0.6985
  157MPD2    C4 2444   1.977   3.678  12.156  0.2483 -0.7847  0.6542
  157MPD2    C5 2445   1.854   3.646  12.101  0.4837  0.2763 -0.3891
  157MPD2     H 2446   2.075   3.897  11.922 -0.9559 -1.4549 -4.0314
  157MPD2    H1 2447   2.014   3.613  12.235 -1.3729 -0.4017  1.7392
  157MPD2    H2 2448   1.708   3.681  11.961  0.7285 -0.4296 -1.1616
  157MPD2    H3 2449   1.792   3.569  12.145  1.5863  0.4094  1.4120
  157MPD2     N 2450   2.188   3.800  12.130 -0.5935  0.8361  0.1445
  157MPD2    H5 2451   2.229   3.875  12.075  1.6629 -0.6409 -0.2381
  157MPD2    N1 2452   1.831   3.836  11.800 -0.0584 -0.1482  0.3464
  157MPD2    H7 2453   1.733   3.809  11.789 -0.3043  1.2266 -0.7472
  158TMC2    C1 2454   3.214   2.409  13.131  0.0962 -0.4663 -0.4802
  158TMC2    C2 2455   3.288   2.468  13.033  0.6565 -0.2234  0.2902
  158TMC2    C3 2456   3.246   2.599  12.992  0.0231  0.3675  1.1191
  158TMC2    C4 2457   3.100   2.464  13.174 -0.0281 -0.2792 -0.0418
  158TMC2    C5 2458   3.051   2.580  13.113 -0.3434  0.1981 -0.3282
  158TMC2    C6 2459   3.131   2.655  13.025 -0.2140  0.5038  0.5735
  158TMC2     C 2460   3.271   2.289  13.197 -0.4170 -0.2532 -0.0254
  158TMC2     O 2461   3.358   2.226  13.136 -0.0055  0.0974  0.6157
  158TMC2     H 2462   3.380   2.428  12.992 -0.1060 -1.2562 -0.3952
  158TMC2    H1 2463   3.037   2.406  13.241  1.5066 -1.5457  0.3106
  158TMC2    H2 2464   3.092   2.751  12.993 -0.7745  0.6158  1.6009
  158TMC2    C7 2465   2.925   2.627  13.167 -0.2617  0.3038 -0.7767
  158TMC2    C8 2466   3.351   2.677  12.925  0.4562  0.4373 -0.6325
  158TMC2    O1 2467   2.891   2.740  13.132  0.3315  0.0567  0.2830
  158TMC2    O2 2468   3.431   2.628  12.848 -0.1906  0.1151  0.1148
  158TMC2    O5 2469   3.294   2.799  12.915  0.3616  0.1012 -0.0237
  158TMC2    H5 2470   3.268   2.831  13.004 -2.6060  1.1824 -1.2893
  159MPD2     C 2471   3.295   1.947  13.594 -0.2975 -0.1899  0.3233
  159MPD2    C1 2472   3.205   2.045  13.624  0.2258  0.3433  0.3597
  159MPD2    C2 2473   3.188   2.155  13.538  0.0376  0.3052  0.4986
  159MPD2    C3 2474   3.252   2.159  13.413  0.1361 -0.0310 -0.1063
  159MPD2    C4 2475   3.330   2.054  13.373 -0.1839 -0.4983  0.1747
  159MPD2    C5 2476   3.363   1.957  13.471 -0.4681 -0.1332  0.2495
  159MPD2     H 2477   3.123   2.238  13.563  1.5410  1.6030  0.0592
  159MPD2    H1 2478   3.370   2.037  13.274  0.3866  2.6333 -0.1343
  159MPD2    H2 2479   3.327   1.868  13.662 -0.6440 -2.2419 -1.8826
  159MPD2    H3 2480   3.417   1.871  13.433  2.5871  1.0702  1.8798
  159MPD2     N 2481   3.221   2.265  13.327 -0.3030 -0.2322 -0.8710
  159MPD2    H5 2482   3.166   2.340  13.366 -1.7675 -2.3720  1.1807
  159MPD2    N1 2483   3.132   2.031  13.745  0.1497  0.0300 -0.0920
  159MPD2    H7 2484   3.152   1.942  13.789  1.1683 -1.5273 -3.7017
  160TMC2    C1 2485   2.571   4.515   1.416  0.1501  0.0814 -0.9530
  160TMC2    C2 2486   2.597   4.424   1.513 -0.4883  0.4953 -0.2015
  160TMC2    C3 2487   2.735   4.388   1.527  0.1152  0.5168  1.0565
  160TMC2    C4 2488   2.663   4.582   1.351 -0.2407 -0.1096 -0.0763
  160TMC2    C5 2489   2.792   4.555   1.385 -0.0685  0.3412 -0.9125
  160TMC2    C6 2490   2.831   4.459   1.469 -0.1246  0.2177  0.1870
  160TMC2     C 2491   2.449   4.591   1.450  0.4701 -0.2405  0.1839
  160TMC2     O 2492   2.380   4.544   1.540  0.3120 -0.6440 -0.4777
  160TMC2     H 2493   2.522   4.355   1.551  0.3635  0.7272  1.8855
  160TMC2    H1 2494   2.634   4.655   1.276 -0.8528  2.2455  2.4857
  160TMC2    H2 2495   2.937   4.442   1.484 -0.6595 -3.4307 -0.2300
  160TMC2    C7 2496   2.893   4.621   1.305 -0.0847 -0.1227 -0.7970
  160TMC2    C8 2497   2.767   4.266   1.592 -0.3202 -0.0241  0.4446
  160TMC2    O1 2498   3.002   4.563   1.303 -0.2073 -0.1861  0.0955
  160TMC2    O2 2499   2.695   4.200   1.664  0.2299 -0.7790 -0.4018
  160TMC2    O5 2500   2.846   4.213   1.490 -0.2812 -0.2386 -0.2927
  160TMC2    H5 2501   2.838   4.267   1.408  0.5023  1.2678  0.6294
  161MPD2     C 2502   2.237   0.043   1.472 -0.5189 -0.6325  1.1396
  161MPD2    C1 2503   2.286   4.736   1.353 -0.1525  0.0953  0.0581
  161MPD2    C2 2504   2.234   0.048   1.238 -0.0982 -0.2817  0.3699
  161MPD2    C3 2505   2.123   0.131   1.239 -0.8929 -0.1690  0.6109
  161MPD2    C4 2506   2.073   0.172   1.357  0.7983 -0.4557 -0.4171
  161MPD2    C5 2507   2.123   0.122   1.479  0.0432 -0.6196  0.0497
  161MPD2     H 2508   2.280   0.013   1.146  1.7428  1.5354  0.6059
  161MPD2    H1 2509   1.983   0.232   1.362  1.2359  0.3771 -2.4105
  161MPD2    H2 2510   2.275   0.012   1.568 -1.0744  1.0308  1.8976
  161MPD2    H3 2511   2.079   0.146   1.575 -0.2291 -1.3366  0.1059
  161MPD2     N 2512   2.064   0.184   1.122 -0.0039 -0.3008 -0.3553
  161MPD2    H5 2513   1.999   0.260   1.138  1.6517  1.0510 -0.0390
  161MPD2    N1 2514   2.397   4.653   1.340  0.5667 -0.7263  0.0483
  161MPD2    H7 2515   2.440   4.637   1.249  2.2988  0.7348  0.6186
  162TMC2    C1 2516   0.654   1.586   1.017 -0.5546 -0.3005 -0.1393
  162TMC2    C2 2517   0.584   1.692   1.068  0.4975  1.0424  1.1635
  162TMC2    C3 2518   0.597   1.715   1.201 -0.0356 -0.0806  0.2026
  162TMC2    C4 2519   0.719   1.500   1.095 -0.1750 -0.5792 -0.6990
  162TMC2    C5 2520   0.736   1.528   1.224 -0.4662  0.6405  0.1855
  162TMC2    C6 2521   0.677   1.636   1.285  0.6416  0.1214  0.1716
  162TMC2     C 2522   0.650   1.561   0.874  0.0805 -1.0535  0.4489
  162TMC2     O 2523   0.721   1.468   0.835  0.9697 -0.3202  0.5408
  162TMC2     H 2524   0.528   1.771   1.020 -1.7123 -0.6935  0.9005
  162TMC2    H1 2525   0.766   1.415   1.047  1.3540  0.2164 -0.6079
  162TMC2    H2 2526   0.698   1.654   1.390 -0.2881 -1.4420  0.6342
  162TMC2    C7 2527   0.780   1.428   1.322 -0.6603  0.0824  0.3226
  162TMC2    C8 2528   0.528   1.831   1.251 -0.3290 -0.1947 -0.8109
  162TMC2    O1 2529   0.736   1.435   1.438 -0.2295 -0.3307 -1.2197
  162TMC2    O2 2530   0.494   1.923   1.185  0.7457 -0.3773  0.1021
  162TMC2    O5 2531   0.470   1.793   1.369 -0.3603  0.0480 -0.1715
  162TMC2    H5 2532   0.516   1.719   1.414  1.2126  0.6079 -0.8327
  163MPD2     C 2533   0.381   1.592   0.441  0.3307 -0.3667 -0.4862
  163MPD2    C1 2534   0.494   1.521   0.468 -0.5436 -0.2896  0.0625
  163MPD2    C2 2535   0.552   1.535   0.592 -0.1004  0.0665  0.3181
  163MPD2    C3 2536   0.497   1.620   0.687  0.3451 -0.2782 -0.7890
  163MPD2    C4 2537   0.390   1.700   0.654 -0.1625  0.2420 -0.7735
  163MPD2    C5 2538   0.333   1.686   0.527  0.0388 -0.1782  0.2128
  163MPD2     H 2539   0.652   1.502   0.615 -0.4699 -2.1488 -1.3184
  163MPD2    H1 2540   0.348   1.777   0.718  0.3892  1.3350 -1.7181
  163MPD2    H2 2541   0.326   1.573   0.350 -0.4587 -3.0885  0.5656
  163MPD2    H3 2542   0.240   1.736   0.503  0.7732  0.8792 -0.4388
  163MPD2     N 2543   0.539   1.615   0.821  0.2536  0.6466 -0.1104
  163MPD2    H5 2544   0.474   1.660   0.885  1.0564 -0.2397  1.3320
  163MPD2    N1 2545   0.541   1.442   0.369  0.2227 -0.2926  0.1620
  163MPD2    H7 2546   0.483   1.439   0.286 -1.2781  0.8009  1.1765
  164TMC2    C1 2547   1.165   2.011  11.631 -0.3381 -0.7331  0.5850
  164TMC2    C2 2548   1.208   1.960  11.756  0.6879  0.5128  0.0395
  164TMC2    C3 2549   1.203   2.042  11.871  0.9962 -0.1160  0.9496
  164TMC2    C4 2550   1.098   2.133  11.633 -0.6598 -0.2306  0.4544
  164TMC2    C5 2551   1.109   2.214  11.744  0.2506  0.3807 -0.3566
  164TMC2    C6 2552   1.159   2.166  11.863 -0.0344 -0.4830 -0.1724
  164TMC2     C 2553   1.121   1.920  11.521  0.4475  1.0422 -0.0419
  164TMC2     O 2554   1.122   1.799  11.547 -0.3646 -0.1395 -0.1778
  164TMC2     H 2555   1.236   1.857  11.770 -1.3786  0.2024  1.8602
  164TMC2    H1 2556   1.040   2.171  11.550 -0.2926  0.7396  0.6360
  164TMC2    H2 2557   1.146   2.221  11.955 -0.6260  0.6673 -0.9351
  164TMC2    C7 2558   1.056   2.347  11.727 -0.3486  0.6688 -0.1832
  164TMC2    C8 2559   1.216   1.990  12.008  0.2187  0.4745  0.0898
  164TMC2    O1 2560   0.981   2.366  11.629  0.2369 -0.3881 -0.2468
  164TMC2    O2 2561   1.175   2.051  12.109 -0.4220 -0.4488 -0.2085
  164TMC2    O5 2562   1.292   1.880  12.003  0.6455 -0.1102  0.2945
  164TMC2    H5 2563   1.332   1.857  11.916 -0.2007 -0.7867  0.0793
  165TMC2    C1 2564   1.446   4.246   0.759 -0.5209  0.0209  1.1007
  165TMC2    C2 2565   1.339   4.235   0.845  0.0394  0.2338  0.1127
  165TMC2    C3 2566   1.363   4.231   0.979  0.5785 -0.3106  0.0788
  165TMC2    C4 2567   1.575   4.264   0.807 -0.1039  0.1863 -0.8454
  165TMC2    C5 2568   1.593   4.268   0.944  0.3484  0.5050  0.3816
  165TMC2    C6 2569   1.490   4.251   1.034  0.0876  0.6163 -0.2616
  165TMC2     C 2570   1.435   4.243   0.614  0.0459  0.8816  0.4198
  165TMC2     O 2571   1.538   4.267   0.554 -0.8189  0.6920 -0.5957
  165TMC2     H 2572   1.236   4.229   0.812  0.1304 -3.1663  0.4662
  165TMC2    H1 2573   1.660   4.277   0.742 -0.5549  0.3650 -1.4054
  165TMC2    H2 2574   1.501   4.255   1.142  0.0861  0.8037 -0.2682
  165TMC2    C7 2575   1.733   4.258   0.984 -0.6087  0.6422 -0.0028
  165TMC2    C8 2576   1.246   4.234   1.068  0.4349 -0.6154  0.0763
  165TMC2    O1 2577   1.824   4.241   0.902 -0.2400 -0.0118  0.0573
  165TMC2    O2 2578   1.136   4.277   1.032  0.0649 -0.2212  0.2496
  165TMC2    O5 2579   1.261   4.134   1.150 -0.0576 -0.1508  0.2353
  165TMC2    H5 2580   1.342   4.079   1.147  0.2207  0.1968  1.6824
  166MPD2     C 2581   1.198   4.111   0.179 -0.3244 -0.6709  1.1257
  166MPD2    C1 2582   1.127   4.069   0.285  0.4673  0.5677 -0.3652
  166MPD2    C2 2583   1.156   4.106   0.416  0.0692  0.1145 -0.8549
  166MPD2    C3 2584   1.269   4.183   0.441  0.1874 -0.3531 -0.0842
  166MPD2    C4 2585   1.342   4.227   0.334  0.7011 -0.2593 -0.8326
  166MPD2    C5 2586   1.308   4.190   0.208 -0.4606 -0.1651  0.7737
  166MPD2     H 2587   1.096   4.070   0.498  0.6328 -1.2812 -1.0600
  166MPD2    H1 2588   1.428   4.287   0.360 -1.1709  2.7135 -1.4244
  166MPD2    H2 2589   1.179   4.098   0.073  0.0582  1.2560  0.8191
  166MPD2    H3 2590   1.373   4.234   0.132 -0.9397  1.7467  1.4690
  166MPD2     N 2591   1.309   4.200   0.575  0.1003 -0.5385  0.1569
  166MPD2    H5 2592   1.236   4.166   0.637 -0.2872 -0.0979 -0.0561
  166MPD2    N1 2593   1.026   3.976   0.260 -0.6905 -0.4813 -0.1843
  166MPD2    H7 2594   0.994   3.955   0.166 -0.2421 -2.8695  0.1898
  167TMC2    C1 2595   0.662   1.009  13.259 -0.2345 -0.3167 -1.0253
  167TMC2    C2 2596   0.642   0.937  13.370  0.4866  0.0674  0.0829
  167TMC2    C3 2597   0.716   0.826  13.401 -0.1708 -0.2293 -0.3329
  167TMC2    C4 2598   0.756   0.964  13.177 -0.7022 -0.4497 -0.4310
  167TMC2    C5 2599   0.820   0.845  13.200 -0.2287 -0.0975  0.1705
  167TMC2    C6 2600   0.816   0.779  13.324  0.1465  0.2134 -0.4560
  167TMC2     C 2601   0.552   1.059  13.186 -0.2391  0.6682  0.5097
  167TMC2     O 2602   0.546   1.023  13.072 -0.3690 -0.0317 -1.0513
  167TMC2     H 2603   0.569   0.971  13.443 -1.6565 -1.6836 -1.2234
  167TMC2    H1 2604   0.773   1.018  13.084 -0.0203 -0.0556 -0.0783
  167TMC2    H2 2605   0.868   0.688  13.349  0.1798  0.1700 -0.6823
  167TMC2    C7 2606   0.938   0.815  13.118 -1.6765  0.2614  0.2573
  167TMC2    C8 2607   0.722   0.782  13.544  0.1564  0.0607  0.1698
  167TMC2    O1 2608   1.032   0.764  13.174 -0.5318 -0.5034  0.1991
  167TMC2    O2 2609   0.612   0.757  13.593 -0.2816 -0.1868 -0.1106
  167TMC2    O5 2610   0.838   0.830  13.605 -0.1184 -0.1051 -0.0955
  167TMC2    H5 2611   0.912   0.867  13.551 -0.2321  1.1187  0.5904
  168MPD2     C 2612   0.267   1.257  13.279 -0.7862 -0.5077  0.0995
  168MPD2    C1 2613   0.366   1.212  13.196  0.4174 -0.3752  0.5117
  168MPD2    C2 2614   0.359   1.244  13.062  0.5233  0.4371 -0.0935
  168MPD2    C3 2615   0.256   1.319  13.004  0.2104 -0.0748 -0.8518
  168MPD2    C4 2616   0.159   1.363  13.091 -0.3971 -0.3799 -0.8737
  168MPD2    C5 2617   0.166   1.330  13.222  0.3182 -0.3101 -0.5472
  168MPD2     H 2618   0.441   1.214  12.998 -0.2268  0.5379 -1.0896
  168MPD2    H1 2619   0.077   1.426  13.058 -1.9669 -2.2032 -0.4504
  168MPD2    H2 2620   0.257   1.231  13.384 -2.6342  0.5133  0.1615
  168MPD2    H3 2621   0.082   1.354  13.287  0.5097  1.6194 -0.9963
  168MPD2     N 2622   0.252   1.348  12.869  0.3104  0.2367 -0.5863
  168MPD2    H5 2623   0.161   1.382  12.837  0.0908 -0.0060 -0.2207
  168MPD2    N1 2624   0.470   1.134  13.257 -0.9660  0.3572  0.2854
  168MPD2    H7 2625   0.470   1.140  13.358 -2.0551 -2.1359  0.4311
  169MPD1     C 2626   3.495   2.706   9.265 -0.6070 -0.5294 -0.0061
  169MPD1    C1 2627   3.437   2.626   9.175  0.6801 -0.3477 -0.1824
  169MPD1    C2 2628   3.468   2.491   9.172  0.5729 -0.1255  1.6898
  169MPD1    C3 2629   3.552   2.439   9.267 -0.2398  0.7478 -0.6274
  169MPD1    C4 2630   3.602   2.520   9.365 -0.0911  0.3221  0.2125
  169MPD1    C5 2631   3.568   2.654   9.365  0.7653 -0.4901  0.6435
  169MPD1     H 2632   3.424   2.426   9.097  0.8207 -0.2648  1.6629
  169MPD1    H1 2633   3.666   2.486   9.445  0.9788 -0.7889 -1.1190
  169MPD1    H2 2634   3.485   2.813   9.254 -1.6083 -0.8749 -2.3223
  169MPD1    H3 2635   3.615   2.711   9.444 -0.1423  2.0634 -0.6703
  169MPD1     N 2636   3.583   2.302   9.260 -0.3406  0.4410 -0.6236
  169MPD1    H5 2637   3.541   2.253   9.182  0.3326 -0.4998 -0.3928
  169MPD1    N1 2638   3.367   2.681   9.070  0.2627  0.5662 -0.8184
  169MPD1    H6 2639   3.344   2.780   9.073 -1.4100  0.2268 -2.1212
  169MPD1    H7 2640   3.282   2.628   9.051  0.2476  0.6110 -0.8761
  170MPD1     C 2641   1.887   4.601  12.878  0.2872  0.0373  0.3639
  170MPD1    C1 2642   1.756   4.609  12.839  0.5846 -0.3194  0.4258
  170MPD1    C2 2643   1.662   4.558  12.932  0.2900  0.3209  0.1355
  170MPD1    C3 2644   1.698   4.512  13.059  0.0018 -0.5579 -0.2052
  170MPD1    C4 2645   1.834   4.512  13.093 -0.5193 -0.4485 -0.1254
  170MPD1    C5 2646   1.922   4.557  13.000  0.3216  0.1764  0.1903
  170MPD1     H 2647   1.555   4.555  12.913  0.2660  1.6060  0.0321
  170MPD1    H1 2648   1.871   4.468  13.185  0.1437 -1.3637 -0.8196
  170MPD1    H2 2649   1.967   4.636  12.814  1.2966 -0.4500  1.3674
  170MPD1    H3 2650   2.025   4.548  13.032  0.3828  3.3540  0.9396
  170MPD1     N 2651   1.599   4.477  13.142  0.1090 -0.2041 -0.4563
  170MPD1    H5 2652   1.502   4.484  13.111  0.6223 -0.8505 -2.2345
  170MPD1    N1 2653   1.717   4.672  12.720 -0.3050 -0.0390 -0.2960
  170MPD1    H6 2654   1.620   4.653  12.696 -0.9574  3.3256 -0.3237
  170MPD1    H7 2655   1.788   4.667  12.647 -0.2410 -1.3514 -0.1550
  171MPD1     C 2656   4.724   0.251  15.066 -0.8809 -0.0056  0.3488
  171MPD1    C1 2657   4.701   0.298  15.193  0.9871 -0.2021  0.5664
  171MPD1    C2 2658   4.705   0.205  15.298 -0.3228 -0.4556  0.0940
  171MPD1    C3 2659   0.003   0.075  15.269  0.3407 -0.4107  0.5087
  171MPD1    C4 2660   0.029   0.029  15.141  0.6645 -0.1897  0.2740
  171MPD1    C5 2661   0.023   0.124  15.036 -0.2007  0.2247 -0.8482
  171MPD1     H 2662   4.686   0.239  15.399 -2.1650 -3.3304  0.7274
  171MPD1    H1 2663   0.027   4.660  15.128 -0.3291 -0.1402 -0.0133
  171MPD1    H2 2664   4.691   0.309  14.980 -0.3474  0.4845  0.4795
  171MPD1    H3 2665   0.026   0.084  14.936  2.0069  0.0738 -0.7196
  171MPD1     N 2666   0.011   4.717  15.374  0.3569 -0.2616 -0.3122
  171MPD1    H5 2667   0.026   4.621  15.345  1.8558 -0.2703  0.5363
  171MPD1    N1 2668   4.659   0.428  15.221 -0.1622  0.4792  0.1102
  171MPD1    H6 2669   4.694   0.464  15.310 -0.5057  0.8087  0.1101
  171MPD1    H7 2670   4.685   0.496  15.150 -2.6518 -0.2274 -1.4693
  172MPD1     C 2671   2.964   3.535   0.642  0.1829 -0.5443  0.3731
  172MPD1    C1 2672   3.004   3.490   0.525 -0.1987  0.2056 -0.3681
  172MPD1    C2 2673   3.140   3.507   0.502  0.2319  0.2227  0.1267
  172MPD1    C3 2674   3.229   3.573   0.587  0.0414  0.3883  0.2719
  172MPD1    C4 2675   3.183   3.599   0.712 -0.0927 -0.6841 -0.2635
  172MPD1    C5 2676   3.051   3.576   0.740  0.0288 -0.2556 -0.0642
  172MPD1     H 2677   3.176   3.478   0.404 -1.6328  0.9820 -0.7826
  172MPD1    H1 2678   3.244   3.648   0.787  0.4596 -0.7041 -0.6929
  172MPD1    H2 2679   2.860   3.561   0.658  0.5253 -0.4007  2.4361
  172MPD1    H3 2680   3.004   3.629   0.823  2.0417  0.0963  0.8397
  172MPD1     N 2681   3.362   3.619   0.559  0.2900  0.0048  0.4597
  172MPD1    H5 2682   3.406   3.666   0.638 -0.1892  2.4865 -0.7480
  172MPD1    N1 2683   2.914   3.482   0.419 -0.1714 -0.1097 -0.7222
  172MPD1    H6 2684   2.958   3.435   0.341  1.1235  1.1847 -0.7917
  172MPD1    H7 2685   2.833   3.428   0.446 -0.0691  0.3717  0.5833
  173MPD1     C 2686   0.607   0.043  13.555  0.4661 -0.3374  0.5990
  173MPD1    C1 2687   0.582   4.656  13.522  0.9508  0.2959  0.9684
  173MPD1    C2 2688   0.496   4.586  13.603  0.2586 -0.1553  0.1981
  173MPD1    C3 2689   0.447   4.640  13.721 -0.6465 -0.3701 -0.1950
  173MPD1    C4 2690   0.477   0.028  13.759  0.2328  0.2185  0.8505
  173MPD1    C5 2691   0.560   0.095  13.679  0.1690 -0.7458 -0.5380
  173MPD1     H 2692   0.471   4.482  13.583  0.8116 -0.8807  3.1850
  173MPD1    H1 2693   0.444   0.071  13.852  0.4668  1.7568  0.2201
  173MPD1    H2 2694   0.665   0.108  13.490  0.1098  0.5574  1.1750
  173MPD1    H3 2695   0.585   0.198  13.702  1.3127 -1.1045 -0.1740
  173MPD1     N 2696   0.362   4.565  13.804 -0.0090 -0.6771 -0.6036
  173MPD1    H5 2697   0.359   4.466  13.787 -0.7108 -0.7202 -0.2399
  173MPD1    N1 2698   0.654   4.594  13.418  0.0269 -0.3131  0.3011
  173MPD1    H6 2699   0.673   4.650  13.336  0.2589  0.3007  0.7727
  173MPD1    H7 2700   0.623   4.500  13.394 -0.2327  0.1477 -1.1440
  174MPD1     C 2701   4.562   3.740  13.777 -0.5603 -0.0635  0.2273
  174MPD1    C1 2702   4.554   3.849  13.693  0.0320 -0.1845 -0.9561
  174MPD1    C2 2703   4.610   3.968  13.740 -0.5718  0.2244 -0.0781
  174MPD1    C3 2704   4.678   3.978  13.868  0.0834 -0.3779 -0.1665
  174MPD1    C4 2705   4.684   3.869  13.943  0.3410 -0.8496  0.9484
  174MPD1    C5 2706   4.626   3.750  13.899  0.1296 -0.7807  0.1784
  174MPD1     H 2707   4.602   4.054  13.675  1.7392 -0.2058 -0.9249
  174MPD1    H1 2708   0.002   3.865  14.036  3.4726  0.0525 -0.9347
  174MPD1    H2 2709   4.503   3.653  13.750  1.1762 -1.1778 -0.0408
  174MPD1    H3 2710   4.619   3.657  13.955  0.3245 -1.3431 -0.7398
  174MPD1     N 2711   4.717   4.091  13.926 -0.6937 -0.4841  0.1082
  174MPD1    H5 2712   0.012   4.086  14.021 -1.0975 -0.3211  0.2585
  174MPD1    N1 2713   4.462   3.852  13.591  0.0289  0.1027 -0.2444
  174MPD1    H6 2714   4.444   3.761  13.547 -1.9978 -1.2455  3.3722
  174MPD1    H7 2715   4.481   3.916  13.514  1.5484 -2.3653 -1.9169
  175MPD1     C 2716   3.437   0.290  15.714 -0.0392 -0.0791 -0.0109
  175MPD1    C1 2717   3.473   0.175  15.649  0.5448 -0.5456  0.5011
  175MPD1    C2 2718   3.499   0.066  15.730  0.2034 -0.5375 -0.2337
  175MPD1    C3 2719   3.487   0.069  15.864  0.3287  1.1291  0.0385
  175MPD1    C4 2720   3.454   0.186  15.925 -0.5568  0.0824  0.2537
  175MPD1    C5 2721   3.420   0.291  15.851  0.1920  0.4234 -0.7128
  175MPD1     H 2722   3.532   4.718  15.672 -1.6171 -1.5587  0.2473
  175MPD1    H1 2723   3.454   0.189  16.034 -0.1987  0.8864  0.2298
  175MPD1    H2 2724   3.425   0.387  15.665  0.6176  0.3417  0.6726
  175MPD1    H3 2725   3.401   0.378  15.913 -0.0135 -0.3530  0.3142
  175MPD1     N 2726   3.496   4.689  15.949  0.2283 -0.3007  0.0092
  175MPD1    H5 2727   3.453   4.693  16.041  0.1300 -0.8982 -0.0105
  175MPD1    N1 2728   3.506   0.189  15.511  0.2501  0.2222 -0.6166
  175MPD1    H6 2729   3.448   0.267  15.483 -0.3880  1.2609  3.6272
  175MPD1    H7 2730   3.480   0.103  15.462  1.9855 -1.0197  0.6360
  176MPD1     C 2731   1.506   2.846  17.452 -0.0008 -0.0965 -0.6758
  176MPD1    C1 2732   1.432   2.774  17.367  1.1504  0.2003  0.2727
  176MPD1    C2 2733   1.292   2.783  17.384  0.6042  0.0987  0.0588
  176MPD1    C3 2734   1.241   2.835  17.501 -0.0375  0.0694  0.4279
  176MPD1    C4 2735   1.331   2.883  17.595 -0.3843 -0.0818 -0.1617
  176MPD1    C5 2736   1.462   2.884  17.571  0.1955  0.6110  0.3920
  176MPD1     H 2737   1.222   2.749  17.309 -0.0737 -1.2609  1.3271
  176MPD1    H1 2738   1.295   2.914  17.693 -2.0213 -0.9183 -0.5060
  176MPD1    H2 2739   1.611   2.863  17.428 -0.1924 -0.7163 -1.9305
  176MPD1    H3 2740   1.537   2.914  17.644 -0.2641  4.4932 -0.7332
  176MPD1     N 2741   1.101   2.825  17.527  0.1947  0.0403 -0.1336
  176MPD1    H5 2742   1.037   2.784  17.460  2.7057 -2.7871 -0.8471
  176MPD1    N1 2743   1.480   2.726  17.241 -0.4837  0.5770 -0.5191
  176MPD1    H6 2744   1.407   2.678  17.189  0.7320  0.0767 -1.7732
  176MPD1    H7 2745   1.568   2.674  17.250  0.2861  2.4572  2.9242
  177MPD1     C 2746   4.205   3.055  10.622  0.6626  0.4663 -0.1053
  177MPD1    C1 2747   4.272   3.131  10.522 -0.2409  0.3459  1.1204
  177MPD1    C2 2748   4.195   3.210  10.437 -0.0549 -0.6508  0.9231
  177MPD1    C3 2749   4.058   3.194  10.428 -0.2394 -0.1298 -0.6823
  177MPD1    C4 2750   3.997   3.124  10.538  0.0839  0.8910  0.5284
  177MPD1    C5 2751   4.070   3.061  10.634 -0.0361  0.0739  0.3087
  177MPD1     H 2752   4.244   3.269  10.361 -0.4376  0.7462  1.7325
  177MPD1    H1 2753   3.890   3.107  10.541  0.6193 -2.1610  2.4255
  177MPD1    H2 2754   4.264   3.004  10.697 -2.6831 -1.7629  1.0085
  177MPD1    H3 2755   4.017   3.025  10.722  1.3037  1.9908  1.9146
  177MPD1     N 2756   3.982   3.253  10.321 -0.1754  0.2606 -0.4834
  177MPD1    H5 2757   4.024   3.296  10.239  1.4312 -1.4252 -0.5279
  177MPD1    N1 2758   4.414   3.146  10.509  0.1615  0.3129 -0.0711
  177MPD1    H6 2759   4.458   3.054  10.503  1.8351  1.2296 -1.6945
  177MPD1    H7 2760   4.448   3.193  10.426 -0.0592  1.1169  0.3015
  178MPD1     C 2761   1.105   2.982  17.141  0.1220  0.2248  0.5415
  178MPD1    C1 2762   0.985   2.946  17.069  0.4854  0.1812 -0.1137
  178MPD1    C2 2763   1.017   2.859  16.961 -1.1689  0.3871  0.3335
  178MPD1    C3 2764   1.141   2.832  16.912  0.3685 -0.3521  0.2951
  178MPD1    C4 2765   1.249   2.883  16.980 -0.0497 -0.0894  0.3478
  178MPD1    C5 2766   1.227   2.950  17.092  0.1959 -0.9215 -0.0129
  178MPD1     H 2767   0.927   2.810  16.926 -0.4323 -0.9526  0.3071
  178MPD1    H1 2768   1.351   2.871  16.944 -0.4436 -1.9054 -0.1494
  178MPD1    H2 2769   1.100   3.045  17.229  3.9598  1.0844  0.1257
  178MPD1    H3 2770   1.315   2.995  17.137 -0.5647  2.8257 -2.2045
  178MPD1     N 2771   1.165   2.749  16.801  1.2262  0.2434  0.3245
  178MPD1    H5 2772   1.262   2.732  16.779  1.0418  1.7274 -1.7535
  178MPD1    N1 2773   0.861   2.961  17.129 -0.1498 -0.6364  0.0623
  178MPD1    H6 2774   0.785   2.973  17.061 -0.2092 -0.2297  0.2022
  178MPD1    H7 2775   0.860   3.045  17.186  0.4432  0.5235 -1.6355
  179MPD1     C 2776   1.518   0.909  15.629  0.1657  0.2313 -0.5762
  179MPD1    C1 2777   1.493   1.041  15.651 -0.2078 -0.1997  0.6609
  179MPD1    C2 2778   1.378   1.074  15.715 -0.4648  1.1208  0.0845
  179MPD1    C3 2779   1.286   0.981  15.752  0.1114  0.4371  0.0512
  179MPD1    C4 2780   1.313   0.849  15.731 -0.0996  0.0614  0.9269
  179MPD1    C5 2781   1.432   0.810  15.671 -0.4962 -0.3586 -0.2975
  179MPD1     H 2782   1.362   1.178  15.741 -0.5161  1.6577 -2.1086
  179MPD1    H1 2783   1.243   0.773  15.763  1.1594 -1.6279 -0.3345
  179MPD1    H2 2784   1.612   0.875  15.586  2.0068  0.3690  3.3393
  179MPD1    H3 2785   1.457   0.706  15.653  0.3905 -0.3358  0.8137
  179MPD1     N 2786   1.163   1.002  15.807 -0.5453 -0.4563  0.8716
  179MPD1    H5 2787   1.104   0.926  15.839 -2.0151  0.4051  0.2251
  179MPD1    N1 2788   1.602   1.124  15.635 -0.4442 -0.1699  0.7030
  179MPD1    H6 2789   1.570   1.220  15.626 -3.6436 -1.1459  1.7152
  179MPD1    H7 2790   1.666   1.101  15.559 -1.9228  2.5234 -1.3549
  180MPD1     C 2791   0.578   2.642  15.966  0.2360 -0.2359 -0.2904
  180MPD1    C1 2792   0.643   2.737  15.890  0.3838 -0.7394 -0.0688
  180MPD1    C2 2793   0.648   2.713  15.752  0.2603 -0.0739 -0.1966
  180MPD1    C3 2794   0.609   2.591  15.701 -0.1598 -0.7052  0.6690
  180MPD1    C4 2795   0.574   2.490  15.793  0.3773 -0.0910 -0.3342
  180MPD1    C5 2796   0.536   2.521  15.924 -0.4925  0.3680  0.0068
  180MPD1     H 2797   0.689   2.787  15.684  0.1887 -0.8013 -1.0272
  180MPD1    H1 2798   0.548   2.396  15.746  0.3048 -0.3153  0.1617
  180MPD1    H2 2799   0.560   2.655  16.071  1.9714  2.8397 -0.3889
  180MPD1    H3 2800   0.484   2.443  15.978 -0.4822  0.4965  0.1978
  180MPD1     N 2801   0.625   2.564  15.564 -0.0122  0.3087  0.5480
  180MPD1    H5 2802   0.685   2.622  15.505 -1.2590  0.3828 -0.6411
  180MPD1    N1 2803   0.676   2.864  15.936  0.5625  0.4230  0.3774
  180MPD1    H6 2804   0.689   2.885  16.035 -0.8609 -1.3077  0.9387
  180MPD1    H7 2805   0.738   2.911  15.870 -1.0224  1.8912 -0.0673
  181MPD1     C 2806   3.458   1.455   9.211  1.0674  0.3337  0.1447
  181MPD1    C1 2807   3.549   1.468   9.318  0.0642 -0.2816  0.1377
  181MPD1    C2 2808   3.507   1.429   9.443  0.3811  0.1448  0.4658
  181MPD1    C3 2809   3.382   1.387   9.468  0.2152 -0.2790  0.1556
  181MPD1    C4 2810   3.295   1.368   9.360  0.6278  0.3915  0.6271
  181MPD1    C5 2811   3.333   1.407   9.232 -0.5942 -0.2320 -0.2323
  181MPD1     H 2812   3.582   1.426   9.521  0.8514  1.4486  0.0723
  181MPD1    H1 2813   3.194   1.329   9.367  0.7931 -0.1714 -0.1046
  181MPD1    H2 2814   3.477   1.487   9.109  2.0014 -0.1608  0.1570
  181MPD1    H3 2815   3.259   1.392   9.154 -1.7677  1.7095  0.5198
  181MPD1     N 2816   3.334   1.350   9.598  0.9936  0.0672 -0.3220
  181MPD1    H5 2817   3.238   1.315   9.597  0.7721  0.6156  2.3105
  181MPD1    N1 2818   3.680   1.507   9.302 -0.0737  0.3262  0.5602
  181MPD1    H6 2819   3.703   1.535   9.207 -1.0596  0.1793  0.2854
  181MPD1    H7 2820   3.707   1.585   9.363  0.7688 -0.6674  1.4589
  182MPD1     C 2821   3.273   2.307   1.367  0.4742 -0.1463  0.2608
  182MPD1    C1 2822   3.333   2.382   1.264  0.2795  0.5135 -0.3159
  182MPD1    C2 2823   3.296   2.353   1.133 -0.1172 -0.2911 -0.1980
  182MPD1    C3 2824   3.196   2.267   1.104 -0.1314  0.3921 -0.2696
  182MPD1    C4 2825   3.133   2.201   1.213  0.1894  0.2977 -0.1704
  182MPD1    C5 2826   3.171   2.224   1.342 -0.2930 -0.2458 -0.6402
  182MPD1     H 2827   3.348   2.404   1.053  0.5019 -1.6198 -0.6462
  182MPD1    H1 2828   3.057   2.127   1.191  0.7257 -0.8458  1.8494
  182MPD1    H2 2829   3.306   2.314   1.470  0.5003 -3.6070  0.5035
  182MPD1    H3 2830   3.139   2.153   1.418 -2.1385 -1.0090 -2.1012
  182MPD1     N 2831   3.157   2.240   0.971  0.6786  0.2657  0.5581
  182MPD1    H5 2832   3.077   2.179   0.960 -0.2943  1.9515 -1.6488
  182MPD1    N1 2833   3.440   2.466   1.292 -0.2933  0.1801  0.1700
  182MPD1    H6 2834   3.411   2.524   1.371  0.4749 -2.3016  2.3047
  182MPD1    H7 2835   3.459   2.539   1.224 -0.4465  1.6449  1.7095
  183MPD1     C 2836   4.310   0.047  10.584  0.7301  0.4277  0.6103
  183MPD1    C1 2837   4.216   0.131  10.532 -0.2232  0.1355 -0.1296
  183MPD1    C2 2838   4.178   0.107  10.403 -0.3544 -0.4923 -1.0565
  183MPD1    C3 2839   4.234   0.006  10.319  0.7217  0.6909  0.0400
  183MPD1    C4 2840   4.325   4.659  10.380 -0.2502  0.0968  0.9824
  183MPD1    C5 2841   4.361   4.683  10.518 -0.7150  0.3350 -0.0513
  183MPD1     H 2842   4.104   0.168  10.353 -1.2950 -1.6190 -1.0596
  183MPD1    H1 2843   4.378   4.579  10.331 -0.2877  0.8009 -0.2107
  183MPD1    H2 2844   4.347   0.057  10.685  0.5497  0.1600  0.7028
  183MPD1    H3 2845   4.428   4.612  10.566 -0.4539 -0.0246 -0.9527
  183MPD1     N 2846   4.190   0.005  10.184  0.0525  0.1054  0.0456
  183MPD1    H5 2847   4.115   0.071  10.164 -1.1285 -0.8239  1.4535
  183MPD1    N1 2848   4.182   0.246  10.600  0.1860  0.2887 -0.2319
  183MPD1    H6 2849   4.102   0.291  10.556 -0.0644  1.7179  1.6727
  183MPD1    H7 2850   4.156   0.214  10.693  0.7768 -0.3421 -0.2854
  184MPD1     C 2851   3.086   2.346   9.961 -0.2156  0.2131 -0.2447
  184MPD1    C1 2852   3.158   2.417  10.051 -0.0195 -0.7968 -0.2431
  184MPD1    C2 2853   3.168   2.555  10.039  0.4859  0.0299 -0.4204
  184MPD1    C3 2854   3.088   2.624   9.944 -0.0415 -0.4428  0.3209
  184MPD1    C4 2855   3.010   2.548   9.869 -0.0867  0.5770  0.0947
  184MPD1    C5 2856   3.013   2.409   9.869  0.1760  0.2062  0.5424
  184MPD1     H 2857   3.231   2.610  10.109  0.2423 -0.5305  0.2335
  184MPD1    H1 2858   2.949   2.595   9.792  1.0523  1.0823 -0.4881
  184MPD1    H2 2859   3.076   2.239   9.965  2.4135 -0.0614 -1.0996
  184MPD1    H3 2860   2.943   2.361   9.802  0.9973  2.2683 -1.7998
  184MPD1     N 2861   3.087   2.761   9.928  0.5194  0.1957 -0.5992
  184MPD1    H5 2862   3.023   2.789   9.855 -0.6079  0.3145  0.4364
  184MPD1    N1 2863   3.230   2.354  10.151 -0.0942 -0.4811  0.0488
  184MPD1    H6 2864   3.208   2.400  10.239 -0.9961 -1.0510  0.1213
  184MPD1    H7 2865   3.209   2.255  10.163 -2.1622  0.0727  0.9711
  185MPD1     C 2866   3.028   3.383   9.175  0.2540  0.5328  0.5373
  185MPD1    C1 2867   2.968   3.266   9.210  0.3449  0.3062  0.2230
  185MPD1    C2 2868   3.003   3.221   9.339  0.1307  0.1695  0.6685
  185MPD1    C3 2869   3.086   3.284   9.427  0.2768 -0.1816 -0.2991
  185MPD1    C4 2870   3.119   3.409   9.388  0.8363 -0.7918  0.1587
  185MPD1    C5 2871   3.090   3.457   9.271 -0.0708 -0.2811  0.1407
  185MPD1     H 2872   2.980   3.118   9.366  0.4886 -0.1127 -0.0882
  185MPD1    H1 2873   3.164   3.479   9.457 -1.8346  1.9464 -0.8440
  185MPD1    H2 2874   3.011   3.429   9.078 -0.6533 -2.2100 -0.6096
  185MPD1    H3 2875   3.122   3.558   9.248 -1.5454  0.8485  3.0866
  185MPD1     N 2876   3.104   3.242   9.556  0.1899 -0.2486  0.2695
  185MPD1    H5 2877   3.147   3.311   9.618  2.0071  0.3015 -1.6046
  185MPD1    N1 2878   2.897   3.186   9.121 -0.2561 -0.1781  0.7248
  185MPD1    H6 2879   2.818   3.138   9.163  1.8349 -2.9939  1.4506
  185MPD1    H7 2880   2.866   3.235   9.038  0.0713  0.8700  1.2153
  186MPD1     C 2881   2.133   0.955  15.801 -0.2834 -0.0549 -0.1122
  186MPD1    C1 2882   2.088   0.950  15.933  0.6299 -0.0877  0.1141
  186MPD1    C2 2883   1.953   0.954  15.952 -0.0636 -0.1438 -0.4332
  186MPD1    C3 2884   1.871   0.990  15.846 -0.5388 -0.4608 -0.0986
  186MPD1    C4 2885   1.922   1.020  15.719 -0.0806  0.3149  0.0779
  186MPD1    C5 2886   2.054   0.991  15.695  0.4454 -0.1805  0.6171
  186MPD1     H 2887   1.910   0.929  16.048  1.8260 -1.1681  0.1322
  186MPD1    H1 2888   1.862   1.054  15.636  1.0196  0.9606 -0.4564
  186MPD1    H2 2889   2.239   0.950  15.779 -0.3274 -0.7083 -0.1634
  186MPD1    H3 2890   2.090   0.995  15.593 -0.8818 -1.2677  0.1045
  186MPD1     N 2891   1.737   1.024  15.865 -0.5741  0.4071 -0.1673
  186MPD1    H5 2892   1.690   1.078  15.793  1.3991 -0.2325 -1.9354
  186MPD1    N1 2893   2.175   0.905  16.029  0.0540  0.6599 -0.6248
  186MPD1    H6 2894   2.162   0.943  16.123 -1.2674  1.0589 -0.9718
  186MPD1    H7 2895   2.273   0.920  16.005  0.3796 -1.7355 -0.8029
  187MPD1     C 2896   0.768   3.170   0.174 -0.6291  0.3000 -0.2458
  187MPD1    C1 2897   0.633   3.136   0.179 -0.0075 -0.4005  0.1727
  187MPD1    C2 2898   0.564   3.136   0.061 -1.0231  0.7499 -0.3896
  187MPD1    C3 2899   0.626   3.165  17.687  0.3894  0.7368  0.1322
  187MPD1    C4 2900   0.760   3.195  17.684  0.0277  0.5044  0.0477
  187MPD1    C5 2901   0.831   3.195   0.054 -0.1738  0.0768 -0.2061
  187MPD1     H 2902   0.457   3.129   0.074 -0.5473 -0.5723  2.7990
  187MPD1    H1 2903   0.819   3.213  17.595 -2.1004 -1.4923 -1.7655
  187MPD1    H2 2904   0.820   3.173   0.269  0.1070  1.2013 -0.6821
  187MPD1    H3 2905   0.939   3.196   0.051 -0.1458 -0.3532  0.6490
  187MPD1     N 2906   0.567   3.183  17.565 -0.3777 -0.4290  0.0527
  187MPD1    H5 2907   0.627   3.190  17.483 -1.1354  1.6052 -0.3199
  187MPD1    N1 2908   0.569   3.125   0.306 -0.0780  0.1095 -0.8948
  187MPD1    H6 2909   0.493   3.058   0.308  0.0420  0.0330  0.7007
  187MPD1    H7 2910   0.630   3.100   0.383  1.7612  2.2792 -1.6427
  188MPD1     C 2911   0.582   4.295  10.129  0.5113  0.1739  0.1212
  188MPD1    C1 2912   0.603   4.214  10.239 -0.2357  0.4319  0.2493
  188MPD1    C2 2913   0.639   4.081  10.218  0.2416  0.0244 -0.5229
  188MPD1    C3 2914   0.633   4.035  10.091 -0.3008  0.1599  0.2396
  188MPD1    C4 2915   0.598   4.114   9.978  0.4605 -0.3083  0.0464
  188MPD1    C5 2916   0.577   4.246   9.998  0.1731  0.0252  0.3415
  188MPD1     H 2917   0.663   4.012  10.298 -0.9075 -0.2422 -0.4059
  188MPD1    H1 2918   0.604   4.083   9.875  0.2043 -1.3952  0.3624
  188MPD1    H2 2919   0.561   4.400  10.145  1.7669  0.1913  1.6891
  188MPD1    H3 2920   0.552   4.309   9.914 -1.3663 -1.6761 -0.4811
  188MPD1     N 2921   0.658   3.902  10.057 -0.3078  0.2737  0.2354
  188MPD1    H5 2922   0.618   3.864   9.972  0.8417 -0.5777  0.0793
  188MPD1    N1 2923   0.576   4.260  10.373  0.1562 -0.0735  0.2784
  188MPD1    H6 2924   0.624   4.198  10.438  1.5620  0.3543 -0.3678
  188MPD1    H7 2925   0.603   4.357  10.388  0.8010 -0.3753  1.0829
  189MPD1     C 2926   2.845   3.980   0.468  0.3764 -0.1216 -0.7113
  189MPD1    C1 2927   2.746   3.898   0.419  0.0082  0.0124 -0.0141
  189MPD1    C2 2928   2.639   3.952   0.352 -0.0321 -0.0564  0.0832
  189MPD1    C3 2929   2.619   4.095   0.362 -0.6793  0.4511  1.1230
  189MPD1    C4 2930   2.716   4.177   0.418  1.0503  0.0033 -0.5897
  189MPD1    C5 2931   2.828   4.120   0.471 -0.5105  0.0181  0.6254
  189MPD1     H 2932   2.571   3.891   0.296  0.3668  1.5429 -2.1376
  189MPD1    H1 2933   2.700   4.283   0.433  1.5771 -0.0004 -0.0063
  189MPD1    H2 2934   2.942   3.946   0.502 -0.5448 -0.7233  1.3307
  189MPD1    H3 2935   2.904   4.183   0.516  0.5205 -0.9403  0.2281
  189MPD1     N 2936   2.496   4.140   0.303 -0.4277 -0.4373 -0.1511
  189MPD1    H5 2937   2.440   4.064   0.267 -1.2552 -0.1250  0.4719
  189MPD1    N1 2938   2.778   3.764   0.398  0.0300 -0.3417  0.2065
  189MPD1    H6 2939   2.699   3.702   0.380  0.4583 -0.7428 -0.3051
  189MPD1    H7 2940   2.839   3.712   0.461  0.0901 -2.3780 -1.5066
  190MPD1     C 2941   1.055   2.243  14.718 -0.4919  0.1363 -0.2619
  190MPD1    C1 2942   1.177   2.299  14.751  0.1677  0.4346  0.0742
  190MPD1    C2 2943   1.187   2.363  14.879 -0.0747 -0.3551  0.1077
  190MPD1    C3 2944   1.086   2.352  14.973  0.1219  0.3324 -0.0804
  190MPD1    C4 2945   0.964   2.294  14.933 -0.4600 -0.3171  0.1674
  190MPD1    C5 2946   0.952   2.242  14.810 -0.1261 -0.3453 -0.6667
  190MPD1     H 2947   1.282   2.410  14.899 -1.7979  2.5663  1.5176
  190MPD1    H1 2948   0.877   2.286  14.998 -0.7503  0.4642 -0.1277
  190MPD1    H2 2949   1.033   2.199  14.621 -0.3196  0.3913 -0.4196
  190MPD1    H3 2950   0.859   2.195  14.780 -0.6361 -0.9116  1.8006
  190MPD1     N 2951   1.104   2.398  15.102 -0.0637 -0.0838 -0.8785
  190MPD1    H5 2952   1.191   2.444  15.127  0.4125 -1.7878  0.6677
  190MPD1    N1 2953   1.268   2.317  14.645  0.1449 -0.9213 -0.2176
  190MPD1    H6 2954   1.268   2.227  14.598  2.5279 -1.1169  0.1356
  190MPD1    H7 2955   1.361   2.326  14.686 -0.4140  0.7710  0.6801
  191MPD1     C 2956   0.202   4.379  12.838 -0.8322  0.1717  0.7779
  191MPD1    C1 2957   0.164   4.455  12.941  0.0078 -0.8238 -0.1522
  191MPD1    C2 2958   0.139   4.588  12.916 -0.5727  0.2179  0.4037
  191MPD1    C3 2959   0.129   4.641  12.792  0.8615  0.0341 -0.4676
  191MPD1    C4 2960   0.155   4.557  12.690  0.1660 -0.2265 -0.4922
  191MPD1    C5 2961   0.190   4.425  12.710 -0.2760 -0.3653  0.1088
  191MPD1     H 2962   0.144   4.658  12.998  0.1645  1.3905 -0.6414
  191MPD1    H1 2963   0.144   4.577  12.584 -3.2751  1.1542  0.1570
  191MPD1    H2 2964   0.228   4.274  12.846 -2.5488 -0.1781  1.9598
  191MPD1    H3 2965   0.218   4.363  12.626  0.6041 -0.8971  0.7954
  191MPD1     N 2966   0.098   0.039  12.766 -0.4554  0.4617 -0.7432
  191MPD1    H5 2967   0.065   0.087  12.849 -0.4858  1.6100 -1.4273
  191MPD1    N1 2968   0.175   4.403  13.073  0.7364  0.2492  0.2898
  191MPD1    H6 2969   0.090   4.431  13.120 -0.1849 -0.4638 -0.9442
  191MPD1    H7 2970   0.177   4.302  13.060  0.3680 -0.0603  2.6901
  192MPD1     C 2971   4.271   0.806  13.004 -0.0768 -0.4296  0.4284
  192MPD1    C1 2972   4.322   0.689  13.050 -0.6963  0.4480  0.0708
  192MPD1    C2 2973   4.390   0.604  12.964  0.3110  0.0822  0.3109
  192MPD1    C3 2974   4.420   0.639  12.831 -0.2199 -0.6899  0.0590
  192MPD1    C4 2975   4.384   0.763  12.793  0.4166  0.1512 -0.4769
  192MPD1    C5 2976   4.311   0.842  12.876  0.0394 -0.2362 -0.1847
  192MPD1     H 2977   4.430   0.510  13.000  1.0821  0.0323 -0.6844
  192MPD1    H1 2978   4.403   0.798  12.692  0.6789  1.0780 -0.0945
  192MPD1    H2 2979   4.212   0.871  13.068  0.1599  1.3713 -1.2146
  192MPD1    H3 2980   4.280   0.942  12.848  1.3434  0.3478  0.4551
  192MPD1     N 2981   4.484   0.561  12.728 -0.5006  0.8162  0.0738
  192MPD1    H5 2982   4.505   0.604  12.639  2.5586 -2.5867 -0.8414
  192MPD1    N1 2983   4.290   0.644  13.178  0.0431  0.1273  0.0439
  192MPD1    H6 2984   4.288   0.730  13.232  3.0063  1.3195 -1.7675
  192MPD1    H7 2985   4.357   0.583  13.224  1.0014 -0.6426 -2.3666
  193MPD1     C 2986   4.642   3.720  16.517  0.9011  0.2763  0.4051
  193MPD1    C1 2987   4.652   3.750  16.655 -0.6097  0.1063 -0.5033
  193MPD1    C2 2988   4.686   3.879  16.684  0.3179 -0.3361 -0.3082
  193MPD1    C3 2989   4.714   3.973  16.589  0.4198  0.3221  0.0983
  193MPD1    C4 2990   4.711   3.936  16.454  0.8088 -0.5582 -0.6302
  193MPD1    C5 2991   4.678   3.809  16.422 -0.5842  0.3173  0.4495
  193MPD1     H 2992   4.700   3.910  16.787  2.0953 -0.2281 -0.5875
  193MPD1    H1 2993   4.738   4.004  16.375  0.1312  0.8711  0.3650
  193MPD1    H2 2994   4.621   3.617  16.490 -3.5029  1.5200 -0.8416
  193MPD1    H3 2995   4.656   3.774  16.322  0.9648 -1.6873  0.8041
  193MPD1     N 2996   0.007   4.112  16.614  0.3787 -0.1241 -0.4077
  193MPD1    H5 2997   0.042   4.169  16.538 -1.5153  3.0720  1.1079
  193MPD1    N1 2998   4.614   3.655  16.750  0.2905  0.5127 -0.2050
  193MPD1    H6 2999   4.619   3.563  16.709  0.8724 -0.2536  1.6008
  193MPD1    H7 3000   4.671   3.662  16.834 -1.2939 -0.7452  0.9720
  194MPD1     C 3001   2.175   1.531  17.184 -0.1929  0.2893  0.1465
  194MPD1    C1 3002   2.239   1.516  17.301  0.1158  0.0843  0.4259
  194MPD1    C2 3003   2.378   1.512  17.299 -0.1644  0.8038 -0.1051
  194MPD1    C3 3004   2.447   1.516  17.180 -0.1989 -0.0891  0.0259
  194MPD1    C4 3005   2.373   1.523  17.060  0.1199  0.0070 -0.2073
  194MPD1    C5 3006   2.241   1.525  17.069 -0.1607  0.3677 -0.3565
  194MPD1     H 3007   2.434   1.511  17.392 -2.1704  0.1115  1.0790
  194MPD1    H1 3008   2.421   1.536  16.964 -1.6192  0.4216 -1.0082
  194MPD1    H2 3009   2.069   1.547  17.171  0.1490  0.0611 -3.0936
  194MPD1    H3 3010   2.186   1.534  16.977  0.8466 -0.3422 -1.0262
  194MPD1     N 3011   2.590   1.523  17.184 -0.3428 -0.0651 -0.0545
  194MPD1    H5 3012   2.636   1.508  17.273  0.8991 -1.5911 -0.9504
  194MPD1    N1 3013   2.170   1.518  17.421  0.0545  0.0088 -0.4261
  194MPD1    H6 3014   2.210   1.438  17.470  0.3983  0.1481 -0.4797
  194MPD1    H7 3015   2.075   1.490  17.399 -0.6369  0.8147  1.5363
  195MPD1     C 3016   4.587   3.974   0.557  0.1852  0.2216 -0.8003
  195MPD1    C1 3017   4.480   3.891   0.600  0.0911 -0.1405 -0.1403
  195MPD1    C2 3018   4.468   3.763   0.541  0.6716 -0.3520 -0.6719
  195MPD1    C3 3019   4.564   3.713   0.461  0.3443  0.2509 -0.4506
  195MPD1    C4 3020   4.666   3.792   0.416  0.1234 -0.4358 -0.2133
  195MPD1    C5 3021   4.674   3.925   0.461  0.0933  0.0828 -0.1419
  195MPD1     H 3022   4.382   3.701   0.565 -0.8235  1.0198 -2.3704
  195MPD1    H1 3023   0.013   3.757   0.360  0.1646 -0.6615 -0.0087
  195MPD1    H2 3024   4.617   4.071   0.595  0.7106 -0.6276  0.9748
  195MPD1    H3 3025   0.034   3.970   0.445 -0.0603  0.5228  0.1666
  195MPD1     N 3026   4.561   3.573   0.433  0.5693  0.1232 -0.8869
  195MPD1    H5 3027   4.633   3.532   0.376  2.3881  1.5687  0.3898
  195MPD1    N1 3028   4.402   3.926   0.703  0.5423 -0.1894  0.0113
  195MPD1    H6 3029   4.308   3.892   0.689  0.3711  0.7347 -1.1156
  195MPD1    H7 3030   4.405   4.026   0.725  1.1141  0.2875 -2.2677
  196MPD1     C 3031   3.567   2.153   0.005 -0.7922  0.6547 -0.7004
  196MPD1    C1 3032   3.613   2.275  17.704 -1.2071 -0.5377  0.5389
  196MPD1    C2 3033   3.663   2.364   0.035 -0.1886  0.2597  0.0770
  196MPD1    C3 3034   3.654   2.351   0.169 -0.3196  0.1621 -0.0502
  196MPD1    C4 3035   3.618   2.223   0.224  0.3803  0.6689  0.2999
  196MPD1    C5 3036   3.566   2.126   0.139  0.9694  0.0214 -0.3345
  196MPD1     H 3037   3.700   2.459  17.750  0.4231  0.2391  0.6524
  196MPD1    H1 3038   3.613   2.207   0.331 -0.2190  3.0305  0.6289
  196MPD1    H2 3039   3.530   2.071  17.695 -0.1660 -0.9896  1.1199
  196MPD1    H3 3040   3.528   2.028   0.165 -0.6679  0.8642  0.4729
  196MPD1     N 3041   3.707   2.445   0.260 -0.3731 -0.3193  0.1897
  196MPD1    H5 3042   3.704   2.432   0.360 -1.4038  0.6172  0.2793
  196MPD1    N1 3043   3.628   2.289  17.562  0.1149  0.0547  0.4261
  196MPD1    H6 3044   3.557   2.240  17.508 -1.3637  1.5747  0.9768
  196MPD1    H7 3045   3.635   2.386  17.532 -0.8338  0.0411  0.1553
  197MPD1     C 3046   3.532   0.481  17.721 -0.4940 -0.5718 -0.3826
  197MPD1    C1 3047   3.586   0.378  17.647  0.0614 -0.2517 -0.2018
  197MPD1    C2 3048   3.625   0.401  17.519 -0.4804  0.3653 -0.1994
  197MPD1    C3 3049   3.594   0.517  17.456 -0.2066 -0.7379  0.1565
  197MPD1    C4 3050   3.521   0.615  17.522  0.3323  0.0863  0.2946
  197MPD1    C5 3051   3.496   0.599  17.656 -0.2783  0.2434 -0.0990
  197MPD1     H 3052   3.679   0.325  17.462 -0.3972 -0.0694  0.4568
  197MPD1    H1 3053   3.490   0.705  17.471 -0.1567 -0.8229 -0.9971
  197MPD1    H2 3054   3.521   0.471   0.076  0.4421 -1.7078 -0.3975
  197MPD1    H3 3055   3.443   0.682  17.701  0.7697 -0.2925  2.1320
  197MPD1     N 3056   3.624   0.550  17.323  0.5272 -0.4630 -0.4096
  197MPD1    H5 3057   3.589   0.637  17.285  2.5253  1.1878  1.5114
  197MPD1    N1 3058   3.623   0.258  17.721 -0.2245  0.9298  0.2277
  197MPD1    H6 3059   3.630   0.171  17.668 -1.0276  0.2958  1.1768
  197MPD1    H7 3060   3.579   0.241   0.059 -1.5353 -0.1533 -0.6206
  198MPD1     C 3061   0.522   3.315  14.788 -0.5106  0.3043 -0.2564
  198MPD1    C1 3062   0.631   3.389  14.746 -0.5194 -0.4386 -0.4672
  198MPD1    C2 3063   0.692   3.474  14.839  0.0856 -1.2630  0.3872
  198MPD1    C3 3064   0.644   3.483  14.965 -0.2447 -0.1054 -0.4959
  198MPD1    C4 3065   0.540   3.404  15.005 -0.0392 -0.6497 -0.0157
  198MPD1    C5 3066   0.484   3.319  14.921  1.0212  0.2315 -0.3626
  198MPD1     H 3067   0.773   3.541  14.814 -2.3660  0.5617 -2.7277
  198MPD1    H1 3068   0.500   3.393  15.105 -2.2093 -1.0574 -0.9324
  198MPD1    H2 3069   0.469   3.245  14.725  1.2955 -1.7327  0.5148
  198MPD1    H3 3070   0.406   3.250  14.952 -0.2665  1.8100 -0.1063
  198MPD1     N 3071   0.700   3.579  15.054  0.0224 -0.2000 -0.4537
  198MPD1    H5 3072   0.792   3.617  15.033  0.6745 -3.1667 -3.1286
  198MPD1    N1 3073   0.664   3.400  14.606  0.3400 -0.1924 -0.2508
  198MPD1    H6 3074   0.766   3.402  14.607  0.3022  1.1230  0.5638
  198MPD1    H7 3075   0.640   3.310  14.566  1.4215 -0.1421 -1.0066
  199MPD1     C 3076   3.273   1.706  10.614  1.0946 -0.6059  0.1030
  199MPD1    C1 3077   3.193   1.595  10.619  0.2541 -1.3638 -0.2976
  199MPD1    C2 3078   3.118   1.556  10.507 -0.2343 -0.3218  0.1847
  199MPD1    C3 3079   3.123   1.633  10.394 -0.0071  0.4036  0.0356
  199MPD1    C4 3080   3.215   1.744  10.393  0.0763  0.1238 -0.7490
  199MPD1    C5 3081   3.291   1.771  10.496 -0.0680  0.0810  0.2075
  199MPD1     H 3082   3.062   1.464  10.516 -1.5997  0.3984 -0.8980
  199MPD1    H1 3083   3.230   1.797  10.299  1.1459 -1.7778 -1.6391
  199MPD1    H2 3084   3.328   1.746  10.697 -0.1589 -2.4993  1.8570
  199MPD1    H3 3085   3.369   1.845  10.490 -1.1952  1.2567  0.0367
  199MPD1     N 3086   3.059   1.596  10.275  0.1006  0.4561 -0.0378
  199MPD1    H5 3087   3.067   1.671  10.206 -0.7564 -0.6364 -1.3371
  199MPD1    N1 3088   3.164   1.548  10.745 -0.9248  0.2250 -0.2432
  199MPD1    H6 3089   3.252   1.565  10.794 -1.1574  1.7094 -0.3503
  199MPD1    H7 3090   3.143   1.448  10.743  0.5237 -0.1248  2.0808
  200MPD1     C 3091   1.647   0.270  15.147  0.2826  0.4361  0.5159
  200MPD1    C1 3092   1.626   0.263  15.012 -0.2209 -0.8419 -0.2472
  200MPD1    C2 3093   1.733   0.226  14.930 -0.3236 -0.0562 -0.4655
  200MPD1    C3 3094   1.863   0.220  14.977 -0.3144 -0.3571 -0.1990
  200MPD1    C4 3095   1.883   0.235  15.109 -0.4375 -0.3800 -0.5530
  200MPD1    C5 3096   1.780   0.257  15.182  0.7218  1.0164 -0.2052
  200MPD1     H 3097   1.718   0.219  14.823  0.7893 -1.8941 -0.4851
  200MPD1    H1 3098   1.982   0.228  15.154 -1.3596 -2.5127  1.1303
  200MPD1    H2 3099   1.575   0.303  15.222  0.7640 -0.1507  1.2446
  200MPD1    H3 3100   1.802   0.260  15.288 -1.6001 -1.2603  0.3403
  200MPD1     N 3101   1.968   0.205  14.893  0.2438 -0.0959  0.4496
  200MPD1    H5 3102   1.953   0.167  14.800  0.7740  2.3583 -0.6286
  200MPD1    N1 3103   1.494   0.269  14.963  0.2583 -0.5849 -0.3997
  200MPD1    H6 3104   1.429   0.316  15.026  0.5557  1.5016 -1.6290
  200MPD1    H7 3105   1.488   0.304  14.867  0.0172 -1.0286 -0.5439
  201MPD1     C 3106   3.830   4.202  12.579 -0.6658  0.0290 -0.3399
  201MPD1    C1 3107   3.885   4.089  12.510 -0.4194  0.3254  0.0639
  201MPD1    C2 3108   4.007   4.037  12.556 -0.2996  0.9375  0.0839
  201MPD1    C3 3109   4.069   4.090  12.671  0.1631 -0.8739  0.1097
  201MPD1    C4 3110   4.012   4.199  12.738  0.2357 -0.2107  0.0028
  201MPD1    C5 3111   3.904   4.254  12.682 -0.3290  0.2930  0.0406
  201MPD1     H 3112   4.041   3.954  12.495 -0.7796 -0.3009  1.4931
  201MPD1    H1 3113   4.043   4.239  12.834 -1.3191  0.6069  0.1647
  201MPD1    H2 3114   3.741   4.251  12.543 -1.7306  0.8578  3.4613
  201MPD1    H3 3115   3.880   4.353  12.720 -0.0288  0.4924 -0.2831
  201MPD1     N 3116   4.184   4.022  12.719  1.0802 -0.1511  0.2537
  201MPD1    H5 3117   4.223   3.951  12.658  0.5732 -0.0620 -0.1720
  201MPD1    N1 3118   3.812   4.036  12.408  0.0779  0.0852  0.2784
  201MPD1    H6 3119   3.760   4.105  12.353 -2.3004 -1.9184 -0.0263
  201MPD1    H7 3120   3.870   3.985  12.342  1.0050  0.1639  1.0294
  202MPD1     C 3121   3.875   2.987   9.780  0.7448 -0.3776  0.0387
  202MPD1    C1 3122   3.952   2.994   9.897 -0.9186 -0.5658 -0.2688
  202MPD1    C2 3123   4.016   3.117   9.922 -0.5390  0.6661 -0.5721
  202MPD1    C3 3124   3.977   3.226   9.849  0.1290  0.1905  0.3535
  202MPD1    C4 3125   3.896   3.222   9.742 -0.1429  0.3331 -0.0196
  202MPD1    C5 3126   3.849   3.103   9.704 -0.4389 -0.3754 -0.6221
  202MPD1     H 3127   4.078   3.120  10.011 -1.0724  0.3518 -0.1902
  202MPD1    H1 3128   3.886   3.313   9.684  0.7535  0.8966  0.7188
  202MPD1    H2 3129   3.848   2.891   9.739 -0.8126  0.0730  0.0234
  202MPD1    H3 3130   3.802   3.089   9.607 -0.6562 -0.6362 -0.4775
  202MPD1     N 3131   4.049   3.348   9.864 -0.6720  0.0113 -0.8892
  202MPD1    H5 3132   4.031   3.430   9.807  1.2059  0.4492 -0.8706
  202MPD1    N1 3133   4.012   2.877   9.943  0.3038 -0.3522  0.1096
  202MPD1    H6 3134   4.039   2.893  10.040 -0.1940 -0.5033  0.2730
  202MPD1    H7 3135   3.946   2.799   9.949 -1.2074  0.7708 -1.9619
  203MPD1     C 3136   2.528   0.019  12.824 -0.6328 -0.2632 -0.5257
  203MPD1    C1 3137   2.497   4.683  12.719  0.2839  0.7465 -0.0283
  203MPD1    C2 3138   2.562   4.559  12.725 -0.9253  0.5815  0.3285
  203MPD1    C3 3139   2.609   4.498  12.838 -0.5546 -0.6269  0.5990
  203MPD1    C4 3140   2.621   4.577  12.951  0.1457 -0.1857  0.2948
  203MPD1    C5 3141   2.590   4.705  12.937 -0.1739  0.0932  0.5382
  203MPD1     H 3142   2.563   4.499  12.634 -2.3495  0.9499  0.0800
  203MPD1    H1 3143   2.662   4.530  13.040 -1.1703 -2.1462 -0.1202
  203MPD1    H2 3144   2.497   0.123  12.823 -0.3538 -0.1807 -0.7666
  203MPD1    H3 3145   2.607   0.032  13.022 -0.3932  3.8404 -2.3367
  203MPD1     N 3146   2.645   4.361  12.826  0.1031 -0.5690  0.2983
  203MPD1    H5 3147   2.643   4.316  12.734  1.0659  0.6870 -0.3400
  203MPD1    N1 3148   2.436   4.735  12.606  0.1781 -0.4962  0.4632
  203MPD1    H6 3149   2.374   4.661  12.572 -0.9514 -0.2749  2.0427
  203MPD1    H7 3150   2.371   0.067  12.641 -1.3863 -1.3718 -0.6487
  204MPD1     C 3151   2.987   0.857   0.174  0.5798  0.1592 -0.5584
  204MPD1    C1 3152   3.052   0.740   0.189 -0.5907 -0.1071  0.3081
  204MPD1    C2 3153   3.024   0.642   0.096 -0.0033  0.3421 -0.7487
  204MPD1    C3 3154   2.944   0.659  17.735 -0.4714  0.6024  0.3024
  204MPD1    C4 3155   2.897   0.791  17.712 -0.4961  0.0027  0.0675
  204MPD1    C5 3156   2.921   0.886   0.058 -0.2745  0.7424 -0.5938
  204MPD1     H 3157   3.057   0.541   0.118  0.6941  0.5671 -0.7736
  204MPD1    H1 3158   2.825   0.820  17.637  1.0214  4.2176  0.2810
  204MPD1    H2 3159   2.984   0.923   0.260  0.5508  0.3464 -0.7032
  204MPD1    H3 3160   2.880   0.986   0.057 -0.8889  0.5390  4.5778
  204MPD1     N 3161   2.928   0.557  17.643 -0.3570  0.7057  0.4216
  204MPD1    H5 3162   2.968   0.468  17.669  0.5283  1.0303  0.1908
  204MPD1    N1 3163   3.115   0.708   0.315 -0.5534 -0.2996  0.5526
  204MPD1    H6 3164   3.182   0.631   0.307 -0.5860 -0.2165 -0.5127
  204MPD1    H7 3165   3.154   0.790   0.360  2.0703 -1.4415  0.3768
  205MPD1     C 3166   2.904   3.912  16.782  0.3473 -0.0778  0.8149
  205MPD1    C1 3167   2.792   3.846  16.819  0.4722 -0.6316 -0.0410
  205MPD1    C2 3168   2.750   3.861  16.949  0.8332 -0.5446  0.2065
  205MPD1    C3 3169   2.816   3.942  17.043 -0.3218  0.3092  0.7481
  205MPD1    C4 3170   2.924   4.013  17.004 -0.5423 -0.1844 -0.4299
  205MPD1    C5 3171   2.954   4.001  16.871  0.5192  0.8679 -0.0983
  205MPD1     H 3172   2.662   3.812  16.989  1.0104 -1.4476 -0.5197
  205MPD1    H1 3173   2.976   4.087  17.063 -1.5846 -1.3588  1.9416
  205MPD1    H2 3174   2.943   3.897  16.682  1.6474 -2.2521  1.6351
  205MPD1    H3 3175   3.028   4.069  16.829  0.9370 -0.1906 -1.0793
  205MPD1     N 3176   2.783   3.977  17.178  0.4753  0.1335 -0.3306
  205MPD1    H5 3177   2.848   4.041  17.223 -0.7428  0.4074  1.0406
  205MPD1    N1 3178   2.733   3.738  16.752  0.4374 -0.3806 -0.1620
  205MPD1    H6 3179   2.731   3.751  16.651 -1.1429 -0.4648 -0.1432
  205MPD1    H7 3180   2.645   3.706  16.791  0.1125 -0.3566 -0.8764
  206MPD1     C 3181   3.107   1.344  16.595 -0.6317  0.1937  0.0106
  206MPD1    C1 3182   3.160   1.365  16.469  0.1498  0.5456  0.3591
  206MPD1    C2 3183   3.068   1.402  16.375  0.2823  0.4257 -0.2464
  206MPD1    C3 3184   2.934   1.432  16.400  0.1126 -0.5511 -0.4723
  206MPD1    C4 3185   2.896   1.418  16.530 -0.6263  0.1573 -0.1619
  206MPD1    C5 3186   2.980   1.381  16.628 -0.4482 -0.3999 -0.2737
  206MPD1     H 3187   3.108   1.412  16.275  1.5441  0.6064  0.2851
  206MPD1    H1 3188   2.796   1.446  16.562 -1.1850  0.3150 -2.0515
  206MPD1    H2 3189   3.172   1.310  16.675  1.8688  0.3931 -1.9365
  206MPD1    H3 3190   2.936   1.383  16.727  0.2603 -0.0657  0.0408
  206MPD1     N 3191   2.841   1.479  16.304  0.1227  0.1241 -0.1565
  206MPD1    H5 3192   2.748   1.508  16.334 -0.5235 -3.5147  1.3670
  206MPD1    N1 3193   3.289   1.319  16.438 -0.4606  0.0791  0.2407
  206MPD1    H6 3194   3.333   1.383  16.373 -0.4686 -0.6383 -0.4607
  206MPD1    H7 3195   3.342   1.324  16.525 -1.3301  0.3493  0.7583
  207MPD1     C 3196   4.309   0.384   9.964  0.3895 -0.5192 -0.0450
  207MPD1    C1 3197   4.436   0.368   9.912  0.1124 -0.0197  0.4025
  207MPD1    C2 3198   4.534   0.340  10.006 -0.0581  0.2510  0.0069
  207MPD1    C3 3199   4.507   0.331  10.139 -0.5507  0.5388  0.7275
  207MPD1    C4 3200   4.376   0.329  10.181 -0.3945 -0.2610  0.3660
  207MPD1    C5 3201   4.283   0.353  10.089 -0.5180  0.5005 -0.1745
  207MPD1     H 3202   4.638   0.338   9.977 -0.6319 -1.1066 -1.9351
  207MPD1    H1 3203   4.349   0.305  10.283  0.2065  3.6338  1.4482
  207MPD1    H2 3204   4.234   0.424   9.897  0.4841 -0.4079 -0.0845
  207MPD1    H3 3205   4.183   0.378  10.123 -0.3321 -0.7322  1.2998
  207MPD1     N 3206   4.607   0.310  10.237  0.1777 -1.0740  0.0615
  207MPD1    H5 3207   4.575   0.298  10.332 -0.7944 -2.5303 -0.4583
  207MPD1    N1 3208   4.468   0.375   9.776 -0.4109 -0.1080 -0.4831
  207MPD1    H6 3209   4.561   0.411   9.751 -0.8430  1.7238  0.5348
  207MPD1    H7 3210   4.393   0.418   9.723  0.5409  1.6229 -0.4427
  208MPD1     C 3211   3.591   3.147  17.538 -0.6518 -0.4965 -0.2618
  208MPD1    C1 3212   3.538   3.021  17.508  0.5117  0.7331  0.1633
  208MPD1    C2 3213   3.405   2.987  17.530 -0.1935 -0.6150 -0.1759
  208MPD1    C3 3214   3.323   3.078  17.593 -0.5259 -0.3425 -0.2737
  208MPD1    C4 3215   3.378   3.206  17.616 -0.1713  0.1853 -0.2325
  208MPD1    C5 3216   3.502   3.242  17.596  0.8457  0.7702  0.0284
  208MPD1     H 3217   3.371   2.887  17.505 -2.2323  0.2500 -0.8870
  208MPD1    H1 3218   3.328   3.278  17.680  2.0873  1.8432 -0.3362
  208MPD1    H2 3219   3.694   3.172  17.512  0.2470 -1.9729  1.9153
  208MPD1    H3 3220   3.535   3.343  17.621  0.7603  1.3032 -1.9624
  208MPD1     N 3221   3.185   3.043  17.613 -0.4781 -0.0174 -0.3060
  208MPD1    H5 3222   3.159   2.948  17.587 -0.3215 -0.2845  0.5061
  208MPD1    N1 3223   3.632   2.924  17.466  0.1072 -0.0182  0.6685
  208MPD1    H6 3224   3.626   2.838  17.520 -1.0659 -1.1412 -1.2194
  208MPD1    H7 3225   3.728   2.957  17.465  0.1348 -0.0821  1.6457
  209MPD1     C 3226   0.671   4.227  11.104  0.1494 -0.5678  0.1170
  209MPD1    C1 3227   0.653   4.350  11.049  0.5198  0.0652 -0.0998
  209MPD1    C2 3228   0.581   4.450  11.118  0.0784  0.0088 -0.2685
  209MPD1    C3 3229   0.553   4.432  11.252 -0.1866  0.0817  0.3203
  209MPD1    C4 3230   0.576   4.309  11.312 -0.5973 -0.8848 -0.2413
  209MPD1    C5 3231   0.636   4.210  11.242 -0.5707 -0.5544  0.1767
  209MPD1     H 3232   0.561   4.552  11.088 -2.2236 -0.5829 -0.7797
  209MPD1    H1 3233   0.553   4.293  11.417  1.6263  1.1015  0.5553
  209MPD1    H2 3234   0.717   4.143  11.054  1.9013 -0.0307  0.8236
  209MPD1    H3 3235   0.657   4.115  11.288  0.4125 -0.9342 -1.0401
  209MPD1     N 3236   0.489   4.546  11.314 -0.1200  0.2482 -0.4514
  209MPD1    H5 3237   0.453   4.615  11.249  0.6957 -0.1540 -1.3368
  209MPD1    N1 3238   0.689   4.375  10.913 -0.0555 -0.5052 -0.1260
  209MPD1    H6 3239   0.708   4.473  10.892  1.5031 -0.5098  1.3244
  209MPD1    H7 3240   0.772   4.324  10.882 -1.4385 -1.2377 -2.6448
  210MPD1     C 3241   0.961   0.262  11.952  0.8369  0.1864  0.3046
  210MPD1    C1 3242   0.950   0.332  11.833  0.3273 -0.1547  0.8049
  210MPD1    C2 3243   0.843   0.313  11.759 -0.7808 -0.0375 -0.5841
  210MPD1    C3 3244   0.742   0.226  11.807  0.3666 -0.3294 -0.5362
  210MPD1    C4 3245   0.752   0.168  11.928 -0.1068 -0.3553 -0.2667
  210MPD1    C5 3246   0.863   0.185  12.008 -0.3122  1.1805 -0.2672
  210MPD1     H 3247   0.841   0.360  11.662 -0.7706 -2.8928 -1.9583
  210MPD1    H1 3248   0.673   0.111  11.975 -1.2355  1.5455  0.1463
  210MPD1    H2 3249   1.055   0.266  12.006  0.8959  1.9775  0.0642
  210MPD1    H3 3250   0.881   0.127  12.098  0.8059  0.6324 -0.8441
  210MPD1     N 3251   0.623   0.195  11.741 -0.4162  0.0781 -0.0314
  210MPD1    H5 3252   0.565   0.124  11.784 -0.5642  1.1606  1.5376
  210MPD1    N1 3253   1.053   0.420  11.789 -0.5850 -0.1178 -0.4385
  210MPD1    H6 3254   1.116   0.443  11.865  0.2301 -2.0903 -0.5344
  210MPD1    H7 3255   1.022   0.505  11.743 -0.0266  1.1535  1.4919
  211MPD1     C 3256   2.640   3.364  16.774  0.3618 -0.0831 -0.1953
  211MPD1    C1 3257   2.731   3.379  16.674  0.5368  0.4495 -0.4255
  211MPD1    C2 3258   2.706   3.476  16.572 -0.8145 -0.1718  0.2025
  211MPD1    C3 3259   2.582   3.537  16.565  0.2897 -0.5006 -0.2905
  211MPD1    C4 3260   2.485   3.506  16.658 -0.1272  0.2413  1.0665
  211MPD1    C5 3261   2.519   3.420  16.758 -0.1832 -0.4911 -0.1232
  211MPD1     H 3262   2.780   3.486  16.494 -0.3362  2.3513  1.0005
  211MPD1    H1 3263   2.383   3.539  16.660  0.0379  0.9357 -1.7248
  211MPD1    H2 3264   2.648   3.293  16.856 -2.7154  0.4666  0.5985
  211MPD1    H3 3265   2.447   3.390  16.833 -1.3216  0.3085 -0.8841
  211MPD1     N 3266   2.562   3.641  16.467 -0.2523 -0.0935 -0.4684
  211MPD1    H5 3267   2.632   3.674  16.401  0.4769  0.7762  0.7480
  211MPD1    N1 3268   2.856   3.326  16.683  0.1338 -0.0665 -0.4251
  211MPD1    H6 3269   2.854   3.233  16.724  0.2539 -0.2259 -0.7816
  211MPD1    H7 3270   2.897   3.320  16.590  0.2584  0.6473 -0.4128
  212MPD1     C 3271   1.256   2.385  16.214  0.0277 -0.4579 -0.7235
  212MPD1    C1 3272   1.384   2.366  16.264  0.2218  0.0026  0.4133
  212MPD1    C2 3273   1.418   2.259  16.350 -0.4590  0.5613  0.3465
  212MPD1    C3 3274   1.331   2.153  16.357  0.0905 -0.1553  0.0510
  212MPD1    C4 3275   1.206   2.172  16.302 -0.7735 -0.0993 -0.5662
  212MPD1    C5 3276   1.173   2.277  16.225 -0.0426 -0.5794 -0.0305
  212MPD1     H 3277   1.518   2.260  16.392  0.4807  0.5967 -1.9140
  212MPD1    H1 3278   1.135   2.092  16.322 -2.6621  2.4861  3.0197
  212MPD1    H2 3279   1.219   2.475  16.166  0.7181  1.2279  1.8701
  212MPD1    H3 3280   1.074   2.271  16.182  0.1807 -0.5677 -0.5499
  212MPD1     N 3281   1.358   2.041  16.442 -0.3109 -0.1944  0.1403
  212MPD1    H5 3282   1.280   1.978  16.456 -1.6251  0.8814 -2.3810
  212MPD1    N1 3283   1.459   2.480  16.263 -0.3777 -0.0877 -0.2589
  212MPD1    H6 3284   1.452   2.531  16.175  0.4142 -0.2113 -0.3949
  212MPD1    H7 3285   1.557   2.450  16.263 -0.7843 -1.5087 -3.0321
  213MPD1     C 3286   0.083   3.108  16.115 -0.8638  0.2354 -0.0462
  213MPD1    C1 3287   4.726   3.035  16.053  0.1460  0.0815 -0.2912
  213MPD1    C2 3288   4.719   3.036  15.918  0.4559 -0.7841 -0.1467
  213MPD1    C3 3289   0.048   3.126  15.835 -0.1599 -0.1035  0.0751
  213MPD1    C4 3290   0.137   3.208  15.899 -0.4655  1.2916  0.0309
  213MPD1    C5 3291   0.161   3.196  16.035 -0.1024  0.0296  0.5139
  213MPD1     H 3292   4.640   2.974  15.877 -0.5575  1.5633 -1.7316
  213MPD1    H1 3293   0.204   3.277  15.849  0.1715  1.2191  0.7812
  213MPD1    H2 3294   0.120   3.087  16.215 -2.1827 -1.4804  0.0848
  213MPD1    H3 3295   0.228   3.267  16.082 -0.8784  0.2110  1.3471
  213MPD1     N 3296   0.029   3.117  15.698  0.3686  0.0711 -0.1547
  213MPD1    H5 3297   4.692   3.057  15.668 -1.9452  2.4066  1.0370
  213MPD1    N1 3298   4.676   2.920  16.116 -0.5586 -0.1493  0.4672
  213MPD1    H6 3299   4.660   2.931  16.216 -1.0187  0.1267  0.3624
  213MPD1    H7 3300   4.586   2.899  16.073 -1.7023  1.7135  1.9778
  214MPD1     C 3301   4.331   2.478  15.278 -0.0629 -0.0818  0.6964
  214MPD1    C1 3302   4.335   2.577  15.178 -0.0622  0.1162  0.5193
  214MPD1    C2 3303   4.420   2.689  15.194 -0.0399  0.1551 -0.1546
  214MPD1    C3 3304   4.499   2.702  15.308 -0.3418 -0.3769  0.2122
  214MPD1    C4 3305   4.502   2.591  15.395  0.4143  0.4351  0.0791
  214MPD1    C5 3306   4.411   2.488  15.384  0.0153 -0.1618 -0.1316
  214MPD1     H 3307   4.424   2.762  15.114 -0.0199 -2.3931 -2.4888
  214MPD1    H1 3308   4.575   2.596  15.476  0.4470  2.1618 -0.0452
  214MPD1    H2 3309   4.251   2.405  15.273  0.4477 -0.5491 -0.4103
  214MPD1    H3 3310   4.408   2.422  15.471 -1.2878 -1.5077 -1.1913
  214MPD1     N 3311   4.584   2.817  15.337  0.4518  0.2721 -0.0747
  214MPD1    H5 3312   4.642   2.817  15.421 -0.0150  1.3252  0.2508
  214MPD1    N1 3313   4.246   2.574  15.073  0.2558  0.0271  0.0201
  214MPD1    H6 3314   4.200   2.485  15.057 -2.2415  1.0553  1.4645
  214MPD1    H7 3315   4.293   2.584  14.983  0.0105  0.2887 -0.0808
  215MPD1     C 3316   3.835   4.658  11.227  0.3388  0.0684  0.6358
  215MPD1    C1 3317   3.931   4.613  11.322  0.6137  0.0789  0.3257
  215MPD1    C2 3318   4.037   4.697  11.348 -0.2859  0.1111  0.0193
  215MPD1    C3 3319   4.057   0.076  11.281 -0.0932 -0.1910  0.3884
  215MPD1    C4 3320   3.963   0.115  11.183  0.1761 -0.2489 -0.2679
  215MPD1    C5 3321   3.859   0.037  11.158  0.0587 -0.2182 -0.4957
  215MPD1     H 3322   4.109   4.668  11.423 -0.8691 -0.8994  0.1876
  215MPD1    H1 3323   3.968   0.210  11.130 -0.2004 -1.3318 -2.2175
  215MPD1    H2 3324   3.750   4.596  11.199  1.7102 -1.0755 -0.9499
  215MPD1    H3 3325   3.783   0.058  11.084 -0.6965 -1.5779 -0.1224
  215MPD1     N 3326   4.174   0.151  11.308 -0.1064 -0.0271 -0.1674
  215MPD1    H5 3327   4.229   0.111  11.384  0.7819  1.8528  0.1871
  215MPD1    N1 3328   3.893   4.503  11.414 -0.4123 -0.3545 -0.2780
  215MPD1    H6 3329   3.838   4.439  11.357 -1.0342 -0.0916  0.0314
  215MPD1    H7 3330   3.979   4.466  11.452 -0.8012 -0.7580  0.2050
  216MPD1     C 3331   2.365   1.232  16.657 -0.7914  0.3407  0.4138
  216MPD1    C1 3332   2.440   1.283  16.757  0.7710 -0.2233 -0.6792
  216MPD1    C2 3333   2.409   1.239  16.887 -0.4775 -0.5722 -0.4567
  216MPD1    C3 3334   2.300   1.169  16.921  0.0220  0.0646 -0.8581
  216MPD1    C4 3335   2.211   1.133  16.818  0.2465  0.0673 -0.1673
  216MPD1    C5 3336   2.249   1.162  16.685  0.0850  0.7184  0.3712
  216MPD1     H 3337   2.476   1.258  16.969 -1.6856 -0.4596  0.5094
  216MPD1    H1 3338   2.122   1.074  16.834 -0.0689  1.0859  1.9204
  216MPD1    H2 3339   2.393   1.255  16.555 -0.2476  0.1052  0.5104
  216MPD1    H3 3340   2.185   1.135  16.602 -0.0055  1.4956  0.1938
  216MPD1     N 3341   2.279   1.144  17.059 -0.1686 -0.2515 -0.5415
  216MPD1    H5 3342   2.351   1.177  17.122  1.2505  0.5191 -2.5470
  216MPD1    N1 3343   2.559   1.348  16.727  0.0075 -0.1416  0.0005
  216MPD1    H6 3344   2.583   1.421  16.794  2.5979 -0.2413 -0.8266
  216MPD1    H7 3345   2.554   1.386  16.632 -0.5259  0.5518  0.3032
  217MPD1     C 3346   3.283   0.714   9.422 -0.4874  0.4994 -0.1754
  217MPD1    C1 3347   3.275   0.707   9.562 -0.3457  0.1195  0.2912
  217MPD1    C2 3348   3.227   0.589   9.625 -0.7140  0.2362  0.2603
  217MPD1    C3 3349   3.201   0.475   9.547 -0.7938 -0.2610 -0.8611
  217MPD1    C4 3350   3.222   0.483   9.411 -0.2642 -0.0602 -0.8614
  217MPD1    C5 3351   3.268   0.600   9.349  0.3173  0.2758 -0.4721
  217MPD1     H 3352   3.212   0.588   9.732 -1.3062 -1.5902  0.1521
  217MPD1    H1 3353   3.201   0.398   9.347  1.0357 -1.0324  0.0065
  217MPD1    H2 3354   3.317   0.806   9.376  2.5742 -1.0441 -1.0369
  217MPD1    H3 3355   3.284   0.611   9.242  0.9292 -1.6443 -0.5794
  217MPD1     N 3356   3.171   0.350   9.602  0.3521  0.3434 -0.3727
  217MPD1    H5 3357   3.164   0.276   9.532  1.8142 -0.1862  0.0348
  217MPD1    N1 3358   3.285   0.828   9.633  0.6379 -0.2192 -0.8884
  217MPD1    H6 3359   3.326   0.810   9.724  1.3349  1.7469 -0.8104
  217MPD1    H7 3360   3.338   0.900   9.584 -0.0231  1.4089  0.7934
  218MPD1     C 3361   3.804   4.360  13.288 -0.2104  0.4860 -0.1471
  218MPD1    C1 3362   3.916   4.328  13.352  0.4539 -0.7731 -0.5321
  218MPD1    C2 3363   4.033   4.335  13.280 -0.1480 -0.0360 -0.0455
  218MPD1    C3 3364   4.041   4.394  13.158 -0.6775 -0.5066  0.3040
  218MPD1    C4 3365   3.925   4.427  13.099 -0.3285  0.1915 -0.0940
  218MPD1    C5 3366   3.806   4.408  13.162  0.3964  0.1170 -0.0244
  218MPD1     H 3367   4.129   4.308  13.322 -0.2117 -0.9746 -0.5226
  218MPD1    H1 3368   3.917   4.475  13.002  1.1195 -1.0826 -0.8474
  218MPD1    H2 3369   3.705   4.355  13.333  0.7191  0.7892  1.9110
  218MPD1    H3 3370   3.713   4.437  13.116  1.4089 -1.0610 -2.7791
  218MPD1     N 3371   4.168   4.405  13.086 -0.1331  0.9504 -0.1120
  218MPD1    H5 3372   4.256   4.373  13.125  1.4047  3.4816 -1.5020
  218MPD1    N1 3373   3.919   4.262  13.474 -0.6385 -0.1955  0.1209
  218MPD1    H6 3374   3.848   4.282  13.543 -0.2310  2.2311 -0.1637
  218MPD1    H7 3375   4.012   4.283  13.512 -0.8099  1.0457 -0.1418
  219MPD1     C 3376   4.722   0.057  12.213  0.1773 -0.0389 -0.3779
  219MPD1    C1 3377   4.656   0.136  12.307  0.2152 -0.2594  0.2627
  219MPD1    C2 3378   4.609   0.068  12.420 -0.0557 -1.1363  0.0932
  219MPD1    C3 3379   4.613   4.666  12.436 -0.3974  0.8188 -0.5853
  219MPD1    C4 3380   4.682   4.599  12.342  0.4004  0.6370 -0.0724
  219MPD1    C5 3381   0.003   4.663  12.237 -0.2649 -0.3409 -0.4043
  219MPD1     H 3382   4.551   0.119  12.495  2.8045  0.0294  1.5278
  219MPD1    H1 3383   4.696   4.493  12.356 -3.0528  0.0934 -0.5724
  219MPD1    H2 3384   0.015   0.107  12.123  2.9052 -1.2109 -0.0914
  219MPD1    H3 3385   0.059   4.602  12.168  0.7161  1.9177 -1.6065
  219MPD1     N 3386   4.562   4.597  12.544  0.0767 -0.1138 -0.5414
  219MPD1    H5 3387   4.571   4.496  12.544  1.6372  0.0129  0.0135
  219MPD1    N1 3388   4.662   0.275  12.302 -0.4772 -0.3418  0.0158
  219MPD1    H6 3389   4.576   0.323  12.329 -1.6075 -2.3216 -0.1207
  219MPD1    H7 3390   4.684   0.315  12.211 -1.3202  0.7609  0.2951
  220MPD1     C 3391   4.378   1.347   9.912 -0.3031  0.0399  1.0451
  220MPD1    C1 3392   4.456   1.322  10.024  0.7039 -0.6728 -0.6672
  220MPD1    C2 3393   4.455   1.195  10.080 -0.3546 -0.1872  0.3775
  220MPD1    C3 3394   4.383   1.091  10.025 -0.7298 -0.1696 -0.2075
  220MPD1    C4 3395   4.304   1.120   9.916  0.1270  0.6825 -0.6245
  220MPD1    C5 3396   4.298   1.247   9.861  0.5678 -0.0784 -0.6438
  220MPD1     H 3397   4.517   1.170  10.165  1.0991  1.6919 -0.1414
  220MPD1    H1 3398   4.246   1.041   9.870  1.8871  0.9456 -3.2791
  220MPD1    H2 3399   4.375   1.435   9.850  1.2415  0.6943  1.8822
  220MPD1    H3 3400   4.234   1.252   9.774 -1.6334 -2.4949  0.8228
  220MPD1     N 3401   4.396   0.963  10.078 -0.2570 -0.2066  0.1258
  220MPD1    H5 3402   4.451   0.960  10.163  0.4205  0.7120 -0.2775
  220MPD1    N1 3403   4.531   1.429  10.086  0.2787  0.4278  0.3145
  220MPD1    H6 3404   4.574   1.499  10.025 -0.0465 -1.6655 -2.2723
  220MPD1    H7 3405   4.599   1.390  10.150 -1.3564 -0.4427  1.5071
  221MPD1     C 3406   3.049   2.353  16.855  0.5421 -0.2782  0.3784
  221MPD1    C1 3407   2.920   2.364  16.897 -0.0415  0.0983  0.8286
  221MPD1    C2 3408   2.851   2.478  16.859  0.3856  0.0029 -0.2001
  221MPD1    C3 3409   2.902   2.565  16.771 -0.5545  0.8222  0.3760
  221MPD1    C4 3410   3.028   2.543  16.716 -0.5674  0.1239 -0.2680
  221MPD1    C5 3411   3.105   2.436  16.762 -0.1746  0.0396 -0.4442
  221MPD1     H 3412   2.747   2.485  16.889 -0.2211 -0.4862 -2.1895
  221MPD1    H1 3413   3.074   2.588  16.629 -1.1694 -0.0140 -0.6543
  221MPD1    H2 3414   3.113   2.267  16.876  1.4465  0.3446  0.1621
  221MPD1    H3 3415   3.207   2.425  16.727  0.5656  0.5508  1.5366
  221MPD1     N 3416   2.833   2.675  16.712 -0.2057 -0.4321 -0.3399
  221MPD1    H5 3417   2.886   2.744  16.659  0.6987 -1.1112 -0.3149
  221MPD1    N1 3418   2.876   2.271  16.997 -0.2808  0.5976  0.0322
  221MPD1    H6 3419   2.912   2.183  16.961 -1.7672 -0.7628  1.8913
  221MPD1    H7 3420   2.776   2.258  16.999 -0.0324 -1.0978  1.4027
  222MPD1     C 3421   0.359   2.150  17.458 -0.5168 -0.1023 -0.5016
  222MPD1    C1 3422   0.474   2.091  17.418  0.6871  0.3066  0.1527
  222MPD1    C2 3423   0.585   2.104  17.492  0.7707 -0.7898 -0.4196
  222MPD1    C3 3424   0.575   2.151  17.616 -0.2629 -0.1904 -0.9398
  222MPD1    C4 3425   0.456   2.202  17.659  0.3658 -0.3357 -0.4194
  222MPD1    C5 3426   0.348   2.198  17.582  0.2976 -0.4011  0.0785
  222MPD1     H 3427   0.678   2.065  17.453  0.7347 -0.7311 -0.5625
  222MPD1    H1 3428   0.445   2.259  17.751 -0.0078  0.9409 -1.2492
  222MPD1    H2 3429   0.270   2.150  17.397 -1.2934 -1.0734  0.6229
  222MPD1    H3 3430   0.258   2.252  17.606 -0.2514 -0.7671 -1.1525
  222MPD1     N 3431   0.686   2.167  17.707 -0.1385  0.7554  0.1743
  222MPD1    H5 3432   0.664   2.223   0.037  2.3394  0.8082  0.8067
  222MPD1    N1 3433   0.501   2.056  17.283 -0.0989  0.3251 -0.7139
  222MPD1    H6 3434   0.419   2.013  17.241 -1.7671  2.2510  0.5488
  222MPD1    H7 3435   0.574   1.986  17.290 -0.5803 -0.3088 -2.0073
  223MPD1     C 3436   0.549   2.436   0.695  0.3955 -0.0200 -0.1758
  223MPD1    C1 3437   0.487   2.401   0.577  0.3362  0.1224  0.3441
  223MPD1    C2 3438   0.559   2.330   0.485 -0.5074 -0.9607 -0.5499
  223MPD1    C3 3439   0.693   2.298   0.510 -0.1369 -0.2284 -0.6694
  223MPD1    C4 3440   0.744   2.316   0.642 -0.1158 -0.1575 -0.0217
  223MPD1    C5 3441   0.668   2.380   0.726  0.0965 -0.1110  0.5543
  223MPD1     H 3442   0.511   2.308   0.390 -0.0897 -1.7459 -0.5779
  223MPD1    H1 3443   0.843   2.287   0.676 -0.7713 -1.3022  0.9216
  223MPD1    H2 3444   0.498   2.500   0.765 -0.5647  1.2921 -2.0892
  223MPD1    H3 3445   0.711   2.397   0.824  0.3169 -1.2332  0.6572
  223MPD1     N 3446   0.770   2.240   0.412 -0.4874 -0.0734  0.4207
  223MPD1    H5 3447   0.723   2.252   0.322 -0.1072 -0.8087  0.1251
  223MPD1    N1 3448   0.362   2.457   0.536 -0.0506 -1.1061 -0.2370
  223MPD1    H6 3449   0.308   2.400   0.471 -0.7833  0.5289 -1.0558
  223MPD1    H7 3450   0.309   2.493   0.615  2.2182 -1.7292  1.5549
  224MPD1     C 3451   3.543   0.680   9.069 -0.1219 -0.0750 -0.9597
  224MPD1    C1 3452   3.566   0.546   9.084  0.6654 -0.2116 -0.0073
  224MPD1    C2 3453   3.578   0.494   9.213  0.5960  0.2498  0.1000
  224MPD1    C3 3454   3.588   0.583   9.320 -0.1601 -0.8940 -0.0560
  224MPD1    C4 3455   3.570   0.715   9.301 -0.6129  0.0570  0.1888
  224MPD1    C5 3456   3.548   0.766   9.171 -0.3991 -0.3898 -0.2164
  224MPD1     H 3457   3.567   0.389   9.239  1.4570 -0.0741 -0.8166
  224MPD1    H1 3458   3.564   0.774   9.392  2.2871  1.3229 -0.4246
  224MPD1    H2 3459   3.509   0.726   8.977 -0.1933 -1.5321 -1.6537
  224MPD1    H3 3460   3.516   0.869   9.162  0.2099 -0.3470 -1.7599
  224MPD1     N 3461   3.613   0.541   9.452  0.0687  0.0007  0.2917
  224MPD1    H5 3462   3.604   0.611   9.524 -1.4624 -0.8105  0.8753
  224MPD1    N1 3463   3.544   0.456   8.976 -0.5402  0.1554  0.0038
  224MPD1    H6 3464   3.568   0.509   8.892 -0.8569  0.2669 -0.0150
  224MPD1    H7 3465   3.607   0.376   8.980 -0.1888  0.2811 -3.3392
  225MPD1     C 3466   4.358   0.727  13.737 -0.2391 -0.3387  0.1369
  225MPD1    C1 3467   4.390   0.761  13.614  0.2858 -0.1238 -0.0674
  225MPD1    C2 3468   4.292   0.763  13.515 -0.0542  0.6675 -0.4300
  225MPD1    C3 3469   4.160   0.758  13.551 -0.5746  0.6041 -0.5637
  225MPD1    C4 3470   4.126   0.716  13.675 -0.2837 -0.0920 -0.5278
  225MPD1    C5 3471   4.228   0.706  13.765 -1.3905 -0.6390 -0.0994
  225MPD1     H 3472   4.321   0.787  13.413 -2.2403  0.3804 -1.1196
  225MPD1    H1 3473   4.023   0.705  13.708  0.1526  0.0258  0.8791
  225MPD1    H2 3474   4.429   0.719  13.818 -1.2386  2.4073  1.2809
  225MPD1    H3 3475   4.212   0.695  13.871  1.1615  2.5279  0.6063
  225MPD1     N 3476   4.059   0.791  13.452 -0.0985  0.3809  0.0199
  225MPD1    H5 3477   3.965   0.759  13.472 -0.7145  0.6893 -2.3424
  225MPD1    N1 3478   4.529   0.764  13.573 -0.3139  0.1711  0.0741
  225MPD1    H6 3479   4.536   0.805  13.480 -0.4187  0.7021  0.3029
  225MPD1    H7 3480   4.598   0.801  13.638 -1.2298 -0.1459  1.2343
  226MPD1     C 3481   4.215   1.564   9.263  0.1877  0.3465  0.0287
  226MPD1    C1 3482   4.097   1.540   9.318 -0.6063 -0.0908  0.7490
  226MPD1    C2 3483   4.038   1.417   9.310  0.0076 -0.2252 -0.1846
  226MPD1    C3 3484   4.094   1.319   9.234  0.8766 -0.1356  0.0633
  226MPD1    C4 3485   4.214   1.338   9.175  0.0976 -0.2994 -0.4412
  226MPD1    C5 3486   4.272   1.465   9.185 -0.4104 -0.3130 -0.3694
  226MPD1     H 3487   3.956   1.394   9.377 -0.7857 -0.4787 -1.2275
  226MPD1    H1 3488   4.268   1.266   9.115 -0.7736  0.3378 -1.9785
  226MPD1    H2 3489   4.262   1.660   9.275 -0.0744  0.7081 -1.7242
  226MPD1    H3 3490   4.362   1.499   9.136 -0.3891 -2.2056 -1.6404
  226MPD1     N 3491   4.018   1.196   9.231 -0.1595  0.0811  0.3515
  226MPD1    H5 3492   3.939   1.183   9.293  0.1110  1.0246  0.8786
  226MPD1    N1 3493   4.041   1.637   9.406  0.3279  0.2596 -0.2843
  226MPD1    H6 3494   4.067   1.735   9.399 -0.2761  0.1797 -3.3827
  226MPD1    H7 3495   3.944   1.623   9.437 -0.0884 -0.4864 -1.9420
  227MPD1     C 3496   3.790   0.159   8.928  0.2977 -0.2582  0.1021
  227MPD1    C1 3497   3.806   0.167   9.061  0.3150  0.3284  1.4401
  227MPD1    C2 3498   3.854   0.282   9.110  0.6981  0.1001  0.1604
  227MPD1    C3 3499   3.880   0.392   9.031  0.3781 -0.1281  0.2210
  227MPD1    C4 3500   3.865   0.386   8.894  0.2667 -0.1793 -0.0120
  227MPD1    C5 3501   3.819   0.269   8.847  0.5026 -0.3462 -0.1671
  227MPD1     H 3502   3.873   0.296   9.216 -1.5341 -0.6677  0.6607
  227MPD1    H1 3503   3.883   0.468   8.825 -1.4545  0.8040  0.7090
  227MPD1    H2 3504   3.769   0.066   8.876  2.0070  0.3539 -1.6818
  227MPD1    H3 3505   3.810   0.263   8.739  0.4689  1.8854 -0.2769
  227MPD1     N 3506   3.922   0.512   9.096 -0.1728  0.2384 -0.0403
  227MPD1    H5 3507   3.938   0.518   9.196  1.8864  0.2271 -0.3664
  227MPD1    N1 3508   3.802   0.055   9.143 -0.6843 -0.8541 -0.1185
  227MPD1    H6 3509   3.722   0.004   9.106 -2.5342  0.3348  2.2620
  227MPD1    H7 3510   3.783   0.076   9.241 -0.1368  0.4894 -0.2933
  228MPD1     C 3511   1.353   3.358  13.546 -0.6330 -0.0203 -0.0815
  228MPD1    C1 3512   1.329   3.322  13.421 -0.0701  0.8020 -0.1718
  228MPD1    C2 3513   1.240   3.220  13.393 -0.5484  0.8346  0.0148
  228MPD1    C3 3514   1.188   3.143  13.492 -0.4461 -0.8299 -0.2763
  228MPD1    C4 3515   1.209   3.183  13.622 -0.2090 -0.3179  0.0196
  228MPD1    C5 3516   1.286   3.293  13.649  0.3339  0.9811  0.3707
  228MPD1     H 3517   1.210   3.205  13.290 -0.7639  0.9505  0.0614
  228MPD1    H1 3518   1.158   3.144  13.709 -1.9402  0.4533 -0.6493
  228MPD1    H2 3519   1.417   3.440  13.576 -0.3038 -0.5278  0.5951
  228MPD1    H3 3520   1.297   3.330  13.750 -0.9931  0.8271  0.5633
  228MPD1     N 3521   1.100   3.035  13.458 -0.0739 -0.2884  0.6342
  228MPD1    H5 3522   1.083   3.025  13.359  0.1455 -0.6692  0.6372
  228MPD1    N1 3523   1.382   3.396  13.309 -0.2212 -0.0183  0.2588
  228MPD1    H6 3524   1.463   3.442  13.349 -0.6191  0.8570  0.0594
  228MPD1    H7 3525   1.412   3.337  13.232  2.0992  0.8760  0.4798
  229MPD1     C 3526   1.799   1.564  13.998  0.1187  0.0689 -0.3832
  229MPD1    C1 3527   1.681   1.630  14.008  0.4817  0.1653 -0.4632
  229MPD1    C2 3528   1.574   1.573  14.076 -0.3110 -0.4124 -0.0810
  229MPD1    C3 3529   1.593   1.457  14.152  0.3810  0.0993 -0.2437
  229MPD1    C4 3530   1.718   1.396  14.156  0.3782  0.0556  0.0203
  229MPD1    C5 3531   1.820   1.447  14.073 -0.1588  0.2846  0.0170
  229MPD1     H 3532   1.476   1.615  14.054 -0.8305 -1.2321  0.6959
  229MPD1    H1 3533   1.738   1.303  14.208  1.4641  1.3202  1.8391
  229MPD1    H2 3534   1.880   1.593  13.933  0.3326  2.0757  0.7521
  229MPD1    H3 3535   1.917   1.401  14.060  0.5831  1.3805  1.5911
  229MPD1     N 3536   1.490   1.391  14.226  0.7250 -0.3675 -0.3682
  229MPD1    H5 3537   1.525   1.302  14.260  0.1716 -0.8303 -1.0061
  229MPD1    N1 3538   1.658   1.724  13.909  0.1872 -0.3026 -0.3886
  229MPD1    H6 3539   1.586   1.790  13.937 -0.3658 -0.8238 -0.5848
  229MPD1    H7 3540   1.737   1.774  13.869 -0.3100  0.5330 -0.3231
  230MPD1     C 3541   1.044   1.788  15.029 -0.2462  0.0802 -0.3676
  230MPD1    C1 3542   1.099   1.665  15.066  0.1373 -0.9219  0.6623
  230MPD1    C2 3543   1.116   1.574  14.960  0.0861  0.4708  0.0436
  230MPD1    C3 3544   1.072   1.599  14.831 -0.0032 -0.3732  0.4200
  230MPD1    C4 3545   1.027   1.727  14.802  0.0832 -0.5587  0.0838
  230MPD1    C5 3546   1.013   1.809  14.901  0.1189 -0.4314 -0.9507
  230MPD1     H 3547   1.158   1.476  14.981 -0.3234  0.2533 -0.1463
  230MPD1    H1 3548   0.997   1.764  14.705 -0.9213 -1.4180  0.0613
  230MPD1    H2 3549   1.028   1.873  15.094  0.2581  1.5487 -2.1779
  230MPD1    H3 3550   0.973   1.904  14.868  2.5782  0.4633 -1.3614
  230MPD1     N 3551   1.099   1.506  14.723 -0.1122  0.0501 -0.5619
  230MPD1    H5 3552   1.145   1.419  14.747  0.7809  0.7962  0.4702
  230MPD1    N1 3553   1.146   1.649  15.196 -0.0039 -1.0006 -0.2162
  230MPD1    H6 3554   1.144   1.553  15.231 -1.0755  0.2957  3.2569
  230MPD1    H7 3555   1.084   1.696  15.261  1.2160  2.0336 -1.2806
  231MPD1     C 3556   4.522   3.398  15.496  0.4806  0.5118  0.4124
  231MPD1    C1 3557   4.592   3.513  15.465  0.0726 -0.5026 -0.1683
  231MPD1    C2 3558   4.610   3.558  15.333 -0.3681 -0.0021 -0.2474
  231MPD1    C3 3559   4.563   3.479  15.229 -0.4371  0.5744  0.1031
  231MPD1    C4 3560   4.507   3.357  15.263 -0.1169 -0.2214  0.6112
  231MPD1    C5 3561   4.494   3.310  15.392  0.5149  0.4797  0.4914
  231MPD1     H 3562   4.652   3.655  15.310 -1.1188 -0.1958 -2.5016
  231MPD1    H1 3563   4.454   3.295  15.191  1.5146  0.5628 -1.2800
  231MPD1    H2 3564   4.488   3.378  15.597 -0.3359 -0.7218 -0.1069
  231MPD1    H3 3565   4.451   3.212  15.412  0.8841  0.3568  0.6851
  231MPD1     N 3566   4.576   3.523  15.098  0.2839  0.5515 -0.6637
  231MPD1    H5 3567   4.617   3.616  15.089 -1.4541  1.3648 -0.1547
  231MPD1    N1 3568   4.635   3.590  15.572 -0.2892 -0.2106  0.0936
  231MPD1    H6 3569   4.632   3.539  15.660 -1.8742 -2.9568 -1.5454
  231MPD1    H7 3570   4.726   3.633  15.558 -1.2706  1.7669 -0.1712
  232MPD1     C 3571   1.224   0.117  17.416  0.7867 -0.3076  0.3780
  232MPD1    C1 3572   1.106   0.077  17.356 -0.1717  0.1937  0.1922
  232MPD1    C2 3573   1.058   4.687  17.384  0.3213  0.4035 -0.4713
  232MPD1    C3 3574   1.118   4.598  17.470 -0.5487  0.6369 -0.2842
  232MPD1    C4 3575   1.234   4.651  17.535 -0.0080  0.4090  0.0873
  232MPD1    C5 3576   1.281   0.040  17.508  0.2219 -0.2287  0.0380
  232MPD1     H 3577   0.968   4.659  17.331  0.2663 -1.2260  0.4917
  232MPD1    H1 3578   1.296   4.578  17.585 -1.7517  0.0866  1.7985
  232MPD1    H2 3579   1.269   0.212  17.390 -1.9264  0.7902 -0.3825
  232MPD1    H3 3580   1.379   0.075  17.538 -0.2801  0.6838  0.6141
  232MPD1     N 3581   1.072   4.468  17.497  0.0332 -0.4723 -0.5342
  232MPD1    H5 3582   1.016   4.426  17.423  1.6651 -3.0949 -0.2946
  232MPD1    N1 3583   1.055   0.156  17.254 -0.0757 -0.6218  0.5600
  232MPD1    H6 3584   0.955   0.150  17.236 -0.1763  0.1371  0.8638
  232MPD1    H7 3585   1.074   0.256  17.260  1.5047 -0.7555 -2.2841
  233MPD1     C 3586   2.321   1.093   1.693  0.2797  0.2059  0.1319
  233MPD1    C1 3587   2.345   1.229   1.669  0.6233  0.0665 -0.2233
  233MPD1    C2 3588   2.434   1.265   1.562 -0.6339 -0.2410 -0.3138
  233MPD1    C3 3589   2.484   1.164   1.486 -0.0611  0.4225 -0.1070
  233MPD1    C4 3590   2.465   1.033   1.516  0.1782  1.0974  0.3262
  233MPD1    C5 3591   2.384   1.000   1.616 -0.3140  0.0617 -0.2957
  233MPD1     H 3592   2.455   1.369   1.542 -1.0889 -0.1720 -0.4267
  233MPD1    H1 3593   2.514   0.956   1.457 -0.2614  0.8282  0.3150
  233MPD1    H2 3594   2.259   1.066   1.777 -1.5938 -0.6636 -1.5143
  233MPD1    H3 3595   2.363   0.896   1.640  2.3568 -0.4383 -0.1566
  233MPD1     N 3596   2.559   1.188   1.367  0.3723 -0.3972  0.0599
  233MPD1    H5 3597   2.616   1.111   1.334  2.1933  1.4962 -1.1296
  233MPD1    N1 3598   2.309   1.324   1.767  0.0042 -0.6342  0.1400
  233MPD1    H6 3599   2.222   1.299   1.815 -0.3850  1.1592  0.3458
  233MPD1    H7 3600   2.317   1.423   1.749 -1.3982 -0.7787 -1.2828
  234MPD1     C 3601   3.558   3.373   9.314  0.0646 -0.1158 -0.1148
  234MPD1    C1 3602   3.534   3.470   9.219  0.8600  0.0610 -0.2695
  234MPD1    C2 3603   3.560   3.600   9.262  0.7647 -0.1473  0.0616
  234MPD1    C3 3604   3.615   3.626   9.385 -0.4758  0.2636  1.0115
  234MPD1    C4 3605   3.654   3.524   9.467 -0.6838  0.1142 -0.2187
  234MPD1    C5 3606   3.631   3.395   9.428  0.3886 -0.4376  0.1060
  234MPD1     H 3607   3.526   3.689   9.211 -0.4094 -0.5199  0.1945
  234MPD1    H1 3608   3.716   3.528   9.556  0.8628 -2.6959 -1.1628
  234MPD1    H2 3609   3.538   3.270   9.289  0.0547  0.2794 -1.7089
  234MPD1    H3 3610   3.666   3.307   9.481  0.5492  0.4555  1.5055
  234MPD1     N 3611   3.638   3.762   9.418 -0.5463 -0.1290 -0.3557
  234MPD1    H5 3612   3.610   3.832   9.350  0.5992  0.6984  0.0198
  234MPD1    N1 3613   3.451   3.447   9.109 -0.5421  0.0810  0.0726
  234MPD1    H6 3614   3.473   3.505   9.028  2.2903  0.6693  1.2816
  234MPD1    H7 3615   3.445   3.350   9.077  0.1017 -0.6606  2.2299
  235MPD1     C 3616   3.819   2.543   9.052  0.3059  0.1429  0.2555
  235MPD1    C1 3617   3.886   2.659   9.018 -0.0117  0.1845  0.0792
  235MPD1    C2 3618   4.013   2.677   9.065 -0.0542  0.0181  0.4437
  235MPD1    C3 3619   4.072   2.605   9.161  0.9477  0.3984  0.7618
  235MPD1    C4 3620   3.997   2.494   9.209  0.3745 -0.0842  0.0707
  235MPD1    C5 3621   3.872   2.470   9.156  0.6516  0.0399 -0.0215
  235MPD1     H 3622   4.072   2.756   9.019 -0.7947 -0.3010 -1.0589
  235MPD1    H1 3623   4.055   2.433   9.279  0.7696  0.5470  0.2910
  235MPD1    H2 3624   3.717   2.521   9.020  0.2743  0.0458  0.4222
  235MPD1    H3 3625   3.824   2.379   9.190 -1.3132  0.5350 -1.4797
  235MPD1     N 3626   4.195   2.650   9.215 -0.1231  0.3413  0.3949
  235MPD1    H5 3627   4.246   2.724   9.167  4.2608 -2.0745  1.2680
  235MPD1    N1 3628   3.840   2.725   8.903  0.3271  0.0469  0.2200
  235MPD1    H6 3629   3.738   2.725   8.905  0.3459  0.8596  1.0614
  235MPD1    H7 3630   3.867   2.823   8.898  1.5923 -0.4265 -2.2912
  236MPD1     C 3631   4.606   2.420   9.773  0.2274  0.4947 -0.2089
  236MPD1    C1 3632   4.589   2.293   9.824  1.1884 -0.1923  0.5066
  236MPD1    C2 3633   4.669   2.252   9.933  0.1241 -0.2323 -0.2492
  236MPD1    C3 3634   4.725   2.351  10.015  0.9625 -0.6496 -0.7896
  236MPD1    C4 3635   4.714   2.480   9.976 -0.2039 -0.2596 -0.3156
  236MPD1    C5 3636   4.657   2.512   9.858  0.1339 -0.0348 -0.4598
  236MPD1     H 3637   4.679   2.148   9.960  0.0337 -0.4247 -0.9734
  236MPD1    H1 3638   0.020   2.560  10.035 -0.3132 -0.0002 -0.5884
  236MPD1    H2 3639   4.560   2.460   9.684  0.8993  1.7694  0.0247
  236MPD1    H3 3640   4.658   2.617   9.831  0.1545 -0.1342 -0.8526
  236MPD1     N 3641   0.058   2.324  10.136 -0.8395 -0.2630 -0.4854
  236MPD1    H5 3642   0.088   2.401  10.195 -1.4987  0.0278 -0.5254
  236MPD1    N1 3643   4.537   2.196   9.740  0.9697  0.3811 -0.0190
  236MPD1    H6 3644   4.506   2.111   9.785 -0.0644  0.9015  0.2503
  236MPD1    H7 3645   4.459   2.230   9.684  1.6375  1.4102 -0.3420
  237MPD1     C 3646   4.494   4.229  15.637  0.3970  0.9183  0.0354
  237MPD1    C1 3647   4.364   4.273  15.678  0.6639  0.3769 -0.8145
  237MPD1    C2 3648   4.270   4.294  15.579 -0.3170  0.0264 -0.1257
  237MPD1    C3 3649   4.293   4.264  15.444 -0.9929 -0.1147  0.4926
  237MPD1    C4 3650   4.420   4.220  15.408  0.6321 -0.4166 -0.7470
  237MPD1    C5 3651   4.517   4.195  15.508 -0.4424  0.4889  0.0900
  237MPD1     H 3652   4.173   4.339  15.597  0.5695  1.9236 -0.1365
  237MPD1    H1 3653   4.445   4.191  15.307  3.0529 -1.1689  0.0888
  237MPD1    H2 3654   4.584   4.219  15.697 -0.6822  0.0777  1.4988
  237MPD1    H3 3655   4.617   4.165  15.478 -0.5611 -0.6792  0.8795
  237MPD1     N 3656   4.201   4.274  15.335 -0.0664  0.1197 -0.5994
  237MPD1    H5 3657   4.232   4.251  15.242  1.9160 -0.6069  0.2448
  237MPD1    N1 3658   4.333   4.309  15.809  0.3219  0.4751 -0.3781
  237MPD1    H6 3659   4.384   4.253  15.878 -1.2094 -1.0029 -0.4262
  237MPD1    H7 3660   4.235   4.292  15.829  0.8703 -2.0281  0.2457
  238MPD1     C 3661   0.850   3.530  15.686  1.2189  0.5153  0.6642
  238MPD1    C1 3662   0.965   3.553  15.608 -0.1342 -0.0800 -0.0530
  238MPD1    C2 3663   0.960   3.488  15.481 -0.5169  0.5542  0.3006
  238MPD1    C3 3664   0.854   3.410  15.442  0.4747 -0.2510 -0.1975
  238MPD1    C4 3665   0.755   3.379  15.537 -0.1663  0.3583  0.0531
  238MPD1    C5 3666   0.751   3.441  15.659 -0.3266 -0.4487 -0.5867
  238MPD1     H 3667   1.044   3.494  15.412 -0.4241 -0.3267  0.3461
  238MPD1    H1 3668   0.680   3.303  15.517  0.0658 -0.0569  0.7867
  238MPD1    H2 3669   0.842   3.583  15.781  0.1112  1.1628  0.2133
  238MPD1    H3 3670   0.676   3.423  15.734  1.5609 -1.1010  1.1512
  238MPD1     N 3671   0.844   3.345  15.317 -0.1832 -0.2929  0.2159
  238MPD1    H5 3672   0.766   3.282  15.302  0.1725 -0.7641  0.3761
  238MPD1    N1 3673   1.076   3.623  15.647  0.0457 -0.9343  0.0941
  238MPD1    H6 3674   1.053   3.711  15.692  1.6190  0.0271 -0.9969
  238MPD1    H7 3675   1.130   3.657  15.567 -0.4020 -1.6136 -0.5012
  239MPD1     C 3676   0.588   4.122  13.211  0.2329  0.0746  0.7329
  239MPD1    C1 3677   0.513   4.151  13.326 -0.0485  0.3175 -0.0528
  239MPD1    C2 3678   0.585   4.191  13.440 -0.3864  0.0613  0.3966
  239MPD1    C3 3679   0.719   4.217  13.434 -0.2495  0.1822  0.3098
  239MPD1    C4 3680   0.793   4.182  13.323  0.4059  0.2810 -0.5350
  239MPD1    C5 3681   0.726   4.135  13.211  0.1057  1.3406 -0.0529
  239MPD1     H 3682   0.526   4.205  13.529 -0.8386  1.5137 -0.1290
  239MPD1    H1 3683   0.902   4.179  13.325  0.3875 -0.8278 -1.5488
  239MPD1    H2 3684   0.539   4.095  13.118 -0.3938  1.2434  0.7187
  239MPD1    H3 3685   0.791   4.105  13.130  0.0959 -2.2419  1.2951
  239MPD1     N 3686   0.782   4.273  13.544  0.2199  0.1175 -0.1060
  239MPD1    H5 3687   0.872   4.317  13.531  0.0178  0.9087  1.2327
  239MPD1    N1 3688   0.374   4.121  13.338 -0.4091 -0.2474 -0.5577
  239MPD1    H6 3689   0.319   4.115  13.253 -0.1820 -0.2470 -0.7053
  239MPD1    H7 3690   0.331   4.196  13.392  0.1919  0.2823 -0.8112
  240MPD1     C 3691   1.016   4.295  14.000  0.9397  0.3144 -0.0423
  240MPD1    C1 3692   0.974   4.336  14.125 -0.3818  0.5720  0.4088
  240MPD1    C2 3693   0.904   4.252  14.209  0.4885  0.5811 -0.7894
  240MPD1    C3 3694   0.885   4.119  14.177  0.2161  0.4314  0.6962
  240MPD1    C4 3695   0.932   4.079  14.052  0.4999 -0.2715 -0.0693
  240MPD1    C5 3696   0.994   4.165  13.967  0.5625 -0.5242  0.4630
  240MPD1     H 3697   0.873   4.282  14.308  1.1830 -3.8835  0.7792
  240MPD1    H1 3698   0.914   3.980  14.012 -0.6797 -0.0397 -0.1073
  240MPD1    H2 3699   1.092   4.344  13.941  2.2212  2.0926  3.1133
  240MPD1    H3 3700   1.037   4.128  13.874 -1.7411  0.8058 -1.1150
  240MPD1     N 3701   0.813   4.038  14.271 -0.1488  0.0304 -0.0813
  240MPD1    H5 3702   0.801   4.076  14.364 -0.1789 -0.2015  0.0097
  240MPD1    N1 3703   1.003   4.469  14.161 -0.7389  0.4586  0.0945
  240MPD1    H6 3704   0.929   4.504  14.220  1.3622 -0.0792  3.0632
  240MPD1    H7 3705   1.017   4.527  14.078 -0.4027 -1.5582 -1.2631
  241MPD1     C 3706   0.762   4.208  15.065  0.1168  0.1074  0.4381
  241MPD1    C1 3707   0.681   4.101  15.081 -0.2368  0.2546  1.1479
  241MPD1    C2 3708   0.665   4.016  14.969  0.8205 -0.0310  0.3087
  241MPD1    C3 3709   0.714   4.058  14.843 -0.0045 -0.2157 -0.9606
  241MPD1    C4 3710   0.783   4.174  14.827  0.4358 -0.0384 -0.1761
  241MPD1    C5 3711   0.807   4.248  14.945  0.0555  0.0863  1.2503
  241MPD1     H 3712   0.589   3.938  14.972  0.8169  0.0474  2.3130
  241MPD1    H1 3713   0.840   4.205  14.740  0.5531  0.0911 -0.0535
  241MPD1    H2 3714   0.779   4.274  15.149 -0.7569 -1.7561  2.0627
  241MPD1    H3 3715   0.870   4.336  14.939 -1.0078  0.7960  0.5192
  241MPD1     N 3716   0.709   3.983  14.724  0.1845 -0.7842 -0.1489
  241MPD1    H5 3717   0.744   4.026  14.639 -1.6954 -0.5375 -0.7996
  241MPD1    N1 3718   0.607   4.092  15.196 -0.2153 -0.2727  0.0576
  241MPD1    H6 3719   0.556   4.007  15.219 -1.4006 -0.1479 -2.0598
  241MPD1    H7 3720   0.637   4.140  15.280 -3.7569  1.8945  0.1015
  242MPD1     C 3721   0.292   2.248  16.099 -0.0447  0.2014  0.2635
  242MPD1    C1 3722   0.390   2.156  16.097 -0.8205 -0.3253  0.1863
  242MPD1    C2 3723   0.438   2.127  15.968 -0.2674  0.7007  0.3601
  242MPD1    C3 3724   0.399   2.183  15.843 -0.3486 -0.2314 -0.2232
  242MPD1    C4 3725   0.303   2.282  15.853  0.2639  0.7236 -0.3744
  242MPD1    C5 3726   0.254   2.308  15.980 -0.3432 -0.2898 -0.3648
  242MPD1     H 3727   0.512   2.048  15.971  0.6150  1.3701 -2.8624
  242MPD1    H1 3728   0.281   2.356  15.776 -1.1230  1.2983  0.5624
  242MPD1    H2 3729   0.233   2.266  16.189 -0.3515  2.3363 -0.3569
  242MPD1    H3 3730   0.187   2.394  15.987  0.9635  0.5175  2.0417
  242MPD1     N 3731   0.457   2.166  15.714  0.2552  0.2922  0.4071
  242MPD1    H5 3732   0.409   2.204  15.633  0.6658 -0.2576 -0.0925
  242MPD1    N1 3733   0.416   2.071  16.209  0.3896 -0.3083 -0.0257
  242MPD1    H6 3734   0.501   2.017  16.216 -0.1624 -1.2776 -0.8428
  242MPD1    H7 3735   0.387   2.114  16.297 -1.9421 -2.2530  0.1704
  243MPD1     C 3736   2.563   0.709   0.188 -0.0443 -0.1099 -0.2229
  243MPD1    C1 3737   2.461   0.735   0.097  0.6132  0.3729 -0.0451
  243MPD1    C2 3738   2.438   0.644  17.746  0.1313 -0.0680 -0.0332
  243MPD1    C3 3739   2.509   0.515  17.743 -0.0893 -0.0490 -0.1651
  243MPD1    C4 3740   2.597   0.487   0.090 -0.0935  0.4113 -0.2212
  243MPD1    C5 3741   2.625   0.584   0.179 -0.3955 -0.8874 -0.2961
  243MPD1     H 3742   2.365   0.662  17.668  1.3214 -2.0833 -1.6347
  243MPD1    H1 3743   2.660   0.399   0.096  0.3300  0.7623  0.3908
  243MPD1    H2 3744   2.598   0.775   0.266  1.3840 -1.6301  0.4337
  243MPD1    H3 3745   2.711   0.561   0.242 -0.9746 -1.2234  0.3669
  243MPD1     N 3746   2.475   0.419  17.647 -0.0681  0.1731 -0.6156
  243MPD1    H5 3747   2.395   0.434  17.587  0.0533  2.3821 -0.2191
  243MPD1    N1 3748   2.393   0.853   0.094 -0.3850 -0.0589 -0.4429
  243MPD1    H6 3749   2.389   0.900   0.185  1.7187  0.3921 -0.5938
  243MPD1    H7 3750   2.302   0.862   0.050 -0.3557  0.8379 -0.3211
  244MPD1     C 3751   2.330   4.100  17.399  0.6744 -0.6249 -0.3059
  244MPD1    C1 3752   2.389   4.153  17.289  0.3162  0.6679 -0.3675
  244MPD1    C2 3753   2.416   4.289  17.296  0.1682  0.5187 -1.0170
  244MPD1    C3 3754   2.398   4.365  17.408  0.2939  0.5373 -0.4540
  244MPD1    C4 3755   2.367   4.297  17.526 -0.0950 -0.3606 -0.1287
  244MPD1    C5 3756   2.327   4.164  17.515 -0.1335  0.1772 -0.6634
  244MPD1     H 3757   2.452   4.342  17.208  1.8688 -0.6683 -1.0330
  244MPD1    H1 3758   2.351   4.346  17.621  1.2164 -0.8172  0.3402
  244MPD1    H2 3759   2.292   3.999  17.396 -0.5200 -0.2203  1.3015
  244MPD1    H3 3760   2.291   4.110  17.601 -0.2451 -0.1695 -0.9296
  244MPD1     N 3761   2.426   4.505  17.406 -0.4082  0.1716  0.2713
  244MPD1    H5 3762   2.450   4.532  17.311  0.1843 -0.2291  0.3001
  244MPD1    N1 3763   2.384   4.083  17.170 -0.0346 -0.0041  0.1307
  244MPD1    H6 3764   2.445   4.115  17.094 -0.9260  2.0308  0.2629
  244MPD1    H7 3765   2.395   3.984  17.189 -0.5399 -0.1752 -0.4638
  245MPD1     C 3766   0.286   1.861  12.529  0.7354  0.1021 -0.0979
  245MPD1    C1 3767   0.278   1.997  12.536 -0.0165  0.1069 -0.8902
  245MPD1    C2 3768   0.278   2.062  12.661 -0.0834 -0.1089 -0.2950
  245MPD1    C3 3769   0.294   1.992  12.777 -0.5334 -0.5269 -0.2949
  245MPD1    C4 3770   0.314   1.861  12.762 -0.1133  0.5340 -0.0957
  245MPD1    C5 3771   0.311   1.797  12.646 -0.7108 -0.1129 -0.3184
  245MPD1     H 3772   0.267   2.170  12.660  2.5081  0.1694 -0.4346
  245MPD1    H1 3773   0.324   1.799  12.851 -0.8902 -0.6505 -0.8338
  245MPD1    H2 3774   0.278   1.805  12.437 -0.9639 -0.6224  0.4812
  245MPD1    H3 3775   0.310   1.689  12.648  2.8516 -0.1730 -0.5396
  245MPD1     N 3776   0.281   2.059  12.899 -0.8049  0.2049 -0.4539
  245MPD1    H5 3777   0.272   2.160  12.896  0.7860  0.3324 -0.6624
  245MPD1    N1 3778   0.264   2.064  12.411 -0.5604 -0.4911 -0.1296
  245MPD1    H6 3779   0.297   2.159  12.418 -1.1365 -0.3177  0.2636
  245MPD1    H7 3780   0.310   2.023  12.330  1.0509  1.0347  0.0373
  246MPD1     C 3781   0.607   3.357  10.501  0.9240 -0.4509 -0.0345
  246MPD1    C1 3782   0.489   3.318  10.451  0.5630 -0.3634  0.1601
  246MPD1    C2 3783   0.412   3.416  10.381  0.0154 -0.6219 -0.0481
  246MPD1    C3 3784   0.444   3.548  10.391 -0.4142  0.4968 -0.1380
  246MPD1    C4 3785   0.568   3.583  10.445  0.1597  0.2505 -0.0111
  246MPD1    C5 3786   0.646   3.486  10.493 -0.1867 -0.5645  0.2991
  246MPD1     H 3787   0.317   3.385  10.339  0.5363 -3.2922  0.7732
  246MPD1    H1 3788   0.593   3.688  10.456 -1.6531  0.6716 -0.0099
  246MPD1    H2 3789   0.666   3.285  10.555  0.8799  1.1169  2.0957
  246MPD1    H3 3790   0.729   3.520  10.553 -2.1552  2.0219  1.5765
  246MPD1     N 3791   0.363   3.636  10.321  0.5072 -0.2580 -0.7950
  246MPD1    H5 3792   0.287   3.585  10.277  0.0305 -0.1861 -0.0621
  246MPD1    N1 3793   0.451   3.183  10.460 -0.2792  0.7086  0.1180
  246MPD1    H6 3794   0.350   3.177  10.460 -0.3273  1.4856  1.8557
  246MPD1    H7 3795   0.488   3.130  10.539  1.2372 -1.4285 -2.0084
  247MPD1     C 3796   3.650   0.376  16.512  0.0029 -0.0402 -0.4080
  247MPD1    C1 3797   3.707   0.254  16.490  0.4898  0.3605  0.1623
  247MPD1    C2 3798   3.733   0.223  16.360  0.2996 -0.7849  0.6184
  247MPD1    C3 3799   3.710   0.312  16.258 -0.9678 -0.5739 -0.1288
  247MPD1    C4 3800   3.657   0.429  16.288  0.1635  0.2142 -0.0775
  247MPD1    C5 3801   3.630   0.463  16.416  0.0067  0.3741 -0.2775
  247MPD1     H 3802   3.761   0.123  16.331 -0.8634 -1.6069  2.3714
  247MPD1    H1 3803   3.627   0.507  16.219  1.0066  1.2964  0.7659
  247MPD1    H2 3804   3.624   0.401  16.614 -0.5917 -1.2767 -0.2495
  247MPD1    H3 3805   3.577   0.555  16.442 -2.9411 -1.2672 -0.4883
  247MPD1     N 3806   3.731   0.285  16.124  0.1089 -0.2625  0.1815
  247MPD1    H5 3807   3.703   0.361  16.063  0.1202 -1.7426 -1.6668
  247MPD1    N1 3808   3.723   0.161  16.591  0.9250 -0.0909  0.0440
  247MPD1    H6 3809   3.801   0.100  16.567  0.3973 -1.3114  1.4062
  247MPD1    H7 3810   3.738   0.211  16.678  1.2583 -1.3104  0.6944
  248MPD1     C 3811   4.090   4.531   0.338 -0.2499  0.0677  0.0832
  248MPD1    C1 3812   4.000   4.530   0.438  0.1114 -0.1756 -0.2011
  248MPD1    C2 3813   4.043   4.584   0.554  0.1294 -0.0290  0.4161
  248MPD1    C3 3814   4.165   4.638   0.585 -0.2021 -0.4828  0.3940
  248MPD1    C4 3815   4.247   4.647   0.477 -0.5103  0.4819 -0.3666
  248MPD1    C5 3816   4.211   4.593   0.354  0.5853  0.0341 -0.2123
  248MPD1     H 3817   3.969   4.599   0.632  2.2766  0.0520  2.4100
  248MPD1    H1 3818   4.334   4.712   0.483  0.2588 -0.6780  1.1165
  248MPD1    H2 3819   4.061   4.495   0.240  1.7064  0.0372 -0.4803
  248MPD1    H3 3820   4.286   4.594   0.276  0.4858 -0.2777 -0.3141
  248MPD1     N 3821   4.172   4.694   0.712 -0.2983 -0.6945  0.5864
  248MPD1    H5 3822   4.095   4.679   0.776 -1.0203  1.2589  0.1737
  248MPD1    N1 3823   3.869   4.503   0.409 -1.0161 -0.2353  0.3644
  248MPD1    H6 3824   3.814   4.460   0.483 -1.5610  0.2348  0.2330
  248MPD1    H7 3825   3.884   4.442   0.328 -0.7585  0.3512 -0.0364
  249MPD1     C 3826   4.709   4.709  10.045 -0.1594  0.0242 -0.2574
  249MPD1    C1 3827   0.109   4.696  10.041  0.0234  0.4935 -0.8922
  249MPD1    C2 3828   0.181   4.681  10.162  0.3484 -0.2346  0.0568
  249MPD1    C3 3829   0.114   4.681  10.282  0.6385  0.2059 -0.2155
  249MPD1    C4 3830   4.716   4.697  10.288  0.1721 -0.5116 -0.1162
  249MPD1    C5 3831   4.651   4.716  10.171  0.0445  0.6042 -0.6498
  249MPD1     H 3832   0.288   4.663  10.166  0.2783 -0.4698  1.1254
  249MPD1    H1 3833   4.670   4.706  10.386  1.1723 -0.8249  0.3807
  249MPD1    H2 3834   4.648   4.706   9.956 -0.5597  1.3160 -0.0199
  249MPD1    H3 3835   4.543   4.725  10.179  0.3759  2.5095  1.5553
  249MPD1     N 3836   0.191   4.686  10.398 -0.1028 -0.1729 -0.1103
  249MPD1    H5 3837   0.290   4.701  10.387 -0.1292 -0.1577 -0.3336
  249MPD1    N1 3838   0.174   4.683   9.919 -0.2926 -0.0909  0.1939
  249MPD1    H6 3839   0.116   4.733   9.852  0.9125  0.8886 -0.1002
  249MPD1    H7 3840   0.272   4.709   9.910 -0.8356  1.1212 -2.2916
  250MPD2     C 3841   2.142   0.446  13.250 -0.1897 -0.0672  0.6875
  250MPD2    C1 3842   2.240   0.364  13.191  0.9036 -0.5725  0.1945
  250MPD2    C2 3843   2.205   0.311  13.071 -0.2577 -0.4594  0.0826
  250MPD2    C3 3844   2.080   0.333  13.006 -0.1101  0.6406  0.6652
  250MPD2    C4 3845   1.996   0.418  13.068  0.1641  0.5559 -0.5609
  250MPD2    C5 3846   2.023   0.466  13.191 -0.3549  0.2202  0.7366
  250MPD2     H 3847   2.281   0.251  13.021  0.3708  1.1615 -0.8936
  250MPD2    H1 3848   1.895   0.438  13.033  0.3265  0.7328 -0.9202
  250MPD2    H2 3849   2.138   0.491  13.349  0.1593 -0.6222  0.9565
  250MPD2    H3 3850   1.952   0.525  13.248 -0.3997  0.2973  0.5996
  250MPD2     N 3851   2.040   0.266  12.881 -0.2920 -0.5898  0.3003
  250MPD2    H5 3852   1.942   0.260  12.856 -0.5601 -1.4529  1.5240
  250MPD2    N1 3853   2.358   0.340  13.265 -0.4752 -0.4400  0.8302
  250MPD2    H7 3854   2.355   0.386  13.356  1.7870  0.2919  0.5361
  251TMC3    C1 3855   2.570   0.286  13.329 -0.0406 -0.5664  0.1341
  251TMC3    C2 3856   2.548   0.372  13.437  0.4151  0.4106 -0.1386
  251TMC3    C3 3857   2.650   0.444  13.497  0.0706 -0.2461  0.1469
  251TMC3    C4 3858   2.694   0.291  13.275 -0.0899 -0.0980  0.0108
  251TMC3    C5 3859   2.780   0.393  13.316 -0.2307 -0.4050  0.1310
  251TMC3    C6 3860   2.770   0.457  13.433 -0.7042  0.1194 -0.5347
  251TMC3     C 3861   2.466   0.259  13.233 -0.5819 -0.0790  0.3573
  251TMC3     O 3862   2.484   0.209  13.125 -0.3329  0.0267 -0.1174
  251TMC3     H 3863   2.471   0.346  13.509 -0.9007  3.2500 -0.5296
  251TMC3    H1 3864   2.709   0.236  13.183 -1.6145  0.7303 -0.7430
  251TMC3    H2 3865   2.847   0.526  13.465 -1.2417  0.4438  0.0607
  251TMC3    C7 3866   2.892   0.416  13.228  0.2245  0.4144 -0.5208
  251TMC3    C8 3867   2.613   0.522  13.610 -0.0167  0.1344 -0.1159
  251TMC3    O1 3868   2.950   0.317  13.183 -0.2089  0.2718  0.4435
  251TMC3    O2 3869   2.498   0.569  13.615  0.1860  0.3157 -0.2322
  252TMC3    C1 3870   3.664   2.084   9.342  0.2909  0.3422  0.6349
  252TMC3    C2 3871   3.745   2.009   9.427 -0.4303 -0.2812  0.6866
  252TMC3    C3 3872   3.711   1.879   9.442 -0.4926 -0.0551 -0.0388
  252TMC3    C4 3873   3.547   2.030   9.282  0.2424  0.3229  0.3526
  252TMC3    C5 3874   3.521   1.902   9.303  0.0311  0.1152  0.1890
  252TMC3    C6 3875   3.603   1.823   9.371  0.0202  0.1838  0.7351
  252TMC3     C 3876   3.670   2.234   9.346 -0.3893 -0.6106 -0.2500
  252TMC3     O 3877   3.751   2.287   9.420  0.3293 -0.0776  0.0362
  252TMC3     H 3878   3.832   2.058   9.467 -0.4993  0.9482 -0.6888
  252TMC3    H1 3879   3.481   2.084   9.215 -0.6475  1.2223  1.9446
  252TMC3    H2 3880   3.571   1.721   9.386  0.9161 -0.4492 -1.6657
  252TMC3    C7 3881   3.394   1.842   9.275  0.1499 -0.7892 -0.1494
  252TMC3    C8 3882   3.763   1.805   9.554 -0.3579  0.4820  0.2701
  252TMC3    O1 3883   3.336   1.868   9.169  0.7235 -0.2063  0.1749
  252TMC3    O2 3884   3.784   1.682   9.553  0.4965  1.0451 -0.0031
  253MPD2     C 3885   3.991   0.016  15.066 -0.1275  0.3362  0.0890
  253MPD2    C1 3886   3.854   4.728  15.059 -0.3257  0.0390 -0.2603
  253MPD2    C2 3887   3.789   4.640  15.147 -0.1387  0.5346 -0.6561
  253MPD2    C3 3888   3.854   4.605  15.267 -0.0213  0.3948 -0.8795
  253MPD2    C4 3889   3.992   4.627  15.273  0.3045 -0.5584  0.0585
  253MPD2    C5 3890   4.051   4.702  15.178  0.4823 -0.6577 -0.1577
  253MPD2     H 3891   3.682   4.623  15.137 -0.0421 -1.1048  1.1471
  253MPD2    H1 3892   4.048   4.586  15.357  0.9660 -0.8118 -0.5035
  253MPD2    H2 3893   4.050   0.067  14.991  0.6816  0.5565  0.8872
  253MPD2    H3 3894   4.156   4.722  15.195  0.5409 -2.0238  1.1009
  253MPD2     N 3895   3.794   4.534  15.376 -0.0421 -0.7764  0.8045
  253MPD2    H5 3896   3.855   4.491  15.445  2.4076 -1.6135 -1.8776
  253MPD2    N1 3897   3.784   0.050  14.955 -0.0578  0.8230 -0.3436
  253MPD2    H7 3898   3.689   0.017  14.935 -0.1282  1.2903 -0.7865
  254TMC3    C1 3899   3.598   4.462  15.505 -0.4449 -0.4004 -0.0614
  254TMC3    C2 3900   3.466   4.470  15.535  0.0014 -0.2000 -0.4906
  254TMC3    C3 3901   3.423   4.393  15.643  0.4239  0.4289 -0.1317
  254TMC3    C4 3902   3.687   4.381  15.573  0.1933  0.2765 -0.1396
  254TMC3    C5 3903   3.635   4.303  15.672 -0.2320 -0.5491  0.4956
  254TMC3    C6 3904   3.505   4.307  15.707 -0.3600  0.0567 -0.3128
  254TMC3     C 3905   3.656   4.544  15.392  0.2086 -0.7857 -0.2351
  254TMC3     O 3906   3.581   4.629  15.349 -0.7873 -0.1669 -0.1928
  254TMC3     H 3907   3.402   4.531  15.472  1.8463  0.0350 -2.1303
  254TMC3    H1 3908   3.779   4.345  15.529 -0.3421 -0.7047 -0.4468
  254TMC3    H2 3909   3.465   4.249  15.790 -2.6994  0.1558 -1.3794
  254TMC3    C7 3910   3.725   4.236  15.758  0.4811 -0.5310 -0.2169
  254TMC3    C8 3911   3.322   4.450  15.730 -0.4168  0.7404 -0.2416
  254TMC3    O1 3912   3.673   4.149  15.825 -0.1608 -0.0693  0.1767
  254TMC3    O2 3913   3.329   4.422  15.852  0.1544 -0.3842  0.3916
  255MPD2     C 3914   1.684   3.269  10.560  1.2692  0.1236  0.0193
  255MPD2    C1 3915   1.717   3.398  10.538 -0.1449  0.0649  1.1102
  255MPD2    C2 3916   1.832   3.425  10.462 -0.2852  0.3054  0.2479
  255MPD2    C3 3917   1.909   3.320  10.423 -0.0815 -0.7748  0.6237
  255MPD2    C4 3918   1.872   3.191  10.456 -0.2888  0.9509  0.8212
  255MPD2    C5 3919   1.766   3.165  10.531 -0.2664 -0.8741  0.3695
  255MPD2     H 3920   1.863   3.525  10.434  1.5383 -0.4464 -0.4586
  255MPD2    H1 3921   1.933   3.109  10.420  1.4072  1.6141  2.2316
  255MPD2    H2 3922   1.596   3.249  10.619  1.9258 -0.1551  0.9046
  255MPD2    H3 3923   1.734   3.063  10.549  0.7730 -1.6239 -1.9304
  255MPD2     N 3924   2.027   3.351  10.346  0.5482 -0.4522  0.5699
  255MPD2    H5 3925   2.056   3.448  10.335 -1.5416  0.1114  0.0003
  255MPD2    N1 3926   1.634   3.492  10.591 -0.3809 -0.4571  0.1383
  255MPD2    H7 3927   1.541   3.466  10.624 -0.4087 -0.4180  0.0909
  256TMC3    C1 3928   1.563   3.715  10.624 -0.2217 -0.1827  1.0999
  256TMC3    C2 3929   1.589   3.821  10.702  0.4765 -0.1119  0.3423
  256TMC3    C3 3930   1.478   3.886  10.743 -0.2643  0.6160  0.0161
  256TMC3    C4 3931   1.446   3.678  10.573  0.2607 -0.6512  0.7740
  256TMC3    C5 3932   1.340   3.767  10.597 -0.4801  0.1389  0.3442
  256TMC3    C6 3933   1.356   3.860  10.699  0.5021  0.4392 -0.2717
  256TMC3     C 3934   1.673   3.623  10.611 -0.0227 -0.2767 -0.0889
  256TMC3     O 3935   1.786   3.669  10.630  0.3976 -0.2583 -0.3809
  256TMC3     H 3936   1.690   3.841  10.737  0.9251 -0.8485 -0.5277
  256TMC3    H1 3937   1.436   3.606  10.493 -1.3787 -0.3392  0.6962
  256TMC3    H2 3938   1.265   3.915  10.717  0.0870  0.2719 -1.7963
  256TMC3    C7 3939   1.293   3.841  10.486 -0.3667  0.0133 -0.3377
  256TMC3    C8 3940   1.491   4.024  10.759 -0.0452 -0.3814  0.4848
  256TMC3    O1 3941   1.262   3.769  10.391  0.2195  0.4797 -0.0846
  256TMC3    O2 3942   1.400   4.094  10.792 -0.3445  0.4555  0.3974
  257MPD2     C 3943   0.842   0.041  13.067  0.7298 -0.4615  0.1592
  257MPD2    C1 3944   0.969   0.084  13.072 -0.4120  0.4881 -0.2173
  257MPD2    C2 3945   1.062   0.010  13.146  0.3481  0.7456 -0.0385
  257MPD2    C3 3946   1.029   4.628  13.199  0.4318  0.2009  0.2477
  257MPD2    C4 3947   0.901   4.580  13.189 -0.2354  0.1630 -0.3825
  257MPD2    C5 3948   0.809   4.653  13.115 -0.4445 -0.6296 -0.2776
  257MPD2     H 3949   1.165   0.043  13.147  0.3496  0.7982 -1.2880
  257MPD2    H1 3950   0.871   4.481  13.219  0.6023  1.1190  3.5791
  257MPD2    H2 3951   0.764   0.093  13.011  1.0694 -0.3940 -0.2524
  257MPD2    H3 3952   0.708   4.613  13.106 -0.4260 -0.9810  1.0455
  257MPD2     N 3953   1.144   4.557  13.252 -0.0438 -0.3521  0.1849
  257MPD2    H5 3954   1.237   4.595  13.243  0.1149 -0.6454  0.5773
  257MPD2    N1 3955   1.000   0.201  13.005 -0.1987 -0.0679  0.3293
  257MPD2    H7 3956   0.923   0.232  12.947 -0.4364 -0.3110  0.5190
  258TMC3    C1 3957   1.267   4.397  13.372  0.0968  0.5453  0.9188
  258TMC3    C2 3958   1.376   4.427  13.293  0.1721 -0.1927 -0.0622
  258TMC3    C3 3959   1.494   4.382  13.335  0.1433 -1.5606  1.0317
  258TMC3    C4 3960   1.276   4.329  13.490  1.2430 -0.0040 -0.1457
  258TMC3    C5 3961   1.401   4.291  13.536  0.6508  0.0981  0.6666
  258TMC3    C6 3962   1.511   4.323  13.461  0.2394 -0.6343 -0.0138
  258TMC3     C 3963   1.134   4.447  13.337  0.5948  0.1029  0.1704
  258TMC3     O 3964   1.042   4.394  13.395  0.0974  0.0617  0.2198
  258TMC3     H 3965   1.360   4.463  13.192  0.4823  2.2008  0.7331
  258TMC3    H1 3966   1.194   4.323  13.561  0.5404 -0.1741 -0.9757
  258TMC3    H2 3967   1.608   4.303  13.506  0.6207  1.7983  0.2456
  258TMC3    C7 3968   1.414   4.228  13.667  0.1965  0.4071  0.3644
  258TMC3    C8 3969   1.616   4.428  13.270  0.2519 -0.2702 -0.5620
  258TMC3    O1 3970   1.309   4.192  13.721 -0.5804 -0.0544 -0.1073
  258TMC3    O2 3971   1.720   4.417  13.332  0.2972 -0.7998  0.1198
  259MPD2     C 3972   0.359   4.611   0.835 -0.6037  0.2086 -0.5983
  259MPD2    C1 3973   0.444   4.718   0.789 -0.5151 -0.0246 -0.0178
  259MPD2    C2 3974   0.482   4.722   0.657 -0.0569 -0.1572  0.0228
  259MPD2    C3 3975   0.436   4.620   0.575  0.0187  0.0262 -0.1786
  259MPD2    C4 3976   0.360   4.514   0.624 -0.1546 -0.3767 -0.5484
  259MPD2    C5 3977   0.323   4.508   0.754 -0.3805  0.6177 -0.2715
  259MPD2     H 3978   0.528   0.072   0.613 -1.2353  0.4146 -0.0550
  259MPD2    H1 3979   0.314   4.437   0.562  1.5932 -1.0521 -1.0139
  259MPD2    H2 3980   0.332   4.597   0.939  0.1552 -1.2086 -0.5838
  259MPD2    H3 3981   0.262   4.424   0.785 -1.1784  1.1360 -0.4419
  259MPD2     N 3982   0.472   4.634   0.438  0.2469 -0.6511 -0.1685
  259MPD2    H5 3983   0.530   4.716   0.422 -0.9046 -0.0879 -1.5093
  259MPD2    N1 3984   0.480   0.077   0.883 -0.1528  0.4473  0.7416
  259MPD2    H7 3985   0.440   0.074   0.976 -1.9697  1.3794 -0.0105
  260TMC3    C1 3986   0.496   4.610   0.207  0.1401  0.7796 -0.3371
  260TMC3    C2 3987   0.541   4.516   0.117 -0.2552  0.4768  0.5692
  260TMC3    C3 3988   0.532   4.562  17.739  0.3796  0.3214  0.2703
  260TMC3    C4 3989   0.440   4.729   0.173  0.7755  0.8703 -0.3515
  260TMC3    C5 3990   0.439   0.030   0.041 -0.1594  0.6476 -0.1247
  260TMC3    C6 3991   0.489   4.685  17.703 -0.4991  0.0303  0.1018
  260TMC3     C 3992   0.441   4.555   0.329 -0.6162 -0.1033 -0.0082
  260TMC3     O 3993   0.368   4.455   0.322 -0.2509 -0.0941  0.4926
  260TMC3     H 3994   0.588   4.426   0.154  2.5267  1.4827 -0.5263
  260TMC3    H1 3995   0.400   0.060   0.246  1.2019 -1.3703  2.0005
  260TMC3    H2 3996   0.483   4.717  17.600  0.5048 -1.7610 -0.5045
  260TMC3    C7 3997   0.374   0.151  17.745  0.1381 -0.7806 -0.9275
  260TMC3    C8 3998   0.579   4.472  17.639  0.3475 -0.0374 -0.0160
  260TMC3    O1 3999   0.356   0.139  17.623  0.0369  0.1077 -0.1332
  260TMC3    O2 4000   0.587   4.352  17.667 -0.5445  0.2078  0.0489
  261MPD2     C 4001   1.740   0.473  12.243  0.1029 -0.7786  0.5854
  261MPD2    C1 4002   1.856   0.474  12.301 -0.5223  0.7634 -0.1889
  261MPD2    C2 4003   1.922   0.592  12.290  0.0225 -0.1729  0.2984
  261MPD2    C3 4004   1.873   0.701  12.227  0.0293 -0.7136  0.5990
  261MPD2    C4 4005   1.749   0.697  12.159  0.1198  0.4098 -0.0119
  261MPD2    C5 4006   1.681   0.582  12.179  1.0600  0.5976  0.2430
  261MPD2     H 4007   2.023   0.591  12.330  0.4565  0.8988 -0.7721
  261MPD2    H1 4008   1.712   0.776  12.095  0.1467  1.1405  0.8620
  261MPD2    H2 4009   1.682   0.383  12.230  0.5771 -1.0838  0.5661
  261MPD2    H3 4010   1.593   0.559  12.121  1.1518 -1.0182  0.7303
  261MPD2     N 4011   1.943   0.821  12.220 -0.1629 -0.2051 -0.6897
  261MPD2    H5 4012   2.041   0.817  12.245 -0.6360 -0.3202  1.1533
  261MPD2    N1 4013   1.904   0.373  12.383  0.2551 -0.5830 -0.5126
  261MPD2    H7 4014   1.993   0.390  12.430  0.6936 -0.0561 -1.5150
  262TMC3    C1 4015   1.993   1.014  12.108  0.1611 -0.6306 -0.1669
  262TMC3    C2 4016   1.941   1.123  12.040  0.2935  0.2016 -0.1415
  262TMC3    C3 4017   2.022   1.181  11.947  0.3088 -0.2247  0.2294
  262TMC3    C4 4018   2.117   0.964  12.085 -0.4301  0.3254  0.1002
  262TMC3    C5 4019   2.200   1.044  12.006  0.7110 -0.4814  0.3016
  262TMC3    C6 4020   2.150   1.153  11.931  0.2782  0.1696  0.1027
  262TMC3     C 4021   1.895   0.936  12.176  0.5462 -0.2247  0.1777
  262TMC3     O 4022   1.784   0.980  12.194  0.0429  0.5201  0.0943
  262TMC3     H 4023   1.842   1.163  12.058  0.4134  0.6358 -0.4409
  262TMC3    H1 4024   2.160   0.874  12.129  0.0389 -0.7402 -2.5560
  262TMC3    H2 4025   2.209   1.215  11.864  0.1769 -0.1117 -0.2426
  262TMC3    C7 4026   2.329   0.979  11.974 -0.7871  0.1924  0.3241
  262TMC3    C8 4027   1.960   1.260  11.836 -0.1297  0.2405  0.0106
  262TMC3    O1 4028   2.346   0.860  11.998 -0.1604  0.2403 -0.8035
  262TMC3    O2 4029   2.027   1.349  11.782  0.3821  0.8314 -0.4943
  263MPD2     C 4030   2.493   4.258  11.413  0.0836  0.1692 -0.6609
  263MPD2    C1 4031   2.610   4.325  11.442  0.2284  0.0083  0.0204
  263MPD2    C2 4032   2.670   4.405  11.347 -0.3487 -0.0891 -1.0624
  263MPD2    C3 4033   2.600   4.429  11.228 -0.0770 -0.5307 -0.5339
  263MPD2    C4 4034   2.475   4.372  11.205  0.2371 -0.2837  0.3178
  263MPD2    C5 4035   2.424   4.284  11.296 -0.1970  0.0693  0.1045
  263MPD2     H 4036   2.770   4.444  11.363 -0.5380 -0.8071  1.9589
  263MPD2    H1 4037   2.416   4.392  11.116  2.9783  2.4320 -0.9319
  263MPD2    H2 4038   2.455   4.188  11.488  0.0313  1.5359  0.5782
  263MPD2    H3 4039   2.333   4.227  11.281  1.1794 -2.4192  1.1259
  263MPD2     N 4040   2.668   4.502  11.130 -0.3938  0.0962  0.0124
  263MPD2    H5 4041   2.761   4.528  11.160 -0.7045 -0.7221  1.6877
  263MPD2    N1 4042   2.676   4.309  11.566  0.4091  0.4376 -0.2596
  263MPD2    H7 4043   2.637   4.233  11.620  0.2028 -1.3244 -2.8759
  264TMC3    C1 4044   2.717   4.627  10.945  0.1064 -0.4568 -0.0440
  264TMC3    C2 4045   2.742   4.738  11.021 -0.0676  0.1063 -0.6297
  264TMC3    C3 4046   2.770   0.111  10.951 -0.0646  0.2052  0.4850
  264TMC3    C4 4047   2.698   4.631  10.812  0.0098  0.4112  0.6827
  264TMC3    C5 4048   2.726   0.006  10.748 -0.4688 -0.2438  0.0497
  264TMC3    C6 4049   2.765   0.114  10.814 -0.1615 -0.2714 -0.1390
  264TMC3     C 4050   2.624   4.539  11.007  0.4601 -0.3986  0.1212
  264TMC3     O 4051   2.526   4.502  10.944 -0.2571 -0.0588  0.2931
  264TMC3     H 4052   2.741   0.006  11.129 -1.2023 -1.7996 -0.5291
  264TMC3    H1 4053   2.662   4.544  10.759 -0.3433 -0.0836  1.7347
  264TMC3    H2 4054   2.803   0.202  10.764 -0.0139 -2.2126 -3.5037
  264TMC3    C7 4055   2.768   4.738  10.609  0.4467  0.4410  0.0128
  264TMC3    C8 4056   2.834   0.223  11.018 -0.1260 -0.0846  0.5935
  264TMC3    O1 4057   2.835   0.093  10.565  0.4084 -0.1638 -0.2436
  264TMC3    O2 4058   2.908   0.296  10.957  0.7506 -1.2111  0.1422
  265MPD2     C 4059   0.265   4.039  15.454 -0.7163 -0.2321 -0.1206
  265MPD2    C1 4060   0.211   4.137  15.379 -0.1763  0.6428 -0.0414
  265MPD2    C2 4061   0.229   4.134  15.240  0.2550 -0.9967 -0.5114
  265MPD2    C3 4062   0.271   4.020  15.177  0.4353 -0.5707  0.5069
  265MPD2    C4 4063   0.331   3.926  15.254 -0.5290 -0.1563 -0.2947
  265MPD2    C5 4064   0.328   3.936  15.394 -0.9576 -0.3134 -0.6852
  265MPD2     H 4065   0.167   4.206  15.187  1.8296  1.4251  0.9335
  265MPD2    H1 4066   0.363   3.838  15.201  3.2887  1.2794 -0.3242
  265MPD2    H2 4067   0.259   4.036  15.562  0.0279 -1.5543 -0.1261
  265MPD2    H3 4068   0.368   3.857  15.456 -2.0846  0.9059  1.5739
  265MPD2     N 4069   0.254   3.997  15.037  0.1459 -0.2606  0.3487
  265MPD2    H5 4070   0.282   3.907  15.000 -1.9768 -0.9282  0.3578
  265MPD2    N1 4071   0.151   4.257  15.438 -0.8638 -0.0991 -0.5594
  265MPD2    H7 4072   0.102   4.322  15.377  1.2258  0.5781 -1.5454
  266TMC3    C1 4073   0.103   4.410  15.625 -0.0731 -0.6610  0.2422
  266TMC3    C2 4074   0.072   4.421  15.754  0.2438  0.0064  0.4499
  266TMC3    C3 4075   0.019   4.532  15.806 -1.2435  0.2223 -0.1121
  266TMC3    C4 4076   0.074   4.517  15.539 -0.3448  0.1268  0.8601
  266TMC3    C5 4077   4.738   4.622  15.588 -0.0913 -0.4889 -0.0741
  266TMC3    C6 4078   4.713   4.630  15.724  0.2673  0.1450 -0.9432
  266TMC3     C 4079   0.140   4.278  15.580  0.4124 -0.5859  0.9009
  266TMC3     O 4080   0.155   4.194  15.665 -0.0784 -0.2557  0.3786
  266TMC3     H 4081   0.104   4.346  15.824  1.2762 -0.2615 -0.3117
  266TMC3    H1 4082   0.099   4.512  15.433 -3.0520 -1.2710  0.2828
  266TMC3    H2 4083   4.662   4.716  15.765  0.0867  0.2221 -1.3249
  266TMC3    C7 4084   4.706   4.736  15.504  0.0161 -0.4532  1.2010
  266TMC3    C8 4085   4.722   4.548  15.941  0.8276 -0.0641  0.3403
  266TMC3    O1 4086   4.668   0.095  15.560 -0.2945 -0.1258  0.5992
  266TMC3    O2 4087   4.708   4.446  16.002  0.3880  0.0262  0.4763
  267MPD2     C 4088   2.095   1.336   0.307  0.3619  0.9106  0.2635
  267MPD2    C1 4089   2.209   1.358   0.232  0.1787  0.0557 -0.1267
  267MPD2    C2 4090   2.212   1.308   0.101  0.7406 -0.3101  0.0509
  267MPD2    C3 4091   2.116   1.226   0.055 -0.1748  0.0521  0.1920
  267MPD2    C4 4092   2.001   1.203   0.129 -0.3001  0.0499  0.0140
  267MPD2    C5 4093   1.994   1.260   0.254 -0.1892 -0.2837 -0.3204
  267MPD2     H 4094   2.299   1.337   0.043  0.8520  2.2611  1.4577
  267MPD2    H1 4095   1.932   1.132   0.086  1.1021 -1.9255  1.0498
  267MPD2    H2 4096   2.084   1.377   0.406 -3.5585 -0.0961  0.2518
  267MPD2    H3 4097   1.913   1.240   0.324  2.1997 -1.3287  2.1058
  267MPD2     N 4098   2.128   1.164  17.675 -0.4861 -0.7848  0.0006
  267MPD2    H5 4099   2.069   1.085  17.651 -2.1028  0.9160 -1.5984
  267MPD2    N1 4100   2.315   1.420   0.298 -0.1800  0.0867 -0.5418
  267MPD2    H7 4101   2.306   1.434   0.398  1.2291  3.4995 -0.8906
  268TMC3    C1 4102   2.539   1.490   0.318  1.2959 -0.3049  1.2695
  268TMC3    C2 4103   2.628   1.588   0.289  0.6392  0.8750 -0.3593
  268TMC3    C3 4104   2.746   1.598   0.361 -0.0522 -0.3025 -0.2570
  268TMC3    C4 4105   2.572   1.396   0.411 -0.2356 -0.9939  1.2694
  268TMC3    C5 4106   2.689   1.404   0.481 -0.6515 -0.7328  0.5792
  268TMC3    C6 4107   2.784   1.501   0.454 -0.3645 -0.4372  0.1702
  268TMC3     C 4108   2.428   1.461   0.229  0.1344  0.0243  0.9921
  268TMC3     O 4109   2.445   1.480   0.109  0.3027  0.2715  0.1934
  268TMC3     H 4110   2.608   1.665   0.215  0.4215  1.6009  0.4445
  268TMC3    H1 4111   2.509   1.309   0.428 -1.2704 -0.1174  1.9705
  268TMC3    H2 4112   2.869   1.516   0.520 -0.4906  1.9869 -0.2134
  268TMC3    C7 4113   2.704   1.330   0.605 -0.1457 -0.0595  0.0993
  268TMC3    C8 4114   2.854   1.659   0.293  0.2007  1.1539  0.0927
  268TMC3    O1 4115   2.819   1.301   0.641 -0.2365  0.6368 -0.5321
  268TMC3    O2 4116   2.944   1.713   0.359 -0.1815  0.3443  0.4413
  269MPD2     C 4117   2.935   0.064  15.400  0.6407 -0.3188 -0.4228
  269MPD2    C1 4118   2.811   0.113  15.434 -0.4514  0.2183  0.7012
  269MPD2    C2 4119   2.775   0.240  15.390 -0.0493 -0.0139 -0.0460
  269MPD2    C3 4120   2.869   0.319  15.319  0.4053 -0.0991  0.0630
  269MPD2    C4 4121   2.996   0.271  15.290  0.2063  1.0115 -0.3363
  269MPD2    C5 4122   3.026   0.144  15.333  0.0275 -0.1605  0.0028
  269MPD2     H 4123   2.673   0.270  15.412  0.1616  0.7328 -0.0841
  269MPD2    H1 4124   3.077   0.332  15.251 -0.0319  1.3765 -0.2657
  269MPD2    H2 4125   2.969   4.703  15.428 -2.0135 -0.4432  2.3021
  269MPD2    H3 4126   3.118   0.092  15.310 -0.2912 -0.3962 -0.7584
  269MPD2     N 4127   2.827   0.452  15.290 -0.1555 -0.0031  0.2078
  269MPD2    H5 4128   2.735   0.475  15.325 -0.4812 -0.0746 -0.6074
  269MPD2    N1 4129   2.720   0.018  15.493  0.1680  0.1665 -0.4082
  269MPD2    H7 4130   2.755   4.662  15.503  0.4812  0.2231 -1.0027
  270TMC3    C1 4131   2.519   4.683  15.606 -0.3544 -0.3238 -0.3919
  270TMC3    C2 4132   2.384   4.670  15.577  1.2531  0.1142  0.3081
  270TMC3    C3 4133   2.327   4.557  15.617 -0.1910 -0.3787 -0.3465
  270TMC3    C4 4134   2.587   4.585  15.676 -0.5123  0.3029 -0.2884
  270TMC3    C5 4135   2.518   4.479  15.720  0.1844  0.2532  0.1561
  270TMC3    C6 4136   2.388   4.462  15.687 -0.0657  0.7444  0.8095
  270TMC3     C 4137   2.583   0.041  15.516 -0.1772  0.4843  0.1234
  270TMC3     O 4138   2.511   0.139  15.493  0.4394  0.3958 -0.4429
  270TMC3     H 4139   2.330   4.735  15.509  2.2742  1.4388  0.7553
  270TMC3    H1 4140   2.692   4.590  15.700 -0.6675  1.1264  0.1956
  270TMC3    H2 4141   2.327   4.375  15.713  3.2023 -2.0542 -0.9752
  270TMC3    C7 4142   2.595   4.384  15.790 -0.3470  0.3407  0.5742
  270TMC3    C8 4143   2.214   4.524  15.537 -0.5068 -0.4739 -0.1477
  270TMC3    O1 4144   2.715   4.409  15.811 -0.1118  0.2144 -0.5690
  270TMC3    O2 4145   2.113   4.593  15.541 -0.6491 -0.5838  0.2181
  271MPD2     C 4146   1.832   4.675  13.887 -0.3482  0.3559  0.3427
  271MPD2    C1 4147   1.751   4.638  13.986 -0.2432 -0.1627 -0.9211
  271MPD2    C2 4148   1.621   4.698  14.000 -0.3001  0.3809  0.9289
  271MPD2    C3 4149   1.589   0.079  13.931 -0.4233 -0.1329  0.3703
  271MPD2    C4 4150   1.684   0.124  13.845 -0.1579 -0.1960  0.3674
  271MPD2    C5 4151   1.795   0.044  13.813 -0.4093 -0.0990 -0.3680
  271MPD2     H 4152   1.547   4.643  14.056 -0.6572  0.5930  0.6642
  271MPD2    H1 4153   1.667   0.216  13.792 -2.7031 -1.4762 -1.0426
  271MPD2    H2 4154   1.920   4.624  13.849 -0.0482  1.2445 -0.1758
  271MPD2    H3 4155   1.866   0.071  13.736 -2.1773  1.2010 -1.5417
  271MPD2     N 4156   1.463   0.141  13.930 -0.2685  0.1943 -0.5706
  271MPD2    H5 4157   1.446   0.222  13.872  0.9869  0.5452 -0.4383
  271MPD2    N1 4158   1.793   4.539  14.070 -0.0436  0.3609  0.3520
  271MPD2    H7 4159   1.724   4.516  14.141 -1.0469  1.0719 -0.4024
  272TMC3    C1 4160   1.944   4.415  14.194  0.1586 -0.0573  0.6952
  272TMC3    C2 4161   2.068   4.353  14.189 -0.2020  0.8600  0.5269
  272TMC3    C3 4162   2.106   4.288  14.306 -0.0537 -0.7675 -0.0460
  272TMC3    C4 4163   1.877   4.444  14.311 -0.1215 -0.5097  0.3665
  272TMC3    C5 4164   1.922   4.379  14.420  0.0485  0.2241  0.5143
  272TMC3    C6 4165   2.031   4.298  14.422  0.0725 -0.1695 -0.6530
  272TMC3     C 4166   1.923   4.502  14.081 -0.4319 -0.1092  0.9038
  272TMC3     O 4167   2.028   4.535  14.021 -0.1446  0.3952 -0.2978
  272TMC3     H 4168   2.117   4.340  14.094 -0.9288 -3.7233  0.7812
  272TMC3    H1 4169   1.791   4.509  14.315 -0.6076 -1.1810  0.9169
  272TMC3    H2 4170   2.061   4.263  14.519 -2.3697  1.3607  0.6617
  272TMC3    C7 4171   1.867   4.429  14.544  0.1150 -0.2715  0.6434
  272TMC3    C8 4172   2.218   4.206  14.309 -0.2736  0.2159 -0.4210
  272TMC3    O1 4173   1.748   4.454  14.551  0.6027  0.2220 -0.0037
  272TMC3    O2 4174   2.289   4.203  14.206 -0.1074 -0.2375  0.1505
  273MPD2     C 4175   3.641   3.110  11.601 -0.5132  0.2316 -0.0326
  273MPD2    C1 4176   3.678   3.219  11.668 -0.0962 -0.0814  0.5339
  273MPD2    C2 4177   3.673   3.347  11.606  0.2573 -0.5327 -0.7376
  273MPD2    C3 4178   3.619   3.369  11.481 -0.1015 -0.5284  0.0771
  273MPD2    C4 4179   3.591   3.252  11.408 -0.6325  0.0141  0.1859
  273MPD2    C5 4180   3.593   3.130  11.476  0.5694  0.4548 -0.1365
  273MPD2     H 4181   3.713   3.431  11.661  0.6150 -1.9282  1.1644
  273MPD2    H1 4182   3.547   3.262  11.310  0.1526 -0.6423 -0.2320
  273MPD2    H2 4183   3.639   3.012  11.646  0.9217 -1.0259 -2.7174
  273MPD2    H3 4184   3.549   3.052  11.415 -1.6519  0.3598  1.5950
  273MPD2     N 4185   3.597   3.495  11.417  0.3912 -0.5887  0.0855
  273MPD2    H5 4186   3.541   3.497  11.332  2.5016 -2.8426 -1.3785
  273MPD2    N1 4187   3.734   3.206  11.797  0.5320 -0.0553  0.5513
  273MPD2    H7 4188   3.767   3.112  11.816 -2.6358 -1.1966  0.4053
  274TMC3    C1 4189   3.622   3.728  11.364 -0.5180 -0.4688 -0.0143
  274TMC3    C2 4190   3.531   3.716  11.261 -0.6898 -0.4405  0.0044
  274TMC3    C3 4191   3.492   3.836  11.198 -0.1007  0.0748  0.7160
  274TMC3    C4 4192   3.660   3.853  11.418  0.2375 -0.5746  1.9294
  274TMC3    C5 4193   3.608   3.967  11.356 -0.6235 -0.2615  0.3134
  274TMC3    C6 4194   3.534   3.959  11.243  0.2674  0.1054  0.1696
  274TMC3     C 4195   3.636   3.615  11.458 -0.5586  0.1472 -0.3906
  274TMC3     O 4196   3.696   3.639  11.559 -0.1755  0.3486  0.1608
  274TMC3     H 4197   3.499   3.618  11.225  0.1643 -0.4375 -0.7649
  274TMC3    H1 4198   3.713   3.862  11.512  1.8588  1.4857  0.8027
  274TMC3    H2 4199   3.468   4.043  11.220  0.3633  0.1439  0.0372
  274TMC3    C7 4200   3.541   4.055  11.458  0.3333 -0.1703 -0.2328
  274TMC3    C8 4201   3.391   3.839  11.098 -0.2470  0.5969 -0.6948
  274TMC3    O1 4202   3.423   4.081  11.436  0.4688  0.1192 -0.0263
  274TMC3    O2 4203   3.303   3.752  11.098  0.1750  0.1020 -0.5691
  275MPD2     C 4204   3.537   0.651  14.500  0.1533  0.2163  0.2901
  275MPD2    C1 4205   3.431   0.725  14.446  0.3500 -0.1633  0.0365
  275MPD2    C2 4206   3.317   0.667  14.401  0.5504  0.3457 -0.1981
  275MPD2    C3 4207   3.301   0.526  14.414 -0.4677 -0.0467 -0.1234
  275MPD2    C4 4208   3.406   0.453  14.462 -0.1614 -0.0961 -0.2481
  275MPD2    C5 4209   3.528   0.513  14.493 -0.2994 -0.0974 -0.4690
  275MPD2     H 4210   3.237   0.734  14.372 -0.1409 -0.1522  0.5585
  275MPD2    H1 4211   3.410   0.346  14.449 -0.5400  0.3109 -3.6340
  275MPD2    H2 4212   3.628   0.694  14.541  0.2788  1.5247 -1.3282
  275MPD2    H3 4213   3.596   0.445  14.543  1.3182  1.2345 -0.8319
  275MPD2     N 4214   3.181   0.452  14.395 -0.4381 -0.3963 -0.2293
  275MPD2    H5 4215   3.173   0.354  14.422  3.1761 -0.8707 -0.9576
  275MPD2    N1 4216   3.437   0.864  14.451  0.1888 -0.6078  0.8150
  275MPD2    H7 4217   3.362   0.905  14.397 -0.0191  0.1769  1.7092
  276TMC3    C1 4218   3.501   1.080  14.495 -0.3350  1.1494  0.5270
  276TMC3    C2 4219   3.378   1.101  14.548  0.3304 -0.1023 -0.2855
  276TMC3    C3 4220   3.364   1.183  14.651  0.5308 -0.1256  0.2140
  276TMC3    C4 4221   3.613   1.152  14.538  0.2821 -0.2646 -0.3527
  276TMC3    C5 4222   3.597   1.232  14.645  0.0256 -0.3007 -0.2844
  276TMC3    C6 4223   3.469   1.253  14.700  0.0631  0.3683  0.2733
  276TMC3     C 4224   3.534   0.941  14.503  0.0046 -0.9346  0.3894
  276TMC3     O 4225   3.613   0.903  14.588  0.7177 -0.1086 -0.2734
  276TMC3     H 4226   3.295   1.043  14.509 -0.8444  0.5226  1.3045
  276TMC3    H1 4227   3.711   1.109  14.520  0.2875 -0.0037 -0.9395
  276TMC3    H2 4228   3.464   1.286  14.803 -0.7758  1.4712 -0.1218
  276TMC3    C7 4229   3.711   1.227  14.736  0.1530 -0.3431  0.6687
  276TMC3    C8 4230   3.295   1.117  14.761  0.2964  0.6337 -0.2549
  276TMC3    O1 4231   3.677   1.233  14.854 -0.4380  0.3158  0.3889
  276TMC3    O2 4232   3.223   1.179  14.842 -0.5932 -0.5635  0.9503
  277MPD2     C 4233   0.383   0.393  12.930  0.2312  0.2956  0.3572
  277MPD2    C1 4234   0.264   0.403  13.003  1.0429 -0.0365 -0.1774
  277MPD2    C2 4235   0.228   0.302  13.090  0.4193 -0.6096 -0.2103
  277MPD2    C3 4236   0.315   0.200  13.121  0.6300 -0.0953 -0.3225
  277MPD2    C4 4237   0.430   0.188  13.045  0.1887 -0.3322 -0.1143
  277MPD2    C5 4238   0.459   0.285  12.955  0.1681  0.8181  0.5794
  277MPD2     H 4239   0.138   0.299  13.152  0.3455 -0.9311 -0.3301
  277MPD2    H1 4240   0.515   0.127  13.073  0.2473  0.1824  0.8552
  277MPD2    H2 4241   0.422   0.467  12.862  0.5402  1.4487  1.7874
  277MPD2    H3 4242   0.558   0.284  12.910 -0.1950  0.1744 -0.2219
  277MPD2     N 4243   0.282   0.118  13.229  0.0691  0.4022 -0.1571
  277MPD2    H5 4244   0.207   0.149  13.289 -1.6502  0.0057 -2.0865
  277MPD2    N1 4245   0.184   0.517  12.977  0.1427  0.6376  0.4008
  277MPD2    H7 4246   0.217   0.593  12.918  1.9773 -0.8830 -0.5552
  278TMC3    C1 4247   0.292   4.686  13.386 -0.1249  0.2415  0.4246
  278TMC3    C2 4248   0.280   4.549  13.390  0.5297 -0.2104 -0.2447
  278TMC3    C3 4249   0.188   4.499  13.482  0.1014 -0.1049  0.5091
  278TMC3    C4 4250   0.222   0.030  13.467 -0.2416  0.8402 -0.2901
  278TMC3    C5 4251   0.131   4.709  13.554 -0.5470 -0.2480 -0.4568
  278TMC3    C6 4252   0.108   4.575  13.561  0.1964 -0.2491  0.1499
  278TMC3     C 4253   0.345   0.007  13.269  0.2099 -0.1721 -0.2271
  278TMC3     O 4254   0.431   4.677  13.216  0.1233  0.0046 -0.3015
  278TMC3     H 4255   0.326   4.476  13.324  0.2733 -1.0516  0.4986
  278TMC3    H1 4256   0.243   0.136  13.464  1.5189  0.4860 -0.3734
  278TMC3    H2 4257   0.055   4.518  13.637 -1.5687  0.8638 -0.2535
  278TMC3    C7 4258   0.088   0.043  13.671 -0.6768  0.2261 -1.5203
  278TMC3    C8 4259   0.172   4.357  13.490  0.5701  0.5984 -0.3578
  278TMC3    O1 4260   0.146   0.148  13.693 -0.1439  0.5673  0.4833
  278TMC3    O2 4261   0.263   4.294  13.541 -0.0135 -0.0952  0.0810
  279MPD2     C 4262   3.744   3.617  17.646  0.1663 -0.2448  0.1869
  279MPD2    C1 4263   3.793   3.704  17.735 -0.1526  0.6787  0.7647
  279MPD2    C2 4264   3.870   3.808  17.694 -0.1117  0.1691  0.2144
  279MPD2    C3 4265   3.886   3.833  17.559  0.7470  0.1864  0.8248
  279MPD2    C4 4266   3.831   3.744  17.468 -0.0224  0.1776  0.7008
  279MPD2    C5 4267   3.748   3.649  17.511  0.1576 -0.3788  0.3481
  279MPD2     H 4268   3.933   3.864   0.011 -1.6506  0.4686  1.3960
  279MPD2    H1 4269   3.845   3.764  17.362 -0.6495 -2.1164  0.1928
  279MPD2    H2 4270   3.680   3.533  17.672 -0.5815 -0.2070 -1.5218
  279MPD2    H3 4271   3.699   3.597  17.429  0.1563  0.9495 -0.4871
  279MPD2     N 4272   3.966   3.933  17.506 -0.3150 -0.1659  0.8992
  279MPD2    H5 4273   3.975   3.939  17.405 -3.0413  1.4896  0.7667
  279MPD2    N1 4274   3.767   3.682   0.124 -0.2934 -0.4959  0.6225
  279MPD2    H7 4275   3.686   3.626   0.150  0.1437 -1.2081  0.4600
  280TMC3    C1 4276   3.768   3.705   0.356 -0.8090 -0.1455  0.7919
  280TMC3    C2 4277   3.649   3.629   0.360  0.4098 -0.2966 -0.5075
  280TMC3    C3 4278   3.551   3.663   0.447  0.1977 -0.1204  0.4728
  280TMC3    C4 4279   3.788   3.809   0.442 -0.1147  0.0670 -0.2667
  280TMC3    C5 4280   3.687   3.835   0.530  0.1658 -0.2548 -0.4517
  280TMC3    C6 4281   3.569   3.768   0.532 -0.4457  0.2217 -0.6922
  280TMC3     C 4282   3.832   3.737   0.232 -0.1393 -0.1273  0.2933
  280TMC3     O 4283   3.933   3.807   0.238  0.1030 -0.7742  0.1520
  280TMC3     H 4284   3.639   3.538   0.303  0.9010 -1.5778  1.4618
  280TMC3    H1 4285   3.882   3.862   0.449  0.6020 -1.3751  0.9903
  280TMC3    H2 4286   3.498   3.798   0.608  0.8896 -1.6210  1.2663
  280TMC3    C7 4287   3.677   3.970   0.564  0.1331 -0.1432  0.1710
  280TMC3    C8 4288   3.425   3.593   0.447  0.4661 -0.1017  0.0328
  280TMC3    O1 4289   3.657   4.009   0.676 -0.0773  0.0067 -0.0537
  280TMC3    O2 4290   3.390   3.519   0.354  0.2151  0.3732 -0.2338
  281TMC3    C1 4291   3.327   0.331  13.358  0.6699  0.3854  0.6284
  281TMC3    C2 4292   3.381   0.411  13.258 -0.2593 -0.4742  0.5093
  281TMC3    C3 4293   3.374   0.361  13.128  0.0562 -0.3317  0.5120
  281TMC3    C4 4294   3.286   0.196  13.332 -0.4266  0.2012 -0.3363
  281TMC3    C5 4295   3.304   0.152  13.202  0.5678 -0.2117  0.1412
  281TMC3    C6 4296   3.337   0.233  13.101  0.0653 -0.1887  0.1089
  281TMC3     C 4297   3.263   0.395  13.473 -0.1319  0.1870  0.5592
  281TMC3     O 4298   3.187   0.327  13.544 -0.4640 -0.0207  0.1764
  281TMC3     H 4299   3.414   0.513  13.273  0.4356 -0.2588 -2.4952
  281TMC3    H1 4300   3.253   0.134  13.415  2.5976  0.4131  1.0500
  281TMC3    H2 4301   3.358   0.184  13.006 -1.6917 -1.6903  0.5005
  281TMC3    C7 4302   3.243   0.033  13.165  0.1487 -0.4281  0.3496
  281TMC3    C8 4303   3.418   0.440  13.020 -0.0822 -0.8116  0.6220
  281TMC3    O1 4304   3.194   0.025  13.050 -0.4476 -0.2315  0.4407
  281TMC3    O2 4305   3.492   0.379  12.941  0.3634 -0.1527  0.7112
  282MPD2     C 4306   0.315   1.345  15.059 -0.4834 -0.8445 -0.7369
  282MPD2    C1 4307   0.180   1.360  15.067  1.1181 -0.3302 -0.0354
  282MPD2    C2 4308   0.100   1.331  14.954  0.6488  0.3866 -0.8580
  282MPD2    C3 4309   0.166   1.313  14.834 -0.3864  0.5411 -0.4973
  282MPD2    C4 4310   0.304   1.300  14.828  0.1347  0.5786 -0.3341
  282MPD2    C5 4311   0.376   1.323  14.941 -0.4481  0.3589  0.5226
  282MPD2     H 4312   4.731   1.343  14.963  0.9421 -0.0429  3.1417
  282MPD2    H1 4313   0.357   1.273  14.737 -1.1277 -0.4508 -0.7684
  282MPD2    H2 4314   0.378   1.347  15.147  0.2430  1.8234 -1.3192
  282MPD2    H3 4315   0.485   1.328  14.937 -0.2448 -3.0607  1.4406
  282MPD2     N 4316   0.089   1.314  14.713 -0.2727  0.7579  0.5102
  282MPD2    H5 4317   4.728   1.330  14.726 -0.0683  0.5021  2.2892
  282MPD2    N1 4318   0.109   1.380  15.187  0.6401 -0.0609 -0.4098
  282MPD2    H7 4319   0.008   1.375  15.192  0.5944  0.4723 -0.7120
  283TMC3    C1 4320   0.066   1.440  15.409  0.1507  0.5027  0.3276
  283TMC3    C2 4321   0.075   1.550  15.485  0.7770 -0.5872 -0.3108
  283TMC3    C3 4322   0.010   1.547  15.606 -0.5355 -0.1752 -0.5103
  283TMC3    C4 4323   4.718   1.335  15.421  0.0733  0.3601 -0.1933
  283TMC3    C5 4324   4.651   1.333  15.541  0.5984  0.8307 -0.0166
  283TMC3    C6 4325   4.674   1.439  15.632  1.3335 -0.2240  0.6078
  283TMC3     C 4326   0.165   1.436  15.303 -0.1279 -0.0184 -0.4944
  283TMC3     O 4327   0.280   1.452  15.336 -0.1437 -0.1519 -0.3938
  283TMC3     H 4328   0.135   1.634  15.453  3.1754 -1.4852  1.8383
  283TMC3    H1 4329   4.721   1.253  15.349  2.5630  0.1543  0.1485
  283TMC3    H2 4330   4.614   1.439  15.723  1.3336 -0.9093  0.6074
  283TMC3    C7 4331   4.586   1.211  15.593  0.4838  0.1409  0.3851
  283TMC3    C8 4332   0.001   1.666  15.685 -0.0441 -0.2263 -0.4794
  283TMC3    O1 4333   4.525   1.226  15.700 -0.6721 -0.0273  0.1618
  283TMC3    O2 4334   0.001   1.665  15.810  0.4559 -0.0884 -0.3069
  284MPD2     C 4335   3.160   0.846  12.324  0.3070 -0.3166 -0.1550
  284MPD2    C1 4336   3.232   0.882  12.210 -0.3147 -0.0962 -0.1926
  284MPD2    C2 4337   3.250   0.789  12.107  0.1972  0.2468 -0.6325
  284MPD2    C3 4338   3.190   0.659  12.116 -0.5926 -0.1584 -0.1069
  284MPD2    C4 4339   3.136   0.624  12.233  0.3459 -0.4671  0.1372
  284MPD2    C5 4340   3.114   0.722  12.329 -0.4292 -0.1851 -0.5934
  284MPD2     H 4341   3.304   0.833  12.024  0.7623 -2.3233 -1.6232
  284MPD2    H1 4342   3.103   0.522  12.251  1.3431 -0.3083  2.7906
  284MPD2    H2 4343   3.128   0.917  12.400 -1.2066 -1.4527  0.2668
  284MPD2    H3 4344   3.053   0.705  12.418 -1.7504  3.8212 -0.7497
  284MPD2     N 4345   3.208   0.565  12.009 -0.1013 -0.1202 -0.0754
  284MPD2    H5 4346   3.193   0.466  12.023  0.9261 -0.0812  1.2486
  284MPD2    N1 4347   3.280   1.016  12.182  0.0983 -0.0327  0.4460
  284MPD2    H7 4348   3.335   1.031  12.099 -0.6564  1.4821  0.2211
  285TMC3    C1 4349   3.339   1.236  12.219 -0.0870 -0.1308  0.0112
  285TMC3    C2 4350   3.423   1.203  12.119 -0.2215  0.3099 -0.0736
  285TMC3    C3 4351   3.430   1.291  12.016  0.5365  0.3641 -0.3069
  285TMC3    C4 4352   3.261   1.352  12.216 -0.5854 -0.3512  0.1708
  285TMC3    C5 4353   3.284   1.443  12.115  0.3459  0.0830  0.3065
  285TMC3    C6 4354   3.373   1.414  12.015 -0.2030 -0.5997 -0.8736
  285TMC3     C 4355   3.274   1.122  12.272  1.0329  0.2389 -0.6511
  285TMC3     O 4356   3.228   1.135  12.383 -0.0411 -0.0565 -0.0838
  285TMC3     H 4357   3.489   1.118  12.131 -0.3335  0.3106  0.5556
  285TMC3    H1 4358   3.188   1.361  12.296 -2.7161 -0.6275 -1.7530
  285TMC3    H2 4359   3.380   1.474  11.925 -0.2734  0.6024 -0.0853
  285TMC3    C7 4360   3.200   1.556  12.106  0.0942  0.0731  0.1732
  285TMC3    C8 4361   3.493   1.237  11.897  0.2449  0.2783 -0.3659
  285TMC3    O1 4362   3.193   1.624  12.004 -0.2059 -0.2479  0.9355
  285TMC3    O2 4363   3.499   1.114  11.896  0.0799 -0.2231 -0.1296
  286MPD2     C 4364   2.528   3.557   0.933 -0.0899 -0.0741 -0.7141
  286MPD2    C1 4365   2.642   3.623   0.970  0.2795  0.2071  0.2373
  286MPD2    C2 4366   2.766   3.561   0.975 -0.8343  0.2134 -0.4094
  286MPD2    C3 4367   2.768   3.428   0.936  0.0079  0.5975  0.2989
  286MPD2    C4 4368   2.657   3.363   0.885  0.2938  0.4321 -0.3356
  286MPD2    C5 4369   2.536   3.427   0.894  0.1591 -0.5422  0.6987
  286MPD2     H 4370   2.855   3.614   1.009 -0.4404 -0.6259 -0.1230
  286MPD2    H1 4371   2.656   3.262   0.845 -0.6539 -0.0961  1.0063
  286MPD2    H2 4372   2.435   3.611   0.932 -0.3052 -0.4337 -0.3594
  286MPD2    H3 4373   2.443   3.387   0.853  0.3046 -0.1380 -0.0200
  286MPD2     N 4374   2.890   3.361   0.937 -0.5950  0.4189  0.4703
  286MPD2    H5 4375   2.900   3.271   0.891 -0.3108  1.0667 -0.7373
  286MPD2    N1 4376   2.643   3.760   1.003  0.9195 -0.5382 -0.3231
  286MPD2    H7 4377   2.732   3.790   1.040  0.7983 -0.8821  0.2431
  287TMC3    C1 4378   3.116   3.322   0.978  0.7221  0.4656  0.4078
  287TMC3    C2 4379   3.124   3.260   0.856  0.5348 -0.0683  0.9597
  287TMC3    C3 4380   3.247   3.227   0.812 -0.1951  0.4702  0.2413
  287TMC3    C4 4381   3.228   3.360   1.046  0.0013 -0.5646  0.5555
  287TMC3    C5 4382   3.353   3.336   0.987  0.7226  0.2237  0.0021
  287TMC3    C6 4383   3.366   3.270   0.862  0.1523 -0.7093  0.0778
  287TMC3     C 4384   2.998   3.389   1.019 -0.2310 -0.1323 -0.2668
  287TMC3     O 4385   3.006   3.463   1.116 -0.1235 -0.1263 -0.6680
  287TMC3     H 4386   3.038   3.233   0.795  2.2659 -1.2966 -0.9240
  287TMC3    H1 4387   3.223   3.412   1.140  1.2259 -0.4552  0.5611
  287TMC3    H2 4388   3.462   3.226   0.840  0.6551 -0.4585  1.7597
  287TMC3    C7 4389   3.467   3.399   1.053  0.1485 -0.5194  0.9292
  287TMC3    C8 4390   3.249   3.166   0.674 -0.3094 -1.2087  0.3559
  287TMC3    O1 4391   3.436   3.462   1.154  0.1688  0.5540  0.1067
  287TMC3    O2 4392   3.174   3.074   0.655 -0.4394 -0.4150  0.4497
  288TMC3    C1 4393   0.062   4.310  13.946  0.2188  0.4654  0.3884
  288TMC3    C2 4394   0.022   4.324  14.075 -0.3952  0.4665 -0.3785
  288TMC3    C3 4395   0.083   4.414  14.164 -0.3882  0.4217  0.4450
  288TMC3    C4 4396   0.149   4.403  13.893  0.5463  1.0947 -0.3390
  288TMC3    C5 4397   0.199   4.501  13.977 -0.1163  0.9478  0.0078
  288TMC3    C6 4398   0.173   4.504  14.114 -1.0455  0.0362 -0.4939
  288TMC3     C 4399   0.001   4.209  13.861  0.2136 -0.4222  0.6578
  288TMC3     O 4400   4.731   4.226  13.741 -0.3259 -0.1805  0.4493
  288TMC3     H 4401   4.680   4.257  14.106 -0.0698  0.6370  0.8396
  288TMC3    H1 4402   0.169   4.388  13.788  0.4632 -1.1967 -0.0351
  288TMC3    H2 4403   0.214   4.584  14.173 -1.0643 -0.4350  0.1520
  288TMC3    C7 4404   0.287   4.604  13.919 -1.2215  0.0854 -0.1264
  288TMC3    C8 4405   0.057   4.413  14.307 -0.5483  1.1331  0.7328
  288TMC3    O1 4406   0.304   4.702  13.988 -0.3468  0.7154  0.1994
  288TMC3    O2 4407   0.066   4.521  14.359  0.1760 -0.7787  0.0234
  289MPD2     C 4408   0.382   3.257  14.443  0.1544  0.5555  0.6349
  289MPD2    C1 4409   0.346   3.382  14.413 -0.3653  0.4942 -1.3963
  289MPD2    C2 4410   0.221   3.398  14.342  0.2140  1.1076  0.1516
  289MPD2    C3 4411   0.140   3.288  14.311 -0.2278  0.8586  0.6059
  289MPD2    C4 4412   0.190   3.160  14.328 -0.1577 -0.5067  0.2823
  289MPD2    C5 4413   0.310   3.146  14.398 -0.7266 -0.3295 -0.1987
  289MPD2     H 4414   0.181   3.498  14.332 -1.9677  0.3229  1.0829
  289MPD2    H1 4415   0.140   3.074  14.285  2.1923 -0.6570 -2.1062
  289MPD2    H2 4416   0.476   3.245  14.496 -1.0197 -3.5755  1.8625
  289MPD2    H3 4417   0.339   3.045  14.425 -0.7174  0.1280  1.5373
  289MPD2     N 4418   0.007   3.294  14.252 -0.1407  0.1848  0.1453
  289MPD2    H5 4419   4.692   3.208  14.243 -2.2083  1.3738  1.0353
  289MPD2    N1 4420   0.437   3.481  14.445  0.9580 -0.0425 -0.0446
  289MPD2    H7 4421   0.517   3.463  14.506  1.1383  0.7403 -0.0566
  290TMC3    C1 4422   4.551   3.392  14.147  0.3085  0.2719 -0.0240
  290TMC3    C2 4423   4.481   3.512  14.156  0.6102  0.6319  0.3704
  290TMC3    C3 4424   4.372   3.527  14.080 -0.5345  0.0975 -0.3695
  290TMC3    C4 4425   4.504   3.279  14.094 -0.2685 -0.1258  0.4055
  290TMC3    C5 4426   4.387   3.293  14.025  0.4052  1.3770 -0.3808
  290TMC3    C6 4427   4.325   3.416  14.016 -0.2585 -0.3419  0.0696
  290TMC3     C 4428   4.689   3.405  14.195  0.5333 -0.2756  0.1492
  290TMC3     O 4429   4.732   3.518  14.199  0.0951 -0.4931 -0.0014
  290TMC3     H 4430   4.506   3.606  14.202 -1.6424  0.6147  1.5844
  290TMC3    H1 4431   4.570   3.193  14.084 -0.3868 -0.1495 -0.1899
  290TMC3    H2 4432   4.232   3.414  13.959 -1.1944  2.2888  1.5088
  290TMC3    C7 4433   4.309   3.177  13.981  0.2547  0.5034  0.1814
  290TMC3    C8 4434   4.265   3.624  14.100 -0.5761 -0.8823  0.1284
  290TMC3    O1 4435   4.204   3.195  13.921 -0.4202 -0.1890  0.2994
  290TMC3    O2 4436   4.181   3.624  14.013  0.1807  0.0162  0.1951
  291MPD2     C 4437   4.010   2.867  17.729  0.0563  0.1628  0.1927
  291MPD2    C1 4438   4.066   2.804   0.078  0.0278  0.4784  0.3789
  291MPD2    C2 4439   4.142   2.881   0.161  0.2238  0.3416 -0.5395
  291MPD2    C3 4440   4.169   3.009   0.142 -0.3874 -0.9044 -0.9888
  291MPD2    C4 4441   4.108   3.071   0.033 -0.1201  0.5930 -0.2885
  291MPD2    C5 4442   4.032   2.995  17.701 -0.0503  0.2415  0.3484
  291MPD2     H 4443   4.188   2.830   0.245  2.4923  1.0471 -1.3660
  291MPD2    H1 4444   4.132   3.175   0.010  2.7171  0.3249  1.5117
  291MPD2    H2 4445   3.940   2.818  17.661 -0.3981 -0.9828  1.4899
  291MPD2    H3 4446   3.975   3.047  17.626  0.6446  0.1916 -0.2154
  291MPD2     N 4447   4.266   3.083   0.212 -0.7905  0.0185 -0.4551
  291MPD2    H5 4448   4.289   3.178   0.184  1.6559  0.0135  1.5571
  291MPD2    N1 4449   4.047   2.666   0.105  0.8241 -0.6313 -0.0028
  291MPD2    H7 4450   4.087   2.626   0.189  0.2766  0.1623  0.6396
  292TMC3    C1 4451   4.008   2.427   0.056  0.1277 -0.3229  1.0916
  292TMC3    C2 4452   4.066   2.394   0.170  0.3360  0.4267 -0.6391
  292TMC3    C3 4453   4.095   2.267   0.187 -0.3533  0.1296 -0.1775
  292TMC3    C4 4454   3.967   2.334  17.715  0.2631  0.5099  0.3258
  292TMC3    C5 4455   4.001   2.204  17.738  0.3485 -0.1468 -0.1658
  292TMC3    C6 4456   4.070   2.163   0.098  0.1207  0.5804  0.6951
  292TMC3     C 4457   3.992   2.568   0.020 -0.1095 -0.1734 -0.1090
  292TMC3     O 4458   3.924   2.592  17.675  0.0816 -0.0503 -0.3711
  292TMC3     H 4459   4.095   2.468   0.244 -2.0560 -0.9536  1.6942
  292TMC3    H1 4460   3.904   2.356  17.629  0.3006  1.7484  0.6136
  292TMC3    H2 4461   4.119   2.068   0.117  1.1784  0.9312 -0.2944
  292TMC3    C7 4462   4.006   2.111  17.628 -0.0036  0.3930 -0.4060
  292TMC3    C8 4463   4.183   2.234   0.298  0.2554  0.6875  0.0300
  292TMC3    O1 4464   4.109   2.052  17.609 -0.1055 -0.2883 -0.2666
  292TMC3    O2 4465   4.287   2.183   0.253  0.4735 -0.4905 -0.7142
  293MPD2     C 4466   1.379   0.250  12.475  0.1996 -0.2991  0.4050
  293MPD2    C1 4467   1.290   0.208  12.570 -0.2514  0.2102  0.4730
  293MPD2    C2 4468   1.335   0.175  12.694  0.1448  0.5387  0.3996
  293MPD2    C3 4469   1.469   0.193  12.732  0.2320 -0.0387 -0.0930
  293MPD2    C4 4470   1.554   0.244  12.633 -0.0758  0.2727 -0.1284
  293MPD2    C5 4471   1.509   0.272  12.503 -0.3026  0.5632 -0.2225
  293MPD2     H 4472   1.280   0.147  12.783  1.0748 -0.5562  0.6283
  293MPD2    H1 4473   1.659   0.266  12.651  0.3424 -0.7146 -1.3076
  293MPD2    H2 4474   1.339   0.275  12.377  1.4911  0.8780  0.1702
  293MPD2    H3 4475   1.581   0.310  12.431 -0.4805 -1.6557 -1.5961
  293MPD2     N 4476   1.511   0.161  12.867  0.0943 -0.3678 -0.2446
  293MPD2    H5 4477   1.437   0.126  12.927  0.6673 -0.5582  0.3494
  293MPD2    N1 4478   1.152   0.213  12.525 -0.1717  0.0187  0.7620
  293MPD2    H7 4479   1.131   0.258  12.436  3.3034  1.5563  0.7123
  294TMC3    C1 4480   0.918   0.182  12.517 -0.2151  0.5109 -0.0550
  294TMC3    C2 4481   0.831   0.077  12.512  0.4706 -0.5604  0.0054
  294TMC3    C3 4482   0.726   0.087  12.422  0.4117  0.1849  0.3383
  294TMC3    C4 4483   0.900   0.301  12.452 -0.1634 -0.0826  0.0100
  294TMC3    C5 4484   0.793   0.301  12.366  0.2401  0.0569 -0.0076
  294TMC3    C6 4485   0.712   0.200  12.345 -0.2602 -0.3401 -0.2793
  294TMC3     C 4486   1.044   0.160  12.591  0.2951  0.0827 -0.5949
  294TMC3     O 4487   1.037   0.093  12.695 -0.1615 -0.2650  0.0591
  294TMC3     H 4488   0.851   4.724  12.566 -0.5918 -0.0162  1.2967
  294TMC3    H1 4489   0.969   0.382  12.475  0.0202  0.4132 -2.3325
  294TMC3    H2 4490   0.639   0.190  12.266 -0.0343  0.8512 -0.6529
  294TMC3    C7 4491   0.783   0.405  12.265  0.4290  0.6797 -0.1649
  294TMC3    C8 4492   0.700   4.694  12.357  0.1779 -0.2701  0.2927
  294TMC3    O1 4493   0.668   0.443  12.242 -0.1557  0.0744 -0.0236
  294TMC3    O2 4494   0.797   4.623  12.333  0.2525  0.0952 -0.3219
  295MPD2     C 4495   1.705   3.064   0.725  0.5075 -0.1699 -0.6924
  295MPD2    C1 4496   1.616   2.990   0.651 -0.4615 -0.2120  0.3537
  295MPD2    C2 4497   1.499   2.932   0.699 -0.1172 -0.0325  0.7900
  295MPD2    C3 4498   1.452   2.966   0.825 -0.0273  0.2385 -0.5238
  295MPD2    C4 4499   1.540   3.035   0.901 -1.3492  0.0850 -0.0453
  295MPD2    C5 4500   1.663   3.078   0.855 -0.4371  0.0897 -0.4904
  295MPD2     H 4501   1.440   2.866   0.637  0.9445  0.4373 -0.7154
  295MPD2    H1 4502   1.523   3.068   1.003  0.3345  1.7754 -0.3004
  295MPD2    H2 4503   1.792   3.122   0.696 -0.1628 -0.0574 -2.5026
  295MPD2    H3 4504   1.729   3.142   0.913  0.8113  0.9522 -2.9047
  295MPD2     N 4505   1.320   2.935   0.872  0.7690  0.4150 -0.1045
  295MPD2    H5 4506   1.312   2.948   0.972  0.4792 -0.3668 -0.0271
  295MPD2    N1 4507   1.646   2.943   0.523  0.4084  0.3667 -0.6501
  295MPD2    H7 4508   1.580   2.891   0.466 -1.0054  0.0442  1.2939
  296TMC3    C1 4509   1.096   2.888   0.879  0.3423  0.8879  0.1688
  296TMC3    C2 4510   0.994   2.985   0.873 -0.2540  0.1642  0.0581
  296TMC3    C3 4511   0.908   2.994   0.980 -0.6038  0.4929 -0.3097
  296TMC3    C4 4512   1.117   2.798   0.980  0.8807  0.4165 -0.0048
  296TMC3    C5 4513   1.016   2.799   1.073  0.0000 -0.3900  0.2366
  296TMC3    C6 4514   0.912   2.895   1.082  0.1634  0.3123 -0.1011
  296TMC3     C 4515   1.211   2.912   0.791  0.8799  0.4518  0.0233
  296TMC3     O 4516   1.192   2.905   0.669  0.3195  0.2518 -0.1930
  296TMC3     H 4517   1.010   3.062   0.798  0.0199  0.7416  0.7142
  296TMC3    H1 4518   1.200   2.729   0.988  1.3545  1.0202  0.2661
  296TMC3    H2 4519   0.842   2.884   1.164  0.6016  1.2233  0.3870
  296TMC3    C7 4520   1.000   2.690   1.162  0.1743 -0.4032  0.5554
  296TMC3    C8 4521   0.810   3.105   0.986  0.3288 -0.1909 -0.1069
  296TMC3    O1 4522   0.948   2.708   1.271  0.6549  0.5051 -0.2546
  296TMC3    O2 4523   0.752   3.108   1.093  0.6524 -0.0859 -0.4246
  297MPD2     C 4524   4.150   4.562  16.358 -0.6553 -0.7343  0.0354
  297MPD2    C1 4525   4.074   4.631  16.262 -0.1076  0.3251  0.5296
  297MPD2    C2 4526   4.137   4.732  16.190 -0.0375 -0.0444 -0.2543
  297MPD2    C3 4527   4.259   0.041  16.230 -0.0539  0.0114  0.9962
  297MPD2    C4 4528   4.327   4.717  16.334 -0.2835 -0.0122 -1.2722
  297MPD2    C5 4529   4.273   4.605  16.399  0.0841  0.5137 -0.1065
  297MPD2     H 4530   4.080   0.040  16.110 -0.3946  0.6604  0.4038
  297MPD2    H1 4531   4.427   4.738  16.372 -0.9771 -0.4659  0.7885
  297MPD2    H2 4532   4.112   4.480  16.417 -0.9211  0.7423  1.9116
  297MPD2    H3 4533   4.334   4.557  16.474  0.5648  1.9876  0.4556
  297MPD2     N 4534   4.300   0.162  16.179  0.8273  0.0254 -0.0230
  297MPD2    H5 4535   4.258   0.208  16.100 -1.8833 -0.6920  1.0128
  297MPD2    N1 4536   3.944   4.593  16.231 -0.5816 -0.2331  0.2961
  297MPD2    H7 4537   3.906   4.644  16.152 -2.1711  1.3075  2.0376
  298TMC3    C1 4538   3.731   4.482  16.234 -0.0148  0.2578 -0.0342
  298TMC3    C2 4539   3.716   4.504  16.107  1.1360  0.7833  0.1495
  298TMC3    C3 4540   3.593   4.507  16.057  0.5470 -0.3257  0.1643
  298TMC3    C4 4541   3.627   4.490  16.323  0.1076  0.4810  0.2404
  298TMC3    C5 4542   3.499   4.494  16.278 -0.3785 -0.5234  0.2895
  298TMC3    C6 4543   3.481   4.499  16.141 -0.2691 -0.2281 -0.4656
  298TMC3     C 4544   3.865   4.500  16.294  0.4618 -0.2172 -0.2501
  298TMC3     O 4545   3.883   4.450  16.405 -0.1880 -0.4351 -0.3745
  298TMC3     H 4546   3.805   4.501  16.045  1.1006  1.5955  0.0546
  298TMC3    H1 4547   3.649   4.483  16.429 -0.6669 -2.8266  0.1820
  298TMC3    H2 4548   3.381   4.484  16.101 -1.2250 -0.1066  1.8739
  298TMC3    C7 4549   3.421   4.595  16.348  0.3106 -0.2142 -0.1835
  298TMC3    C8 4550   3.584   4.580  15.932  0.3345  0.1017  0.1017
  298TMC3    O1 4551   3.456   4.614  16.461  0.5346 -0.5414  0.4261
  298TMC3    O2 4552   3.676   4.565  15.850 -0.2873  0.3464 -0.3495
  299MPD2     C 4553   4.273   0.686  10.824 -0.3705  0.7411  0.7209
  299MPD2    C1 4554   4.325   0.810  10.807  0.3238  0.2403  0.2445
  299MPD2    C2 4555   4.281   0.893  10.703 -1.1177 -0.7868 -0.0605
  299MPD2    C3 4556   4.172   0.848  10.623 -0.6951  0.9199  0.8208
  299MPD2    C4 4557   4.115   0.726  10.656  0.8229  0.1213 -0.6640
  299MPD2    C5 4558   4.165   0.645  10.750  0.2668 -0.4763  0.3913
  299MPD2     H 4559   4.320   0.993  10.685  0.2156 -0.9758  1.7192
  299MPD2    H1 4560   4.034   0.684  10.597  0.5194 -0.5313  0.2194
  299MPD2    H2 4561   4.311   0.618  10.899 -0.9779  0.3639  0.6860
  299MPD2    H3 4562   4.110   0.558  10.784  0.7013 -1.1571 -0.6539
  299MPD2     N 4563   4.111   0.914  10.520  0.0184 -0.2978  0.3451
  299MPD2    H5 4564   4.024   0.871  10.490  0.8974 -1.0983 -1.0418
  299MPD2    N1 4565   4.435   0.852  10.892  0.3297  0.3716 -0.0847
  299MPD2    H7 4566   4.468   0.779  10.954  1.5819  0.0987 -1.0677
  300TMC3    C1 4567   4.037   1.090  10.377  0.5440  0.2795  0.7478
  300TMC3    C2 4568   4.070   1.209  10.308  0.3031 -0.3585  0.0437
  300TMC3    C3 4569   3.974   1.273  10.235  0.5658  0.0077 -0.6121
  300TMC3    C4 4570   3.907   1.051  10.380  0.1302 -0.8238 -0.3910
  300TMC3    C5 4571   3.816   1.113  10.299  0.6905 -0.4587 -0.0008
  300TMC3    C6 4572   3.845   1.221  10.221  0.2469 -0.4960 -0.8141
  300TMC3     C 4573   4.138   1.041  10.479 -0.1429 -0.3647  0.0808
  300TMC3     O 4574   4.242   1.099  10.505  0.1211 -0.7996 -0.3917
  300TMC3     H 4575   4.167   1.252  10.328  1.6606 -3.2565 -0.2893
  300TMC3    H1 4576   3.881   0.956  10.426 -0.6093 -0.9266 -1.0240
  300TMC3    H2 4577   3.761   1.269  10.172 -0.6967  0.4880  1.7516
  300TMC3    C7 4578   3.679   1.065  10.303 -0.7827 -0.7024 -0.2634
  300TMC3    C8 4579   3.983   1.414  10.271 -1.0410 -0.2908 -0.1791
  300TMC3    O1 4580   3.610   1.085  10.205 -0.2867 -0.1765  0.2434
  300TMC3    O2 4581   4.081   1.453  10.330 -0.2071  0.2738  0.8827
  301MPD2     C 4582   1.301   0.695   0.809  0.0269 -0.3645 -0.7712
  301MPD2    C1 4583   1.433   0.739   0.832 -0.2426 -0.1864 -0.2009
  301MPD2    C2 4584   1.541   0.656   0.823 -0.2686 -0.4520 -0.4771
  301MPD2    C3 4585   1.520   0.523   0.804 -0.3267 -0.5655 -0.3890
  301MPD2    C4 4586   1.392   0.476   0.791  0.3331 -0.2967 -0.7875
  301MPD2    C5 4587   1.286   0.562   0.790  0.1609  0.2163  0.4310
  301MPD2     H 4588   1.639   0.701   0.825 -1.9716  3.2653  0.8927
  301MPD2    H1 4589   1.375   0.370   0.781  0.5439 -0.3380 -0.7083
  301MPD2    H2 4590   1.215   0.761   0.803 -1.2602 -2.0708 -1.2162
  301MPD2    H3 4591   1.187   0.524   0.768  0.2600  0.8191 -1.0441
  301MPD2     N 4592   1.624   0.429   0.809 -0.1045  0.2262 -0.1078
  301MPD2    H5 4593   1.603   0.336   0.775 -0.2931  0.2899 -0.1673
  301MPD2    N1 4594   1.463   0.871   0.848  0.4231  0.1905 -0.3863
  301MPD2    H7 4595   1.558   0.898   0.827  0.1276  0.9234 -0.7925
  302TMC3    C1 4596   1.849   0.343   0.830 -0.7156  0.8263  0.1052
  302TMC3    C2 4597   1.945   0.320   0.926  0.3103 -0.3254 -0.8889
  302TMC3    C3 4598   2.034   0.219   0.895 -1.0776 -0.3785 -0.2825
  302TMC3    C4 4599   1.839   0.279   0.707 -0.5286  0.0498 -0.0311
  302TMC3    C5 4600   1.939   0.194   0.680  0.8298 -0.3812  0.3919
  302TMC3    C6 4601   2.032   0.161   0.768  0.1774  0.1689  0.1950
  302TMC3     C 4602   1.757   0.455   0.850 -0.0449 -0.6490  0.2443
  302TMC3     O 4603   1.803   0.559   0.901  0.0221 -0.3354  0.3011
  302TMC3     H 4604   1.950   0.380   1.016  0.5092  0.1468 -1.2179
  302TMC3    H1 4605   1.756   0.298   0.639 -0.9451 -1.6026  0.0331
  302TMC3    H2 4606   2.114   0.097   0.737  1.2459  1.3665  0.4939
  302TMC3    C7 4607   1.953   0.136   0.553 -0.1958  0.1427 -0.1465
  302TMC3    C8 4608   2.097   0.145   0.995  0.8156 -0.0328 -0.1450
  302TMC3    O1 4609   2.015   0.031   0.545  0.6496 -0.1797  0.5313
  302TMC3    O2 4610   2.151   0.040   0.958 -0.2742  0.3265 -0.1393
  303MPD2     C 4611   2.527   0.815  10.794  0.3553 -0.3676 -0.0968
  303MPD2    C1 4612   2.396   0.798  10.820  0.1176 -0.1795  0.0278
  303MPD2    C2 4613   2.299   0.862  10.742 -0.0270  0.1805  0.0267
  303MPD2    C3 4614   2.327   0.932  10.630 -0.2652  0.9926  0.2281
  303MPD2    C4 4615   2.460   0.939  10.592  0.1739 -0.2216  0.1611
  303MPD2    C5 4616   2.558   0.878  10.671  0.9156 -0.9454 -0.4337
  303MPD2     H 4617   2.197   0.857  10.776 -0.8504 -0.4939 -2.5326
  303MPD2    H1 4618   2.490   0.989  10.501 -2.4190  0.0465 -0.5399
  303MPD2    H2 4619   2.608   0.783  10.859  0.5160  2.2785  0.9854
  303MPD2    H3 4620   2.662   0.881  10.642  1.6353  0.1176  2.2130
  303MPD2     N 4621   2.220   1.000  10.558 -0.4540 -0.3396  0.6358
  303MPD2    H5 4622   2.246   1.050  10.474 -0.4504  0.9634  1.4192
  303MPD2    N1 4623   2.364   0.727  10.934 -0.6781 -0.3568 -0.1040
  303MPD2    H7 4624   2.438   0.706  11.000 -1.4404 -1.1159  0.5102
  304TMC3    C1 4625   2.233   0.619  11.106 -0.2085 -0.0596  0.1124
  304TMC3    C2 4626   2.234   0.705  11.213  0.4531  0.2090 -0.1404
  304TMC3    C3 4627   2.162   0.666  11.323 -0.8682 -0.3297 -0.3436
  304TMC3    C4 4628   2.152   0.506  11.101  0.0652 -0.6790  0.2702
  304TMC3    C5 4629   2.089   0.466  11.212 -0.2328 -0.4309 -0.0284
  304TMC3    C6 4630   2.103   0.539  11.324  0.1005 -0.5880  0.4777
  304TMC3     C 4631   2.237   0.677  10.965 -0.2046  0.0383  1.0791
  304TMC3     O 4632   2.145   0.651  10.888 -0.3156  0.1903  0.6559
  304TMC3     H 4633   2.263   0.807  11.195  0.7337  0.1565  0.0165
  304TMC3    H1 4634   2.159   0.443  11.013 -1.3025  2.0411 -1.8186
  304TMC3    H2 4635   2.040   0.512  11.407  2.4123 -0.8060  2.1645
  304TMC3    C7 4636   1.941   0.448  11.184 -0.5573  0.1114  0.1344
  304TMC3    C8 4637   2.083   0.775  11.374  0.2648  0.4455 -0.3187
  304TMC3    O1 4638   1.861   0.523  11.243 -0.1391  0.4524 -0.5268
  304TMC3    O2 4639   2.135   0.889  11.391  0.1847  0.0220 -0.6205
  305MPD2     C 4640   4.697   1.780  14.166 -0.1016  0.6754  0.3719
  305MPD2    C1 4641   0.081   1.719  14.150  0.4561  0.6004  0.1981
  305MPD2    C2 4642   0.128   1.675  14.025 -0.4969 -0.4459 -0.2164
  305MPD2    C3 4643   0.054   1.710  13.913 -0.0984  0.1457 -0.2517
  305MPD2    C4 4644   4.672   1.774  13.934  0.3710 -0.8234 -0.6126
  305MPD2    C5 4645   4.627   1.817  14.059  0.3155 -0.2585 -0.4836
  305MPD2     H 4646   0.208   1.604  14.016  1.6358  2.1789 -2.1124
  305MPD2    H1 4647   4.617   1.788  13.841  0.7230 -1.9502 -0.9833
  305MPD2    H2 4648   4.667   1.819  14.262 -0.0696  1.0653  0.2234
  305MPD2    H3 4649   4.531   1.864  14.077  0.0063 -1.7592  1.7637
  305MPD2     N 4650   0.094   1.673  13.781  0.1190 -0.8579  0.3540
  305MPD2    H5 4651   0.048   1.708  13.698  2.7278 -0.8399 -1.0780
  305MPD2    N1 4652   0.149   1.683  14.268  0.9409 -0.0393  0.3155
  305MPD2    H7 4653   0.113   1.717  14.356  0.4093 -0.6618  0.3402
  306TMC3    C1 4654   0.293   1.569  14.418  0.0586  0.1296  0.2703
  306TMC3    C2 4655   0.410   1.509  14.437  0.2120  0.8632 -0.5457
  306TMC3    C3 4656   0.463   1.508  14.563 -0.5523 -0.5311 -0.0912
  306TMC3    C4 4657   0.211   1.612  14.521  0.5612 -1.0553 -0.5369
  306TMC3    C5 4658   0.271   1.607  14.638 -0.0921  0.3962 -0.4120
  306TMC3    C6 4659   0.399   1.563  14.665  0.5606  0.0480 -0.4727
  306TMC3     C 4660   0.256   1.596  14.278 -0.6145 -0.3861 -0.1912
  306TMC3     O 4661   0.332   1.553  14.193 -0.2660  0.6845  0.3173
  306TMC3     H 4662   0.461   1.457  14.357 -1.3733  1.8168 -2.1733
  306TMC3    H1 4663   0.104   1.626  14.512  0.5279 -0.6758  0.4011
  306TMC3    H2 4664   0.418   1.533  14.768 -0.2911 -2.6459 -1.0947
  306TMC3    C7 4665   0.188   1.645  14.754 -0.5000 -0.7168 -0.0202
  306TMC3    C8 4666   0.570   1.412  14.590 -0.4067 -0.0934 -0.0702
  306TMC3    O1 4667   0.067   1.645  14.753  0.5578 -0.2281  0.4516
  306TMC3    O2 4668   0.580   1.319  14.510 -0.2535  0.4601  0.2806
  307MPD2     C 4669   3.330   0.199   0.580  0.1576  0.1741 -0.8913
  307MPD2    C1 4670   3.232   0.264   0.646  0.5537 -0.1971 -0.0280
  307MPD2    C2 4671   3.129   0.188   0.692  0.3348 -0.6082  0.8183
  307MPD2    C3 4672   3.113   0.052   0.663  0.1423  0.3753 -0.0973
  307MPD2    C4 4673   3.211   4.726   0.591  0.5908  0.0386  0.0751
  307MPD2    C5 4674   3.315   0.067   0.545  0.5427 -0.1349  0.1241
  307MPD2     H 4675   3.052   0.234   0.752 -0.8813  0.6867 -1.7374
  307MPD2    H1 4676   3.217   4.621   0.566  1.5522 -0.0801  0.7827
  307MPD2    H2 4677   3.412   0.248   0.529  1.2429 -0.8442 -0.1346
  307MPD2    H3 4678   3.396   0.017   0.494 -0.4593 -0.3611 -1.2417
  307MPD2     N 4679   2.992   4.731   0.702  0.2044 -0.1750  0.5475
  307MPD2    H5 4680   2.918   0.054   0.733 -1.0665 -2.2924  1.7293
  307MPD2    N1 4681   3.228   0.400   0.679  0.1289 -0.1137  0.1388
  307MPD2    H7 4682   3.142   0.435   0.720 -0.0207 -0.7609  0.3792
  308TMC3    C1 4683   2.701   4.384   0.827 -0.1062  0.1849 -0.1664
  308TMC3    C2 4684   2.637   4.469   0.908 -0.0764 -0.2440  0.8655
  308TMC3    C3 4685   2.680   4.595   0.931 -0.0935  0.1655 -0.1083
  308TMC3    C4 4686   2.796   4.438   0.745  0.5723  0.7170  0.5969
  308TMC3    C5 4687   2.840   4.567   0.768 -0.1976  0.0058  0.1758
  308TMC3    C6 4688   2.779   4.653   0.852 -0.3791 -0.6384  0.1947
  308TMC3     C 4689   2.623   4.276   0.780  0.7533 -0.1694  0.5137
  308TMC3     O 4690   2.680   4.168   0.772 -0.5826  0.1830  0.4476
  308TMC3     H 4691   2.551   4.432   0.962 -0.6701 -2.0839 -1.3927
  308TMC3    H1 4692   2.860   4.379   0.680  0.8115  1.5288  0.0994
  308TMC3    H2 4693   2.822   0.011   0.875 -1.8518  0.5496 -1.9849
  308TMC3    C7 4694   2.948   4.607   0.674 -0.2411 -0.0990  0.2418
  308TMC3    C8 4695   2.588   4.683   0.995  0.7336 -0.3724  1.1154
  308TMC3    O1 4696   2.997   4.518   0.604  0.3439 -0.1792  0.4386
  308TMC3    O2 4697   2.520   4.641   1.091  0.0105  0.6680 -0.0182
  309MPD2     C 4698   2.063   0.087  17.197 -0.1765  0.1000 -0.1577
  309MPD2    C1 4699   2.010   0.072  17.070 -0.0757  0.1038  0.5870
  309MPD2    C2 4700   1.870   0.050  17.066  0.5817 -0.4006  0.3535
  309MPD2    C3 4701   1.792   0.038  17.183 -0.0257  0.6566 -0.0731
  309MPD2    C4 4702   1.854   0.046  17.305 -0.0114 -0.2779  0.3798
  309MPD2    C5 4703   1.992   0.060  17.312  1.0497 -0.0568  0.2755
  309MPD2     H 4704   1.820   0.037  16.970  2.2365 -0.4876 -0.4840
  309MPD2    H1 4705   1.795   0.026  17.394 -0.6850  0.2281  0.0507
  309MPD2    H2 4706   2.165   0.117  17.219  0.3535 -1.2159 -0.8356
  309MPD2    H3 4707   2.039   0.051  17.410 -1.4015  1.9103  1.6285
  309MPD2     N 4708   1.658   0.001  17.186  0.1202 -0.2205 -0.5750
  309MPD2    H5 4709   1.625   4.706  17.276 -0.3687 -1.7241 -1.3041
  309MPD2    N1 4710   2.091   0.088  16.952  0.0107 -0.0968 -0.2630
  309MPD2    H7 4711   2.048   0.086  16.860 -0.0838 -1.8603 -0.1887
  310TMC3    C1 4712   2.291   0.097  16.830  0.8619  0.2377  0.3482
  310TMC3    C2 4713   2.241   0.191  16.745 -0.1287 -0.3753 -0.4895
  310TMC3    C3 4714   2.299   0.225  16.627 -0.1565 -0.9903  0.3353
  310TMC3    C4 4715   2.405   0.037  16.800 -0.6333 -0.3975  0.3498
  310TMC3    C5 4716   2.469   0.071  16.682 -0.0065  0.8639  0.2209
  310TMC3    C6 4717   2.416   0.164  16.590 -0.3759  0.1777  0.3576
  310TMC3     C 4718   2.230   0.069  16.955  0.2142  0.0544  0.4603
  310TMC3     O 4719   2.303   0.043  17.047 -0.7176  0.4745  0.7352
  310TMC3     H 4720   2.152   0.246  16.777 -0.7849 -0.8350 -1.5424
  310TMC3    H1 4721   2.454   4.716  16.876  1.7923  2.0148  0.6474
  310TMC3    H2 4722   2.462   0.171  16.492  2.2712 -0.8376  1.5290
  310TMC3    C7 4723   2.544   4.701  16.609 -0.3473 -0.0301 -0.0367
  310TMC3    C8 4724   2.251   0.329  16.542  0.0229 -0.5356 -0.1274
  310TMC3    O1 4725   2.519   4.684  16.491  0.4822 -0.3039 -0.3261
  310TMC3    O2 4726   2.132   0.352  16.548 -0.4006 -0.0506  0.1996
  311MPD2     C 4727   3.765   2.170  12.166 -0.1131  0.4069  0.2082
  311MPD2    C1 4728   3.854   2.098  12.249  0.4259  0.0307  0.6110
  311MPD2    C2 4729   3.810   2.018  12.351 -0.6538 -0.1333  0.3908
  311MPD2    C3 4730   3.675   1.994  12.366  0.4146  0.3028 -0.2498
  311MPD2    C4 4731   3.584   2.061  12.289  0.5909  0.0750 -0.7571
  311MPD2    C5 4732   3.628   2.143  12.184 -0.1539 -0.3642 -0.6077
  311MPD2     H 4733   3.881   1.975  12.420 -0.6857 -0.9946 -0.1125
  311MPD2    H1 4734   3.478   2.052  12.307  0.7490 -0.0005  0.1317
  311MPD2    H2 4735   3.794   2.240  12.088  0.1953  0.4992  0.4068
  311MPD2    H3 4736   3.556   2.191  12.119  0.0479 -0.7156 -1.0896
  311MPD2     N 4737   3.632   1.916  12.476  0.1853 -0.1229  0.8015
  311MPD2    H5 4738   3.700   1.886  12.545  0.9443 -2.6831 -1.0291
  311MPD2    N1 4739   3.999   2.106  12.241 -0.2319  0.0652  0.0754
  311MPD2    H7 4740   4.052   2.046  12.302 -0.0003  0.3511  0.1575
  312TMC3    C1 4741   3.494   1.828  12.635  0.2568 -1.2604 -0.2536
  312TMC3    C2 4742   3.382   1.748  12.658 -0.1510 -0.0146  0.4783
  312TMC3    C3 4743   3.376   1.689  12.780  0.1808  0.5051  0.1485
  312TMC3    C4 4744   3.583   1.862  12.727 -0.0278 -0.2407 -0.3070
  312TMC3    C5 4745   3.569   1.809  12.849  0.3624  0.0885 -0.6236
  312TMC3    C6 4746   3.473   1.719  12.874 -0.0428  0.8383 -0.3150
  312TMC3     C 4747   3.507   1.878  12.504  0.0334 -0.1619  0.7821
  312TMC3     O 4748   3.406   1.878  12.430  0.5648  0.2942  0.5803
  312TMC3     H 4749   3.303   1.736  12.585  1.8953 -1.9330 -1.4309
  312TMC3    H1 4750   3.663   1.934  12.708  1.2128 -1.8812 -1.3155
  312TMC3    H2 4751   3.447   1.699  12.977  0.3011  0.7289 -0.2470
  312TMC3    C7 4752   3.688   1.812  12.926  0.6330  0.9009 -0.8669
  312TMC3    C8 4753   3.243   1.646  12.827  0.1214 -0.4584  0.2815
  312TMC3    O1 4754   3.786   1.837  12.857 -0.6711  0.4041 -0.2284
  312TMC3    O2 4755   3.230   1.570  12.922  0.7210 -0.0593 -0.3899
  313MPD2     C 4756   3.292   1.688  11.642 -0.2610  0.4419  0.3524
  313MPD2    C1 4757   3.320   1.727  11.513  0.2517  0.2715 -0.0848
  313MPD2    C2 4758   3.326   1.629  11.416 -0.0473  0.1911 -0.4047
  313MPD2    C3 4759   3.300   1.494  11.447  0.0254  0.2358  0.1815
  313MPD2    C4 4760   3.254   1.466  11.575 -0.1432 -0.3890 -0.3007
  313MPD2    C5 4761   3.252   1.560  11.674 -0.5582  0.0146 -0.1857
  313MPD2     H 4762   3.347   1.661  11.314  1.1334  0.8632  0.0548
  313MPD2    H1 4763   3.213   1.368  11.598  1.1753 -0.7548  0.4561
  313MPD2    H2 4764   3.293   1.762  11.721 -1.6499  0.6105  0.2031
  313MPD2    H3 4765   3.226   1.526  11.773 -0.5388 -0.5758 -0.3799
  313MPD2     N 4766   3.290   1.400  11.338  1.1061 -0.4316 -0.2060
  313MPD2    H5 4767   3.306   1.438  11.245  0.4727  3.3398  1.2262
  313MPD2    N1 4768   3.338   1.864  11.476 -0.2180 -0.2461 -0.0092
  313MPD2    H7 4769   3.357   1.882  11.378 -0.4204  1.9422  0.3643
  314TMC3    C1 4770   3.344   2.094  11.473 -0.0005  0.1264 -0.7077
  314TMC3    C2 4771   3.453   2.179  11.480  0.3923  0.6212  0.2225
  314TMC3    C3 4772   3.495   2.237  11.367 -0.5947 -0.8612 -0.2866
  314TMC3    C4 4773   3.275   2.078  11.354  0.2914 -0.0696 -0.9467
  314TMC3    C5 4774   3.308   2.155  11.242 -0.1150  0.8987  0.6629
  314TMC3    C6 4775   3.426   2.228  11.247 -0.2912 -0.7404  0.2327
  314TMC3     C 4776   3.344   1.976  11.556  0.3934 -0.1751  0.2030
  314TMC3     O 4777   3.354   1.979  11.679  0.2102  0.0004 -0.2377
  314TMC3     H 4778   3.523   2.177  11.563  1.6337 -0.4583 -0.8455
  314TMC3    H1 4779   3.207   1.994  11.341  2.5607 -1.9671 -0.4829
  314TMC3    H2 4780   3.470   2.285  11.166 -0.7271 -0.2410  0.3521
  314TMC3    C7 4781   3.262   2.113  11.111 -0.9446  0.0027  0.0057
  314TMC3    C8 4782   3.619   2.314  11.357  0.2053 -0.1715 -0.3972
  314TMC3    O1 4783   3.202   2.006  11.117  0.4764  0.1640  0.2340
  314TMC3    O2 4784   3.621   2.404  11.276  0.9501  0.4460 -0.0842
  315MPD2     C 4785   3.022   3.939  17.408  0.3444 -0.1950 -0.0503
  315MPD2    C1 4786   3.000   3.961  17.540 -0.1499 -0.2367  0.6738
  315MPD2    C2 4787   3.045   4.085  17.590  0.2775 -0.4929 -0.1123
  315MPD2    C3 4788   3.100   4.178  17.502  0.6467 -0.4503 -0.3272
  315MPD2    C4 4789   3.106   4.151  17.363 -0.2556  1.0006 -0.4487
  315MPD2    C5 4790   3.070   4.028  17.321  0.4062  0.3271  0.4355
  315MPD2     H 4791   3.020   4.110  17.692  0.1226 -0.6924 -0.1009
  315MPD2    H1 4792   3.152   4.217  17.290 -2.2624  1.4485 -1.2879
  315MPD2    H2 4793   2.999   3.845  17.360  1.4110 -0.5998  0.2275
  315MPD2    H3 4794   3.092   3.991  17.222  1.1039  1.2336  0.2533
  315MPD2     N 4795   3.142   4.293  17.565  0.3941  0.4828  0.4040
  315MPD2    H5 4796   3.127   4.299  17.665  1.8904  0.3829  0.6325
  315MPD2    N1 4797   2.950   3.866  17.633  0.6060  0.4327 -0.3983
  315MPD2    H7 4798   2.955   3.893  17.731 -0.5505  0.1178 -0.2494
  316TMC3    C1 4799   3.255   4.493  17.594  0.2924 -0.1169 -0.0100
  316TMC3    C2 4800   3.320   4.449  17.709  0.1721 -0.0368  0.3184
  316TMC3    C3 4801   3.380   4.551   0.027  0.1058  0.1723 -0.5640
  316TMC3    C4 4802   3.253   4.623  17.548 -0.4115 -0.0041 -0.4221
  316TMC3    C5 4803   3.307   4.720  17.628 -0.7090  0.1634  0.3210
  316TMC3    C6 4804   3.364   4.684  17.744  0.5840 -0.3359  0.2158
  316TMC3     C 4805   3.201   4.398  17.507 -0.3012 -0.0554 -0.0537
  316TMC3     O 4806   3.214   4.416  17.386  0.6093 -0.4216 -0.2756
  316TMC3     H 4807   3.317   4.346  17.743 -2.5392  0.3148  1.0863
  316TMC3    H1 4808   3.192   4.638  17.460  1.3302  0.0961 -1.6102
  316TMC3    H2 4809   3.405   0.022   0.058  1.2185 -0.2874 -0.2367
  316TMC3    C7 4810   3.281   0.119  17.617 -0.1284 -0.2793 -0.0436
  316TMC3    C8 4811   3.408   4.534   0.171 -0.4639 -0.3880  1.0879
  316TMC3    O1 4812   3.226   0.173  17.711 -0.0655 -0.1546  0.2169
  316TMC3    O2 4813   3.420   4.638   0.236  0.6788  0.3900 -0.1861
  317MPD2     C 4814   0.182   3.534  13.171  0.4666  0.2516 -0.4270
  317MPD2    C1 4815   0.286   3.451  13.137  0.7333  0.2503  0.0855
  317MPD2    C2 4816   0.370   3.404  13.241 -0.4843  0.6760  0.2035
  317MPD2    C3 4817   0.354   3.432  13.373 -0.5647  0.0317 -0.0621
  317MPD2    C4 4818   0.255   3.514  13.407  0.5391  0.0387  0.2667
  317MPD2    C5 4819   0.178   3.569  13.303 -0.1954 -0.2683 -0.1702
  317MPD2     H 4820   0.455   3.345  13.209 -0.7693  1.9386 -2.8573
  317MPD2    H1 4821   0.231   3.544  13.508 -1.5851 -0.8050  0.0163
  317MPD2    H2 4822   0.121   3.571  13.090  2.4255  2.6988 -0.7698
  317MPD2    H3 4823   0.119   3.656  13.328 -0.0919 -0.3860  0.4691
  317MPD2     N 4824   0.442   3.362  13.464  0.1184 -0.4916 -0.0951
  317MPD2    H5 4825   0.499   3.288  13.425 -1.6133 -1.5631 -0.5833
  317MPD2    N1 4826   0.314   3.403  13.008  0.3321 -0.3314  0.1458
  317MPD2    H7 4827   0.386   3.332  12.998  0.8340  0.1394  0.3905
  318TMC3    C1 4828   0.526   3.268  13.653 -0.1760  0.0913  0.3242
  318TMC3    C2 4829   0.506   3.146  13.607  0.6684 -0.0906  0.2776
  318TMC3    C3 4830   0.599   3.054  13.636 -0.1563 -0.2613  0.0315
  318TMC3    C4 4831   0.624   3.306  13.742  0.4280  0.3168  0.4843
  318TMC3    C5 4832   0.712   3.209  13.776 -0.3132 -0.6459 -0.4118
  318TMC3    C6 4833   0.703   3.080  13.720 -0.5370  0.2860 -0.0455
  318TMC3     C 4834   0.443   3.380  13.601 -0.1809  1.0207 -0.4164
  318TMC3     O 4835   0.409   3.473  13.671  0.0133 -0.0102  0.3670
  318TMC3     H 4836   0.425   3.131  13.537  1.0592  0.8125 -0.3698
  318TMC3    H1 4837   0.625   3.410  13.772  2.9562  0.3822  0.0964
  318TMC3    H2 4838   0.768   3.000  13.754  0.8337  1.5265  0.2568
  318TMC3    C7 4839   0.814   3.243  13.878 -0.5324  0.6265 -0.2821
  318TMC3    C8 4840   0.572   2.920  13.592 -0.1626 -0.0232 -0.1411
  318TMC3    O1 4841   0.826   3.362  13.906 -0.2919  0.2039  0.4164
  318TMC3    O2 4842   0.635   2.833  13.650  0.3829 -0.4057  0.5420
  319MPD2     C 4843   1.695   4.419  16.197  0.2829 -0.3853  0.4211
  319MPD2    C1 4844   1.616   4.443  16.308 -0.5739  0.2638 -0.9478
  319MPD2    C2 4845   1.481   4.452  16.293 -0.3289  0.5487  0.5401
  319MPD2    C3 4846   1.417   4.448  16.171  0.1025 -0.3327 -0.6002
  319MPD2    C4 4847   1.499   4.418  16.061  0.3476  0.1512  0.6282
  319MPD2    C5 4848   1.636   4.407  16.075 -0.6005 -0.8255 -0.6522
  319MPD2     H 4849   1.426   4.471  16.385 -1.4428  2.1708 -0.4531
  319MPD2    H1 4850   1.470   4.394  15.960  2.1184  0.5905  0.0238
  319MPD2    H2 4851   1.802   4.407  16.201  0.2796 -0.7225 -0.3358
  319MPD2    H3 4852   1.702   4.375  15.995 -0.2506  2.0764 -1.5230
  319MPD2     N 4853   1.280   4.447  16.159 -0.4842  0.5167 -0.1160
  319MPD2    H5 4854   1.250   4.427  16.064 -1.7344 -1.0206  0.6045
  319MPD2    N1 4855   1.673   4.448  16.436  0.4976  0.6797  0.5802
  319MPD2    H7 4856   1.599   4.427  16.503 -1.0904 -1.0412 -1.6969
  320TMC3    C1 4857   1.058   4.405  16.215 -0.0317  0.5898  0.7607
  320TMC3    C2 4858   1.007   4.437  16.090  0.6012 -0.0106  0.0018
  320TMC3    C3 4859   0.881   4.395  16.066 -0.5339  0.4156 -0.1538
  320TMC3    C4 4860   0.988   4.334  16.308 -0.3485  0.5935 -0.3020
  320TMC3    C5 4861   0.855   4.317  16.286 -0.0633 -0.1125 -0.9414
  320TMC3    C6 4862   0.797   4.342  16.159 -0.2820 -0.1982 -0.4752
  320TMC3     C 4863   1.190   4.450  16.261 -0.0452  0.1557 -0.1285
  320TMC3     O 4864   1.207   4.459  16.383 -0.5908 -0.0571 -0.1886
  320TMC3     H 4865   1.057   4.495  16.013  0.9654 -1.1336 -0.6003
  320TMC3    H1 4866   1.031   4.320  16.407  1.1299  0.5242 -0.9581
  320TMC3    H2 4867   0.693   4.325  16.138  0.1214 -1.9913 -1.0123
  320TMC3    C7 4868   0.781   4.222  16.374  1.4172  0.2424  0.0597
  320TMC3    C8 4869   0.837   4.411  15.930  0.3826  0.6006 -0.7535
  320TMC3    O1 4870   0.702   4.144  16.326  0.1969 -0.3932  0.5883
  320TMC3    O2 4871   0.899   4.482  15.854 -0.5416  0.9445  0.3732
  321TMC3    C1 4872   1.831   4.450  16.615 -0.2352 -0.2959 -0.0451
  321TMC3    C2 4873   1.730   4.457  16.707 -0.5413  0.2737  0.6509
  321TMC3    C3 4874   1.762   4.486  16.835 -0.2681 -1.0718 -0.9092
  321TMC3    C4 4875   1.962   4.448  16.647  0.3542  0.1903  0.2646
  321TMC3    C5 4876   1.992   4.468  16.783 -0.0068  0.0246  0.1600
  321TMC3    C6 4877   1.888   4.502  16.871  0.4026 -0.4266 -0.6305
  321TMC3     C 4878   1.806   4.459  16.468 -0.2628  0.4592 -0.0893
  321TMC3     O 4879   1.899   4.485  16.395 -0.1146 -0.2282 -0.4659
  321TMC3     H 4880   1.624   4.454  16.685 -0.3462 -1.7892  0.0373
  321TMC3    H1 4881   2.043   4.426  16.577  0.6611  0.2280  0.6078
  321TMC3    H2 4882   1.923   4.529  16.970 -0.3142 -0.0664 -0.4719
  321TMC3    C7 4883   2.085   4.363  16.840  0.2749  0.1006 -0.4901
  321TMC3    C8 4884   1.674   4.429  16.936 -0.0014  0.5384 -0.7752
  321TMC3    O1 4885   2.037   4.314  16.941  0.2369 -0.0578 -0.0834
  321TMC3    O2 4886   1.550   4.457  16.934 -0.0927 -0.0282  0.5516
  322MPD2     C 4887   0.039   1.292  13.660  0.8378 -0.8696  0.1783
  322MPD2    C1 4888   0.100   1.188  13.739  0.0674 -0.2397 -0.0283
  322MPD2    C2 4889   0.124   1.066  13.680 -0.1820 -0.5011 -0.4860
  322MPD2    C3 4890   0.109   1.042  13.544 -0.2537  0.8145  0.0416
  322MPD2    C4 4891   0.046   1.138  13.471 -0.1315  0.3668 -0.3096
  322MPD2    C5 4892   0.003   1.256  13.527  0.1514 -0.3874 -0.0889
  322MPD2     H 4893   0.165   0.983  13.738  0.6635  1.7442  2.1223
  322MPD2    H1 4894   0.019   1.105  13.371  1.1722 -0.1624 -0.4939
  322MPD2    H2 4895   0.024   1.390  13.704  2.4505 -0.2342 -0.6976
  322MPD2    H3 4896   4.684   1.321  13.462  1.0368  0.6148  0.1163
  322MPD2     N 4897   0.144   0.912  13.497  1.1549  0.2392 -0.8502
  322MPD2    H5 4898   0.184   0.847  13.564 -1.5747 -0.1204  0.4355
  322MPD2    N1 4899   0.124   1.215  13.876 -0.6338 -0.1359 -0.5018
  322MPD2    H7 4900   0.113   1.309  13.912 -1.7187 -0.5272  0.1752
  323TMC3    C1 4901   0.243   1.169  14.073  0.2094  0.0564  0.1936
  323TMC3    C2 4902   0.332   1.268  14.045  0.4216  0.5316  0.4816
  323TMC3    C3 4903   0.435   1.290  14.131 -0.4389  0.0592  0.3619
  323TMC3    C4 4904   0.265   1.093  14.184 -0.1576 -0.2641 -0.3704
  323TMC3    C5 4905   0.362   1.123  14.271  0.0221 -0.1510  0.5371
  323TMC3    C6 4906   0.458   1.216  14.241 -0.0980 -0.5493  0.7378
  323TMC3     C 4907   0.155   1.120  13.969 -0.0220 -0.5454  0.0685
  323TMC3     O 4908   0.123   0.999  13.969 -0.4369 -0.0161 -0.0272
  323TMC3     H 4909   0.328   1.329  13.956  4.3404 -0.4045 -0.3384
  323TMC3    H1 4910   0.197   1.012  14.205 -1.8798  1.2926  0.0440
  323TMC3    H2 4911   0.547   1.222  14.302 -0.2433  0.6441  0.8267
  323TMC3    C7 4912   0.391   1.011  14.368 -0.1861 -0.1876 -0.3635
  323TMC3    C8 4913   0.552   1.347  14.061  0.4986 -0.4322 -0.2737
  323TMC3    O1 4914   0.394   0.903  14.305 -0.1033  0.4453  0.0956
  323TMC3    O2 4915   0.659   1.289  14.088 -0.2290 -0.8650  0.1873
  324MPD2     C 4916   1.834   2.327  14.037  0.6298  0.1479 -0.2854
  324MPD2    C1 4917   1.883   2.427  14.112 -0.2225  0.1682  0.2031
  324MPD2    C2 4918   1.794   2.499  14.196  0.0126  0.0005  0.6278
  324MPD2    C3 4919   1.662   2.454  14.214 -0.1948  0.2189  0.1434
  324MPD2    C4 4920   1.614   2.355  14.136  0.4498  0.0801  0.4192
  324MPD2    C5 4921   1.699   2.295  14.052 -0.5406 -0.6954 -0.1704
  324MPD2     H 4922   1.830   2.585  14.250 -0.3260 -0.4831  1.6214
  324MPD2    H1 4923   1.514   2.314  14.151  0.4386 -0.0606 -0.0217
  324MPD2    H2 4924   1.889   2.262  13.970  1.9679  1.4818 -0.4794
  324MPD2    H3 4925   1.661   2.207  14.002  0.8346 -0.5339 -1.4844
  324MPD2     N 4926   1.571   2.517  14.302 -0.0759  0.2024 -0.0068
  324MPD2    H5 4927   1.473   2.492  14.302 -0.2949  1.0630 -0.1525
  324MPD2    N1 4928   2.015   2.466  14.101 -0.2464 -0.0776 -0.3135
  324MPD2    H7 4929   2.058   2.518  14.177  1.0334  1.3356 -2.0000
  325TMC3    C1 4930   1.462   2.691  14.404 -0.4730  0.6005 -0.0881
  325TMC3    C2 4931   1.361   2.648  14.330  0.2645  0.4283 -0.7152
  325TMC3    C3 4932   1.243   2.599  14.386  0.3642  0.1340 -0.3738
  325TMC3    C4 4933   1.436   2.721  14.527  0.1658  0.1173  0.1815
  325TMC3    C5 4934   1.316   2.694  14.587  0.4147  0.3646  0.0257
  325TMC3    C6 4935   1.211   2.626  14.519 -0.5446 -0.1555 -0.5454
  325TMC3     C 4936   1.593   2.632  14.372  0.3708 -0.9555  0.1607
  325TMC3     O 4937   1.696   2.684  14.419 -0.5832 -0.1664 -0.2347
  325TMC3     H 4938   1.367   2.639  14.222 -2.5407  1.1792 -0.9434
  325TMC3    H1 4939   1.511   2.774  14.584 -0.2800  2.4970 -1.4385
  325TMC3    H2 4940   1.112   2.615  14.563 -0.6472 -0.6687 -0.8969
  325TMC3    C7 4941   1.301   2.732  14.732  0.2153 -0.3674 -0.4664
  325TMC3    C8 4942   1.220   2.456  14.347  0.3052 -0.9525 -0.3224
  325TMC3    O1 4943   1.391   2.798  14.784 -0.6262  0.6659  0.1371
  325TMC3    O2 4944   1.298   2.412  14.265 -0.2535 -0.0696 -0.1614
  326MPD2     C 4945   2.770   3.985  11.365  0.2364 -0.0783 -0.3268
  326MPD2    C1 4946   2.806   4.064  11.260 -0.1728 -0.3334  0.1909
  326MPD2    C2 4947   2.924   4.137  11.274  0.5218 -0.2039  0.3464
  326MPD2    C3 4948   2.995   4.146  11.387  0.6571  0.5782  0.0232
  326MPD2    C4 4949   2.953   4.065  11.491  0.4996  0.6225 -0.0097
  326MPD2    C5 4950   2.842   3.989  11.482  0.3999  0.0925  0.4528
  326MPD2     H 4951   2.946   4.197  11.187 -1.6905 -2.9519 -2.0765
  326MPD2    H1 4952   3.007   4.070  11.585 -0.5055 -0.4110  0.6307
  326MPD2    H2 4953   2.681   3.924  11.357  0.1359  0.2996 -2.1256
  326MPD2    H3 4954   2.803   3.940  11.571 -0.4752 -0.7605 -0.3992
  326MPD2     N 4955   3.112   4.224  11.408 -0.1470 -0.2297  0.1067
  326MPD2    H5 4956   3.144   4.221  11.504  0.3938 -1.0535 -0.1016
  326MPD2    N1 4957   2.738   4.076  11.139 -0.5142 -0.2580 -0.5475
  326MPD2    H7 4958   2.766   4.149  11.075  0.6537 -1.6628 -1.6557
  327TMC3    C1 4959   2.659   3.988  10.940  1.2123  0.0455  0.6488
  327TMC3    C2 4960   2.580   4.099  10.910  0.4315 -1.1245  0.4578
  327TMC3    C3 4961   2.603   4.152  10.789  0.4174  0.3046  0.0474
  327TMC3    C4 4962   2.748   3.930  10.854  0.3847 -0.0458 -0.0845
  327TMC3    C5 4963   2.766   3.987  10.729 -0.1134 -0.0007 -0.7273
  327TMC3    C6 4964   2.691   4.094  10.699 -0.4081  0.5106 -0.4728
  327TMC3     C 4965   2.672   3.966  11.084 -0.5829  0.9269  0.3440
  327TMC3     O 4966   2.675   3.852  11.134 -0.5316 -0.0839 -0.0921
  327TMC3     H 4967   2.520   4.149  10.986  1.0818 -1.5927  1.2813
  327TMC3    H1 4968   2.812   3.848  10.883  0.4766 -0.5213 -1.6039
  327TMC3    H2 4969   2.721   4.154  10.614  1.4014 -0.4332 -0.5015
  327TMC3    C7 4970   2.902   4.014  10.687  0.1125  0.3715  0.2424
  327TMC3    C8 4971   2.511   4.250  10.736 -0.4333 -0.5165 -0.1125
  327TMC3    O1 4972   2.929   4.089  10.596  0.1625 -0.2606 -0.3964
  327TMC3    O2 4973   2.565   4.319  10.649  0.3017  0.0416  0.5221
  328MPD2     C 4974   0.711   2.638  17.091 -0.3727  0.2721  0.0278
  328MPD2    C1 4975   0.654   2.734  17.163  0.1721 -0.4931  0.2097
  328MPD2    C2 4976   0.559   2.813  17.102 -0.4774 -0.2709 -0.1194
  328MPD2    C3 4977   0.528   2.790  16.967 -0.2169 -0.1943  0.0548
  328MPD2    C4 4978   0.573   2.675  16.903  0.2533 -0.2670  0.1817
  328MPD2    C5 4979   0.674   2.608  16.964 -0.6616  0.0152 -0.5006
  328MPD2     H 4980   0.525   2.901  17.155  0.1111  0.5478 -1.1130
  328MPD2    H1 4981   0.546   2.652  16.801 -0.5141 -2.2937  0.8425
  328MPD2    H2 4982   0.775   2.563  17.137  2.1788  2.7520  0.5069
  328MPD2    H3 4983   0.737   2.540  16.908  1.5410  0.0815  1.9065
  328MPD2     N 4984   0.431   2.865  16.893  0.8922  0.3002 -0.6470
  328MPD2    H5 4985   0.391   2.820  16.811 -0.0429  0.9623 -0.5585
  328MPD2    N1 4986   0.695   2.753  17.293  0.4724  0.3740 -0.0789
  328MPD2    H7 4987   0.785   2.708  17.307  0.5184  0.2068 -0.8872
  329TMC3    C1 4988   0.699   2.838  17.514  0.6041  0.8045 -0.1741
  329TMC3    C2 4989   0.629   2.825  17.627  0.7893  0.5105  0.4355
  329TMC3    C3 4990   0.701   2.809  17.748  0.1829 -0.0939 -0.1848
  329TMC3    C4 4991   0.832   2.834  17.505 -0.2455  0.0132 -0.7847
  329TMC3    C5 4992   0.895   2.829  17.626  0.1504  0.1628  0.2840
  329TMC3    C6 4993   0.834   2.822  17.749 -0.1437  0.5881  0.0808
  329TMC3     C 4994   0.626   2.820  17.393  0.2162  0.1579  0.0494
  329TMC3     O 4995   0.512   2.860  17.380 -0.1399 -0.3078  0.1204
  329TMC3     H 4996   0.523   2.845  17.625  0.7816  0.4524  0.2394
  329TMC3    H1 4997   0.876   2.868  17.412  2.7826  1.0062  1.0101
  329TMC3    H2 4998   0.880   2.806   0.095 -0.1091 -0.0134 -0.0349
  329TMC3    C7 4999   1.032   2.870  17.638  0.0440  0.1246 -0.0928
  329TMC3    C8 5000   0.639   2.800   0.133 -0.2360  0.2985  0.5006
  329TMC3    O1 5001   1.076   2.923  17.740  0.3575 -0.6845 -0.2682
  329TMC3    O2 5002   0.709   2.796   0.234  0.5085  0.0159 -0.0594
  330TMC3    C1 5003   3.786   3.486  10.053 -0.4366 -0.6431  0.4413
  330TMC3    C2 5004   3.702   3.416   9.971  0.4816 -0.4167  0.1946
  330TMC3    C3 5005   3.665   3.282   9.992  0.3246 -0.8330  0.2193
  330TMC3    C4 5006   3.834   3.420  10.164 -0.8016  0.2178 -0.4475
  330TMC3    C5 5007   3.795   3.290  10.185 -0.1145  0.5698 -0.3151
  330TMC3    C6 5008   3.705   3.223  10.110 -0.2252  0.6082  0.5078
  330TMC3     C 5009   3.789   3.634  10.061 -0.3334  0.0810  0.1821
  330TMC3     O 5010   3.842   3.677  10.164  0.3799  0.4272  0.2012
  330TMC3     H 5011   3.650   3.475   9.896  1.3397  1.4335  1.0540
  330TMC3    H1 5012   3.878   3.470  10.249 -2.7909 -0.6699  1.1165
  330TMC3    H2 5013   3.687   3.120  10.139 -1.1863  1.3597  2.5958
  330TMC3    C7 5014   3.851   3.229  10.304  0.3392 -0.1065  0.2793
  330TMC3    C8 5015   3.579   3.231   9.892 -0.4707 -0.4504  0.2257
  330TMC3    O1 5016   3.785   3.146  10.363  0.1810  0.1451  0.0953
  330TMC3    O2 5017   3.528   3.316   9.816 -0.8575 -0.3611 -0.2843
  331MPD2     C 5018   1.032   1.782  12.807 -0.8964  0.0509 -0.4109
  331MPD2    C1 5019   1.173   1.784  12.796  0.1408 -0.1187 -0.4956
  331MPD2    C2 5020   1.243   1.664  12.799  0.1649 -0.3500 -0.0099
  331MPD2    C3 5021   1.183   1.540  12.820  0.4140  0.3420 -0.8660
  331MPD2    C4 5022   1.051   1.543  12.842 -0.5763 -0.1459 -0.1887
  331MPD2    C5 5023   0.974   1.663  12.841  0.0250 -0.6097  0.1080
  331MPD2     H 5024   1.350   1.656  12.786  0.3346  1.5823  0.2389
  331MPD2    H1 5025   1.007   1.452  12.881  0.7875 -0.2117  1.1904
  331MPD2    H2 5026   0.968   1.869  12.797  0.4789  1.0965 -0.1789
  331MPD2    H3 5027   0.866   1.657  12.850 -0.0427 -0.7704 -0.7947
  331MPD2     N 5028   1.260   1.423  12.824 -0.9990  0.8181 -0.3182
  331MPD2    H5 5029   1.357   1.438  12.798 -1.0390 -0.0509 -0.9716
  331MPD2    N1 5030   1.239   1.911  12.784 -0.0354 -0.5200 -0.1700
  331MPD2    H7 5031   1.182   1.995  12.789 -0.2272 -0.7193  1.0907
  332TMC3    C1 5032   1.324   1.202  12.819 -0.0094 -0.1142 -0.1205
  332TMC3    C2 5033   1.381   1.228  12.700 -0.7942  0.0865  0.5141
  332TMC3    C3 5034   1.498   1.170  12.676 -0.1981 -0.8699  0.1412
  332TMC3    C4 5035   1.388   1.119  12.913 -0.0204  1.2257  0.7371
  332TMC3    C5 5036   1.516   1.077  12.888  0.0098  0.3584 -0.1436
  332TMC3    C6 5037   1.579   1.105  12.769 -0.2260 -0.2342  0.0208
  332TMC3     C 5038   1.220   1.293  12.860  0.7279 -0.3177 -0.1183
  332TMC3     O 5039   1.132   1.246  12.933  0.2412 -0.5428  0.0857
  332TMC3     H 5040   1.323   1.277  12.622  1.8051  1.7479 -0.3615
  332TMC3    H1 5041   1.334   1.103  13.005  1.0269  1.0304  1.3219
  332TMC3    H2 5042   1.682   1.079  12.750  0.2056  0.4632  1.3563
  332TMC3    C7 5043   1.594   1.039  13.007 -0.1668 -0.1469 -0.2379
  332TMC3    C8 5044   1.573   1.214  12.567 -0.1930  0.6459  0.2797
  332TMC3    O1 5045   1.530   0.998  13.106 -0.8042  0.0005  0.2067
  332TMC3    O2 5046   1.682   1.259  12.605  0.4174  0.5350  0.5125
  333MPD2     C 5047   2.051   2.023  11.282 -0.0704  0.5432 -0.0939
  333MPD2    C1 5048   1.976   2.069  11.180 -0.3305 -0.9775  0.0551
  333MPD2    C2 5049   1.842   2.040  11.177 -0.2704  0.5341 -1.1185
  333MPD2    C3 5050   1.783   1.965  11.278  0.2376 -0.2244 -0.7649
  333MPD2    C4 5051   1.862   1.920  11.384 -0.1430  0.6019  0.5908
  333MPD2    C5 5052   1.994   1.949  11.381  0.5052 -0.7714 -0.4572
  333MPD2     H 5053   1.783   2.071  11.092  0.0443  1.0305 -1.1569
  333MPD2    H1 5054   1.823   1.867  11.470 -2.6274  0.3046 -0.7306
  333MPD2    H2 5055   2.158   2.042  11.289  0.4596 -1.9359 -1.4817
  333MPD2    H3 5056   2.058   1.915  11.461 -1.4460 -0.4993  1.2097
  333MPD2     N 5057   1.649   1.929  11.260  0.5169  0.0832 -0.0977
  333MPD2    H5 5058   1.611   1.961  11.172 -1.2582  0.4189  0.7994
  333MPD2    N1 5059   2.044   2.143  11.080 -0.2034 -0.4812 -0.2655
  333MPD2    H7 5060   2.146   2.145  11.078 -0.2402  2.4324 -0.0853
  334TMC3    C1 5061   2.055   2.282  10.888 -0.4656 -0.2937 -0.9114
  334TMC3    C2 5062   2.169   2.213  10.862  0.0333 -0.3346  0.2354
  334TMC3    C3 5063   2.249   2.272  10.769  1.0428 -0.1695  0.0052
  334TMC3    C4 5064   2.018   2.404  10.833 -0.9292  0.5379 -0.1832
  334TMC3    C5 5065   2.108   2.467  10.751 -0.8061 -0.5345 -0.5595
  334TMC3    C6 5066   2.220   2.396  10.709 -0.2302  1.1459  0.1587
  334TMC3     C 5067   1.972   2.223  10.990  0.4171 -0.3440 -0.3774
  334TMC3     O 5068   1.860   2.272  11.001 -0.0298 -0.3336 -0.0477
  334TMC3     H 5069   2.187   2.113  10.900 -0.0554 -0.1355  0.7938
  334TMC3    H1 5070   1.928   2.451  10.870 -1.9330 -0.8153 -0.9115
  334TMC3    H2 5071   2.292   2.451  10.650  0.0192  3.3382  2.5357
  334TMC3    C7 5072   2.077   2.604  10.706 -0.5674  0.0594  0.0587
  334TMC3    C8 5073   2.371   2.206  10.741 -0.6686  0.1606 -0.4014
  334TMC3    O1 5074   2.000   2.672  10.774  0.1062  0.2200 -0.0589
  334TMC3    O2 5075   2.364   2.080  10.755  0.1006 -0.2368  0.8764
  335TMC3    C1 5076   1.091   2.565  16.660  0.7139 -0.3849  0.7373
  335TMC3    C2 5077   0.979   2.511  16.606  0.0445  0.9535  0.0522
  335TMC3    C3 5078   0.972   2.376  16.576  0.8972  0.7862  0.1776
  335TMC3    C4 5079   1.196   2.484  16.693  0.2417 -0.9663 -0.3685
  335TMC3    C5 5080   1.191   2.346  16.666 -0.3635 -0.1113  0.1465
  335TMC3    C6 5081   1.072   2.296  16.606 -0.2530 -0.3904 -0.2934
  335TMC3     C 5082   1.061   2.686  16.731 -0.3059  1.1242 -0.5857
  335TMC3     O 5083   0.945   2.715  16.735  0.6138  0.3319  0.0352
  335TMC3     H 5084   0.890   2.568  16.580  0.9361  1.6778 -1.4487
  335TMC3    H1 5085   1.285   2.523  16.741 -0.9579  1.6151 -0.2740
  335TMC3    H2 5086   1.074   2.191  16.580  0.2621 -0.1077 -1.3843
  335TMC3    C7 5087   1.258   2.256  16.754  0.5109  0.5913 -0.2602
  335TMC3    C8 5088   0.845   2.316  16.557  0.4267  0.4015  0.1215
  335TMC3    O1 5089   1.194   2.154  16.786 -0.0884  0.3513  0.2921
  335TMC3    O2 5090   0.749   2.389  16.570  0.1470  0.2997  0.4085
  336MPD2     C 5091   1.019   0.850  16.466 -0.1690 -0.5929  0.3997
  336MPD2    C1 5092   0.971   0.786  16.353 -0.7001  1.0777 -0.5814
  336MPD2    C2 5093   0.962   0.642  16.349 -0.3876  0.1287  0.0657
  336MPD2    C3 5094   1.000   0.566  16.455 -0.0757 -0.0842 -0.0466
  336MPD2    C4 5095   1.057   0.637  16.556  0.2744 -0.1891  0.3896
  336MPD2    C5 5096   1.064   0.772  16.565  0.0620 -0.4672  0.5765
  336MPD2     H 5097   0.929   0.605  16.253  0.4046 -1.5675  0.4394
  336MPD2    H1 5098   1.077   0.588  16.651  0.9516 -1.4471 -0.4096
  336MPD2    H2 5099   1.028   0.958  16.475  0.5828 -0.6270  0.0862
  336MPD2    H3 5100   1.103   0.820  16.654 -0.3079 -0.7281  0.8783
  336MPD2     N 5101   0.978   0.423  16.462  0.2512  0.2454  0.0280
  336MPD2    H5 5102   1.036   0.372  16.528  1.2531  1.9409  0.4774
  336MPD2    N1 5103   0.939   0.859  16.237 -0.1500  0.6982  0.3526
  336MPD2    H7 5104   0.938   0.813  16.147 -0.2075  0.2987  0.5588
  337TMC3    C1 5105   0.884   1.040  16.089  0.2961 -0.0598 -0.3387
  337TMC3    C2 5106   0.797   1.146  16.081  0.6701 -0.5905 -0.0313
  337TMC3    C3 5107   0.796   1.225  15.971 -0.5150 -0.3536  0.0564
  337TMC3    C4 5108   0.982   1.025  16.000  0.7463 -0.4161 -0.1397
  337TMC3    C5 5109   0.989   1.118  15.897 -0.5893 -0.0225 -0.2781
  337TMC3    C6 5110   0.896   1.218  15.876 -0.1369  0.5738 -0.4386
  337TMC3     C 5111   0.913   0.993  16.233  0.2689  0.2829  0.0947
  337TMC3     O 5112   0.866   1.061  16.322  0.1981 -0.1970 -0.4611
  337TMC3     H 5113   0.727   1.150  16.163 -0.9851  1.4701 -1.5268
  337TMC3    H1 5114   1.064   0.959  16.026  1.3214 -0.9969 -3.3517
  337TMC3    H2 5115   0.911   1.292  15.798 -0.6722 -0.1331 -1.2080
  337TMC3    C7 5116   1.115   1.127  15.822  0.6677 -0.0035  0.2767
  337TMC3    C8 5117   0.663   1.254  15.926  0.1273 -0.1386  0.3000
  337TMC3    O1 5118   1.134   1.232  15.759 -0.0919  0.5351  0.4218
  337TMC3    O2 5119   0.589   1.287  16.016  0.7183 -0.3515 -0.4950
  338MPD2     C 5120   1.772   4.615   0.867 -0.0956  0.1250  0.6262
  338MPD2    C1 5121   1.700   4.611   0.750 -0.2746  0.3655  0.8329
  338MPD2    C2 5122   1.562   4.609   0.757 -0.3568 -0.0566 -0.2580
  338MPD2    C3 5123   1.489   4.621   0.871 -0.2947 -0.5286 -0.0883
  338MPD2    C4 5124   1.560   4.625   0.989 -0.1045 -0.2460 -0.1927
  338MPD2    C5 5125   1.699   4.614   0.982 -0.0933 -0.1924  0.7430
  338MPD2     H 5126   1.510   4.599   0.662 -0.2719 -0.1920 -0.2896
  338MPD2    H1 5127   1.518   4.625   1.089  0.6538 -0.2819  0.1221
  338MPD2    H2 5128   1.880   4.618   0.869 -0.0354 -1.1144 -1.1551
  338MPD2    H3 5129   1.757   4.603   1.073  0.2819 -2.5138  0.2187
  338MPD2     N 5130   1.352   4.606   0.871  0.7712 -0.2872  0.1178
  338MPD2    H5 5131   1.307   4.591   0.781  0.1115  0.9290  0.2476
  338MPD2    N1 5132   1.774   4.595   0.628 -0.3202  0.5781  0.0879
  338MPD2    H7 5133   1.870   4.562   0.629 -0.5141  0.0133 -0.0777
  339TMC3    C1 5134   1.133   4.588   0.942  0.3255 -0.3908  0.6120
  339TMC3    C2 5135   1.036   4.626   1.025  0.4523 -0.5247 -0.3960
  339TMC3    C3 5136   0.910   4.610   0.980  0.1554  0.1316  0.2633
  339TMC3    C4 5137   1.107   4.530   0.823 -0.1954 -0.5288  0.7634
  339TMC3    C5 5138   0.980   4.526   0.778  1.0665  0.3777 -0.1714
  339TMC3    C6 5139   0.876   4.565   0.855  0.7687 -0.4687  0.2811
  339TMC3     C 5140   1.268   4.609   0.978 -0.5787 -0.0717  0.1823
  339TMC3     O 5141   1.283   4.609   1.100 -0.5336  0.2487  0.2384
  339TMC3     H 5142   1.064   4.650   1.127  1.2969 -0.3314 -0.6712
  339TMC3    H1 5143   1.191   4.494   0.765  0.5081  2.3983 -0.0407
  339TMC3    H2 5144   0.776   4.569   0.813  1.1262  3.2365 -0.1839
  339TMC3    C7 5145   0.964   4.440   0.661  0.2580 -0.3234 -0.5013
  339TMC3    C8 5146   0.807   4.631   1.082 -0.1874 -0.4826 -0.7368
  339TMC3    O1 5147   1.057   4.410   0.588 -0.0740  0.1008 -0.2093
  339TMC3    O2 5148   0.840   4.699   1.181 -0.0467  0.0018  0.1411
  340MPD2     C 5149   1.374   4.254  10.204  0.0151  0.2301 -0.0171
  340MPD2    C1 5150   1.356   4.123  10.163  0.3163 -0.6874 -0.2720
  340MPD2    C2 5151   1.321   4.028  10.259 -0.2732 -0.7941 -0.0681
  340MPD2    C3 5152   1.330   4.061  10.395 -0.3790  0.7415  0.2010
  340MPD2    C4 5153   1.359   4.190  10.429  0.6105 -0.5522 -0.0877
  340MPD2    C5 5154   1.379   4.282  10.332 -0.0957 -0.5018 -0.0672
  340MPD2     H 5155   1.288   3.928  10.238  0.8871 -0.7281 -2.1923
  340MPD2    H1 5156   1.359   4.215  10.534  1.5739 -1.3945  0.1029
  340MPD2    H2 5157   1.398   4.335  10.136  0.8687 -0.1037 -0.1163
  340MPD2    H3 5158   1.389   4.384  10.367 -1.7232 -0.9034  1.5761
  340MPD2     N 5159   1.312   3.976  10.497  0.3183 -0.7512  0.4472
  340MPD2    H5 5160   1.333   4.009  10.591  0.5384 -1.2344  0.5678
  340MPD2    N1 5161   1.390   4.095  10.020 -0.2098 -0.4223  0.1461
  340MPD2    H7 5162   1.413   4.170   9.957 -3.2434 -0.7389 -1.3126
  341TMC3    C1 5163   1.390   3.974   9.827  0.1687 -0.4199 -0.8191
  341TMC3    C2 5164   1.335   3.871   9.757  0.2905 -0.2116  0.1545
  341TMC3    C3 5165   1.355   3.868   9.620 -0.0544 -0.7246 -0.3641
  341TMC3    C4 5166   1.493   4.054   9.770  0.3106  0.1831 -0.1412
  341TMC3    C5 5167   1.505   4.042   9.631  1.2455  0.3986  0.0298
  341TMC3    C6 5168   1.439   3.946   9.556 -0.2835  0.1972 -0.7799
  341TMC3     C 5169   1.372   3.971   9.970 -0.5466 -0.6132 -0.3481
  341TMC3     O 5170   1.325   3.872  10.022  0.4169 -0.5010 -0.0207
  341TMC3     H 5171   1.270   3.805   9.812  0.4171 -0.4149  0.0594
  341TMC3    H1 5172   1.551   4.123   9.830  0.7280 -1.0119  0.8057
  341TMC3    H2 5173   1.455   3.937   9.449  1.7398 -0.1147 -0.4523
  341TMC3    C7 5174   1.596   4.127   9.565  0.5832  0.6267 -1.0541
  341TMC3    C8 5175   1.312   3.750   9.551 -0.5585 -0.4294 -0.6265
  341TMC3    O1 5176   1.623   4.098   9.449 -0.0625 -0.4509  0.9424
  341TMC3    O2 5177   1.291   3.767   9.431  0.4300  0.1410 -0.1429
  342MPD2     C 5178   3.856   0.812  17.474  0.5235  0.0309 -0.3722
  342MPD2    C1 5179   3.971   0.791  17.401 -0.1519  0.3227 -0.0047
  342MPD2    C2 5180   4.027   0.897  17.336 -0.5395  0.0791  0.2538
  342MPD2    C3 5181   3.965   1.024  17.347  0.6166 -0.8868  0.0187
  342MPD2    C4 5182   3.846   1.044  17.415 -0.6087 -0.0063  0.4991
  342MPD2    C5 5183   3.796   0.939  17.476 -0.2650 -0.0121 -0.6916
  342MPD2     H 5184   4.125   0.880  17.293 -0.4841 -0.7009  0.6865
  342MPD2    H1 5185   3.808   1.143  17.435 -2.2240 -0.2360 -1.4809
  342MPD2    H2 5186   3.799   0.734  17.524  3.4486 -1.5090  0.5530
  342MPD2    H3 5187   3.715   0.955  17.546  0.5749  0.1914  0.2270
  342MPD2     N 5188   4.017   1.142  17.291  0.2636 -0.3288  0.7292
  342MPD2    H5 5189   3.953   1.220  17.304 -0.7268 -0.9409 -0.5754
  342MPD2    N1 5190   4.029   0.662  17.381  0.2257  0.0923  0.3335
  342MPD2    H7 5191   4.114   0.659  17.325 -0.4394  2.2928 -0.7572
  343TMC3    C1 5192   4.039   0.418  17.380 -0.0661  0.4466  0.1548
  343TMC3    C2 5193   4.097   0.416  17.254  0.0113  0.4186 -0.2406
  343TMC3    C3 5194   4.121   0.294  17.193  0.5909 -0.4288  0.6150
  343TMC3    C4 5195   4.008   0.300  17.443 -0.1525 -0.5313  0.1123
  343TMC3    C5 5196   4.031   0.179  17.380  0.0107 -0.4184 -0.0891
  343TMC3    C6 5197   4.092   0.171  17.255  0.1685 -0.2446  0.8297
  343TMC3     C 5198   3.985   0.540  17.439 -0.1879 -0.1824 -0.2544
  343TMC3     O 5199   3.909   0.517  17.530  0.5840  1.2384 -0.2591
  343TMC3     H 5200   4.127   0.508  17.206  0.5610  0.3438 -0.0323
  343TMC3    H1 5201   3.969   0.302  17.544 -0.5400  0.1188 -0.0486
  343TMC3    H2 5202   4.090   0.077  17.201  0.1376 -0.2844  0.9007
  343TMC3    C7 5203   3.947   0.058  17.409 -0.5228 -0.5035 -0.7671
  343TMC3    C8 5204   4.167   0.291  17.061  0.9969 -0.1763  0.4393
  343TMC3    O1 5205   3.936   4.715  17.318 -0.9609 -0.7012 -0.0494
  343TMC3    O2 5206   4.162   0.402  17.004 -0.3495 -0.2045  0.2837
  344MPD2     C 5207   0.454   1.109  10.745 -0.0115 -1.0136  0.4530
  344MPD2    C1 5208   0.360   1.193  10.804  0.9185 -0.3547 -0.2064
  344MPD2    C2 5209   0.378   1.328  10.801 -0.3349 -0.1326 -0.2250
  344MPD2    C3 5210   0.498   1.380  10.751  1.0369  0.1408 -0.4051
  344MPD2    C4 5211   0.586   1.295  10.684  0.0876 -0.2816  0.0840
  344MPD2    C5 5212   0.562   1.159  10.677 -0.3417 -0.3183  0.4467
  344MPD2     H 5213   0.311   1.393  10.855  0.7174  0.2502  0.6041
  344MPD2    H1 5214   0.683   1.335  10.658  0.4718  0.1387  2.1050
  344MPD2    H2 5215   0.442   1.001  10.744  1.1252 -1.1227 -2.0512
  344MPD2    H3 5216   0.642   1.096  10.640  1.0691  1.6157  0.2350
  344MPD2     N 5217   0.541   1.511  10.758 -0.0516  0.3841  0.1381
  344MPD2    H5 5218   0.631   1.534  10.717  0.7293 -2.3817  0.2691
  344MPD2    N1 5219   0.236   1.146  10.865 -0.2004 -0.0169 -0.4390
  344MPD2    H7 5220   0.154   1.205  10.870 -0.1226  0.0631 -0.1154
  345TMC3    C1 5221   0.523   1.740  10.796 -0.0173 -0.3000  0.2470
  345TMC3    C2 5222   0.578   1.829  10.890 -0.5233 -0.0740 -0.2495
  345TMC3    C3 5223   0.634   1.940  10.837  0.4134 -0.1019  0.1102
  345TMC3    C4 5224   0.530   1.757  10.663  0.4762  0.1017  0.1404
  345TMC3    C5 5225   0.606   1.862  10.623 -0.0033  0.2822  0.0612
  345TMC3    C6 5226   0.658   1.950  10.705 -0.2643  0.5340  0.1041
  345TMC3     C 5227   0.482   1.609  10.834  0.4658  0.1457 -0.3647
  345TMC3     O 5228   0.419   1.597  10.937  0.1678 -0.4964 -0.2407
  345TMC3     H 5229   0.578   1.813  10.997  1.4500 -1.3005 -0.4187
  345TMC3    H1 5230   0.498   1.684  10.589  1.4045 -1.3771  1.1946
  345TMC3    H2 5231   0.728   2.021  10.663  2.2616 -1.7832  0.3471
  345TMC3    C7 5232   0.605   1.899  10.481 -0.5790 -0.2730 -0.2991
  345TMC3    C8 5233   0.674   2.057  10.911  0.0477  0.3108 -0.4934
  345TMC3    O1 5234   0.708   1.959  10.442  0.5957  0.3997 -0.1117
  345TMC3    O2 5235   0.686   2.154  10.835  0.0821  0.1140  0.4759
  346MPD2     C 5236   0.137   2.174  14.661  0.6580 -0.2144  0.3424
  346MPD2    C1 5237   0.185   2.302  14.642 -0.1122  0.5626 -0.2986
  346MPD2    C2 5238   0.256   2.368  14.738 -0.2123  0.3632 -0.7211
  346MPD2    C3 5239   0.265   2.310  14.862  0.2907 -1.0116 -0.1281
  346MPD2    C4 5240   0.208   2.194  14.886  0.1377 -0.9864  0.1071
  346MPD2    C5 5241   0.160   2.118  14.787 -0.4996 -0.1885  0.5713
  346MPD2     H 5242   0.317   2.450  14.703 -0.8939  0.9168 -0.6110
  346MPD2    H1 5243   0.220   2.144  14.982  1.1168 -0.9477  0.0076
  346MPD2    H2 5244   0.091   2.106  14.591 -2.3063  3.7759 -1.6053
  346MPD2    H3 5245   0.118   2.023  14.820 -0.6234 -1.1998 -2.4728
  346MPD2     N 5246   0.357   2.359  14.954  0.4304 -0.2398  0.4151
  346MPD2    H5 5247   0.419   2.433  14.923 -0.2997 -0.5193 -1.7021
  346MPD2    N1 5248   0.197   2.370  14.519 -0.3553 -0.2088 -0.3557
  346MPD2    H7 5249   0.278   2.430  14.502 -2.4218  2.9360  0.7795
  347TMC3    C1 5250   0.467   2.409  15.153 -0.5712  0.2553 -0.4517
  347TMC3    C2 5251   0.566   2.462  15.080 -1.0674 -0.6119 -0.4705
  347TMC3    C3 5252   0.663   2.526  15.155  0.5529  0.8185 -0.3269
  347TMC3    C4 5253   0.462   2.408  15.289 -0.3934  0.3312 -0.1520
  347TMC3    C5 5254   0.564   2.474  15.352 -0.3446  0.2360  0.2489
  347TMC3    C6 5255   0.663   2.540  15.285  0.0671  0.2761  0.4999
  347TMC3     C 5256   0.370   2.326  15.087 -0.7541 -0.1464 -0.8425
  347TMC3     O 5257   0.296   2.260  15.155 -0.1911 -0.4281 -0.1214
  347TMC3     H 5258   0.580   2.452  14.973 -0.9221  1.5136 -0.6554
  347TMC3    H1 5259   0.374   2.366  15.336 -0.2267  0.4605  0.2698
  347TMC3    H2 5260   0.748   2.579  15.340  1.0652 -2.0976  0.6455
  347TMC3    C7 5261   0.555   2.463  15.501 -0.1111  0.0498  0.2063
  347TMC3    C8 5262   0.749   2.605  15.070 -0.8812  0.5344 -0.1686
  347TMC3    O1 5263   0.465   2.386  15.537  0.1698  0.4666  0.1976
  347TMC3    O2 5264   0.740   2.600  14.948 -0.7867  0.4679  0.4828
  348MPD2     C 5265   4.497   2.109  11.797 -0.3262  0.1857  0.5038
  348MPD2    C1 5266   4.369   2.156  11.779  0.1007 -0.7039  0.2413
  348MPD2    C2 5267   4.349   2.291  11.748  0.4704  0.0247 -0.5894
  348MPD2    C3 5268   4.454   2.369  11.727 -0.8963 -0.3913  0.6814
  348MPD2    C4 5269   4.579   2.326  11.750  0.2003  0.1838  0.8580
  348MPD2    C5 5270   4.602   2.199  11.787  1.4880 -0.3964  0.1332
  348MPD2     H 5271   4.250   2.333  11.738 -0.0390 -1.4194 -1.6562
  348MPD2    H1 5272   4.669   2.386  11.743  0.6109 -0.5795 -0.4074
  348MPD2    H2 5273   4.510   2.003  11.814  0.1844  0.1309 -0.2540
  348MPD2    H3 5274   4.703   2.163  11.803  1.1480 -0.8141  1.3728
  348MPD2     N 5275   4.425   2.504  11.679  0.4443 -0.9485 -0.5002
  348MPD2    H5 5276   4.326   2.529  11.682  0.6443 -0.3004  0.7297
  348MPD2    N1 5277   4.252   2.080  11.796 -0.2446 -0.5764  0.4005
  348MPD2    H7 5278   4.162   2.127  11.789  0.2821  0.5145  1.1166
  349TMC3    C1 5279   4.108   1.913  11.877 -0.1676  1.0893  0.4510
  349TMC3    C2 5280   4.094   1.809  11.967 -0.3810  0.3878  0.4830
  349TMC3    C3 5281   3.973   1.788  12.027 -0.0514  0.5084 -0.6929
  349TMC3    C4 5282   3.995   1.982  11.829 -0.2212 -0.6554  0.7246
  349TMC3    C5 5283   3.872   1.954  11.893 -0.0221 -0.1489 -0.2555
  349TMC3    C6 5284   3.859   1.855  11.990 -0.1613 -0.0363 -0.5662
  349TMC3     C 5285   4.244   1.950  11.843 -0.3530 -0.3953  0.0111
  349TMC3     O 5286   4.330   1.866  11.867 -0.5037 -0.6505  0.1907
  349TMC3     H 5287   4.178   1.755  12.010  0.3304 -1.1534 -2.8607
  349TMC3    H1 5288   3.991   2.048  11.743  2.3087  0.6541  1.6027
  349TMC3    H2 5289   3.760   1.844  12.033 -0.4004 -0.8952 -1.3317
  349TMC3    C7 5290   3.749   2.034  11.869  0.0792 -0.1682 -0.0114
  349TMC3    C8 5291   3.972   1.734  12.158 -0.3246 -0.0660  0.7394
  349TMC3    O1 5292   3.647   1.980  11.900  0.1377  0.4026  0.5759
  349TMC3    O2 5293   4.063   1.750  12.231 -0.1797 -0.0625  0.6176
  350MPD2     C 5294   3.528   1.378  10.417  0.2050 -0.4506  0.5581
  350MPD2    C1 5295   3.393   1.350  10.416 -0.6289  0.2608 -0.3536
  350MPD2    C2 5296   3.335   1.300  10.533  0.2574  0.3076 -0.2474
  350MPD2    C3 5297   3.409   1.290  10.652 -0.2844  0.3896  0.7243
  350MPD2    C4 5298   3.545   1.312  10.650 -0.2107  0.1401  0.4295
  350MPD2    C5 5299   3.602   1.353  10.529  0.1555  0.9089 -0.8430
  350MPD2     H 5300   3.233   1.265  10.517  0.0661  0.5739  0.3726
  350MPD2    H1 5301   3.615   1.296  10.731  1.9852 -0.1204 -1.5202
  350MPD2    H2 5302   3.585   1.411  10.331 -0.9219 -1.1968 -0.4682
  350MPD2    H3 5303   3.710   1.354  10.517  0.2285 -0.8575 -0.3066
  350MPD2     N 5304   3.336   1.244  10.769  0.1188 -0.1742 -0.4384
  350MPD2    H5 5305   3.235   1.232  10.762 -0.0461 -0.6918  2.5987
  350MPD2    N1 5306   3.317   1.352  10.300 -0.1239 -0.0210  0.4061
  350MPD2    H7 5307   3.222   1.316  10.299  0.2527 -1.0155  2.3669
  351TMC3    C1 5308   3.287   1.358  10.060 -0.2131 -0.5001  0.0254
  351TMC3    C2 5309   3.200   1.246  10.066  0.0511  0.3955  0.6979
  351TMC3    C3 5310   3.190   1.180   9.944 -0.6429 -0.0279  0.4087
  351TMC3    C4 5311   3.342   1.420   9.940  0.2917 -0.1250  0.8479
  351TMC3    C5 5312   3.313   1.356   9.827  0.4393  0.2551 -0.3692
  351TMC3    C6 5313   3.242   1.234   9.826  0.0668  0.2831 -0.4966
  351TMC3     C 5314   3.355   1.411  10.178  0.1301  0.9959 -0.1118
  351TMC3     O 5315   3.431   1.506  10.155 -0.0737  0.1272 -0.4947
  351TMC3     H 5316   3.199   1.189  10.158 -2.4309  2.7548  2.1456
  351TMC3    H1 5317   3.404   1.507   9.925  0.3167 -0.1493  0.8107
  351TMC3    H2 5318   3.233   1.184   9.731 -0.3911  1.3009 -0.9830
  351TMC3    C7 5319   3.397   1.387   9.713 -0.5686  0.0061  0.0958
  351TMC3    C8 5320   3.203   1.037   9.946  0.3293  0.0401 -1.2777
  351TMC3    O1 5321   3.500   1.452   9.733 -0.1234  0.4702 -0.4510
  351TMC3    O2 5322   3.274   1.001   9.853  0.6825 -0.3954 -0.3785
  352MPD2     C 5323   1.026   1.692   1.224  0.5539  0.1407  0.0387
  352MPD2    C1 5324   1.016   1.697   1.090  0.0169  0.4472  0.5053
  352MPD2    C2 5325   1.079   1.601   1.011 -0.2531 -0.8387  0.2051
  352MPD2    C3 5326   1.152   1.501   1.069  0.2536 -0.2515 -0.3366
  352MPD2    C4 5327   1.165   1.496   1.208 -0.5337 -0.0383 -0.3520
  352MPD2    C5 5328   1.106   1.599   1.281  0.3590  0.2798 -0.3539
  352MPD2     H 5329   1.078   1.596   0.903  1.7305  0.6584  0.1030
  352MPD2    H1 5330   1.229   1.420   1.251  0.5734  1.1047  0.0317
  352MPD2    H2 5331   0.984   1.768   1.288  1.1226 -0.7014  1.4247
  352MPD2    H3 5332   1.111   1.594   1.390 -1.9988 -0.5811 -0.2790
  352MPD2     N 5333   1.229   1.410   0.995  0.2601 -0.7992  0.3137
  352MPD2    H5 5334   1.281   1.348   1.056  2.0418 -0.3492 -0.7394
  352MPD2    N1 5335   0.937   1.803   1.042 -0.2079  0.2098  0.6077
  352MPD2    H7 5336   0.896   1.857   1.118  0.1567 -1.7915  2.2013
  353TMC3    C1 5337   1.328   1.303   0.812 -0.1488  0.5408 -0.5632
  353TMC3    C2 5338   1.356   1.193   0.892  0.7735  0.6382  0.7452
  353TMC3    C3 5339   1.432   1.094   0.842 -0.4830 -0.8979  0.1178
  353TMC3    C4 5340   1.363   1.309   0.682 -0.6124 -0.2863 -0.1280
  353TMC3    C5 5341   1.449   1.214   0.639 -0.6145 -0.2737 -0.4537
  353TMC3    C6 5342   1.483   1.100   0.709  0.6117  0.0184 -0.2827
  353TMC3     C 5343   1.254   1.421   0.861  0.0903  0.5564 -0.5715
  353TMC3     O 5344   1.231   1.515   0.782  0.2542  0.1447  0.0879
  353TMC3     H 5345   1.314   1.176   0.990 -3.5635  3.3248 -0.6193
  353TMC3    H1 5346   1.330   1.388   0.615  1.1112 -0.1380 -0.8152
  353TMC3    H2 5347   1.551   1.027   0.668  1.0197  1.7371 -2.6660
  353TMC3    C7 5348   1.496   1.235   0.498  0.6820  0.3231  0.5654
  353TMC3    C8 5349   1.372   0.970   0.875  0.7435 -0.0522  0.0735
  353TMC3    O1 5350   1.507   1.352   0.460 -0.2636 -0.0045  0.0101
  353TMC3    O2 5351   1.253   0.962   0.908 -0.6363 -0.3314 -0.2024
  354TMC3    C1 5352   3.294   3.257  13.450  0.0629 -0.3377 -0.2525
  354TMC3    C2 5353   3.317   3.390  13.422 -0.5282  0.1231  0.2207
  354TMC3    C3 5354   3.355   3.423  13.294  0.2903 -0.2528 -0.5704
  354TMC3    C4 5355   3.283   3.167  13.350 -0.4189 -0.5485  0.2298
  354TMC3    C5 5356   3.306   3.206  13.221  0.2481  0.4148  1.1929
  354TMC3    C6 5357   3.356   3.330  13.197 -0.0770  0.3691  0.6047
  354TMC3     C 5358   3.229   3.213  13.574 -0.0617  0.2321  0.0689
  354TMC3     O 5359   3.241   3.095  13.591  0.4997 -0.4415 -0.5742
  354TMC3     H 5360   3.301   3.462  13.502 -1.1732  1.2690 -0.9224
  354TMC3    H1 5361   3.220   3.080  13.368 -1.3834  0.0571 -0.2038
  354TMC3    H2 5362   3.385   3.357  13.096  0.2687  0.2519  0.6738
  354TMC3    C7 5363   3.230   3.140  13.118  0.0665  0.0250  0.2826
  354TMC3    C8 5364   3.309   3.548  13.243  0.0480 -0.1726  0.1013
  354TMC3    O1 5365   3.200   3.024  13.144 -0.2596 -0.0441 -0.2723
  354TMC3    O2 5366   3.221   3.547  13.159 -0.1908  0.2931 -0.1364
  355MPD2     C 5367   3.228   0.441  12.659 -0.0210  0.0346  0.8237
  355MPD2    C1 5368   3.293   0.349  12.579 -0.6119 -0.1957  0.5679
  355MPD2    C2 5369   3.294   0.215  12.611 -0.0170 -0.2598  0.2889
  355MPD2    C3 5370   3.220   0.160  12.717 -0.0243 -0.6037  0.6774
  355MPD2    C4 5371   3.157   0.249  12.795 -0.2585  0.2155 -0.3572
  355MPD2    C5 5372   3.161   0.383  12.766 -0.0384  0.5891 -0.0916
  355MPD2     H 5373   3.350   0.147  12.547  0.7013 -0.2679  0.9284
  355MPD2    H1 5374   3.111   0.224  12.890 -1.3840 -1.6318 -1.4073
  355MPD2    H2 5375   3.223   0.548  12.638 -1.5258  0.4369  3.3128
  355MPD2    H3 5376   3.120   0.449  12.842  0.9536 -1.0700  1.8901
  355MPD2     N 5377   3.238   0.025  12.763  0.4416  0.2725 -0.5786
  355MPD2    H5 5378   3.233   0.012  12.863 -0.2311  1.7534 -0.4227
  355MPD2    N1 5379   3.360   0.408  12.469  0.4027 -1.0650  0.0505
  355MPD2    H7 5380   3.364   0.510  12.466 -1.4888 -0.9220  2.2920
  356TMC3    C1 5381   3.370   4.573  12.727 -0.1077  1.1870 -0.1182
  356TMC3    C2 5382   3.462   4.559  12.627  0.2891 -0.2150 -0.6628
  356TMC3    C3 5383   3.582   4.612  12.643 -0.0811 -0.0082 -0.5049
  356TMC3    C4 5384   3.412   4.608  12.851  0.2297  0.0115  0.4968
  356TMC3    C5 5385   3.542   4.648  12.862  0.3504 -0.0161  0.4946
  356TMC3    C6 5386   3.632   4.655  12.764 -0.2819 -0.5013  0.4580
  356TMC3     C 5387   3.281   4.667  12.672  0.1770  0.9510 -0.1386
  356TMC3     O 5388   3.268   4.671  12.553 -0.2237  0.3548 -0.5177
  356TMC3     H 5389   3.435   4.522  12.529  0.1101  3.0189 -1.8403
  356TMC3    H1 5390   3.346   4.600  12.937 -2.0997 -2.4689 -1.5693
  356TMC3    H2 5391   3.730   4.699  12.769 -1.2118  1.5174  0.6939
  356TMC3    C7 5392   3.581   4.673  12.998 -0.1437  0.3404  0.1758
  356TMC3    C8 5393   3.653   4.657  12.522  0.2655 -0.4356 -0.4100
  356TMC3    O1 5394   3.537   4.603  13.085  0.5707  0.5317 -0.1025
  356TMC3    O2 5395   3.633   4.583  12.426 -0.3448  0.1879  0.3645
  357MPD2     C 5396   2.616   1.811   0.566 -0.1058  0.3822  0.2963
  357MPD2    C1 5397   2.723   1.822   0.651  0.2528 -0.2854  0.0863
  357MPD2    C2 5398   2.738   1.733   0.756 -0.1210 -0.7000 -0.0372
  357MPD2    C3 5399   2.641   1.640   0.783  0.6175  0.1282 -0.9704
  357MPD2    C4 5400   2.523   1.636   0.710  0.0819 -0.7427  0.0645
  357MPD2    C5 5401   2.518   1.724   0.606  0.1641  0.1865 -0.2895
  357MPD2     H 5402   2.832   1.740   0.812 -1.0613 -0.7231  1.5529
  357MPD2    H1 5403   2.437   1.582   0.747  0.5007 -0.3270  1.6654
  357MPD2    H2 5404   2.612   1.888   0.490 -1.8783  0.0870  0.0934
  357MPD2    H3 5405   2.429   1.715   0.545 -0.6709  3.9611  0.3407
  357MPD2     N 5406   2.665   1.537   0.873  0.4474  0.3799 -0.4629
  357MPD2    H5 5407   2.586   1.474   0.887  2.3737 -1.7363  0.6855
  357MPD2    N1 5408   2.809   1.927   0.624  0.0233 -0.6570  0.0990
  357MPD2    H7 5409   2.786   2.001   0.558 -0.6425  0.1998  1.3079
  358TMC3    C1 5410   2.982   2.077   0.662 -0.3538  0.0226  0.2128
  358TMC3    C2 5411   2.937   2.164   0.565 -0.2712 -0.0051 -0.2252
  358TMC3    C3 5412   2.979   2.294   0.567  0.1259  1.0154  0.2227
  358TMC3    C4 5413   3.071   2.124   0.755  0.0613 -0.0216  0.0290
  358TMC3    C5 5414   3.112   2.251   0.746  0.0739  0.0673  0.9601
  358TMC3    C6 5415   3.059   2.345   0.666  0.1278 -0.7516  0.3628
  358TMC3     C 5416   2.930   1.946   0.682  0.2179  0.1275 -0.0884
  358TMC3     O 5417   2.995   1.873   0.758  0.7722 -0.5929 -0.0855
  358TMC3     H 5418   2.861   2.144   0.490  0.8130 -1.6478 -0.8803
  358TMC3    H1 5419   3.105   2.049   0.826  0.8204  2.0704  1.8796
  358TMC3    H2 5420   3.109   2.441   0.663  0.9468 -1.1113  2.6585
  358TMC3    C7 5421   3.203   2.303   0.854 -0.3194  0.4417  0.4051
  358TMC3    C8 5422   2.978   2.369   0.442 -0.2524 -0.1860 -0.1567
  358TMC3    O1 5423   3.270   2.404   0.837  0.3175 -0.0482 -0.1303
  358TMC3    O2 5424   3.013   2.485   0.451 -0.2638 -0.4623  0.2624
  359MPD2     C 5425   3.912   2.806  12.422  0.2939  0.2706  0.2010
  359MPD2    C1 5426   3.811   2.894  12.383 -0.0966 -0.0187 -0.0203
  359MPD2    C2 5427   3.683   2.892  12.445  0.7970 -0.7890 -1.1697
  359MPD2    C3 5428   3.654   2.800  12.541  0.1974 -0.3212 -0.7148
  359MPD2    C4 5429   3.754   2.712  12.577  0.8004 -0.8010 -0.4411
  359MPD2    C5 5430   3.881   2.716  12.518  0.4967 -0.5891  0.0309
  359MPD2     H 5431   3.624   2.977  12.411  0.6499 -0.1676  0.6289
  359MPD2    H1 5432   3.741   2.640  12.657 -0.1931 -0.0329  0.0779
  359MPD2    H2 5433   4.013   2.796  12.383  0.4281  2.1127  0.0812
  359MPD2    H3 5434   3.959   2.646  12.545  0.7015 -0.8855 -1.3355
  359MPD2     N 5435   3.528   2.774  12.588 -0.7772 -0.3444  0.0721
  359MPD2    H5 5436   3.514   2.699  12.655  1.4005 -0.1426  0.7613
  359MPD2    N1 5437   3.842   2.988  12.286  0.6383  0.1621  0.2308
  359MPD2    H7 5438   3.768   3.054  12.266 -1.0972 -2.0141 -0.5495
  360TMC3    C1 5439   3.954   3.123  12.134 -0.4350  0.0711  0.3693
  360TMC3    C2 5440   4.020   3.225  12.187 -0.1924  0.3230 -0.1932
  360TMC3    C3 5441   3.970   3.348  12.176 -0.3980 -0.5208  0.2183
  360TMC3    C4 5442   3.853   3.138  12.040  0.3398 -0.0363 -0.0643
  360TMC3    C5 5443   3.829   3.268  12.008  0.7954  0.5111  0.0162
  360TMC3    C6 5444   3.870   3.375  12.086 -0.5413 -0.3343 -0.3614
  360TMC3     C 5445   3.961   3.004  12.215  0.1794 -0.2741  0.0471
  360TMC3     O 5446   4.074   2.947  12.225 -0.0528  0.2056 -0.0385
  360TMC3     H 5447   4.083   3.198  12.271  0.2011  0.8518 -0.3219
  360TMC3    H1 5448   3.807   3.055  11.988  0.1580 -0.0917  0.1827
  360TMC3    H2 5449   3.819   3.470  12.069  1.7633  0.9061 -0.3936
  360TMC3    C7 5450   3.750   3.304  11.890  0.4585 -0.3708 -1.4877
  360TMC3    C8 5451   4.056   3.458  12.201  0.4096 -0.0759  0.4276
  360TMC3    O1 5452   3.726   3.423  11.876 -0.5288  0.5075 -0.1006
  360TMC3    O2 5453   4.007   3.569  12.217  0.4788  0.3796  0.4749
  361MPD2     C 5454   0.413   1.133  16.261 -0.2374  0.0039  0.4057
  361MPD2    C1 5455   0.389   1.168  16.391 -0.6326  0.2449  0.7243
  361MPD2    C2 5456   0.440   1.086  16.486 -0.4459 -0.0553  0.2425
  361MPD2    C3 5457   0.521   0.976  16.454  0.4220 -0.0381  0.1871
  361MPD2    C4 5458   0.542   0.948  16.320 -0.3383  0.6785 -0.1202
  361MPD2    C5 5459   0.493   1.033  16.225 -0.3578  0.0381 -0.4846
  361MPD2     H 5460   0.413   1.125  16.584 -1.2640 -0.8244  0.3150
  361MPD2    H1 5461   0.598   0.860  16.290  0.0153  0.4606  1.1648
  361MPD2    H2 5462   0.377   1.186  16.174  2.0893  0.7019 -0.1268
  361MPD2    H3 5463   0.507   1.012  16.119  2.3148  0.5501 -0.2371
  361MPD2     N 5464   0.579   0.896  16.551 -0.2142  0.2796 -0.3321
  361MPD2    H5 5465   0.629   0.813  16.522  0.8849  0.5355  0.7992
  361MPD2    N1 5466   0.300   1.275  16.421  0.1865  0.1913  0.7170
  361MPD2    H7 5467   0.277   1.276  16.520 -1.1545  2.5635  0.3639
  362TMC3    C1 5468   0.169   1.474  16.397 -0.7138  0.2453  0.1050
  362TMC3    C2 5469   0.135   1.471  16.529 -0.8151 -0.0128  0.0487
  362TMC3    C3 5470   0.027   1.552  16.577  0.4502 -0.9899  0.4982
  362TMC3    C4 5471   0.106   1.557  16.310 -0.1242  0.0713 -0.0937
  362TMC3    C5 5472   0.013   1.642  16.361  0.4342 -0.1015 -0.2893
  362TMC3    C6 5473   4.706   1.648  16.493 -0.6587  0.3193  0.3207
  362TMC3     C 5474   0.241   1.365  16.336  0.5727 -0.1553  0.3082
  362TMC3     O 5475   0.258   1.371  16.215 -0.1149 -0.1104 -0.2466
  362TMC3     H 5476   0.181   1.397  16.592  0.5059  1.5198  0.8796
  362TMC3    H1 5477   0.144   1.583  16.212  1.5471  3.7186  1.5098
  362TMC3    H2 5478   4.628   1.720  16.513  0.3195  0.9649  1.8231
  362TMC3    C7 5479   4.689   1.749  16.279 -0.0060  0.0976  0.3756
  362TMC3    C8 5480   4.729   1.526  16.718  0.1405 -0.6753 -0.4291
  362TMC3    O1 5481   4.671   1.852  16.339 -0.1199  0.4840 -0.0409
  362TMC3    O2 5482   0.070   1.459  16.789  0.0799  0.1199 -0.0919
  363TMC3    C1 5483   4.143   4.666   9.961 -0.7798 -0.3569 -1.3384
  363TMC3    C2 5484   4.146   4.558   9.881 -0.4889 -0.3818  0.1657
  363TMC3    C3 5485   4.100   4.581   9.754  0.2976  0.4074 -0.0031
  363TMC3    C4 5486   4.104   0.055   9.921  0.2203  0.1614 -0.8439
  363TMC3    C5 5487   4.065   0.067   9.791 -0.6487  0.2220 -0.0187
  363TMC3    C6 5488   4.053   4.697   9.714  0.7970  0.0697  0.0608
  363TMC3     C 5489   4.220   4.652  10.081 -0.6795 -0.3899  0.1841
  363TMC3     O 5490   4.293   4.554  10.099  0.1175  0.5003 -0.2703
  363TMC3     H 5491   4.188   4.463   9.913 -1.4809  0.0342  2.6802
  363TMC3    H1 5492   4.128   0.143   9.981 -0.7358 -1.1241  1.4040
  363TMC3    H2 5493   4.019   4.718   9.613 -0.2406 -1.1457  0.1579
  363TMC3    C7 5494   4.022   0.194   9.741 -0.1861  0.0808  0.5410
  363TMC3    C8 5495   4.127   4.480   9.657 -0.0380 -0.2668  0.5149
  363TMC3    O1 5496   3.994   0.202   9.622  0.1000  0.2529 -0.2612
  363TMC3    O2 5497   4.084   4.511   9.544  0.0880 -0.7674  0.2898
  364MPD2     C 5498   2.135   4.581  10.797  0.0159  0.3140  0.6304
  364MPD2    C1 5499   2.251   4.580  10.720  0.6757  0.9993 -0.0686
  364MPD2    C2 5500   2.332   4.473  10.714  0.2278 -0.3507  0.7675
  364MPD2    C3 5501   2.298   4.361  10.790  0.1963 -0.4965 -0.2505
  364MPD2    C4 5502   2.179   4.355  10.862  0.8684  0.5316  0.5698
  364MPD2    C5 5503   2.099   4.468  10.861 -0.1678 -0.1605  0.1970
  364MPD2     H 5504   2.427   4.477  10.661 -0.8057  1.4146 -0.9202
  364MPD2    H1 5505   2.153   4.266  10.918  3.0447  0.6550  1.7714
  364MPD2    H2 5506   2.077   4.673  10.806  0.1242  0.3028  1.4143
  364MPD2    H3 5507   2.000   4.460  10.903 -0.4779 -0.8836 -0.6695
  364MPD2     N 5508   2.385   4.247  10.794 -0.3565  0.2893 -0.3846
  364MPD2    H5 5509   2.355   4.169  10.851 -0.9209 -0.5504 -1.8471
  364MPD2    N1 5510   2.283   4.701  10.659 -0.2884 -0.0455  0.1057
  364MPD2    H7 5511   2.219   0.041  10.669  2.2426  1.9881  0.3667
  365TMC3    C1 5512   2.413   0.121  10.562 -1.3695  0.2321  0.2805
  365TMC3    C2 5513   2.468   0.157  10.441 -1.0204  0.7113 -0.6872
  365TMC3    C3 5514   2.522   0.287  10.432  0.2644  1.0314  0.0116
  365TMC3    C4 5515   2.424   0.200  10.678 -0.2473 -0.7295 -0.8204
  365TMC3    C5 5516   2.489   0.320  10.668  0.1246 -0.2145 -0.1200
  365TMC3    C6 5517   2.544   0.361  10.545 -0.4843 -0.0861 -0.5696
  365TMC3     C 5518   2.396   4.722  10.590 -0.3254  0.8069  0.3529
  365TMC3     O 5519   2.486   4.653  10.542  0.6266  0.5776 -0.3247
  365TMC3     H 5520   2.460   0.093  10.354  1.1084 -1.6529  0.8762
  365TMC3    H1 5521   2.392   0.152  10.769  1.2091 -0.6454 -0.2667
  365TMC3    H2 5522   2.597   0.456  10.538  0.1233 -0.2024  2.3846
  365TMC3    C7 5523   2.519   0.405  10.778 -0.4434 -0.2718  0.2758
  365TMC3    C8 5524   2.629   0.307  10.348 -0.1631 -0.1193  0.5016
  365TMC3    O1 5525   2.597   0.496  10.753 -0.1209 -0.1806 -0.7276
  365TMC3    O2 5526   2.676   0.421  10.339  0.0920 -0.3120 -0.3326
  366MPD2     C 5527   1.044   4.407  15.332 -0.3125 -0.2908 -0.3072
  366MPD2    C1 5528   1.113   4.519  15.382 -0.3751  0.0818 -0.4072
  366MPD2    C2 5529   1.253   4.510  15.390 -0.8366  0.2154  0.0327
  366MPD2    C3 5530   1.321   4.417  15.317 -0.5619 -0.3653 -0.1416
  366MPD2    C4 5531   1.254   4.317  15.255  0.3032  0.2712  0.2786
  366MPD2    C5 5532   1.115   4.306  15.274 -0.8319 -0.1462  0.0544
  366MPD2     H 5533   1.304   4.598  15.428  2.3741 -0.8680 -1.7822
  366MPD2    H1 5534   1.315   4.242  15.206 -1.4566 -0.6529 -0.5450
  366MPD2    H2 5535   0.936   4.397  15.329 -0.1987 -1.4209 -0.4860
  366MPD2    H3 5536   1.064   4.219  15.236  0.5643 -1.1626  0.4958
  366MPD2     N 5537   1.461   4.425  15.293 -0.1399 -0.1408 -0.0214
  366MPD2    H5 5538   1.496   4.340  15.250  0.7902  0.5611 -0.6401
  366MPD2    N1 5539   1.050   4.628  15.441 -0.2619 -0.4879  0.0520
  366MPD2    H7 5540   1.102   4.703  15.486 -1.5634  2.0610 -2.6114
  367TMC3    C1 5541   0.895   0.051  15.468 -0.0382 -0.3940 -0.2462
  367TMC3    C2 5542   0.979   0.116  15.553  0.3275 -0.7245  0.5851
  367TMC3    C3 5543   1.007   0.248  15.532 -0.3868 -0.8612  0.5838
  367TMC3    C4 5544   0.843   0.111  15.356  0.0363  0.5155  0.0095
  367TMC3    C5 5545   0.887   0.233  15.327  0.0261 -0.1076 -0.8628
  367TMC3    C6 5546   0.962   0.310  15.416  0.1217 -0.2377 -0.1388
  367TMC3     C 5547   0.916   4.652  15.436 -0.1489 -0.0367  1.1826
  367TMC3     O 5548   0.821   4.572  15.419  0.5330  0.7281 -0.0177
  367TMC3     H 5549   1.009   0.072  15.648  0.9899  0.1492  0.7886
  367TMC3    H1 5550   0.786   0.049  15.288 -1.1537  1.4468  0.1621
  367TMC3    H2 5551   0.988   0.412  15.393  0.7938 -0.6096 -1.0208
  367TMC3    C7 5552   0.792   0.314  15.249  0.5858 -0.0633  0.1729
  367TMC3    C8 5553   1.097   0.324  15.621 -0.2881 -0.0649 -0.0137
  367TMC3    O1 5554   0.811   0.434  15.251 -0.8789  0.1052 -0.2949
  367TMC3    O2 5555   1.182   0.397  15.574 -0.3174 -0.3647  0.1559
  368MPD2     C 5556   1.780   2.334  13.424  0.5552  0.7996  0.2151
  368MPD2    C1 5557   1.790   2.466  13.374 -0.0966  0.3961 -0.5890
  368MPD2    C2 5558   1.900   2.513  13.325  0.2649 -0.2449 -0.4082
  368MPD2    C3 5559   2.017   2.436  13.323  0.3411  0.2713  0.4405
  368MPD2    C4 5560   2.015   2.305  13.377 -0.3061  0.3122  1.0033
  368MPD2    C5 5561   1.894   2.258  13.421  0.0541  0.0589 -0.2475
  368MPD2     H 5562   1.908   2.609  13.275 -1.2947  0.0173 -0.1428
  368MPD2    H1 5563   2.105   2.245  13.380  0.1183  0.8177 -1.1406
  368MPD2    H2 5564   1.687   2.294  13.464  0.8977 -1.1224 -0.9172
  368MPD2    H3 5565   1.886   2.156  13.456 -0.4719  0.5398  1.0239
  368MPD2     N 5566   2.138   2.474  13.262 -0.5041 -0.0377  0.0296
  368MPD2    H5 5567   2.222   2.418  13.270 -0.4630  0.1788  1.1322
  368MPD2    N1 5568   1.668   2.542  13.374 -0.3532 -0.2557  0.3806
  368MPD2    H7 5569   1.579   2.497  13.393 -0.1934 -0.4929  0.5630
  369TMC3    C1 5570   1.511   2.700  13.300  0.1089  0.1755  0.0725
  369TMC3    C2 5571   1.497   2.803  13.211  0.6467 -0.0070  0.5894
  369TMC3    C3 5572   1.398   2.799  13.124  0.1146 -0.2456 -0.7659
  369TMC3    C4 5573   1.414   2.602  13.296  0.1498  0.0974 -0.3811
  369TMC3    C5 5574   1.300   2.607  13.226  0.2642  0.3741 -0.4006
  369TMC3    C6 5575   1.297   2.706  13.136  0.0533  0.3669 -0.0468
  369TMC3     C 5576   1.650   2.664  13.325  0.1430  0.1815 -0.0352
  369TMC3     O 5577   1.728   2.748  13.286 -0.7956 -0.4627  0.1181
  369TMC3     H 5578   1.565   2.888  13.207  1.0254 -0.4519 -2.5901
  369TMC3    H1 5579   1.419   2.521  13.369  0.6374  1.7712  1.4532
  369TMC3    H2 5580   1.209   2.701  13.072 -0.2117 -0.3342  0.3649
  369TMC3    C7 5581   1.188   2.534  13.281  0.2429 -0.5969  0.2246
  369TMC3    C8 5582   1.387   2.881  13.005  0.2994 -0.7375  0.3970
  369TMC3    O1 5583   1.188   2.513  13.400  0.2185  0.1389 -0.2366
  369TMC3    O2 5584   1.291   2.875  12.928 -0.4833 -0.0696  0.3346
  370TMC3    C1 5585   1.208   2.070  15.807  0.5005 -0.1100  0.4976
  370TMC3    C2 5586   1.097   2.055  15.887 -0.0335 -0.1387  0.0516
  370TMC3    C3 5587   1.048   1.921  15.887 -0.2957  0.4519  0.2338
  370TMC3    C4 5588   1.257   1.965  15.730 -0.6906 -0.0934  0.1570
  370TMC3    C5 5589   1.190   1.848  15.718  0.4671  0.1114  0.2772
  370TMC3    C6 5590   1.077   1.828  15.790  0.2981  0.3287  0.0239
  370TMC3     C 5591   1.302   2.160  15.865 -0.1356 -0.2622 -0.3265
  370TMC3     O 5592   1.415   2.126  15.839  0.1133  0.4227  0.5446
  370TMC3     H 5593   1.077   2.121  15.970  0.8928  2.0263 -1.4431
  370TMC3    H1 5594   1.348   1.983  15.674 -0.8591 -1.2148 -0.4712
  370TMC3    H2 5595   1.038   1.727  15.798 -2.7645  1.5479  0.6152
  370TMC3    C7 5596   1.261   1.737  15.658 -0.2427 -0.1424 -0.0274
  370TMC3    C8 5597   1.022   1.869  16.020  0.2851  0.7223  0.2994
  370TMC3    O1 5598   1.186   1.651  15.615 -0.1285  0.1576  0.1080
  370TMC3    O2 5599   1.062   1.926  16.118 -0.0659 -0.0271  0.4783
  371TMC3    C1 5600   2.841   0.666  15.188  0.4924 -0.2135  0.3550
  371TMC3    C2 5601   2.768   0.729  15.286 -0.1352  0.0656  0.3286
  371TMC3    C3 5602   2.748   0.864  15.281  0.1812  0.5918  0.0437
  371TMC3    C4 5603   2.876   0.735  15.075  0.1972 -0.0985 -0.3428
  371TMC3    C5 5604   2.844   0.871  15.059  0.2286  0.2222  0.5153
  371TMC3    C6 5605   2.796   0.941  15.170 -0.6533  0.1737 -0.4003
  371TMC3     C 5606   2.894   0.532  15.199 -0.0064  0.5992 -0.7454
  371TMC3     O 5607   2.995   0.509  15.131 -0.6187  0.0644 -0.0521
  371TMC3     H 5608   2.750   0.673  15.377 -2.2544 -1.4429 -0.9797
  371TMC3    H1 5609   2.940   0.681  15.007  1.6553 -0.7114  1.5148
  371TMC3    H2 5610   2.784   1.049  15.172 -0.7884  0.1670 -0.9848
  371TMC3    C7 5611   2.867   0.934  14.928  0.6090  0.9745  0.3007
  371TMC3    C8 5612   2.783   0.926  15.410  0.0560  0.0712  0.1278
  371TMC3    O1 5613   2.904   0.854  14.843 -0.2886 -0.3545  0.1700
  371TMC3    O2 5614   2.879   0.879  15.465 -0.8128 -0.4426  0.1548
  372MPD2     C 5615   2.646   2.667  13.263  0.2020 -0.5132 -0.3644
  372MPD2    C1 5616   2.711   2.546  13.257  0.3638 -0.5507  0.2751
  372MPD2    C2 5617   2.652   2.436  13.312 -0.0159 -0.3757  0.1618
  372MPD2    C3 5618   2.537   2.438  13.386  0.4771  0.1156 -0.4370
  372MPD2    C4 5619   2.466   2.554  13.381 -0.5220 -0.1877  0.0525
  372MPD2    C5 5620   2.517   2.664  13.313  0.2571  0.5308  0.4425
  372MPD2     H 5621   2.705   2.341  13.305 -0.1824 -0.4577  0.0057
  372MPD2    H1 5622   2.362   2.566  13.412 -1.1214 -0.8817 -1.6711
  372MPD2    H2 5623   2.683   2.761  13.224  4.7170 -1.4927  1.5320
  372MPD2    H3 5624   2.466   2.759  13.324 -0.2894  0.2115  0.7160
  372MPD2     N 5625   2.499   2.325  13.457 -0.0921  0.7709 -0.3437
  372MPD2    H5 5626   2.549   2.237  13.451 -0.0604  0.8457 -1.1031
  372MPD2    N1 5627   2.844   2.527  13.218  0.0093 -0.4514 -0.0144
  372MPD2    H7 5628   2.881   2.432  13.216  1.1596 -0.0185  0.6559
  373TMC3    C1 5629   2.373   2.171  13.592  0.0986 -0.0547 -0.6872
  373TMC3    C2 5630   2.256   2.144  13.669  0.3557 -0.0651 -0.7067
  373TMC3    C3 5631   2.224   2.016  13.682  0.6301 -0.4644  0.2607
  373TMC3    C4 5632   2.459   2.071  13.553 -0.5328  0.3416 -0.2787
  373TMC3    C5 5633   2.419   1.942  13.588 -0.8180  0.4000 -0.3397
  373TMC3    C6 5634   2.302   1.916  13.656  0.2727  0.0458 -0.2893
  373TMC3     C 5635   2.387   2.310  13.539 -0.0930  0.0825  0.3758
  373TMC3     O 5636   2.306   2.395  13.574  0.4209  0.4703  0.3397
  373TMC3     H 5637   2.184   2.220  13.694 -0.8443 -1.5292  0.3184
  373TMC3    H1 5638   2.542   2.075  13.483 -1.2216  0.0255 -1.1122
  373TMC3    H2 5639   2.269   1.815  13.680 -1.3332  0.1256 -2.2457
  373TMC3    C7 5640   2.508   1.838  13.551  0.2854  0.4041  0.4215
  373TMC3    C8 5641   2.098   1.990  13.742 -0.2353 -0.7220 -0.1970
  373TMC3    O1 5642   2.612   1.860  13.491 -0.0294 -0.3634 -0.3262
  373TMC3    O2 5643   2.019   1.930  13.667 -0.4047 -0.1287 -0.3517
  374TMC3    C1 5644   3.138   2.991   9.942 -0.9978  0.3491 -1.0075
  374TMC3    C2 5645   3.180   3.098  10.011  0.0439  0.0916  0.4855
  374TMC3    C3 5646   3.159   3.218   9.952  0.1338 -0.1604  0.7078
  374TMC3    C4 5647   3.106   3.001   9.808  0.0018  0.0865  0.3314
  374TMC3    C5 5648   3.098   3.119   9.754  0.0320  0.0703 -0.0267
  374TMC3    C6 5649   3.107   3.231   9.822 -0.2170  0.3745  0.4739
  374TMC3     C 5650   3.169   2.856   9.991  0.2143 -0.2213  0.0156
  374TMC3     O 5651   3.263   2.837  10.066  0.1524  1.0455 -0.3857
  374TMC3     H 5652   3.199   3.087  10.117 -0.4704  0.1906  0.5913
  374TMC3    H1 5653   3.105   2.915   9.743 -1.6898  0.0324  0.4250
  374TMC3    H2 5654   3.071   3.328   9.793  0.5860  0.8780  1.1444
  374TMC3    C7 5655   3.069   3.124   9.610  0.3391 -0.8935 -0.0733
  374TMC3    C8 5656   3.222   3.336  10.018 -0.3152 -0.5423 -0.5417
  374TMC3    O1 5657   3.039   3.019   9.559  0.2727  0.1752 -0.1281
  374TMC3    O2 5658   3.175   3.443   9.984  0.2221 -0.1211  0.2087
  375MPD2     C 5659   2.661   1.719  16.749  0.1160 -0.1779 -0.1329
  375MPD2    C1 5660   2.601   1.770  16.640 -0.4688  0.2990  1.0677
  375MPD2    C2 5661   2.683   1.798  16.534  0.5934 -0.0278 -0.7842
  375MPD2    C3 5662   2.822   1.793  16.551 -0.1372  0.2200  0.3000
  375MPD2    C4 5663   2.883   1.749  16.664 -0.0332  0.3820  0.2120
  375MPD2    C5 5664   2.795   1.707  16.764  0.7468  0.1490 -0.4485
  375MPD2     H 5665   2.630   1.842  16.451  0.7123  0.1533 -0.7653
  375MPD2    H1 5666   2.988   1.748  16.692  0.2369 -0.1209 -0.8347
  375MPD2    H2 5667   2.597   1.686  16.829 -0.3211 -0.6519 -0.6799
  375MPD2    H3 5668   2.839   1.680  16.859 -3.2005  1.7588  1.8124
  375MPD2     N 5669   2.913   1.822  16.447 -0.8375  0.1261  0.2736
  375MPD2    H5 5670   3.010   1.796  16.463 -1.1584 -1.1229  0.1433
  375MPD2    N1 5671   2.458   1.807  16.635  0.8816  0.4476 -0.1238
  375MPD2    H7 5672   2.434   1.833  16.539 -1.5413 -2.9295 -0.4372
  376TMC3    C1 5673   2.992   1.922  16.240 -0.3293 -0.2033 -0.7011
  376TMC3    C2 5674   3.107   1.970  16.294 -0.0741  0.1466 -0.0629
  376TMC3    C3 5675   3.174   2.059  16.224  0.0454 -0.7867  0.2899
  376TMC3    C4 5676   2.948   1.960  16.120 -0.2001 -0.2022 -0.8256
  376TMC3    C5 5677   3.001   2.067  16.062  0.1960 -0.1617 -0.0568
  376TMC3    C6 5678   3.123   2.107  16.110 -0.2696  0.1680 -0.5868
  376TMC3     C 5679   2.882   1.877  16.325  0.8367 -0.1420 -0.5465
  376TMC3     O 5680   2.774   1.905  16.276 -0.3999 -0.3264  0.4517
  376TMC3     H 5681   3.124   1.952  16.400 -1.4848  0.3483  0.2074
  376TMC3    H1 5682   2.871   1.902  16.071  0.1432 -1.3363 -0.0244
  376TMC3    H2 5683   3.160   2.202  16.073 -0.5296  0.6682  0.4321
  376TMC3    C7 5684   2.910   2.169  16.026  0.5832  0.2835  0.0327
  376TMC3    C8 5685   3.283   2.136  16.279  0.4537  0.5511  0.4779
  376TMC3    O1 5686   2.950   2.263  15.963 -0.0322  0.3667  0.1113
  376TMC3    O2 5687   3.280   2.256  16.252  0.5715  0.6554 -0.2195
  377MPD2     C 5688   1.048   2.836  12.495  0.3627 -0.2825  0.0274
  377MPD2    C1 5689   1.096   2.743  12.575  0.0172  0.1096  0.6769
  377MPD2    C2 5690   1.019   2.628  12.607 -1.1806 -0.0691  0.3497
  377MPD2    C3 5691   0.890   2.619  12.555 -0.0559 -0.1141  0.0154
  377MPD2    C4 5692   0.843   2.715  12.463 -0.4490  0.0838  0.1105
  377MPD2    C5 5693   0.927   2.818  12.429 -0.4440 -0.1366  0.0393
  377MPD2     H 5694   1.054   2.539  12.658  0.1888  0.1460 -0.2410
  377MPD2    H1 5695   0.747   2.700  12.416  0.7378 -1.8410 -1.7016
  377MPD2    H2 5696   1.095   2.927  12.458  1.8154 -1.2336 -0.4476
  377MPD2    H3 5697   0.898   2.889  12.352  1.2984  0.3712 -0.1507
  377MPD2     N 5698   0.812   2.505  12.585  0.0283  0.4819  0.5733
  377MPD2    H5 5699   0.725   2.513  12.532  0.8305  0.9583 -0.6761
  377MPD2    N1 5700   1.223   2.758  12.622  0.3806 -0.1025  0.0262
  377MPD2    H7 5701   1.267   2.846  12.597 -0.9627  0.6982  0.5308
  378TMC3    C1 5702   1.627   2.781  12.587 -0.2331 -0.0860  0.6116
  378TMC3    C2 5703   1.492   2.771  12.597 -0.3599 -0.5766  0.4960
  378TMC3    C3 5704   1.437   2.692  12.695  0.9866 -0.7368  0.9082
  378TMC3    C4 5705   1.707   2.708  12.674  0.0708  0.5531 -0.4521
  378TMC3    C5 5706   1.650   2.630  12.769 -0.1714 -0.1818 -0.0128
  378TMC3    C6 5707   1.514   2.621  12.784 -0.6720  0.6082  0.0013
  378TMC3     C 5708   1.688   2.860  12.486  0.5806  0.3493 -0.5361
  378TMC3     O 5709   1.609   2.895  12.393 -0.3058  0.0575 -0.1026
  378TMC3     H 5710   1.431   2.826  12.527  0.3790 -1.2615 -0.6713
  378TMC3    H1 5711   1.815   2.709  12.660 -0.1428  0.7907 -2.0620
  378TMC3    H2 5712   1.471   2.544  12.846  0.3361  0.0463  0.0139
  378TMC3    C7 5713   1.735   2.550  12.852 -0.8793 -0.6995  0.7041
  378TMC3    C8 5714   1.294   2.660  12.689 -0.1121 -0.3756  0.8105
  378TMC3    O1 5715   1.693   2.524  12.963  0.1955 -0.1597 -0.5445
  378TMC3    O2 5716   1.266   2.554  12.743 -0.2038 -0.3269 -0.4792
  379MPD2     C 5717   2.343   0.645  16.156  0.6969 -0.0643 -0.0116
  379MPD2    C1 5718   2.220   0.594  16.196 -0.1063 -0.8352 -0.6211
  379MPD2    C2 5719   2.221   0.498  16.297  0.1658  0.4477  0.8615
  379MPD2    C3 5720   2.339   0.461  16.357 -0.0026  0.1705 -0.7356
  379MPD2    C4 5721   2.462   0.522  16.313 -0.8847  0.0118 -0.3437
  379MPD2    C5 5722   2.461   0.616  16.218  0.1026 -0.1255 -0.0512
  379MPD2     H 5723   2.130   0.457  16.340 -0.6506  0.5263 -0.7909
  379MPD2    H1 5724   2.556   0.503  16.364 -0.3848  1.5511 -0.7088
  379MPD2    H2 5725   2.339   0.724  16.082 -0.4906 -0.7725 -0.6947
  379MPD2    H3 5726   2.557   0.653  16.185  1.6673 -3.4945  0.7664
  379MPD2     N 5727   2.350   0.367  16.464  0.1138 -0.5683 -0.3718
  379MPD2    H5 5728   2.442   0.335  16.491  0.6960  1.2709 -0.1667
  379MPD2    N1 5729   2.101   0.631  16.127  0.2851 -0.1982  0.0536
  379MPD2    H7 5730   2.112   0.706  16.058 -3.0723  0.9004  0.7279
  380TMC3    C1 5731   1.884   0.651  16.056 -0.4711  0.0256 -0.5069
  380TMC3    C2 5732   1.925   0.645  15.923 -0.3275  0.3754 -0.4929
  380TMC3    C3 5733   1.828   0.647  15.828  0.2528 -0.8751 -0.4367
  380TMC3    C4 5734   1.746   0.659  16.083 -0.3546 -0.6935 -0.0780
  380TMC3    C5 5735   1.652   0.662  15.982  0.0327  0.5245  0.7403
  380TMC3    C6 5736   1.696   0.659  15.852 -0.2399  1.2228  0.4356
  380TMC3     C 5737   1.973   0.586  16.154  0.1452  0.0967 -0.0890
  380TMC3     O 5738   1.932   0.538  16.259 -0.3224 -0.5871  0.4544
  380TMC3     H 5739   2.031   0.637  15.903 -0.2691  3.0928 -1.2241
  380TMC3    H1 5740   1.698   0.661  16.180  1.6261  2.0990  0.8355
  380TMC3    H2 5741   1.621   0.665  15.775 -1.0204  0.5713  1.1493
  380TMC3    C7 5742   1.512   0.638  16.022 -0.0033 -0.7459 -0.5008
  380TMC3    C8 5743   1.878   0.614  15.701 -0.3700  1.0673 -0.1779
  380TMC3    O1 5744   1.474   0.684  16.129 -1.1952 -0.3897 -0.3107
  380TMC3    O2 5745   1.807   0.652  15.609  0.5729  0.3077  0.9196
  381TMC3    C1 5746   1.555   1.110  15.979  1.0777 -0.5210  0.3336
  381TMC3    C2 5747   1.599   1.240  15.974 -0.4090 -0.3637  0.0999
  381TMC3    C3 5748   1.513   1.335  16.023  0.1080  1.0916 -0.3192
  381TMC3    C4 5749   1.451   1.078  16.064  0.2591  0.1072  0.1741
  381TMC3    C5 5750   1.382   1.177  16.123 -0.1776  0.1397  0.6956
  381TMC3    C6 5751   1.402   1.302  16.089  0.4197  0.5165  0.4442
  381TMC3     C 5752   1.661   1.009  15.979 -1.1385  0.3886 -0.2070
  381TMC3     O 5753   1.667   0.943  16.079 -0.3471 -0.0791  0.3151
  381TMC3     H 5754   1.687   1.259  15.913 -0.1246 -0.1206  0.5842
  381TMC3    H1 5755   1.430   0.974  16.088  0.4804 -0.2982 -1.4420
  381TMC3    H2 5756   1.339   1.378  16.134 -1.6695 -0.9571  0.0185
  381TMC3    C7 5757   1.361   1.130  16.254 -0.7147  0.1366  0.0730
  381TMC3    C8 5758   1.556   1.475  16.009 -0.1687 -0.1841 -0.2908
  381TMC3    O1 5759   1.440   1.047  16.301 -0.5630  0.2150  0.1771
  381TMC3    O2 5760   1.672   1.484  15.972 -0.6952  0.2985 -0.3001
  382MPD2     C 5761   0.663   3.812  16.928 -0.6698 -0.7994 -0.3045
  382MPD2    C1 5762   0.574   3.837  17.031 -0.0267  0.5466 -0.2491
  382MPD2    C2 5763   0.525   3.730  17.106 -0.6363  0.3089  0.6990
  382MPD2    C3 5764   0.578   3.606  17.086  0.9339  0.1351  0.5126
  382MPD2    C4 5765   0.670   3.588  16.987 -0.2563 -0.5710 -0.8280
  382MPD2    C5 5766   0.711   3.692  16.909  0.3268  0.1924  0.5191
  382MPD2     H 5767   0.450   3.749  17.181  0.9424 -0.0995  2.3738
  382MPD2    H1 5768   0.708   3.491  16.955  0.1256 -0.0871 -1.8398
  382MPD2    H2 5769   0.699   3.892  16.863 -2.5557  0.3818  0.1239
  382MPD2    H3 5770   0.791   3.674  16.837 -1.0546  0.7094 -1.1540
  382MPD2     N 5771   0.525   3.491  17.149 -0.0507 -0.0097  0.1870
  382MPD2    H5 5772   0.566   3.402  17.121  1.4457  0.2370  1.5869
  382MPD2    N1 5773   0.520   3.965  17.057  0.1591  0.2467 -0.4382
  382MPD2    H7 5774   0.464   3.980  17.140 -1.2889 -2.8150 -0.8630
  383TMC3    C1 5775   0.366   3.359  17.250  1.0338 -0.3652 -0.4190
  383TMC3    C2 5776   0.239   3.313  17.222 -0.1821 -0.0644 -0.3477
  383TMC3    C3 5777   0.202   3.195  17.285  1.0389 -0.0498 -0.3774
  383TMC3    C4 5778   0.445   3.296  17.340 -0.1630 -0.2860 -0.1261
  383TMC3    C5 5779   0.403   3.178  17.401  0.1263  0.6079  0.0575
  383TMC3    C6 5780   0.283   3.126  17.372 -0.0204  0.6742 -0.1220
  383TMC3     C 5781   0.400   3.487  17.201 -0.4229  0.1235 -1.1116
  383TMC3     O 5782   0.308   3.563  17.201 -0.6183 -0.3107  0.3972
  383TMC3     H 5783   0.180   3.374  17.154 -0.1634  0.1256 -0.1905
  383TMC3    H1 5784   0.536   3.352  17.360 -0.1725  0.0311 -0.9545
  383TMC3    H2 5785   0.259   3.033  17.423 -0.9473  1.3278  0.6357
  383TMC3    C7 5786   0.435   3.163  17.541 -0.5558 -0.6012 -0.3502
  383TMC3    C8 5787   0.064   3.148  17.254  0.3553 -0.2399  0.2151
  383TMC3    O1 5788   0.341   3.122  17.611  0.3455  0.0585 -0.1086
  383TMC3    O2 5789   4.727   3.232  17.203 -0.1409 -0.6451 -0.1060
  384MPD2     C 5790   2.267   1.316  12.199 -0.0510 -0.4842  0.1944
  384MPD2    C1 5791   2.292   1.232  12.309 -0.0634  0.5141 -0.1805
  384MPD2    C2 5792   2.417   1.176  12.319  0.1238  0.5127  0.1632
  384MPD2    C3 5793   2.519   1.200  12.233 -0.3208  0.3468 -0.3636
  384MPD2    C4 5794   2.495   1.283  12.126 -0.0620 -0.1730 -0.2202
  384MPD2    C5 5795   2.371   1.342  12.114  0.4221  0.1086 -1.1578
  384MPD2     H 5796   2.451   1.128  12.411 -1.3917 -1.3213 -0.2314
  384MPD2    H1 5797   2.566   1.303  12.046 -0.0080 -2.2699 -0.7092
  384MPD2    H2 5798   2.169   1.358  12.180  0.0434 -1.6475 -2.8536
  384MPD2    H3 5799   2.348   1.404  12.028  0.5118 -1.2438 -2.1612
  384MPD2     N 5800   2.642   1.132  12.255  0.2799 -0.5417  0.0139
  384MPD2    H5 5801   2.643   1.079  12.342 -0.2542  2.1979  1.6863
  384MPD2    N1 5802   2.193   1.194  12.403 -0.1964 -0.5131  0.0815
  384MPD2    H7 5803   2.222   1.124  12.471 -0.6899 -0.5297  0.2761
  385TMC3    C1 5804   2.841   1.024  12.203  0.3104 -0.1252 -0.3792
  385TMC3    C2 5805   2.860   0.939  12.092 -0.1426 -0.1265  0.1551
  385TMC3    C3 5806   2.810   0.815  12.115  0.0140 -0.3563  0.1780
  385TMC3    C4 5807   2.824   0.977  12.326 -0.2524  0.1110 -0.2063
  385TMC3    C5 5808   2.799   0.844  12.349 -0.0411  0.2715  0.2041
  385TMC3    C6 5809   2.780   0.761  12.240  0.9858 -0.2871 -0.8823
  385TMC3     C 5810   2.748   1.130  12.165 -0.2767  0.2739 -0.6058
  385TMC3     O 5811   2.754   1.170  12.050 -0.0220  0.0534  0.0289
  385TMC3     H 5812   2.889   0.970  11.992 -0.1698 -2.9982 -0.7582
  385TMC3    H1 5813   2.830   1.045  12.411 -1.7759 -0.3859  0.2928
  385TMC3    H2 5814   2.761   0.654  12.237 -0.7088  0.0891 -3.0836
  385TMC3    C7 5815   2.685   0.831  12.441  0.0932 -0.3108 -0.1756
  385TMC3    C8 5816   2.842   0.719  12.013  0.6136 -0.4756  0.7894
  385TMC3    O1 5817   2.648   0.941  12.483  0.0766 -0.1102  0.0261
  385TMC3    O2 5818   2.931   0.752  11.939 -0.3245 -0.7388  0.0200
  386TMC3    C1 5819   2.299   3.524  11.949  0.3367  0.7161 -0.4478
  386TMC3    C2 5820   2.316   3.625  11.859  0.1858 -0.4091  0.2486
  386TMC3    C3 5821   2.214   3.649  11.772 -0.0356  0.4201  0.0350
  386TMC3    C4 5822   2.180   3.445  11.953  0.0136  0.5667  0.3365
  386TMC3    C5 5823   2.078   3.477  11.863 -0.6816  0.1485 -0.0603
  386TMC3    C6 5824   2.099   3.576  11.767  0.2360 -0.3397 -0.2239
  386TMC3     C 5825   2.429   3.472  11.992 -0.6680  0.2900 -0.1601
  386TMC3     O 5826   2.525   3.544  11.982 -0.7189 -0.2962  0.4410
  386TMC3     H 5827   2.403   3.689  11.857  0.2987 -0.4445  3.8573
  386TMC3    H1 5828   2.159   3.370  12.029 -0.2204  0.7753  0.4788
  386TMC3    H2 5829   2.016   3.617  11.711 -1.4403  0.3388  2.7230
  386TMC3    C7 5830   1.941   3.425  11.878  0.1182 -0.3463 -0.3791
  386TMC3    C8 5831   2.250   3.742  11.663 -0.6474  0.7492 -0.4518
  386TMC3    O1 5832   1.920   3.351  11.976 -0.4948  0.1809 -0.2965
  386TMC3    O2 5833   2.335   3.828  11.686 -0.5850 -0.2899  0.2018
  387MPD2     C 5834   0.200   3.267  10.004  0.0231 -0.4138  0.1682
  387MPD2    C1 5835   0.335   3.241   9.989  0.3717 -0.6402  0.5206
  387MPD2    C2 5836   0.375   3.118   9.972 -0.3138 -0.3439 -0.3781
  387MPD2    C3 5837   0.288   3.006   9.981 -0.1051  0.3136 -0.2796
  387MPD2    C4 5838   0.154   3.031   9.995 -0.2812 -0.0654 -0.1881
  387MPD2    C5 5839   0.112   3.165   9.995  0.4400 -0.2121  0.1951
  387MPD2     H 5840   0.481   3.095   9.968  0.2153  1.8575  1.1987
  387MPD2    H1 5841   0.084   2.952  10.016 -1.5476  0.5841 -1.9340
  387MPD2    H2 5842   0.158   3.365  10.021 -1.4940 -0.6274 -2.3544
  387MPD2    H3 5843   0.009   3.197  10.007  0.7278  0.2769  1.3613
  387MPD2     N 5844   0.355   2.880   9.989 -0.3122  0.5637  0.1641
  387MPD2    H5 5845   0.451   2.880   9.956 -0.3706 -0.9913  0.0077
  387MPD2    N1 5846   0.438   3.332  10.000 -0.2668 -0.1677 -0.0270
  387MPD2    H7 5847   0.532   3.297   9.983  0.3820  1.5496 -0.0124
  388TMC3    C1 5848   0.559   3.503  10.068  0.3916  0.0240  0.3628
  388TMC3    C2 5849   0.586   3.637  10.062 -0.5590  0.0513  0.5006
  388TMC3    C3 5850   0.710   3.682  10.104  0.0886 -0.7704  0.1648
  388TMC3    C4 5851   0.659   3.416  10.108  0.3672  0.1380  0.4274
  388TMC3    C5 5852   0.781   3.469  10.144 -0.3209  0.1527  0.7674
  388TMC3    C6 5853   0.804   3.603  10.149 -0.1282  0.0451  0.2448
  388TMC3     C 5854   0.426   3.466  10.034  0.1057 -0.4846  0.0774
  388TMC3     O 5855   0.332   3.546  10.026  0.8907  0.0852 -0.3624
  388TMC3     H 5856   0.502   3.701  10.040 -0.1282 -0.3327 -2.2836
  388TMC3    H1 5857   0.623   3.321  10.147 -0.4122  0.7351  1.1584
  388TMC3    H2 5858   0.901   3.640  10.179 -0.0803  1.4872 -1.6738
  388TMC3    C7 5859   0.876   3.370  10.197 -0.1658 -0.9376 -0.7952
  388TMC3    C8 5860   0.734   3.820  10.131  0.2805  0.6279  0.2249
  388TMC3    O1 5861   0.937   3.394  10.302 -0.0120 -0.5001  0.6751
  388TMC3    O2 5862   0.817   3.849  10.214  0.1778  0.3876 -0.4807
  389MPD2     C 5863   4.114   1.840  11.449 -0.1868 -0.2639  0.1119
  389MPD2    C1 5864   4.037   1.782  11.350  0.5874  0.4074  0.2745
  389MPD2    C2 5865   4.004   1.649  11.354 -0.0264  0.3764 -0.0884
  389MPD2    C3 5866   4.051   1.570  11.461 -0.0503 -0.0971  0.2595
  389MPD2    C4 5867   4.137   1.626  11.557  0.2565 -0.2153 -0.6057
  389MPD2    C5 5868   4.170   1.753  11.546  0.2826  0.4288  0.2386
  389MPD2     H 5869   3.955   1.601  11.271 -1.2873  1.6963 -0.1018
  389MPD2    H1 5870   4.183   1.576  11.640  0.1950  0.5103 -0.1325
  389MPD2    H2 5871   4.145   1.944  11.437 -1.3874  0.3232  2.0602
  389MPD2    H3 5872   4.244   1.789  11.617 -0.7288  2.0245  0.4695
  389MPD2     N 5873   4.040   1.431  11.456 -0.2042  0.3590 -0.3037
  389MPD2    H5 5874   4.091   1.376  11.524  0.4932 -0.0711 -1.1773
  389MPD2    N1 5875   4.012   1.870  11.242 -0.0589 -0.0987  0.5373
  389MPD2    H7 5876   4.077   1.948  11.239 -0.6468  0.3514 -0.2517
  390TMC3    C1 5877   3.961   1.214  11.405  0.1249  0.0910  0.5080
  390TMC3    C2 5878   3.978   1.172  11.533 -1.2830 -0.0982  0.1214
  390TMC3    C3 5879   3.981   1.037  11.561  0.3216  0.4881  0.0770
  390TMC3    C4 5880   3.946   1.118  11.305  0.5905 -0.5423 -0.2054
  390TMC3    C5 5881   3.944   0.985  11.342  0.3057  0.2354  1.0999
  390TMC3    C6 5882   3.972   0.938  11.465  0.0471 -0.3924 -0.2871
  390TMC3     C 5883   3.976   1.355  11.363  0.5662 -0.2127  0.2029
  390TMC3     O 5884   3.948   1.372  11.244 -0.0540  0.2801  0.1434
  390TMC3     H 5885   3.969   1.245  11.613 -1.1971 -0.0604  0.0962
  390TMC3    H1 5886   3.934   1.136  11.199 -1.9914 -0.5503  0.0839
  390TMC3    H2 5887   3.985   0.835  11.493  1.8543 -0.4327 -1.2661
  390TMC3    C7 5888   3.855   0.908  11.261  0.4829 -0.3851 -0.1466
  390TMC3    C8 5889   3.916   0.992  11.682  0.5918 -0.1279  0.8002
  390TMC3    O1 5890   3.831   0.948  11.145  0.5845  0.0969 -0.6462
  390TMC3    O2 5891   3.843   0.896  11.671  0.2513 -0.3094 -0.1881
  391MPD2     C 5892   3.805   2.838  11.400 -0.3152  1.3020  0.2832
  391MPD2    C1 5893   3.921   2.887  11.357 -0.5053  0.4582 -0.0609
  391MPD2    C2 5894   3.923   2.944  11.227  0.2282 -0.2817 -0.2438
  391MPD2    C3 5895   3.804   2.962  11.150  0.3523 -0.0591 -0.6213
  391MPD2    C4 5896   3.685   2.920  11.200  0.3123  0.3196 -0.4908
  391MPD2    C5 5897   3.688   2.859  11.320  0.3566  0.2658 -0.1300
  391MPD2     H 5898   4.017   2.979  11.186 -0.8860  1.9199 -0.9263
  391MPD2    H1 5899   3.592   2.926  11.145  0.3647  0.3644 -0.5756
  391MPD2    H2 5900   3.791   2.782  11.491  1.2513 -1.6743 -1.2948
  391MPD2    H3 5901   3.596   2.813  11.355 -1.0001  1.4761 -2.1087
  391MPD2     N 5902   3.819   3.035  11.033  0.0870 -0.2947 -0.1520
  391MPD2    H5 5903   3.914   3.072  11.027  0.5361 -1.4655 -0.2973
  391MPD2    N1 5904   4.049   2.886  11.430 -0.4084 -1.3608 -0.1673
  391MPD2    H7 5905   4.131   2.934  11.395 -1.5752 -0.7516 -2.0866
  392TMC3    C1 5906   3.776   3.168  10.835 -0.3582  0.9921 -0.2429
  392TMC3    C2 5907   3.693   3.190  10.725  0.0944  0.4560  0.5318
  392TMC3    C3 5908   3.710   3.301  10.646  0.0139 -0.1062 -0.3438
  392TMC3    C4 5909   3.881   3.259  10.854  0.5291 -0.1251 -0.0740
  392TMC3    C5 5910   3.898   3.366  10.766  0.2168 -0.3604 -0.7516
  392TMC3    C6 5911   3.814   3.389  10.664 -0.7239  0.8412  0.2021
  392TMC3     C 5912   3.725   3.090  10.951 -0.4203 -0.6596  0.1071
  392TMC3     O 5913   3.607   3.070  10.950 -0.3656  0.4472  0.6342
  392TMC3     H 5914   3.603   3.132  10.709  1.5210 -1.7323  0.5463
  392TMC3    H1 5915   3.954   3.250  10.933  1.0801  1.6538 -0.3884
  392TMC3    H2 5916   3.810   3.487  10.617  0.2290  1.2814  1.0534
  392TMC3    C7 5917   4.035   3.429  10.768 -0.7548  0.3215 -0.3478
  392TMC3    C8 5918   3.604   3.320  10.551  0.6159 -0.4327 -0.5965
  392TMC3    O1 5919   4.094   3.412  10.876 -0.0831 -0.6055  0.5098
  392TMC3    O2 5920   3.513   3.241  10.541 -0.3667 -0.4411 -0.0876
  393TMC3    C1 5921   2.322   1.276  10.725  0.9741  0.0627  0.4497
  393TMC3    C2 5922   2.189   1.317  10.746  0.1261  0.3091  0.1716
  393TMC3    C3 5923   2.126   1.292  10.866 -0.4388 -0.2238 -0.0740
  393TMC3    C4 5924   2.386   1.204  10.819  0.0127 -0.0910 -0.1552
  393TMC3    C5 5925   2.317   1.184  10.941  0.5129  0.7867  0.2181
  393TMC3    C6 5926   2.188   1.227  10.968  0.1860  0.1341  0.0091
  393TMC3     C 5927   2.400   1.325  10.610  0.4451 -0.3568  0.0322
  393TMC3     O 5928   2.344   1.352  10.507  0.3461 -0.3125  0.4466
  393TMC3     H 5929   2.136   1.358  10.660 -2.2531 -2.7972  0.1496
  393TMC3    H1 5930   2.492   1.184  10.807 -0.4809 -1.5824 -1.9269
  393TMC3    H2 5931   2.142   1.192  11.060  1.2690  0.0021  0.4957
  393TMC3    C7 5932   2.376   1.098  11.042 -0.1366  0.2422 -0.7234
  393TMC3    C8 5933   1.990   1.329  10.882  0.0181  0.1965  0.4998
  393TMC3    O1 5934   2.295   1.040  11.116 -0.2951 -0.0022 -0.2703
  393TMC3    O2 5935   1.927   1.284  10.974  0.4215 -0.0905 -0.0383
  394TMC3    C1 5936   3.978   1.889  11.012  0.0371 -0.1163  0.4387
  394TMC3    C2 5937   3.886   1.911  10.911  0.6821 -0.2107  1.0249
  394TMC3    C3 5938   3.937   1.932  10.783  0.0640 -0.7556 -0.1498
  394TMC3    C4 5939   4.106   1.865  10.984  0.0374 -0.3603 -0.4571
  394TMC3    C5 5940   4.153   1.878  10.853 -0.1774 -0.0346 -0.2177
  394TMC3    C6 5941   4.072   1.913  10.753 -0.2806 -0.1656 -0.7499
  394TMC3     C 5942   3.932   1.837  11.134 -0.2500  0.2782  0.4106
  394TMC3     O 5943   3.835   1.762  11.138  0.7090  0.2362  0.0522
  394TMC3     H 5944   3.780   1.936  10.917  0.7696  0.5257 -0.3824
  394TMC3    H1 5945   4.171   1.840  11.067 -0.8855 -1.8632 -0.1866
  394TMC3    H2 5946   4.107   1.934  10.652  0.8560 -1.7888 -0.6774
  394TMC3    C7 5947   4.292   1.901  10.822  0.0257  0.3080  0.8888
  394TMC3    C8 5948   3.848   1.924  10.674 -0.2952  0.0411 -0.5221
  394TMC3    O1 5949   4.315   1.951  10.712 -0.0844  0.3541  0.2971
  394TMC3    O2 5950   3.748   1.993  10.679 -0.4522 -0.3679  0.6241
  395TMC3    C1 5951   4.155   2.571  14.615  0.3461 -0.4407 -0.4061
  395TMC3    C2 5952   4.022   2.549  14.586 -0.5807 -0.5096 -0.4611
  395TMC3    C3 5953   3.959   2.643  14.508  0.2832 -0.1410 -0.3812
  395TMC3    C4 5954   4.225   2.674  14.567  0.3668 -0.2495  0.7359
  395TMC3    C5 5955   4.153   2.776  14.511 -0.8078  0.2430 -0.0602
  395TMC3    C6 5956   4.021   2.758  14.469 -0.7666 -0.4610  0.1245
  395TMC3     C 5957   4.217   2.472  14.703 -0.6489  0.9502  0.8696
  395TMC3     O 5958   4.335   2.440  14.694  0.7355 -0.5125 -0.0606
  395TMC3     H 5959   3.968   2.457  14.602 -1.3879  0.2804  1.3311
  395TMC3    H1 5960   4.333   2.682  14.574  0.4166 -0.2767 -0.0380
  395TMC3    H2 5961   3.966   2.833  14.414 -0.9121  0.1100  1.0584
  395TMC3    C7 5962   4.226   2.894  14.471 -0.3948  0.4596  0.3127
  395TMC3    C8 5963   3.818   2.652  14.517  0.3650  0.0293  0.5030
  395TMC3    O1 5964   4.334   2.910  14.526  0.7981  0.0500 -0.2725
  395TMC3    O2 5965   3.767   2.757  14.557 -0.3551 -1.0602 -1.1331
  396MPD2     C 5966   3.332   3.474  16.751  0.1685  0.1838  0.0931
  396MPD2    C1 5967   3.457   3.471  16.819 -0.1415  0.1333 -0.1845
  396MPD2    C2 5968   3.554   3.557  16.772  0.8489  0.1534  0.3595
  396MPD2    C3 5969   3.530   3.642  16.663 -0.2496  0.0868  0.0915
  396MPD2    C4 5970   3.405   3.642  16.608 -0.5899  0.3029 -0.6278
  396MPD2    C5 5971   3.306   3.562  16.651 -0.0872  0.3541 -0.6901
  396MPD2     H 5972   3.654   3.554  16.814  0.4442 -1.1695  1.2355
  396MPD2    H1 5973   3.381   3.706  16.523  0.3253 -0.3990 -1.4138
  396MPD2    H2 5974   3.253   3.413  16.793 -0.8012  2.0017  0.9232
  396MPD2    H3 5975   3.208   3.565  16.606  0.1357  0.3463 -1.1737
  396MPD2     N 5976   3.636   3.731  16.625  0.7593 -0.4882 -0.6631
  396MPD2    H5 5977   3.723   3.733  16.677 -0.3631  0.7983  1.1402
  396MPD2    N1 5978   3.468   3.385  16.926 -0.2032 -0.2837  0.0216
  396MPD2    H7 5979   3.399   3.313  16.946 -2.0136  1.6034  0.6394
  397TMC3    C1 5980   3.570   3.262  17.105 -0.6463 -1.4370  0.0892
  397TMC3    C2 5981   3.679   3.259  17.189  0.2333  0.1185  0.6721
  397TMC3    C3 5982   3.743   3.138  17.202  0.4146 -0.0853 -0.3923
  397TMC3    C4 5983   3.513   3.143  17.065 -0.6234 -0.6695  0.4412
  397TMC3    C5 5984   3.563   3.022  17.119  0.0371  0.0211 -0.4211
  397TMC3    C6 5985   3.681   3.015  17.183 -0.8177  0.3932 -0.4919
  397TMC3     C 5986   3.575   3.375  17.011 -0.1878 -0.5805  0.1530
  397TMC3     O 5987   3.673   3.446  17.018  0.4250  0.4330  0.1732
  397TMC3     H 5988   3.736   3.349  17.212  1.7850 -0.4261 -1.0999
  397TMC3    H1 5989   3.425   3.150  17.002  0.2394 -3.0817 -1.0421
  397TMC3    H2 5990   3.728   2.921  17.208  0.1838  2.1305  4.2783
  397TMC3    C7 5991   3.480   2.898  17.106 -0.0654  0.2397  0.2334
  397TMC3    C8 5992   3.871   3.126  17.270  0.6258 -0.6998 -0.3316
  397TMC3    O1 5993   3.420   2.882  17.002  0.1266 -0.1552  0.1364
  397TMC3    O2 5994   3.879   3.046  17.363 -0.5932  0.4262  0.3727
  398MPD2     C 5995   2.137   0.107  17.717  0.3312 -0.0524  0.0938
  398MPD2    C1 5996   2.189   0.063   0.087 -0.6507 -0.2822 -0.2659
  398MPD2    C2 5997   2.207   0.161   0.182  0.3746 -0.4649 -0.0629
  398MPD2    C3 5998   2.180   0.295   0.160  0.5207 -0.1471 -0.0785
  398MPD2    C4 5999   2.128   0.334   0.038  0.0215  0.7412 -0.3096
  398MPD2    C5 6000   2.114   0.236  17.692  0.5807 -0.2242  0.1180
  398MPD2     H 6001   2.250   0.124   0.274 -0.5760 -0.2516  0.4649
  398MPD2    H1 6002   2.097   0.436   0.015  0.2420  0.5832 -1.2773
  398MPD2    H2 6003   2.135   0.033  17.638 -4.6851  0.2613 -0.0192
  398MPD2    H3 6004   2.067   0.277  17.604  2.3255  1.1733 -0.1572
  398MPD2     N 6005   2.199   0.394   0.266 -0.6706  0.2098  0.5206
  398MPD2    H5 6006   2.237   0.358   0.353  0.7518  0.0190 -0.1744
  398MPD2    N1 6007   2.226   4.672   0.109  0.2940 -0.4057  0.7440
  398MPD2    H7 6008   2.291   4.658   0.185 -0.1782 -2.4532  0.7665
  399TMC3    C1 6009   2.196   4.429   0.089  0.2756  0.7104  0.6951
  399TMC3    C2 6010   2.298   4.411   0.175 -0.3761  0.9729  0.3451
  399TMC3    C3 6011   2.336   4.284   0.213  0.3341  0.0012  0.1642
  399TMC3    C4 6012   2.125   4.331   0.040 -0.0526  0.5900 -0.4169
  399TMC3    C5 6013   2.162   4.204   0.070 -0.1381  0.2136 -0.0819
  399TMC3    C6 6014   2.267   4.174   0.162 -0.3903  0.2518  0.1055
  399TMC3     C 6015   2.160   4.562   0.051  0.0253  0.6204  0.0176
  399TMC3     O 6016   2.074   4.569  17.716 -0.2942  0.2999  0.0938
  399TMC3     H 6017   2.363   4.493   0.202  0.3081  0.5546 -0.0234
  399TMC3    H1 6018   2.040   4.351  17.728  0.6441 -0.6060 -1.7329
  399TMC3    H2 6019   2.280   4.070   0.190 -0.4574 -0.0259 -0.8943
  399TMC3    C7 6020   2.071   4.101   0.032 -0.0452 -1.1069  0.2852
  399TMC3    C8 6021   2.455   4.271   0.293  0.2413 -0.2101 -0.0823
  399TMC3    O1 6022   2.098   3.991   0.077  0.1366 -0.2358 -0.2814
  399TMC3    O2 6023   2.521   4.369   0.322 -0.1050  0.3953  0.0993
  400TMC3    C1 6024   0.260   3.025  16.914 -0.3501 -0.0061 -0.5364
  400TMC3    C2 6025   0.160   2.929  16.893 -0.1966  0.1149 -0.4807
  400TMC3    C3 6026   0.041   2.977  16.843 -0.0896 -0.0743 -0.4765
  400TMC3    C4 6027   0.238   3.156  16.905 -0.2135  0.6310  0.0915
  400TMC3    C5 6028   0.121   3.197  16.851  0.0042 -0.4185  0.1941
  400TMC3    C6 6029   0.015   3.113  16.822  0.4017 -0.2765 -0.5357
  400TMC3     C 6030   0.396   2.992  16.941 -0.5593  0.4638  0.3517
  400TMC3     O 6031   0.454   3.064  17.023  0.3883  0.2884  0.2490
  400TMC3     H 6032   0.184   2.826  16.913 -0.7576  0.2095  0.6492
  400TMC3    H1 6033   0.308   3.229  16.946 -1.0108  1.4150  0.0481
  400TMC3    H2 6034   4.658   3.152  16.787  0.5358 -1.3036 -2.0595
  400TMC3    C7 6035   0.086   3.332  16.862 -0.3177 -1.0685 -0.2085
  400TMC3    C8 6036   4.681   2.882  16.785 -0.0980 -0.2533 -0.5069
  400TMC3    O1 6037   4.708   3.359  16.859 -0.6433  0.8382  0.5814
  400TMC3    O2 6038   4.592   2.929  16.717 -0.1586  0.1981  0.2548
  401MPD2     C 6039   3.349   1.505   0.925  0.0573  0.4413 -0.5496
  401MPD2    C1 6040   3.461   1.476   1.007  0.1115 -0.2395 -0.1249
  401MPD2    C2 6041   3.472   1.350   1.066 -0.2825 -0.0760 -0.3434
  401MPD2    C3 6042   3.393   1.244   1.030  0.1571 -0.2896  0.0026
  401MPD2    C4 6043   3.285   1.263   0.953 -0.1166 -0.0583  0.5643
  401MPD2    C5 6044   3.268   1.395   0.905  0.2577  1.5254 -0.4629
  401MPD2     H 6045   3.551   1.335   1.138  0.9788 -1.0936 -1.9530
  401MPD2    H1 6046   3.214   1.191   0.915 -0.3689  1.5252 -1.9927
  401MPD2    H2 6047   3.317   1.600   0.883 -0.8206  0.0386 -0.7990
  401MPD2    H3 6048   3.185   1.411   0.837 -1.3580  0.4860  1.2485
  401MPD2     N 6049   3.402   1.120   1.100  0.4454  0.2322  0.1230
  401MPD2    H5 6050   3.483   1.107   1.160  0.3984 -2.5470 -0.4112
  401MPD2    N1 6051   3.554   1.581   1.033 -0.4119 -0.1647  0.2956
  401MPD2    H7 6052   3.627   1.561   1.101  0.9367 -1.6710 -1.6306
  402TMC3    C1 6053   3.376   0.894   1.152 -0.3776 -0.0063  0.4809
  402TMC3    C2 6054   3.471   0.903   1.246 -0.2684  0.6827 -0.7823
  402TMC3    C3 6055   3.513   0.791   1.307 -0.3142 -0.5788 -0.0090
  402TMC3    C4 6056   3.325   0.771   1.111  0.0005  0.1321 -0.2126
  402TMC3    C5 6057   3.383   0.663   1.164  1.0107  0.5846 -0.1735
  402TMC3    C6 6058   3.472   0.667   1.266 -0.6161  0.3387  0.1416
  402TMC3     C 6059   3.327   1.006   1.074 -0.1495  0.6170  0.5503
  402TMC3     O 6060   3.233   0.982   0.995  0.5568  0.7215  0.0632
  402TMC3     H 6061   3.513   0.995   1.287  0.2806 -0.0541  0.3233
  402TMC3    H1 6062   3.260   0.760   1.025 -2.1169 -0.9004  1.5556
  402TMC3    H2 6063   3.498   0.579   1.324  1.1050  1.5190  1.1636
  402TMC3    C7 6064   3.377   0.546   1.088 -0.0636  0.2858  0.2978
  402TMC3    C8 6065   3.645   0.789   1.372 -0.4465  0.2824  0.0996
  402TMC3    O1 6066   3.281   0.524   1.018 -0.5715 -0.1711 -0.6759
  402TMC3    O2 6067   3.701   0.681   1.377 -0.1214  0.2804 -0.3986
  403MPD2     C 6068   2.206   4.683  13.168  0.0542  1.2332  0.0053
  403MPD2    C1 6069   2.135   0.017  13.260 -0.4774  0.4535  0.0734
  403MPD2    C2 6070   2.182   0.038  13.390 -0.2442  0.3216  0.2360
  403MPD2    C3 6071   2.296   4.702  13.426  0.3350  0.3172 -0.3242
  403MPD2    C4 6072   2.369   4.626  13.334 -0.1180 -0.2099 -0.0046
  403MPD2    C5 6073   2.320   4.620  13.202 -0.9629  0.3449 -0.5755
  403MPD2     H 6074   2.132   0.108  13.456  0.5501  0.4564  0.6963
  403MPD2    H1 6075   2.465   4.578  13.347  0.1463  0.5705  0.8901
  403MPD2    H2 6076   2.199   4.686  13.060 -4.8297  0.7453  0.3111
  403MPD2    H3 6077   2.371   4.571  13.120  0.1909  0.3917  0.1196
  403MPD2     N 6078   2.338   4.713  13.565 -0.2945  0.2498 -0.1676
  403MPD2    H5 6079   2.289   0.037  13.627  0.0504  0.7943 -0.4390
  403MPD2    N1 6080   2.010   0.080  13.220  0.1453  0.3626  0.2333
  403MPD2    H7 6081   1.978   0.052  13.128 -2.9557  0.2440  1.3412
  404TMC3    C1 6082   1.784   0.148  13.241 -0.7129 -0.1468 -0.4715
  404TMC3    C2 6083   1.680   0.126  13.318 -0.0900  0.0411  0.2038
  404TMC3    C3 6084   1.559   0.096  13.262  0.2622  0.6660  0.3237
  404TMC3    C4 6085   1.779   0.137  13.104  0.1892  0.1625  0.0146
  404TMC3    C5 6086   1.649   0.117  13.052 -0.6279  1.2200 -0.2820
  404TMC3    C6 6087   1.535   0.097  13.127 -0.1682 -0.0690  0.4284
  404TMC3     C 6088   1.915   0.142  13.300  0.2243 -0.1862  0.2536
  404TMC3     O 6089   1.922   0.178  13.418 -0.2722 -0.3806  0.1026
  404TMC3     H 6090   1.702   0.130  13.424 -0.8262 -0.1186  0.3639
  404TMC3    H1 6091   1.856   0.175  13.037 -0.9289  0.1629 -1.2631
  404TMC3    H2 6092   1.434   0.093  13.090 -0.4374 -0.1266  1.1771
  404TMC3    C7 6093   1.636   0.178  12.915 -0.3608 -0.7315 -0.3094
  404TMC3    C8 6094   1.469   0.028  13.346  0.0432  0.2625  0.7974
  404TMC3    O1 6095   1.737   0.223  12.863 -0.3642 -0.3819 -0.1040
  404TMC3    O2 6096   1.358   0.035  13.306  0.2678 -0.1205  0.4181
  405MPD2     C 6097   2.319   0.769  14.686 -0.1073  0.2754 -0.3989
  405MPD2    C1 6098   2.267   0.663  14.622  0.1090  0.0978  0.0688
  405MPD2    C2 6099   2.152   0.681  14.547 -0.2310  0.5713 -0.5245
  405MPD2    C3 6100   2.093   0.808  14.537 -0.1351  0.6388 -0.5743
  405MPD2    C4 6101   2.153   0.921  14.589  0.0823 -0.0759  0.1435
  405MPD2    C5 6102   2.269   0.895  14.662 -0.1476  0.8297 -0.3955
  405MPD2     H 6103   2.105   0.595  14.500  1.8843 -1.3030  0.7640
  405MPD2    H1 6104   2.124   1.024  14.574  1.5297  0.2142 -0.6538
  405MPD2    H2 6105   2.397   0.760  14.761 -0.3447 -1.2980 -0.3559
  405MPD2    H3 6106   2.330   0.969  14.712 -0.3703 -1.7627  3.7505
  405MPD2     N 6107   1.980   0.809  14.452  0.1514  0.2720  0.1066
  405MPD2    H5 6108   1.936   0.722  14.422 -0.9682  0.8036  0.2347
  405MPD2    N1 6109   2.323   0.533  14.657  0.0117  0.0999  0.6497
  405MPD2    H7 6110   2.386   0.525  14.735  0.7308 -0.3765  0.0169
  406TMC3    C1 6111   1.663   0.898  14.178  0.3556 -0.2390  0.1666
  406TMC3    C2 6112   1.672   0.774  14.126  0.6054  0.3534  0.0521
  406TMC3    C3 6113   1.785   0.700  14.143  0.2159  0.1444 -0.0676
  406TMC3    C4 6114   1.770   0.963  14.231 -0.8643  0.2046  0.7728
  406TMC3    C5 6115   1.873   0.880  14.256 -0.3180 -0.1841  0.2773
  406TMC3    C6 6116   1.892   0.750  14.210  0.4620  0.2618 -0.3461
  406TMC3     C 6117   1.531   0.964  14.190  0.4760 -0.0502  0.4085
  406TMC3     O 6118   1.533   1.085  14.201 -0.7794  0.4056  0.1302
  406TMC3     H 6119   1.582   0.725  14.090 -0.4204  1.6885  0.8194
  406TMC3    H1 6120   1.755   1.055  14.287 -1.1543  0.6633 -0.0615
  406TMC3    H2 6121   1.984   0.697  14.233 -0.3391 -0.4059  1.3759
  406TMC3    C7 6122   1.940   0.919  14.383  0.4316 -0.8794  0.3723
  406TMC3    C8 6123   1.758   0.552  14.144 -0.1707  0.3614  0.3445
  406TMC3    O1 6124   1.956   1.031  14.420 -0.3961 -1.4428  0.2103
  406TMC3    O2 6125   1.647   0.505  14.135 -0.0219 -0.8960  0.2673
  407MPD2     C 6126   0.016   2.902  10.302  0.6216 -0.7660 -0.1382
  407MPD2    C1 6127   4.687   3.021  10.268 -0.2399  0.2877  0.1394
  407MPD2    C2 6128   4.726   3.132  10.342  0.1347  0.0311  0.7449
  407MPD2    C3 6129   0.081   3.124  10.441 -0.2575 -0.1899 -0.4605
  407MPD2    C4 6130   0.149   3.005  10.466  0.9113  0.1341 -0.4417
  407MPD2    C5 6131   0.117   2.896  10.389 -0.4901 -0.1808  0.4388
  407MPD2     H 6132   4.675   3.227  10.332 -0.3898 -0.5496 -2.1798
  407MPD2    H1 6133   0.230   2.997  10.538 -1.1381  1.8944  2.0920
  407MPD2    H2 6134   0.001   2.816  10.238  1.7642 -0.8589 -0.2897
  407MPD2    H3 6135   0.170   2.803  10.405  0.5251  0.0711 -1.4991
  407MPD2     N 6136   0.107   3.239  10.519  0.1638 -0.0361  0.2104
  407MPD2    H5 6137   0.075   3.328  10.481  1.9227  0.9145  0.9642
  407MPD2    N1 6138   4.580   3.019  10.177 -0.7079 -0.5190 -0.0950
  407MPD2    H7 6139   4.540   3.102  10.134  1.7504 -0.2327 -1.8402
  408TMC3    C1 6140   4.447   2.948   9.994  0.1625 -0.1655  0.0643
  408TMC3    C2 6141   4.491   2.885   9.880 -0.0781 -0.0692 -0.3216
  408TMC3    C3 6142   4.487   2.957   9.758  0.5517  0.6666  0.5757
  408TMC3    C4 6143   4.412   3.080   9.990 -0.3887 -0.5626  0.0360
  408TMC3    C5 6144   4.408   3.148   9.869 -0.2096  0.5075  0.4217
  408TMC3    C6 6145   4.442   3.083   9.749 -0.2152  0.4602 -0.4579
  408TMC3     C 6146   4.529   2.908  10.114  0.5884 -0.2942  0.6187
  408TMC3     O 6147   4.549   2.790  10.132 -0.4192 -0.4744  0.0389
  408TMC3     H 6148   4.525   2.782   9.880 -0.6011 -0.2402  0.2281
  408TMC3    H1 6149   4.366   3.132  10.072  0.6596  0.7677 -0.2091
  408TMC3    H2 6150   4.456   3.134   9.655 -0.9447  3.4792  1.0364
  408TMC3    C7 6151   4.454   3.283   9.879  0.4432 -0.3840 -1.1182
  408TMC3    C8 6152   4.606   2.927   9.681  0.1568 -0.7269  0.4345
  408TMC3    O1 6153   4.471   3.326   9.993  0.7040  0.2557 -0.6952
  408TMC3    O2 6154   4.640   2.806   9.670 -0.7061  0.6785  0.3251
  409MPD2     C 6155   3.690   2.365  16.858 -0.4579  0.2614 -0.6363
  409MPD2    C1 6156   3.807   2.376  16.929  0.4033  0.1539 -0.3378
  409MPD2    C2 6157   3.855   2.507  16.950 -0.2756  0.0113  0.0586
  409MPD2    C3 6158   3.790   2.626  16.900 -0.7288 -0.6666  0.3770
  409MPD2    C4 6159   3.671   2.605  16.837 -0.6210 -0.3152  0.3451
  409MPD2    C5 6160   3.625   2.478  16.814 -0.5249 -0.4591  0.6703
  409MPD2     H 6161   3.953   2.519  16.994  1.2663 -0.5062 -3.2773
  409MPD2    H1 6162   3.606   2.689  16.816 -1.9316 -0.9253  1.9500
  409MPD2    H2 6163   3.641   2.271  16.834  1.2612 -0.1457 -2.4631
  409MPD2    H3 6164   3.532   2.461  16.761 -0.0173 -0.4982 -0.2049
  409MPD2     N 6165   3.839   2.755  16.907 -0.1775  0.2011 -0.2271
  409MPD2    H5 6166   3.784   2.825  16.859  1.6081  0.6507 -1.6121
  409MPD2    N1 6167   3.869   2.266  16.989  0.6655 -0.6225  0.0828
  409MPD2    H7 6168   3.915   2.277  17.078 -0.8723  0.7856  0.7059
  410TMC3    C1 6169   4.011   2.921  16.920  0.3994 -0.1161 -0.2237
  410TMC3    C2 6170   4.103   2.985  16.995 -0.2275 -0.5797  0.2399
  410TMC3    C3 6171   4.190   3.079  16.940 -0.6466  0.8943  0.0122
  410TMC3    C4 6172   4.007   2.958  16.782  0.3540 -1.1294 -0.2750
  410TMC3    C5 6173   4.093   3.050  16.729 -0.4714  0.0653  0.0992
  410TMC3    C6 6174   4.184   3.118  16.810 -0.1943  0.0938 -0.3751
  410TMC3     C 6175   3.963   2.789  16.957  0.4504 -0.1162 -0.1701
  410TMC3     O 6176   4.033   2.729  17.036 -0.1478  0.1727  0.0316
  410TMC3     H 6177   4.120   2.954  17.098  1.8585 -1.4364 -0.3614
  410TMC3    H1 6178   3.944   2.905  16.712 -1.5691  3.7708 -2.2511
  410TMC3    H2 6179   4.266   3.175  16.766 -0.2797  0.9261  0.5393
  410TMC3    C7 6180   4.072   3.088  16.589 -0.3288  0.4169  0.4433
  410TMC3    C8 6181   4.322   3.076  16.993 -0.0626 -0.4712  0.5671
  410TMC3    O1 6182   3.995   3.017  16.524 -0.1722 -0.2937 -0.2140
  410TMC3    O2 6183   4.389   3.178  16.982 -0.2390 -0.0643  0.1209
  411MPD2     C 6184   4.073   3.185  14.754  0.0644 -0.3134 -0.5939
  411MPD2    C1 6185   4.014   3.281  14.678  0.0459 -0.0927 -0.0831
  411MPD2    C2 6186   3.917   3.243  14.592 -0.5601 -0.0048 -0.4245
  411MPD2    C3 6187   3.877   3.108  14.584  0.4240  0.7356  0.1064
  411MPD2    C4 6188   3.930   3.011  14.671 -0.8436 -0.4721 -0.5905
  411MPD2    C5 6189   4.027   3.054  14.757  0.8621 -0.2755  0.5327
  411MPD2     H 6190   3.873   3.316  14.525 -1.0647 -1.0554 -1.2265
  411MPD2    H1 6191   3.890   2.912  14.684 -2.0808 -0.3585 -3.6946
  411MPD2    H2 6192   4.152   3.215  14.822  0.5958 -0.7678 -1.0111
  411MPD2    H3 6193   4.077   2.991  14.830  1.9245  1.1791  1.0480
  411MPD2     N 6194   3.792   3.051  14.488  0.3721 -0.1972 -0.0847
  411MPD2    H5 6195   3.756   2.957  14.497  1.1209 -0.5417 -0.6408
  411MPD2    N1 6196   4.046   3.418  14.682 -0.0307 -0.2203  0.0568
  411MPD2    H7 6197   4.003   3.480  14.614 -0.3633  0.0843  0.5515
  412TMC3    C1 6198   3.635   3.044  14.315  1.4506 -0.1164 -0.3745
  412TMC3    C2 6199   3.548   3.112  14.237  0.2816  0.0782 -0.7960
  412TMC3    C3 6200   3.497   3.046  14.128  0.2868  0.0049 -0.1956
  412TMC3    C4 6201   3.671   2.913  14.286  0.2168 -0.2173  0.7696
  412TMC3    C5 6202   3.602   2.845  14.187  0.6916  0.0369  0.2191
  412TMC3    C6 6203   3.512   2.914  14.112 -0.0673 -0.2536  0.1246
  412TMC3     C 6204   3.733   3.123  14.388  0.4228 -0.5130  0.0171
  412TMC3     O 6205   3.741   3.244  14.360  0.2241  0.4864 -0.1437
  412TMC3     H 6206   3.529   3.216  14.264  0.3667 -0.1053 -0.0396
  412TMC3    H1 6207   3.755   2.865  14.335  0.2439  0.5136  1.4514
  412TMC3    H2 6208   3.466   2.858  14.032  0.9132 -0.6371 -0.1688
  412TMC3    C7 6209   3.682   2.772  14.100 -0.1497  0.6579  0.6701
  412TMC3    C8 6210   3.478   3.118  14.002 -0.1192 -0.2223 -0.5328
  412TMC3    O1 6211   3.764   2.691  14.135 -0.4199  0.2343 -0.3037
  412TMC3    O2 6212   3.536   3.070  13.904  0.0136  0.8117  0.0702
  413MPD2     C 6213   1.231   2.154  15.480  0.1073 -0.7252 -0.8102
  413MPD2    C1 6214   1.145   2.064  15.430 -0.2222  0.5916 -0.0860
  413MPD2    C2 6215   1.191   1.947  15.368  0.2721 -0.2180 -0.1315
  413MPD2    C3 6216   1.332   1.936  15.349 -0.6585 -0.7861 -0.2357
  413MPD2    C4 6217   1.418   2.026  15.407  0.2344  0.3170  0.5089
  413MPD2    C5 6218   1.364   2.137  15.464 -0.3182  0.0427  0.2086
  413MPD2     H 6219   1.124   1.873  15.326 -2.1534  1.9435 -0.1160
  413MPD2    H1 6220   1.525   2.027  15.391 -0.4185 -0.9255 -4.0697
  413MPD2    H2 6221   1.191   2.240  15.533  2.4749  0.8142 -1.4810
  413MPD2    H3 6222   1.419   2.225  15.495  0.9913  0.1750 -2.4959
  413MPD2     N 6223   1.375   1.829  15.265 -0.3070  0.7744  0.0058
  413MPD2    H5 6224   1.303   1.774  15.219  2.0846 -2.1921 -0.2108
  413MPD2    N1 6225   1.010   2.092  15.450  0.5116  0.0383 -0.0381
  413MPD2    H7 6226   0.987   2.165  15.516  0.8766  0.5357 -0.4592
  414TMC3    C1 6227   1.520   1.674  15.170 -0.0047  0.3824  0.0806
  414TMC3    C2 6228   1.596   1.576  15.221 -0.5783  0.3563  0.0605
  414TMC3    C3 6229   1.575   1.452  15.161 -0.1757 -0.7016  0.0571
  414TMC3    C4 6230   1.445   1.661  15.058  0.3643 -0.6277  0.2314
  414TMC3    C5 6231   1.431   1.544  14.995  0.6303 -0.1912 -0.4671
  414TMC3    C6 6232   1.505   1.438  15.040  0.2925  0.0806 -0.3296
  414TMC3     C 6233   1.496   1.778  15.262 -0.1081  0.9321 -0.1479
  414TMC3     O 6234   1.585   1.796  15.340 -0.0441 -0.1085  0.3385
  414TMC3     H 6235   1.648   1.583  15.316  0.2892  0.3576 -0.4198
  414TMC3    H1 6236   1.415   1.751  15.006  0.5715 -1.0696 -0.6601
  414TMC3    H2 6237   1.493   1.340  14.995 -0.0778 -0.9965  2.0930
  414TMC3    C7 6238   1.451   1.573  14.856  0.2921  0.2359  0.0179
  414TMC3    C8 6239   1.689   1.360  15.173 -0.7979  0.4129 -0.0856
  414TMC3    O1 6240   1.380   1.651  14.798  0.3179 -0.0926  0.1328
  414TMC3    O2 6241   1.675   1.239  15.153 -0.2738  0.4258  0.5142
  415TMC3    C1 6242   1.998   1.087  10.509  0.4164  0.5466  0.3466
  415TMC3    C2 6243   2.063   1.201  10.463 -0.6726 -0.0424 -0.6718
  415TMC3    C3 6244   1.980   1.306  10.438  0.6660 -0.1483  0.2895
  415TMC3    C4 6245   1.861   1.074  10.530 -0.6211  1.5263 -0.2452
  415TMC3    C5 6246   1.789   1.186  10.499  0.1369  0.1435  0.0994
  415TMC3    C6 6247   1.849   1.303  10.457  0.0282  0.2416  0.4335
  415TMC3     C 6248   2.079   0.995  10.589  0.7993  0.9564 -0.1803
  415TMC3     O 6249   2.014   0.931  10.669  0.0166  0.3686  0.6567
  415TMC3     H 6250   2.171   1.215  10.465 -0.2095 -3.6495  0.2385
  415TMC3    H1 6251   1.814   0.977  10.541  1.4594  0.3957 -1.2584
  415TMC3    H2 6252   1.780   1.386  10.449  0.6240  0.5647 -1.1612
  415TMC3    C7 6253   1.646   1.187  10.512  0.1477 -1.5946  0.0342
  415TMC3    C8 6254   2.012   1.386  10.323 -0.5156  0.1189 -0.2127
  415TMC3    O1 6255   1.584   1.261  10.439  0.2612 -0.1806 -0.3082
  415TMC3    O2 6256   1.913   1.441  10.268  0.3365  0.2076  0.5231
  416MPD2     C 6257   3.531   4.309  11.902 -0.3260  0.0949 -0.6645
  416MPD2    C1 6258   3.425   4.268  11.824 -0.4940  0.6753 -0.9158
  416MPD2    C2 6259   3.458   4.203  11.704  0.5723 -0.2112 -0.4042
  416MPD2    C3 6260   3.590   4.176  11.668 -0.1183 -0.3350 -0.6492
  416MPD2    C4 6261   3.695   4.223  11.753  0.4029 -0.0355 -0.3679
  416MPD2    C5 6262   3.663   4.285  11.869  1.2070  0.4198  0.0567
  416MPD2     H 6263   3.385   4.162  11.636  0.2283 -2.5754  1.3893
  416MPD2    H1 6264   3.798   4.216  11.719  1.9633 -0.2365  4.4044
  416MPD2    H2 6265   3.504   4.367  11.989 -2.0432 -1.9547  0.1968
  416MPD2    H3 6266   3.740   4.323  11.934  0.5298  1.2046  0.4036
  416MPD2     N 6267   3.626   4.097  11.557  0.4684 -0.6582 -0.1340
  416MPD2    H5 6268   3.723   4.068  11.550  0.5627 -0.5163  0.5170
  416MPD2    N1 6269   3.292   4.300  11.854  0.2113  0.4265  0.0283
  416MPD2    H7 6270   3.276   4.339  11.946  1.0511 -0.3979  0.5261
  417TMC3    C1 6271   3.052   4.297  11.842 -0.1170  0.5461  0.0880
  417TMC3    C2 6272   3.009   4.187  11.917  0.0510 -0.3354 -0.3293
  417TMC3    C3 6273   2.882   4.141  11.889  0.0680 -0.0430  0.0122
  417TMC3    C4 6274   2.979   4.349  11.737  0.1067  0.0154  0.1281
  417TMC3    C5 6275   2.855   4.306  11.717  0.3645  0.6042 -0.3317
  417TMC3    C6 6276   2.811   4.200  11.793  0.3955  0.3746 -0.4434
  417TMC3     C 6277   3.181   4.269  11.782  0.9269  0.0262 -0.1465
  417TMC3     O 6278   3.165   4.209  11.676  0.4749 -0.2553 -0.2540
  417TMC3     H 6279   3.063   4.148  12.003  1.6632 -2.4253 -2.2853
  417TMC3    H1 6280   3.025   4.425  11.675 -0.2562  0.8291  0.8581
  417TMC3    H2 6281   2.712   4.170  11.761  0.5572  0.7310 -1.2869
  417TMC3    C7 6282   2.780   4.379  11.615 -0.0695 -0.2480  0.4212
  417TMC3    C8 6283   2.819   4.031  11.963 -0.2127  0.5446  0.3303
  417TMC3    O1 6284   2.820   4.489  11.577 -0.3026  0.4025  0.5692
  417TMC3    O2 6285   2.730   3.970  11.906 -0.6633 -0.3254 -0.3458
  418TMC3    C1 6286   2.250   0.756   0.506  0.1973 -0.3502  0.1697
  418TMC3    C2 6287   2.168   0.717   0.403 -0.2355 -0.2174  0.9595
  418TMC3    C3 6288   2.157   0.581   0.391 -0.5177 -0.1134 -0.0081
  418TMC3    C4 6289   2.298   0.668   0.602  0.2009  0.0574 -0.0070
  418TMC3    C5 6290   2.254   0.539   0.597  0.0010 -0.8139  0.0522
  418TMC3    C6 6291   2.191   0.492   0.490  0.2837 -0.2914  0.1739
  418TMC3     C 6292   2.343   0.868   0.480 -0.3652 -0.1364  0.0141
  418TMC3     O 6293   2.300   0.953   0.401  0.2015  0.5431 -0.2394
  418TMC3     H 6294   2.121   0.786   0.335  1.6366  0.9194  0.8102
  418TMC3    H1 6295   2.360   0.701   0.685  0.9130  1.1443 -0.9694
  418TMC3    H2 6296   2.163   0.387   0.498 -0.5436 -0.1612 -1.0503
  418TMC3    C7 6297   2.327   0.438   0.663 -0.3628  0.0236  0.2882
  418TMC3    C8 6298   2.150   0.522   0.261 -0.0534 -0.6676 -0.6980
  418TMC3    O1 6299   2.346   0.334   0.608 -0.4792  0.2454 -0.8013
  418TMC3    O2 6300   2.114   0.591   0.169  0.0561 -0.1959  0.5767
  419MPD2     C 6301   0.764   3.456  12.509 -0.2741  0.2002 -0.1867
  419MPD2    C1 6302   0.706   3.580  12.502  0.5397 -0.3525 -0.2376
  419MPD2    C2 6303   0.660   3.633  12.619 -0.1459 -0.1860 -0.1829
  419MPD2    C3 6304   0.671   3.567  12.741  0.1285  0.2076  0.4230
  419MPD2    C4 6305   0.725   3.444  12.752 -0.0304 -0.1653  0.5956
  419MPD2    C5 6306   0.773   3.399  12.631  0.1660 -0.1284  0.0624
  419MPD2     H 6307   0.611   3.730  12.622 -1.3733 -0.8252  0.0943
  419MPD2    H1 6308   0.754   3.394  12.844  2.6964  0.3028 -0.0243
  419MPD2    H2 6309   0.792   3.405  12.418 -2.5766  0.7883 -1.2403
  419MPD2    H3 6310   0.811   3.297  12.634 -0.1822 -0.2897 -1.0459
  419MPD2     N 6311   0.607   3.628  12.851  0.4445 -0.0226  0.2508
  419MPD2    H5 6312   0.561   3.717  12.834 -0.4425 -0.7377 -1.1031
  419MPD2    N1 6313   0.704   3.648  12.381 -0.4299  0.0085  0.1736
  419MPD2    H7 6314   0.742   3.598  12.301 -0.4040 -0.0539  0.2246
  420TMC3    C1 6315   0.541   3.679  13.058 -1.0756 -0.5512  0.9407
  420TMC3    C2 6316   0.438   3.753  13.004 -0.5734 -0.2618  0.0053
  420TMC3    C3 6317   0.356   3.815  13.099  0.1736 -0.3386 -0.7104
  420TMC3    C4 6318   0.575   3.686  13.193  0.2145 -0.3395 -0.1659
  420TMC3    C5 6319   0.491   3.755  13.280  0.1979 -0.4577  0.2847
  420TMC3    C6 6320   0.380   3.820  13.231  0.6632 -0.3275 -0.3702
  420TMC3     C 6321   0.615   3.589  12.983 -0.9368 -0.1064  0.4600
  420TMC3     O 6322   0.685   3.500  13.032  0.5969 -0.0477  0.4181
  420TMC3     H 6323   0.405   3.751  12.901  1.7255 -1.1807 -0.7104
  420TMC3    H1 6324   0.653   3.623  13.234  2.2058  1.3902 -1.3116
  420TMC3    H2 6325   0.307   3.862  13.299 -2.1183 -1.4486 -2.6377
  420TMC3    C7 6326   0.520   3.759  13.423  0.8732  0.5627 -0.0996
  420TMC3    C8 6327   0.255   3.906  13.045  0.0993 -0.1952 -0.2139
  420TMC3    O1 6328   0.607   3.685  13.475  0.1034  0.5231  0.4869
  420TMC3    O2 6329   0.240   4.016  13.093  0.1540  0.2502 -0.1164
  421TMC3    C1 6330   2.479   4.685  13.764 -0.3258  0.6917 -0.4626
  421TMC3    C2 6331   2.460   0.079  13.797  0.0761 -0.0296 -0.3878
  421TMC3    C3 6332   2.533   0.129  13.906 -0.6211 -0.2783  0.2732
  421TMC3    C4 6333   2.555   4.604  13.843  0.1363  0.8477 -0.7043
  421TMC3    C5 6334   2.619   4.657  13.951 -0.2088 -0.1498  0.2682
  421TMC3    C6 6335   2.605   0.051  13.987  0.1920 -0.5451  0.1838
  421TMC3     C 6336   2.439   4.638  13.624 -0.0148 -0.2493 -0.4182
  421TMC3     O 6337   2.497   4.541  13.576  0.1671 -0.3017 -0.5942
  421TMC3     H 6338   2.418   0.148  13.725 -0.5847  1.1167  1.0721
  421TMC3    H1 6339   2.562   4.501  13.810 -0.8371  0.1721  1.2045
  421TMC3    H2 6340   2.669   0.090  14.065 -0.8462  0.0723  0.7207
  421TMC3    C7 6341   2.732   4.587  14.014 -0.2258  0.0742 -1.0912
  421TMC3    C8 6342   2.494   0.256  13.970 -0.4944  0.1938  0.8632
  421TMC3    O1 6343   2.808   4.662  14.074  0.2140  0.5609  0.0322
  421TMC3    O2 6344   2.540   0.273  14.086 -0.5695  0.2006  0.0210
  422TMC3    C1 6345   4.386   2.012  12.185  0.3660  0.2380  0.3084
  422TMC3    C2 6346   4.475   2.111  12.144 -0.3999 -0.6170 -0.3192
  422TMC3    C3 6347   4.423   2.236  12.118 -0.0623  0.0673 -0.7981
  422TMC3    C4 6348   4.250   2.038  12.189  0.5199 -0.0925  0.3319
  422TMC3    C5 6349   4.207   2.163  12.162 -0.6063 -0.3335 -0.1422
  422TMC3    C6 6350   4.288   2.267  12.137  0.0498  0.6335 -0.4742
  422TMC3     C 6351   4.447   1.883  12.223 -0.0252 -0.7595  0.3156
  422TMC3     O 6352   4.565   1.884  12.208  0.2298 -0.8123  0.3026
  422TMC3     H 6353   4.580   2.090  12.125 -0.2127  1.5898 -1.6800
  422TMC3    H1 6354   4.178   1.960  12.213 -0.7945  1.4942  1.5703
  422TMC3    H2 6355   4.249   2.368  12.131  0.6590  0.8386 -0.9047
  422TMC3    C7 6356   4.071   2.191  12.162 -0.4761 -0.1363 -0.1832
  422TMC3    C8 6357   4.496   2.354  12.164 -0.4774  0.5940 -0.7337
  422TMC3    O1 6358   4.038   2.286  12.094  0.5190  0.7819 -0.1743
  422TMC3    O2 6359   4.441   2.444  12.229 -0.9695 -0.3822 -0.3222
  423MPD2     C 6360   0.438   2.006   0.358  0.5866  0.0897  0.2512
  423MPD2    C1 6361   0.551   1.939   0.390  0.1064 -1.3606 -0.7576
  423MPD2    C2 6362   0.621   1.886   0.284 -0.2338 -0.6164 -0.2269
  423MPD2    C3 6363   0.575   1.890   0.155 -0.1539  0.5661 -0.0654
  423MPD2    C4 6364   0.462   1.953   0.125  0.0553  0.1668 -0.0484
  423MPD2    C5 6365   0.386   2.005   0.230  0.3341 -0.2300 -0.5941
  423MPD2     H 6366   0.714   1.834   0.304  0.4703  0.7610  0.0374
  423MPD2    H1 6367   0.420   1.965   0.026  0.6041 -3.1300 -0.6747
  423MPD2    H2 6368   0.378   2.062   0.429 -0.8022  0.2834 -1.0963
  423MPD2    H3 6369   0.301   2.067   0.204 -0.5059 -0.1332  2.3949
  423MPD2     N 6370   0.644   1.828   0.044  0.6179 -0.0049 -0.6338
  423MPD2    H5 6371   0.602   1.850  17.706  1.9898 -1.3886 -1.6356
  423MPD2    N1 6372   0.609   1.940   0.519  0.4400  0.1092 -0.2087
  423MPD2    H7 6373   0.708   1.924   0.529  0.0508 -2.3015 -0.3973
  424TMC3    C1 6374   0.627   1.986   0.755  0.0313 -0.4305 -0.2081
  424TMC3    C2 6375   0.734   1.907   0.775  0.4387 -0.1645  0.1477
  424TMC3    C3 6376   0.810   1.928   0.889  0.1326 -0.0579 -0.1417
  424TMC3    C4 6377   0.600   2.084   0.851  0.2944 -0.6012  0.5507
  424TMC3    C5 6378   0.673   2.096   0.964  0.7211 -1.4144 -0.1388
  424TMC3    C6 6379   0.786   2.018   0.986 -0.3069 -0.3816 -0.1898
  424TMC3     C 6380   0.556   1.997   0.636 -0.0034  0.4745  0.6007
  424TMC3     O 6381   0.438   2.032   0.647 -0.5708  0.2936 -1.0990
  424TMC3     H 6382   0.752   1.827   0.705 -0.2581 -2.1290  2.2170
  424TMC3    H1 6383   0.516   2.146   0.822 -0.3050 -2.7007 -2.2184
  424TMC3    H2 6384   0.862   2.049   1.056 -1.7010  1.2520  0.6083
  424TMC3    C7 6385   0.646   2.205   1.052 -0.0736  0.0416  0.5481
  424TMC3    C8 6386   0.898   1.820   0.913 -0.3312 -0.6398  0.8387
  424TMC3    O1 6387   0.714   2.206   1.155  0.2642  0.0788 -0.4010
  424TMC3    O2 6388   0.945   1.764   0.814  0.7595  0.3648  0.2961
  425MPD2     C 6389   0.135   1.444  17.519 -0.1402 -0.2901 -0.5983
  425MPD2    C1 6390   0.133   1.377  17.400  0.0693 -0.0451 -0.5973
  425MPD2    C2 6391   0.025   1.379  17.313 -0.1250  0.6592 -0.7935
  425MPD2    C3 6392   4.648   1.438  17.357 -0.6459  0.1506  0.1149
  425MPD2    C4 6393   4.644   1.498  17.481 -0.8050 -0.4467  0.5277
  425MPD2    C5 6394   0.020   1.507  17.558  0.8642  0.1849  0.1276
  425MPD2     H 6395   0.032   1.334  17.215 -1.0282 -2.3020  0.5322
  425MPD2    H1 6396   4.554   1.534  17.529 -0.1017 -1.3091  2.4609
  425MPD2    H2 6397   0.217   1.445  17.589 -2.1928  1.4906  1.7847
  425MPD2    H3 6398   0.024   1.564  17.650 -2.8922  0.3730  0.1407
  425MPD2     N 6399   4.533   1.433  17.274  0.2083  0.1130 -0.0337
  425MPD2    H5 6400   4.547   1.386  17.185  2.2023  0.0162  0.3235
  425MPD2    N1 6401   0.253   1.301  17.373  0.3549  0.0542 -0.5699
  425MPD2    H7 6402   0.320   1.299  17.449  0.3579 -0.1869 -0.5804
  426TMC3    C1 6403   0.383   1.131  17.274 -0.0801 -0.1616  0.8034
  426TMC3    C2 6404   0.414   1.076  17.157 -0.0402  0.4753 -0.5608
  426TMC3    C3 6405   0.430   0.940  17.146 -0.2974  0.4460  0.0840
  426TMC3    C4 6406   0.386   1.067  17.389  0.3255  0.2026 -0.3239
  426TMC3    C5 6407   0.404   0.931  17.381  0.1445 -0.2004 -0.3203
  426TMC3    C6 6408   0.431   0.867  17.259  0.1248 -0.0439  0.6959
  426TMC3     C 6409   0.280   1.231  17.252 -0.3953  0.6874  0.1131
  426TMC3     O 6410   0.234   1.237  17.141 -0.2788  0.0077  0.5414
  426TMC3     H 6411   0.439   1.145  17.077  2.0025 -1.3972 -1.5565
  426TMC3    H1 6412   0.359   1.116  17.482 -0.8407 -1.2992  0.1252
  426TMC3    H2 6413   0.415   0.760  17.252 -0.5238 -0.0574  2.2339
  426TMC3    C7 6414   0.394   0.842  17.494 -0.2586  0.2537  0.7104
  426TMC3    C8 6415   0.346   0.885  17.035 -0.1217 -0.3589 -0.1501
  426TMC3    O1 6416   0.422   0.722  17.488 -0.2065 -0.1620  0.5306
  426TMC3    O2 6417   0.332   0.767  17.008  0.2094 -0.3341  0.1860
  427MPD2     C 6418   3.247   3.673  14.905 -0.0820  0.0219 -0.5315
  427MPD2    C1 6419   3.196   3.602  15.010 -0.0175 -1.1033  0.3600
  427MPD2    C2 6420   3.060   3.615  15.039  0.1637  0.2225  0.0622
  427MPD2    C3 6421   2.979   3.702  14.965 -0.4181 -0.1328 -0.5696
  427MPD2    C4 6422   3.036   3.777  14.872 -0.2551 -0.3307 -0.3257
  427MPD2    C5 6423   3.167   3.771  14.853 -0.5746  0.8088  0.2559
  427MPD2     H 6424   3.018   3.553  15.117 -2.0426  0.1153 -1.2272
  427MPD2    H1 6425   2.973   3.850  14.824  0.1707  0.1921 -0.0869
  427MPD2    H2 6426   3.349   3.658  14.872  0.6997  0.8867  1.4970
  427MPD2    H3 6427   3.203   3.843  14.780  0.6558 -0.3767 -0.3116
  427MPD2     N 6428   2.841   3.708  14.974 -0.4143 -0.0594 -0.5153
  427MPD2    H5 6429   2.792   3.769  14.910 -0.3240  2.0204  1.4215
  427MPD2    N1 6430   3.272   3.507  15.080  0.1475 -0.2288  0.3419
  427MPD2    H7 6431   3.231   3.465  15.163  0.1903  0.7471  0.8547
  428TMC3    C1 6432   3.454   3.384  15.155  0.1872  0.2999 -0.6759
  428TMC3    C2 6433   3.370   3.291  15.212 -0.1583  0.4609 -0.0220
  428TMC3    C3 6434   3.418   3.235  15.328  0.4059  0.2614  0.9892
  428TMC3    C4 6435   3.580   3.412  15.201 -0.0954 -0.3074 -0.0538
  428TMC3    C5 6436   3.622   3.339  15.309  0.1037  1.2988  0.7470
  428TMC3    C6 6437   3.542   3.254  15.373  0.0801  0.1075 -0.0131
  428TMC3     C 6438   3.400   3.457  15.046 -0.3740  0.2768  0.4704
  428TMC3     O 6439   3.479   3.491  14.959  0.1697  0.2871 -0.0629
  428TMC3     H 6440   3.281   3.253  15.163  1.6063  0.3977 -3.2245
  428TMC3    H1 6441   3.642   3.478  15.141 -0.7567  0.6397  0.2982
  428TMC3    H2 6442   3.568   3.194  15.459 -2.7708 -1.0996  0.0059
  428TMC3    C7 6443   3.756   3.357  15.359  0.2012  0.3407  0.3671
  428TMC3    C8 6444   3.336   3.125  15.376  0.0020  0.1177  0.2170
  428TMC3    O1 6445   3.768   3.352  15.481 -0.3278 -0.4011 -0.0911
  428TMC3    O2 6446   3.212   3.142  15.349  0.2614 -0.5747 -0.1793
  429MPD2     C 6447   4.180   3.483  17.555  0.3871 -0.0388  0.3414
  429MPD2    C1 6448   4.317   3.456  17.516 -0.5728  0.6454  0.4533
  429MPD2    C2 6449   4.403   3.563  17.498  0.7236 -1.0036  0.6218
  429MPD2    C3 6450   4.360   3.692  17.512 -0.1631 -0.4531 -0.3219
  429MPD2    C4 6451   4.229   3.719  17.548  0.5987  1.2241 -0.2145
  429MPD2    C5 6452   4.146   3.611  17.580  0.2154  0.0201 -0.3265
  429MPD2     H 6453   4.505   3.532  17.477 -0.2510 -2.4434 -1.9418
  429MPD2    H1 6454   4.195   3.822  17.547 -0.6472  0.8262  0.6776
  429MPD2    H2 6455   4.105   3.408  17.576  0.2853  0.3813  1.4591
  429MPD2    H3 6456   4.049   3.643  17.616  1.1150  2.1105  0.2833
  429MPD2     N 6457   4.454   3.789  17.471 -0.4167  0.3950 -0.7820
  429MPD2    H5 6458   4.543   3.750  17.440 -0.6198  1.7264 -3.0796
  429MPD2    N1 6459   4.359   3.324  17.493 -0.3345  0.2853  0.3149
  429MPD2    H7 6460   4.456   3.312  17.464  0.2580  0.2071  2.3707
  430TMC3    C1 6461   4.545   3.988  17.406 -0.9110 -0.6954 -0.2609
  430TMC3    C2 6462   4.502   4.106  17.350  0.4209 -0.2878  0.6613
  430TMC3    C3 6463   4.542   4.137  17.221 -0.2734 -0.2533  0.3352
  430TMC3    C4 6464   4.629   3.903  17.339  0.3818  0.5859  0.2065
  430TMC3    C5 6465   4.656   3.931  17.209 -0.1788  0.1932 -0.0923
  430TMC3    C6 6466   4.615   4.048  17.150 -0.1829  0.0856 -0.3851
  430TMC3     C 6467   4.443   3.926  17.478  0.1887 -0.0113  0.3872
  430TMC3     O 6468   4.359   3.995  17.535 -0.1857 -0.2258  0.2268
  430TMC3     H 6469   4.435   4.172  17.405  2.5319  2.2297  0.2110
  430TMC3    H1 6470   4.670   3.811  17.378 -1.4471 -0.8148 -1.1609
  430TMC3    H2 6471   4.632   4.069  17.045  1.3499  1.4694  0.1342
  430TMC3    C7 6472   4.712   3.821  17.131  0.2084 -0.7532 -0.1868
  430TMC3    C8 6473   4.465   4.228  17.141 -0.3030  0.3765 -0.3123
  430TMC3    O1 6474   4.657   3.710  17.145  0.1744  0.3305  0.1615
  430TMC3    O2 6475   4.464   4.350  17.169 -0.3292 -0.4171 -0.0458
  431MPD2     C 6476   0.362   4.558  12.287  0.1708  0.8385  0.5441
  431MPD2    C1 6477   0.500   4.570  12.291 -0.0022 -0.2588  0.2274
  431MPD2    C2 6478   0.569   4.450  12.258  0.4017 -0.0362 -0.3291
  431MPD2    C3 6479   0.502   4.336  12.215 -0.6211  0.7663 -0.6664
  431MPD2    C4 6480   0.366   4.335  12.216 -0.2387 -0.5664  0.3180
  431MPD2    C5 6481   0.298   4.446  12.244 -0.5696 -1.2748  0.1740
  431MPD2     H 6482   0.677   4.458  12.270  0.4688  0.8257 -1.5007
  431MPD2    H1 6483   0.315   4.243  12.190 -1.2818 -0.2243  1.1750
  431MPD2    H2 6484   0.295   4.638  12.316  1.3047  1.5058  1.3475
  431MPD2    H3 6485   0.191   4.435  12.257 -0.5504  1.9515  2.9101
  431MPD2     N 6486   0.562   4.212  12.180 -0.0160  0.8550 -0.2097
  431MPD2    H5 6487   0.497   4.139  12.155 -1.0976  1.9538 -0.6234
  431MPD2    N1 6488   0.567   4.680  12.333 -0.4669 -0.0600 -0.1061
  431MPD2    H7 6489   0.510   0.024  12.349  2.0456  1.5538  0.6220
  432TMC3    C1 6490   0.733   4.050  12.152 -0.0197  0.7909  0.0269
  432TMC3    C2 6491   0.858   4.020  12.103 -0.4272  0.0035  0.2479
  432TMC3    C3 6492   0.900   3.893  12.115 -0.3639 -0.0345  0.6090
  432TMC3    C4 6493   0.658   3.955  12.219 -0.2441  0.0708 -0.1744
  432TMC3    C5 6494   0.706   3.834  12.237 -0.6083 -0.0601 -0.2606
  432TMC3    C6 6495   0.820   3.791  12.178 -0.0701  0.3197  0.2084
  432TMC3     C 6496   0.700   4.187  12.189  0.0327 -0.5867 -0.3580
  432TMC3     O 6497   0.790   4.272  12.207 -0.4259  0.4185 -0.0997
  432TMC3     H 6498   0.918   4.091  12.047 -2.4510 -0.0756 -2.0637
  432TMC3    H1 6499   0.563   3.982  12.264 -1.5743  0.0097 -2.9491
  432TMC3    H2 6500   0.868   3.697  12.204 -0.4002  0.2199  0.4478
  432TMC3    C7 6501   0.654   3.779  12.360 -0.1232  0.6577  0.3778
  432TMC3    C8 6502   1.036   3.858  12.076  0.1399  0.4086  0.3712
  432TMC3    O1 6503   0.597   3.855  12.433 -0.4252 -0.0805  0.1781
  432TMC3    O2 6504   1.072   3.743  12.098 -0.0485  0.0141  0.1360
  433MPD2     C 6505   0.054   3.251  11.018 -0.4943 -0.1282 -0.2607
  433MPD2    C1 6506   0.161   3.195  11.080 -0.4864 -0.0920  0.0846
  433MPD2    C2 6507   0.185   3.221  11.217  0.1643 -0.2173  0.7859
  433MPD2    C3 6508   0.117   3.311  11.288 -0.6764  0.0018 -0.2130
  433MPD2    C4 6509   0.025   3.381  11.221 -0.6691  0.2075  0.3589
  433MPD2    C5 6510   4.728   3.344  11.090  0.0413  0.3154  0.6811
  433MPD2     H 6511   0.259   3.159  11.266  0.0566 -0.7269  0.3007
  433MPD2    H1 6512   4.691   3.450  11.262  0.3526  0.2879  1.9969
  433MPD2    H2 6513   0.025   3.231  10.916  1.3018 -1.9155 -0.4255
  433MPD2    H3 6514   4.651   3.404  11.043 -1.2268 -0.2421  2.0597
  433MPD2     N 6515   0.131   3.321  11.428 -0.7780  0.6735 -0.0857
  433MPD2    H5 6516   0.201   3.257  11.463  0.1813  1.3190 -0.8001
  433MPD2    N1 6517   0.251   3.104  11.007 -0.5235 -0.9590  0.8303
  433MPD2    H7 6518   0.235   3.092  10.907 -0.8339 -1.8031  0.9726
  434TMC3    C1 6519   0.409   2.920  10.988 -0.2596 -0.3443  0.2445
  434TMC3    C2 6520   0.504   2.848  11.053 -0.3856  0.2695 -0.4059
  434TMC3    C3 6521   0.536   2.724  11.007  0.2952 -0.5769  0.3373
  434TMC3    C4 6522   0.341   2.873  10.882 -0.3277  0.1455  0.1898
  434TMC3    C5 6523   0.384   2.754  10.832 -0.0739 -0.3162 -0.0522
  434TMC3    C6 6524   0.482   2.681  10.889  0.3907 -0.4283  1.0439
  434TMC3     C 6525   0.356   3.032  11.064  0.6222 -0.2185 -0.0369
  434TMC3     O 6526   0.399   3.021  11.179 -0.4175 -0.8064 -0.1963
  434TMC3     H 6527   0.561   2.883  11.138  1.0933  0.8534 -1.6391
  434TMC3    H1 6528   0.250   2.920  10.848 -0.5458 -0.8201 -0.5773
  434TMC3    H2 6529   0.524   2.594  10.841  1.7527 -0.0283  1.5348
  434TMC3    C7 6530   0.287   2.691  10.745 -0.2997 -0.1692  0.5784
  434TMC3    C8 6531   0.570   2.623  11.107  0.3295  0.5994 -0.5025
  434TMC3    O1 6532   0.201   2.764  10.696 -0.3347  0.1943 -0.2526
  434TMC3    O2 6533   0.645   2.659  11.198 -0.9934 -1.1444  0.0056
  435MPD2     C 6534   1.614   2.715  15.531  0.3975  0.7344  0.4323
  435MPD2    C1 6535   1.544   2.600  15.561  0.3545  0.4204 -0.7217
  435MPD2    C2 6536   1.607   2.484  15.609 -0.0850 -0.3911 -0.5092
  435MPD2    C3 6537   1.745   2.484  15.619 -0.4880 -0.3850  0.0592
  435MPD2    C4 6538   1.812   2.592  15.596  0.3502  0.4344 -0.2879
  435MPD2    C5 6539   1.749   2.713  15.557 -0.0383  1.0011 -0.0955
  435MPD2     H 6540   1.550   2.393  15.628 -1.6464  1.1936  2.3633
  435MPD2    H1 6541   1.919   2.597  15.614  0.2704  0.3029  0.2092
  435MPD2    H2 6542   1.561   2.800  15.491  1.0784  1.6119  1.4165
  435MPD2    H3 6543   1.810   2.798  15.528  1.9856  0.0778  1.5369
  435MPD2     N 6544   1.804   2.356  15.651  0.1203  0.0835  0.3425
  435MPD2    H5 6545   1.745   2.277  15.673  0.3646 -0.3063 -0.4206
  435MPD2    N1 6546   1.401   2.590  15.539 -0.5984  0.2930 -0.1028
  435MPD2    H7 6547   1.350   2.517  15.588 -0.8670  0.4098 -0.2083
  436TMC3    C1 6548   1.015   2.489  15.558  0.3083 -0.3705 -0.6224
  436TMC3    C2 6549   1.136   2.553  15.565  0.0104 -0.1829  0.0628
  436TMC3    C3 6550   1.194   2.591  15.448  0.7612  0.9991 -1.0619
  436TMC3    C4 6551   0.972   2.444  15.439 -0.3328  0.0064 -0.0591
  436TMC3    C5 6552   1.044   2.466  15.323 -0.4663  0.3929  0.6018
  436TMC3    C6 6553   1.160   2.537  15.327 -0.1784  0.3236  0.4065
  436TMC3     C 6554   0.973   2.405  15.670  0.1943  0.2136  1.1546
  436TMC3     O 6555   0.954   2.287  15.648  0.1153 -0.0991  0.2893
  436TMC3     H 6556   1.177   2.589  15.659 -1.2125  0.4037  0.3593
  436TMC3    H1 6557   0.893   2.370  15.431 -1.3154  0.9429  1.0131
  436TMC3    H2 6558   1.205   2.584  15.240  2.2313  0.6084  1.8226
  436TMC3    C7 6559   1.010   2.386  15.206 -0.1939 -0.1733 -0.0801
  436TMC3    C8 6560   1.323   2.656  15.453 -0.1974 -0.0218  0.0042
  436TMC3    O1 6561   0.905   2.322  15.219 -0.8261 -0.1221 -0.0512
  436TMC3    O2 6562   1.351   2.735  15.361  0.1326 -0.2168  0.3397
  437TMC3    C1 6563   0.066   0.235  12.642 -0.3516 -0.4725 -0.4572
  437TMC3    C2 6564   4.685   0.269  12.688  0.7290 -0.1399  0.7395
  437TMC3    C3 6565   4.645   0.398  12.675  0.1622  0.4489 -0.1877
  437TMC3    C4 6566   0.158   0.323  12.599 -0.0184  0.0051 -0.2470
  437TMC3    C5 6567   0.124   0.454  12.602  0.0988  0.1545 -0.4637
  437TMC3    C6 6568   4.731   0.492  12.627  1.2790  0.2549  0.2396
  437TMC3     C 6569   0.109   0.097  12.644 -0.1524  0.4818  0.0607
  437TMC3     O 6570   0.160   0.058  12.536 -0.3714  0.0459  0.5524
  437TMC3     H 6571   4.620   0.189  12.722 -0.2010  1.2289  2.1682
  437TMC3    H1 6572   0.252   0.293  12.556 -0.7630  0.0103 -1.8670
  437TMC3    H2 6573   4.699   0.593  12.603  0.4115 -0.5437 -2.0041
  437TMC3    C7 6574   0.221   0.557  12.565 -0.6381  0.1470 -0.3621
  437TMC3    C8 6575   4.531   0.432  12.750 -0.8198 -0.6094  0.8417
  437TMC3    O1 6576   0.184   0.665  12.520 -0.2767  0.6165  0.2302
  437TMC3    O2 6577   4.486   0.350  12.832  0.3535 -0.0222  0.2567
  438MPD2     C 6578   2.968   0.444  16.612  0.4140  0.1737 -0.1528
  438MPD2    C1 6579   2.998   0.324  16.677 -0.0289  0.6625  0.5583
  438MPD2    C2 6580   3.014   0.325  16.812 -0.3839 -0.1374  0.0639
  438MPD2    C3 6581   2.977   0.434  16.885 -0.0108 -0.5790  0.4791
  438MPD2    C4 6582   2.944   0.551  16.821 -0.4695 -0.2681 -0.1124
  438MPD2    C5 6583   2.947   0.560  16.687 -0.2983 -0.9615  0.4839
  438MPD2     H 6584   3.028   0.232  16.865  1.1026 -0.2822 -0.5781
  438MPD2    H1 6585   2.926   0.645  16.872  1.3558  1.1554 -2.1294
  438MPD2    H2 6586   2.972   0.455  16.504  2.8023  2.7605  0.2156
  438MPD2    H3 6587   2.928   0.654  16.636 -0.4830 -0.4209  1.5492
  438MPD2     N 6588   2.948   0.439  17.028  0.3926 -0.5597  0.4509
  438MPD2    H5 6589   2.909   0.525  17.065  2.5630  1.3642 -1.7185
  438MPD2    N1 6590   3.008   0.198  16.616 -0.6721  0.5706  0.3723
  438MPD2    H7 6591   3.045   0.117  16.665 -0.6777  1.6033  2.0858
  439TMC3    C1 6592   2.998   0.033  16.449  0.3283  0.6452 -0.2546
  439TMC3    C2 6593   2.973   0.000  16.317 -0.0137  0.1286 -0.1059
  439TMC3    C3 6594   2.999   4.608  16.277  0.1381 -0.8876 -0.1629
  439TMC3    C4 6595   3.047   4.681  16.536  0.1651  0.6421  0.0472
  439TMC3    C5 6596   3.072   4.553  16.493  0.2713  0.2396 -0.0815
  439TMC3    C6 6597   3.050   4.510  16.366  0.1027 -0.3604  0.1956
  439TMC3     C 6598   2.972   0.175  16.486 -0.1857 -0.4446  0.2778
  439TMC3     O 6599   2.924   0.248  16.402 -0.5278  0.3932  0.0335
  439TMC3     H 6600   2.949   0.076  16.243  0.3248 -0.8576 -1.2262
  439TMC3    H1 6601   3.067   4.707  16.640  0.7540  1.1068 -0.1840
  439TMC3    H2 6602   3.075   4.409  16.339  0.8770 -0.4223  1.1500
  439TMC3    C7 6603   3.136   4.465  16.587  0.2953 -0.4143  0.2870
  439TMC3    C8 6604   3.046   4.586  16.143 -0.1084  0.9363 -0.2715
  439TMC3    O1 6605   3.159   4.503  16.703  0.4609 -0.0089 -0.1953
  439TMC3    O2 6606   3.127   4.496  16.129 -0.1357 -0.2102  0.2877
  440MPD2     C 6607   1.380   0.822  14.618 -0.1198 -0.1007  0.3126
  440MPD2    C1 6608   1.470   0.926  14.619 -0.3033 -0.0931 -0.1374
  440MPD2    C2 6609   1.606   0.902  14.650  0.3277  0.6460  0.2867
  440MPD2    C3 6610   1.647   0.774  14.699 -0.2035 -0.2194  0.2151
  440MPD2    C4 6611   1.558   0.669  14.690 -0.5884  0.3532 -0.3011
  440MPD2    C5 6612   1.429   0.696  14.644 -1.1077  0.2399  0.3295
  440MPD2     H 6613   1.669   0.990  14.649 -1.4720  1.9793  2.2735
  440MPD2    H1 6614   1.583   0.565  14.706  2.1824  0.8645 -1.3752
  440MPD2    H2 6615   1.276   0.838  14.592  0.3241  1.1285 -0.6892
  440MPD2    H3 6616   1.371   0.609  14.616  1.3600 -0.1587 -3.5219
  440MPD2     N 6617   1.772   0.771  14.765 -0.2861  0.5138 -0.1177
  440MPD2    H5 6618   1.820   0.860  14.773  2.3164 -0.8688 -0.1305
  440MPD2    N1 6619   1.426   1.058  14.591  0.3300  0.2639 -0.1047
  440MPD2    H7 6620   1.491   1.133  14.567  1.7640 -1.9837 -3.2601
  441TMC3    C1 6621   1.960   0.678  14.883 -0.8793  0.3629 -0.3513
  441TMC3    C2 6622   2.016   0.808  14.880 -0.1443  0.8660  0.3906
  441TMC3    C3 6623   2.132   0.833  14.951  0.3502 -0.2309 -0.5941
  441TMC3    C4 6624   2.017   0.578  14.966 -0.2892 -0.0597  0.2200
  441TMC3    C5 6625   2.123   0.621  15.042 -0.1555 -0.0277 -0.0534
  441TMC3    C6 6626   2.186   0.739  15.031  0.3089 -0.3173  0.6234
  441TMC3     C 6627   1.832   0.659  14.817  0.2679 -0.1396 -0.3360
  441TMC3     O 6628   1.777   0.548  14.837 -0.2723 -0.3609  0.5358
  441TMC3     H 6629   1.981   0.885  14.813  1.9258  2.0606  0.6756
  441TMC3    H1 6630   1.980   0.476  14.961  2.5120 -0.8294 -4.1589
  441TMC3    H2 6631   2.270   0.765  15.094 -0.3602 -3.5400  2.8830
  441TMC3    C7 6632   2.092   0.598  15.177 -0.5395 -0.2372  0.0073
  441TMC3    C8 6633   2.163   0.968  14.986 -0.7285 -0.2380  0.0852
  441TMC3    O1 6634   2.112   0.698  15.246  0.2968 -0.5130 -0.5193
  441TMC3    O2 6635   2.284   0.990  15.000  0.0949 -0.6562  0.1160
  442MPD2     C 6636   4.536   0.977  16.726 -0.2950 -0.1420 -0.3373
  442MPD2    C1 6637   4.478   1.018  16.609 -0.0871 -0.2006  0.9076
  442MPD2    C2 6638   4.451   0.930  16.501  0.4693  0.6502  0.2770
  442MPD2    C3 6639   4.505   0.809  16.501  0.2290  0.1193 -0.2245
  442MPD2    C4 6640   4.575   0.765  16.618  0.4849 -0.2779  0.2560
  442MPD2    C5 6641   4.586   0.851  16.729  0.5132 -0.2577 -0.4451
  442MPD2     H 6642   4.381   0.959  16.424 -0.2088  0.2330  0.7369
  442MPD2    H1 6643   4.635   0.675  16.619  1.3206  0.3054  3.9406
  442MPD2    H2 6644   4.563   1.045  16.806  0.5097  1.9477 -2.3842
  442MPD2    H3 6645   4.655   0.825  16.808 -0.3410  1.8396  0.9884
  442MPD2     N 6646   4.487   0.708  16.398  0.2333  0.3084 -0.3394
  442MPD2    H5 6647   4.515   0.615  16.425  1.1901  0.8826  0.6777
  442MPD2    N1 6648   4.428   1.150  16.585  0.6390  0.3840 -0.2252
  442MPD2    H7 6649   4.364   1.150  16.506  0.7069 -0.5335 -0.2846
  443TMC3    C1 6650   4.324   1.349  16.650  0.0375 -0.0300 -0.9846
  443TMC3    C2 6651   4.287   1.365  16.517  0.2877  0.1991 -0.2220
  443TMC3    C3 6652   4.169   1.423  16.498  0.0120 -0.2423  0.0275
  443TMC3    C4 6653   4.259   1.402  16.757  1.0180  0.0503  0.0748
  443TMC3    C5 6654   4.140   1.466  16.729 -0.0546  0.0061  0.7979
  443TMC3    C6 6655   4.095   1.479  16.602  1.0694  0.4899  0.2742
  443TMC3     C 6656   4.421   1.248  16.681  0.5251  0.0505  0.2178
  443TMC3     O 6657   4.474   1.256  16.791 -0.1899 -0.0753  0.0385
  443TMC3     H 6658   4.342   1.323  16.434  0.7409 -0.1896  0.2745
  443TMC3    H1 6659   4.291   1.398  16.860  0.2925  0.1075  0.3006
  443TMC3    H2 6660   3.999   1.524  16.581  1.3379  0.6956 -0.5209
  443TMC3    C7 6661   4.027   1.447  16.815 -0.1364 -0.1449  0.2320
  443TMC3    C8 6662   4.106   1.382  16.373  0.9074 -0.4760  0.5992
  443TMC3    O1 6663   3.933   1.519  16.795 -0.4062  1.1296  0.3365
  443TMC3    O2 6664   4.158   1.283  16.320 -0.4659 -0.2912  0.0346
  444MPD2     C 6665   4.261   0.205  16.794  0.4563  0.2768 -0.8940
  444MPD2    C1 6666   4.311   0.157  16.912 -0.0815  0.0989 -0.1565
  444MPD2    C2 6667   4.420   0.067  16.911  0.5214 -0.0196  0.1717
  444MPD2    C3 6668   4.479   0.028  16.790 -0.1770 -0.0797 -0.7549
  444MPD2    C4 6669   4.429   0.085  16.674 -0.5033 -0.4340 -0.1776
  444MPD2    C5 6670   4.321   0.171  16.674  0.1146  0.3027 -0.5257
  444MPD2     H 6671   4.460   0.042  17.008 -0.2513 -0.8968  0.2551
  444MPD2    H1 6672   4.473   0.062  16.578  0.6480  2.1357 -0.2470
  444MPD2    H2 6673   4.171   0.266  16.792 -0.1799 -0.6491 -0.6836
  444MPD2    H3 6674   4.282   0.219  16.585 -0.5059  0.3876 -0.2054
  444MPD2     N 6675   4.593   4.679  16.772 -0.1868  0.0516  0.0223
  444MPD2    H5 6676   4.629   4.668  16.678  1.1533 -2.1713  0.7921
  444MPD2    N1 6677   4.255   0.188  17.037 -0.5435  0.0935 -1.0081
  444MPD2    H7 6678   4.285   0.136  17.120  1.2235  2.0605 -0.4223
  445TMC3    C1 6679   0.015   4.521  16.804 -0.1861  0.2374 -0.4247
  445TMC3    C2 6680   0.009   4.384  16.828  0.1657 -0.2106 -0.3728
  445TMC3    C3 6681   0.075   4.297  16.737  0.1919  0.0092 -0.2983
  445TMC3    C4 6682   0.092   4.573  16.706  1.0703  0.5939 -0.1274
  445TMC3    C5 6683   0.159   4.485  16.621  0.0495  0.1118 -0.4254
  445TMC3    C6 6684   0.148   4.346  16.630  0.8934  0.6717  0.3299
  445TMC3     C 6685   4.653   4.604  16.866  0.2832  0.1135 -1.0627
  445TMC3     O 6686   4.609   4.577  16.980  0.8842  0.6970 -0.2236
  445TMC3     H 6687   4.691   4.353  16.915  1.3939 -0.5951  0.2719
  445TMC3    H1 6688   0.114   4.679  16.701  2.7493  0.2176 -0.8435
  445TMC3    H2 6689   0.210   4.274  16.579  1.9905  3.0807 -1.7449
  445TMC3    C7 6690   0.241   4.544  16.522  0.1469 -0.3971 -0.6549
  445TMC3    C8 6691   0.020   4.165  16.742 -0.8278 -0.2266 -0.4721
  445TMC3    O1 6692   0.284   4.656  16.539  0.3925  0.4847 -0.7447
  445TMC3    O2 6693   4.713   4.134  16.852 -0.3997 -0.0760  0.2051
  446MPD2     C 6694   4.715   2.619  11.027 -0.2449  0.9187  0.0750
  446MPD2    C1 6695   4.658   2.710  11.109  0.0442  0.7044 -0.4125
  446MPD2    C2 6696   4.725   2.764  11.212  0.2483 -0.3632 -0.0357
  446MPD2    C3 6697   0.115   2.735  11.251  0.0470 -0.1516  0.2910
  446MPD2    C4 6698   0.175   2.657  11.154  0.2895  0.4622  0.7268
  446MPD2    C5 6699   0.106   2.594  11.054 -0.5157  0.2289  0.5593
  446MPD2     H 6700   4.670   2.829  11.279  0.8289  0.1999 -0.1055
  446MPD2    H1 6701   0.283   2.646  11.149  0.2811  1.2157 -1.0414
  446MPD2    H2 6702   4.671   2.561  10.947 -0.4316  1.8229 -0.4812
  446MPD2    H3 6703   0.168   2.530  10.992 -1.2378  1.4967 -1.5100
  446MPD2     N 6704   0.177   2.787  11.362  0.4818  0.3513 -0.4701
  446MPD2    H5 6705   0.146   2.877  11.396  1.4193 -0.4202  2.5005
  446MPD2    N1 6706   4.522   2.764  11.089  0.0213 -0.1879 -0.5151
  446MPD2    H7 6707   4.478   2.812  11.166 -1.9463  1.4235 -2.6415
  447TMC3    C1 6708   0.361   2.831  11.507 -0.2194  0.8226  0.2975
  447TMC3    C2 6709   0.369   2.965  11.486 -0.7904  0.2616 -0.4233
  447TMC3    C3 6710   0.481   3.029  11.531 -0.3460 -1.0415 -0.8217
  447TMC3    C4 6711   0.458   2.768  11.572  0.4751 -0.2040 -0.0592
  447TMC3    C5 6712   0.577   2.830  11.600 -0.0658  0.7668  0.0429
  447TMC3    C6 6713   0.590   2.968  11.588 -0.2973 -0.6926 -0.4822
  447TMC3     C 6714   0.304   2.744  11.404 -0.1922 -1.0015  0.1680
  447TMC3     O 6715   0.344   2.632  11.385 -0.7421 -0.0905 -0.1754
  447TMC3     H 6716   0.310   3.013  11.408 -0.9516  0.5604 -0.1168
  447TMC3    H1 6717   0.445   2.664  11.601 -1.5409  0.1722  0.3269
  447TMC3    H2 6718   0.683   3.017  11.615 -1.1789  1.0187 -0.5467
  447TMC3    C7 6719   0.696   2.746  11.626 -0.0273  0.0961 -0.5619
  447TMC3    C8 6720   0.501   3.162  11.471 -0.4467  0.2836 -0.6729
  447TMC3    O1 6721   0.691   2.630  11.587 -0.4990  0.1420  0.1398
  447TMC3    O2 6722   0.406   3.236  11.475  0.3506 -0.3865 -0.4526
  448TMC3    C1 6723   2.809   1.471  17.134  0.2123  0.0487  0.4846
  448TMC3    C2 6724   2.891   1.395  17.059  0.1937 -0.3478 -0.2811
  448TMC3    C3 6725   3.026   1.407  17.066 -0.3130  0.0235  0.1359
  448TMC3    C4 6726   2.860   1.560  17.224  1.4099  0.4107 -0.2150
  448TMC3    C5 6727   2.997   1.569  17.231 -0.1577  0.5433  0.8271
  448TMC3    C6 6728   3.085   1.496  17.154  0.3496  0.3073 -0.1973
  448TMC3     C 6729   2.674   1.493  17.080 -0.3912 -0.0828  0.0106
  448TMC3     O 6730   2.652   1.493  16.958 -0.2283 -0.0904  0.1981
  448TMC3     H 6731   2.845   1.331  16.984 -2.0710 -1.3320  1.9589
  448TMC3    H1 6732   2.795   1.639  17.258  0.6854  0.4246 -1.6441
  448TMC3    H2 6733   3.193   1.496  17.168  0.5289  0.0944 -1.5155
  448TMC3    C7 6734   3.063   1.633  17.343  0.1874  0.3866  0.2373
  448TMC3    C8 6735   3.100   1.291  17.013  0.4547  0.4389  0.2802
  448TMC3    O1 6736   3.174   1.670  17.329 -0.1700 -0.5498 -0.1323
  448TMC3    O2 6737   3.051   1.181  17.015  0.2883 -0.1561 -0.6498
  449MPD2     C 6738   4.439   0.677  14.214 -0.2943  0.2139 -0.3795
  449MPD2    C1 6739   4.314   0.693  14.156 -0.4597 -0.2085  0.0434
  449MPD2    C2 6740   4.229   0.589  14.134 -0.1012  0.4537 -0.1723
  449MPD2    C3 6741   4.267   0.460  14.164  0.4620  0.0444 -0.0882
  449MPD2    C4 6742   4.393   0.437  14.223  0.1619 -0.2031  0.1050
  449MPD2    C5 6743   4.482   0.548  14.252 -0.0516 -0.0467  0.3218
  449MPD2     H 6744   4.131   0.607  14.090 -0.3256 -1.7692 -0.5857
  449MPD2    H1 6745   4.420   0.333  14.233 -0.9427 -0.6393 -1.5480
  449MPD2    H2 6746   4.519   0.750  14.220 -1.0763  0.9321  1.3507
  449MPD2    H3 6747   4.579   0.546  14.300 -0.5241  0.4955  1.2844
  449MPD2     N 6748   4.183   0.354  14.141 -0.4994 -0.0256 -0.1174
  449MPD2    H5 6749   4.094   0.377  14.098 -0.0447 -0.4032 -1.2688
  449MPD2    N1 6750   4.263   0.809  14.097 -0.9055  0.4934 -0.4641
  449MPD2    H7 6751   4.164   0.805  14.076 -1.0853  2.6403 -0.0837
  450TMC3    C1 6752   4.244   1.033  14.027  0.1247  0.4536  0.0475
  450TMC3    C2 6753   4.283   1.074  13.902  0.0768 -0.2939 -0.4657
  450TMC3    C3 6754   4.184   1.115  13.815  0.7531  0.2651  0.0436
  450TMC3    C4 6755   4.106   1.014  14.057 -0.4416  0.1121  0.5585
  450TMC3    C5 6756   4.015   1.023  13.957  0.1716  0.1247 -0.2603
  450TMC3    C6 6757   4.053   1.080  13.838 -0.3034  0.0572  0.1632
  450TMC3     C 6758   4.329   0.928  14.087  0.6434  0.0227  0.3752
  450TMC3     O 6759   4.448   0.948  14.113 -0.1666  0.3089 -0.1873
  450TMC3     H 6760   4.388   1.088  13.881  0.3331 -2.1551 -0.3873
  450TMC3    H1 6761   4.074   0.970  14.151  1.6486 -1.3758  0.5849
  450TMC3    H2 6762   3.984   1.081  13.754  0.5477 -1.0164 -0.5451
  450TMC3    C7 6763   3.951   0.890  13.937  0.0080  0.2986  0.2701
  450TMC3    C8 6764   4.207   1.182  13.687 -1.1682  0.2879  0.3060
  450TMC3    O1 6765   4.000   0.800  14.005  0.1410  0.3946 -0.1658
  450TMC3    O2 6766   4.122   1.261  13.652  0.1566 -0.1405  0.0791
  451MPD2     C 6767   0.631   2.750   0.909 -0.1263 -0.1660 -0.1173
  451MPD2    C1 6768   0.628   2.826   0.791 -0.7367 -0.0927 -0.3841
  451MPD2    C2 6769   0.709   2.790   0.690  0.3198 -0.1733  0.6890
  451MPD2    C3 6770   0.820   2.707   0.713  0.6837  0.0590  0.5485
  451MPD2    C4 6771   0.831   2.641   0.835  0.2589 -0.4785  0.2501
  451MPD2    C5 6772   0.737   2.668   0.935  0.8202  0.6922 -0.2467
  451MPD2     H 6773   0.692   2.831   0.591  2.0727 -0.1939  0.3660
  451MPD2    H1 6774   0.904   2.563   0.852  0.1015 -0.3038  1.7254
  451MPD2    H2 6775   0.552   2.759   0.983  0.4004  0.6395  0.3469
  451MPD2    H3 6776   0.728   2.625   1.034  2.0083  3.1598  0.9106
  451MPD2     N 6777   0.905   2.682   0.603  0.1252  0.6922  0.3705
  451MPD2    H5 6778   0.879   2.723   0.514  2.0509  0.3690 -0.3419
  451MPD2    N1 6779   0.546   2.939   0.782  0.2950 -0.4792 -0.0632
  451MPD2    H7 6780   0.490   2.957   0.864  0.4170  1.8608 -0.5056
  452TMC3    C1 6781   1.085   2.608   0.494  0.1654  0.1076  0.1851
  452TMC3    C2 6782   1.000   2.567   0.396  0.2041 -0.1710  0.5059
  452TMC3    C3 6783   1.033   2.599   0.267  0.4534  0.0342 -0.2853
  452TMC3    C4 6784   1.199   2.682   0.464  0.2393 -0.4763 -0.2332
  452TMC3    C5 6785   1.229   2.708   0.335  0.2392  0.4319 -0.2196
  452TMC3    C6 6786   1.148   2.669   0.237 -0.5902  0.2256  0.6389
  452TMC3     C 6787   1.022   2.611   0.626  0.1770  0.5557  0.1072
  452TMC3     O 6788   1.076   2.560   0.721 -0.1612  0.1456 -0.1120
  452TMC3     H 6789   0.920   2.496   0.417  0.3779 -0.0188  1.7125
  452TMC3    H1 6790   1.253   2.722   0.549  1.0969  1.5801 -1.7713
  452TMC3    H2 6791   1.177   2.710   0.141 -3.8171  0.1316 -0.3801
  452TMC3    C7 6792   1.314   2.828   0.303 -0.3330  0.1835  0.0403
  452TMC3    C8 6793   0.940   2.551   0.166 -0.1541  0.4841  0.7992
  452TMC3    O1 6794   1.368   2.840   0.193  0.1803 -0.1713  0.1292
  452TMC3    O2 6795   0.822   2.539   0.194  0.3876  0.0703  0.3472
  453TMC3    C1 6796   2.025   1.625  11.114  0.2813  0.0872  0.9633
  453TMC3    C2 6797   1.943   1.573  11.214 -0.5233  0.2688  0.1220
  453TMC3    C3 6798   1.807   1.593  11.197  0.1061  0.0848 -0.5152
  453TMC3    C4 6799   1.973   1.675  11.000 -0.3741  0.0667  0.0643
  453TMC3    C5 6800   1.841   1.696  10.987  0.3335  0.0724  0.5365
  453TMC3    C6 6801   1.757   1.661  11.089 -0.5547  0.5536  0.1103
  453TMC3     C 6802   2.165   1.581  11.120 -0.1228  0.2895  0.1040
  453TMC3     O 6803   2.219   1.545  11.017  0.1663 -0.0360  0.0131
  453TMC3     H 6804   1.990   1.528  11.301  0.5295 -0.1039 -0.6548
  453TMC3    H1 6805   2.046   1.686  10.920  0.4231  3.0241  1.2065
  453TMC3    H2 6806   1.650   1.682  11.081 -1.1386 -1.8990  1.5492
  453TMC3    C7 6807   1.807   1.812  10.916  0.4307  0.1293 -0.2823
  453TMC3    C8 6808   1.716   1.527  11.287 -1.1015 -0.2761  0.3051
  453TMC3    O1 6809   1.711   1.872  10.966  0.1547  0.4747 -0.8871
  453TMC3    O2 6810   1.600   1.515  11.258 -0.1574 -0.6299  0.1846
  454MPD2     C 6811   0.736   0.540  15.843  0.7846 -0.8770 -0.2963
  454MPD2    C1 6812   0.605   0.550  15.801 -0.0021 -0.2047  0.1752
  454MPD2    C2 6813   0.516   0.609  15.883  1.3198  0.0974  0.0120
  454MPD2    C3 6814   0.553   0.651  16.011 -1.0644  0.4637  0.3117
  454MPD2    C4 6815   0.684   0.643  16.058 -0.5363 -0.5631  0.1172
  454MPD2    C5 6816   0.765   0.579  15.968 -0.4021 -1.3499 -0.6619
  454MPD2     H 6817   0.413   0.607  15.849  1.9407  0.5494 -1.9187
  454MPD2    H1 6818   0.711   0.670  16.159 -0.2221  0.3729 -0.2190
  454MPD2    H2 6819   0.821   0.515  15.780  2.0474  0.7931  0.7196
  454MPD2    H3 6820   0.867   0.552  15.995 -1.1361 -3.9527 -0.4805
  454MPD2     N 6821   0.453   0.676  16.112 -0.1203  0.2205 -0.2350
  454MPD2    H5 6822   0.484   0.665  16.208 -0.8604 -2.8503 -0.3412
  454MPD2    N1 6823   0.561   0.474  15.696 -0.4284 -0.5667 -0.2244
  454MPD2    H7 6824   0.461   0.484  15.681 -0.2905  0.5295 -0.4177
  455TMC3    C1 6825   0.234   0.675  16.200  0.2057 -0.4461 -0.2921
  455TMC3    C2 6826   0.292   0.689  16.321  0.2818 -0.7146  0.4497
  455TMC3    C3 6827   0.242   0.611  16.421  0.5335  0.3972  0.3531
  455TMC3    C4 6828   0.129   0.602  16.182  0.1700 -0.0373 -0.3053
  455TMC3    C5 6829   0.080   0.522  16.282  0.4610 -0.1498 -0.1641
  455TMC3    C6 6830   0.135   0.527  16.409  0.0587  0.3795 -0.3074
  455TMC3     C 6831   0.321   0.682  16.083 -0.3047  0.1668  0.5249
  455TMC3     O 6832   0.253   0.700  15.984 -0.0013  0.0489  0.0800
  455TMC3     H 6833   0.384   0.744  16.336 -1.2793  2.1949 -0.7332
  455TMC3    H1 6834   0.083   0.598  16.084 -0.9646 -0.6013  0.2462
  455TMC3    H2 6835   0.102   0.467  16.493  2.1554  0.1064  0.3223
  455TMC3    C7 6836   0.023   0.396  16.229 -0.2097 -0.3062 -0.0654
  455TMC3    C8 6837   0.236   0.679  16.545 -0.4708  0.1864  0.1146
  455TMC3    O1 6838   4.734   0.392  16.110 -0.1815 -0.1946 -0.0393
  455TMC3    O2 6839   0.235   0.624  16.658 -0.2794 -0.1559  0.0442
  456MPD2     C 6840   3.260   0.142  16.179 -0.1796 -0.4307  0.5120
  456MPD2    C1 6841   3.340   0.081  16.274 -0.1166  0.5865  0.5463
  456MPD2    C2 6842   3.369   0.158  16.387  0.4019 -0.4519  0.7527
  456MPD2    C3 6843   3.311   0.283  16.406  0.1692 -0.8639  0.5372
  456MPD2    C4 6844   3.249   0.342  16.303 -0.3509  0.3159 -0.3715
  456MPD2    C5 6845   3.215   0.269  16.191 -0.3325 -0.4429 -0.3699
  456MPD2     H 6846   3.423   0.119  16.473  0.4840  0.3614  1.0770
  456MPD2    H1 6847   3.195   0.435  16.318 -1.5817 -0.0567 -2.4173
  456MPD2    H2 6848   3.228   0.092  16.088  1.6592 -0.8855  0.1146
  456MPD2    H3 6849   3.159   0.321  16.114 -2.7615 -1.4174  0.7235
  456MPD2     N 6850   3.336   0.351  16.527  0.0991  0.2618  0.0094
  456MPD2    H5 6851   3.369   0.289  16.599 -0.4401  2.8476  2.4728
  456MPD2    N1 6852   3.363   4.677  16.254  0.4787 -0.2445 -0.3455
  456MPD2    H7 6853   3.323   4.623  16.178  0.9738 -1.4885  0.2621
  457TMC3    C1 6854   3.360   0.534  16.684 -0.8337 -0.2223 -1.0329
  457TMC3    C2 6855   3.379   0.667  16.706  0.1316 -0.3725  0.4833
  457TMC3    C3 6856   3.403   0.707  16.836  0.0041  0.1288  0.3272
  457TMC3    C4 6857   3.345   0.447  16.789  0.7284  0.3264  0.4116
  457TMC3    C5 6858   3.362   0.489  16.915  0.7256  0.2811 -0.8543
  457TMC3    C6 6859   3.404   0.619  16.937 -0.1307  0.0973 -0.1202
  457TMC3     C 6860   3.315   0.486  16.550  0.3581  0.5589  0.1074
  457TMC3     O 6861   3.306   0.578  16.472 -0.4754  0.3508  0.5587
  457TMC3     H 6862   3.380   0.738  16.624  0.4077 -2.2712 -1.1601
  457TMC3    H1 6863   3.310   0.346  16.775 -0.6106  0.7664  0.6595
  457TMC3    H2 6864   3.426   0.665  17.033 -0.5354 -1.3560  0.6599
  457TMC3    C7 6865   3.337   0.407  17.031  0.3505 -0.7054  0.4156
  457TMC3    C8 6866   3.365   0.844  16.868  0.1612 -0.8140  0.2883
  457TMC3    O1 6867   3.358   0.286  17.031 -0.5101 -0.1252  0.3460
  457TMC3    O2 6868   3.309   0.863  16.978  0.6027 -0.1345  0.6887
  458MPD2     C 6869   0.691   0.725  12.469  0.5642 -0.0524 -0.1591
  458MPD2    C1 6870   0.694   0.641  12.575  0.8108  0.4424  0.5254
  458MPD2    C2 6871   0.579   0.573  12.611  0.1950  0.4386  0.1684
  458MPD2    C3 6872   0.463   0.590  12.542  0.7739 -0.0628  0.2277
  458MPD2    C4 6873   0.462   0.674  12.435 -0.1506  0.2622  0.5470
  458MPD2    C5 6874   0.569   0.747  12.400  0.0593 -0.5007  0.4545
  458MPD2     H 6875   0.573   0.494  12.684  0.6857 -2.1039 -2.5409
  458MPD2    H1 6876   0.376   0.670  12.369 -0.1805 -1.4120  0.6906
  458MPD2    H2 6877   0.775   0.791  12.452 -0.1736  0.5742 -1.4229
  458MPD2    H3 6878   0.566   0.816  12.317 -0.5624 -0.6588  0.3411
  458MPD2     N 6879   0.351   0.513  12.582 -0.6199  0.0651 -0.1523
  458MPD2    H5 6880   0.368   0.429  12.637 -2.6632 -1.5499 -1.9829
  458MPD2    N1 6881   0.816   0.621  12.641  0.3938  0.3464 -0.4691
  458MPD2    H7 6882   0.898   0.645  12.587  0.4968  0.0343 -0.4527
  459TMC3    C1 6883   0.972   0.536  12.801  0.7718  0.6025  0.5312
  459TMC3    C2 6884   1.077   0.575  12.721  0.7563  0.1292 -0.0388
  459TMC3    C3 6885   1.199   0.519  12.744  0.0252  0.1683  0.2113
  459TMC3    C4 6886   0.978   0.439  12.901  0.7002 -0.2222 -0.7890
  459TMC3    C5 6887   1.103   0.386  12.915 -0.0421  0.5404  0.6264
  459TMC3    C6 6888   1.214   0.429  12.846  0.6945  0.8489 -0.0670
  459TMC3     C 6889   0.832   0.559  12.765 -0.1000 -0.5713  0.0424
  459TMC3     O 6890   0.741   0.531  12.848 -0.3024 -0.2495 -0.0009
  459TMC3     H 6891   1.066   0.667  12.664 -3.3664 -0.3648 -0.0130
  459TMC3    H1 6892   0.888   0.416  12.956  1.8023  0.4912  1.2847
  459TMC3    H2 6893   1.303   0.369  12.856 -0.4701 -0.3238  3.3051
  459TMC3    C7 6894   1.120   0.257  12.982  0.1818 -0.9121  0.9088
  459TMC3    C8 6895   1.315   0.586  12.687 -0.1524 -0.2942 -0.6930
  459TMC3    O1 6896   1.225   0.221  13.019 -0.8517  0.4614  0.0034
  459TMC3    O2 6897   1.420   0.588  12.748  0.7305 -0.0731 -0.3244
  460MPD2     C 6898   0.762   3.236  11.232 -0.0570 -0.0291 -0.4085
  460MPD2    C1 6899   0.634   3.242  11.275  0.1806 -0.7288  0.2271
  460MPD2    C2 6900   0.537   3.310  11.211  0.0586 -0.2246  0.1829
  460MPD2    C3 6901   0.561   3.384  11.094  0.2233  0.7218 -0.2665
  460MPD2    C4 6902   0.690   3.381  11.048 -0.4383 -0.0964 -0.3608
  460MPD2    C5 6903   0.790   3.309  11.116  0.0066  0.6559 -0.6797
  460MPD2     H 6904   0.433   3.305  11.243 -0.3012  0.7161 -0.8349
  460MPD2    H1 6905   0.717   3.425  10.953 -0.3493 -1.1450 -0.8078
  460MPD2    H2 6906   0.847   3.186  11.277  1.0788 -0.1335 -2.6719
  460MPD2    H3 6907   0.885   3.292  11.065  0.0520  2.3110 -1.1233
  460MPD2     N 6908   0.456   3.435  11.011  0.5307 -0.7365 -0.5158
  460MPD2    H5 6909   0.364   3.399  11.035 -0.4907  2.9706  0.9899
  460MPD2    N1 6910   0.614   3.161  11.393 -0.1486  0.0514 -0.1398
  460MPD2    H7 6911   0.685   3.093  11.419  0.3979  0.6787  0.0238
  461TMC3    C1 6912   0.347   3.507  10.819  0.7205 -0.6198  0.5297
  461TMC3    C2 6913   0.289   3.380  10.791 -0.1925 -0.1968 -0.2862
  461TMC3    C3 6914   0.204   3.378  10.685 -0.9481  0.8765 -0.1666
  461TMC3    C4 6915   0.310   3.618  10.752 -0.3005  0.6946 -0.1779
  461TMC3    C5 6916   0.207   3.614  10.664  0.1065  0.1685  0.5655
  461TMC3    C6 6917   0.158   3.490  10.619  0.0608 -0.0518  0.7507
  461TMC3     C 6918   0.464   3.509  10.894  0.0061 -0.2017  0.0798
  461TMC3     O 6919   0.569   3.561  10.850 -0.1681  0.8307  0.2078
  461TMC3     H 6920   0.348   3.294  10.818  1.0781  0.2532 -1.6109
  461TMC3    H1 6921   0.359   3.710  10.780  1.8406 -0.7348  0.7625
  461TMC3    H2 6922   0.073   3.483  10.552 -0.2849 -0.0624  1.1897
  461TMC3    C7 6923   0.157   3.740  10.606  0.1490  0.3313  0.5693
  461TMC3    C8 6924   0.156   3.250  10.650 -0.4661 -0.3528  0.2006
  461TMC3    O1 6925   0.235   3.832  10.597  0.3816  0.5919 -0.4461
  461TMC3    O2 6926   0.177   3.160  10.731 -0.1219  0.4727 -0.0671
  462TMC3    C1 6927   4.514   3.343   0.427 -0.9689  0.0086  0.0216
  462TMC3    C2 6928   4.645   3.305   0.427  0.3523 -0.1257 -0.2914
  462TMC3    C3 6929   4.678   3.180   0.381 -0.8103  0.5551  0.3692
  462TMC3    C4 6930   4.417   3.264   0.374 -0.5666 -0.1952  0.3570
  462TMC3    C5 6931   4.451   3.143   0.331  0.2099  0.3264  0.4892
  462TMC3    C6 6932   4.579   3.095   0.336  0.3154 -0.5896  0.4037
  462TMC3     C 6933   4.476   3.471   0.478 -0.1911  0.4999 -0.0499
  462TMC3     O 6934   4.384   3.474   0.556  0.7007 -0.2756 -0.1641
  462TMC3     H 6935   4.725   3.358   0.477 -3.1394  2.2578  2.6763
  462TMC3    H1 6936   4.312   3.288   0.387 -0.5008 -0.3492  1.1737
  462TMC3    H2 6937   4.601   3.002   0.286 -2.2911 -1.3630  0.6800
  462TMC3    C7 6938   4.354   3.039   0.300 -0.0848 -0.4663 -0.8178
  462TMC3    C8 6939   0.057   3.106   0.427 -0.6372  0.4248 -0.3429
  462TMC3    O1 6940   4.370   2.928   0.355  0.2446 -0.2507  0.3696
  462TMC3    O2 6941   0.078   3.101   0.547 -0.2976  0.3084 -0.1181
  463MPD2     C 6942   1.791   1.209   0.800  0.3416 -0.3054  0.3814
  463MPD2    C1 6943   1.723   1.250   0.912  0.2025  0.1154 -0.0178
  463MPD2    C2 6944   1.664   1.371   0.922 -0.5072 -0.2935 -0.5418
  463MPD2    C3 6945   1.662   1.462   0.821  0.2429 -0.5023 -0.2334
  463MPD2    C4 6946   1.733   1.424   0.710  0.3502 -0.4624  0.2400
  463MPD2    C5 6947   1.793   1.301   0.697 -0.5098 -0.1855  0.3485
  463MPD2     H 6948   1.627   1.404   1.018  2.7572  3.7779 -0.7128
  463MPD2    H1 6949   1.732   1.504   0.638  1.4381  0.2316  1.0099
  463MPD2    H2 6950   1.837   1.112   0.787  0.5789 -0.1486  0.0634
  463MPD2    H3 6951   1.854   1.284   0.609 -2.4923 -2.9430 -0.4938
  463MPD2     N 6952   1.609   1.594   0.834  0.2538 -0.0715  0.0998
  463MPD2    H5 6953   1.636   1.657   0.759  1.4576  0.3284  0.8639
  463MPD2    N1 6954   1.701   1.169   1.024  0.8941  0.0809  0.5408
  463MPD2    H7 6955   1.663   1.213   1.107  0.1591 -0.3054  0.4002
  464TMC3    C1 6956   1.648   0.990   1.147 -0.7059  0.4825  0.2800
  464TMC3    C2 6957   1.558   1.069   1.207  0.1190  0.2199  0.3800
  464TMC3    C3 6958   1.454   1.007   1.270  0.1844 -0.0437  0.0529
  464TMC3    C4 6959   1.644   0.849   1.159 -0.0681 -0.1148 -0.8507
  464TMC3    C5 6960   1.530   0.793   1.202 -0.3660  0.1140  0.1408
  464TMC3    C6 6961   1.439   0.870   1.265  0.5466  0.4159 -0.2561
  464TMC3     C 6962   1.723   1.033   1.035 -0.5336 -0.0262  0.0080
  464TMC3     O 6963   1.749   0.958   0.941  0.3392 -0.1862 -0.0063
  464TMC3     H 6964   1.571   1.175   1.223  2.1909 -0.0184  0.2073
  464TMC3    H1 6965   1.716   0.786   1.108 -1.1951  1.5580 -4.5571
  464TMC3    H2 6966   1.346   0.820   1.289 -0.0519  2.1108  0.9902
  464TMC3    C7 6967   1.516   0.644   1.198 -0.3702 -0.0989 -0.0301
  464TMC3    C8 6968   1.337   1.094   1.284 -0.0099  0.4724 -0.4584
  464TMC3    O1 6969   1.614   0.581   1.168  0.1742 -0.2170 -0.2359
  464TMC3    O2 6970   1.337   1.197   1.218 -0.0976 -0.2785  0.2330
  465MPD2     C 6971   2.639   0.301  16.930 -0.4206 -0.3638 -0.5766
  465MPD2    C1 6972   2.540   0.347  17.015 -0.8127  0.5600  0.1482
  465MPD2    C2 6973   2.447   0.436  16.968 -0.0565  0.1611  0.5289
  465MPD2    C3 6974   2.454   0.489  16.843 -0.1881 -0.8470 -0.1056
  465MPD2    C4 6975   2.548   0.453  16.756 -0.1337  0.2098  0.3958
  465MPD2    C5 6976   2.638   0.355  16.800  0.0949  0.0200 -0.7134
  465MPD2     H 6977   2.374   0.470  17.041  0.9516 -0.9564  2.0424
  465MPD2    H1 6978   2.557   0.490  16.654 -1.9131 -0.1971  0.0837
  465MPD2    H2 6979   2.717   0.231  16.958  0.4933  1.2739  1.0138
  465MPD2    H3 6980   2.717   0.332  16.730  0.2016 -0.9001 -0.2932
  465MPD2     N 6981   2.351   0.578  16.809  0.8086  0.1287 -0.1335
  465MPD2    H5 6982   2.278   0.601  16.875  1.1429 -0.7758  0.5508
  465MPD2    N1 6983   2.522   0.304  17.150  0.1618 -0.3040  0.2057
  465MPD2    H7 6984   2.450   0.343  17.211 -1.3633 -0.0926 -1.7144
  466TMC3    C1 6985   2.000   0.644  16.605  0.3466  0.1112 -0.0786
  466TMC3    C2 6986   1.987   0.737  16.511 -0.5377  0.1408 -0.6704
  466TMC3    C3 6987   2.102   0.794  16.465  0.0034  0.6174  0.5226
  466TMC3    C4 6988   2.111   0.621  16.678 -0.1999 -0.8707  0.0256
  466TMC3    C5 6989   2.219   0.692  16.648  1.1612  0.0352 -0.4695
  466TMC3    C6 6990   2.223   0.776  16.538 -0.4507 -0.7385  0.3543
  466TMC3     C 6991   1.891   0.554  16.632 -0.1246  0.0075  0.8192
  466TMC3     O 6992   1.864   0.532  16.751 -0.3404  0.2603 -0.1792
  466TMC3     H 6993   1.890   0.752  16.464 -0.1915  1.2953 -1.0184
  466TMC3    H1 6994   2.117   0.550  16.760 -1.1758 -1.5126 -0.4571
  466TMC3    H2 6995   2.313   0.830  16.510 -0.1711  0.7813  4.1132
  466TMC3    C7 6996   2.348   0.667  16.701 -0.1652 -0.3041  0.0879
  466TMC3    C8 6997   2.085   0.913  16.387  0.4067 -0.6337 -0.4517
  466TMC3    O1 6998   2.443   0.695  16.630  0.0940  0.6456  0.0677
  466TMC3    O2 6999   2.170   0.941  16.304  0.1165  0.3616  0.2157
  467TMC3    C1 7000   3.333   4.106  13.813 -0.7719 -0.5901 -0.3598
  467TMC3    C2 7001   3.285   4.226  13.768 -0.2656 -0.4146  0.1928
  467TMC3    C3 7002   3.158   4.236  13.734  0.3177  0.0634 -0.4029
  467TMC3    C4 7003   3.255   3.997  13.820  0.2625  0.4193  0.1917
  467TMC3    C5 7004   3.123   4.010  13.782 -0.7441 -0.1949 -0.3976
  467TMC3    C6 7005   3.074   4.128  13.738 -0.0109 -0.3383 -0.1517
  467TMC3     C 7006   3.474   4.093  13.843  0.8606  0.5014 -0.0677
  467TMC3     O 7007   3.533   4.200  13.844  0.7519  0.4799 -0.3212
  467TMC3     H 7008   3.353   4.308  13.750  1.2093 -1.9412 -1.2516
  467TMC3    H1 7009   3.297   3.903  13.854 -1.6068 -0.7664 -0.7291
  467TMC3    H2 7010   2.969   4.131  13.710 -0.4974 -2.9011  1.4071
  467TMC3    C7 7011   3.038   3.894  13.795 -0.7886  0.0828  0.8105
  467TMC3    C8 7012   3.132   4.336  13.640  0.4143 -0.6635 -0.6504
  467TMC3    O1 7013   3.103   3.794  13.818 -0.2641  0.5032  0.4167
  467TMC3    O2 7014   3.156   4.450  13.676 -0.2572  0.2677  0.2229
  468MPD2     C 7015   2.260   3.027  10.477 -0.6235 -0.2056  0.0965
  468MPD2    C1 7016   2.189   3.014  10.592  0.1353  0.4850  0.1887
  468MPD2    C2 7017   2.155   2.889  10.633  0.0448 -0.2605 -0.5623
  468MPD2    C3 7018   2.188   2.774  10.559 -0.3604  0.7522 -0.6329
  468MPD2    C4 7019   2.264   2.792  10.443 -0.2061  0.6141  0.0804
  468MPD2    C5 7020   2.309   2.916  10.405  0.3053  0.1658 -0.3736
  468MPD2     H 7021   2.104   2.885  10.729 -0.3770 -0.9214 -0.8169
  468MPD2    H1 7022   2.309   2.708  10.391  0.9111  2.8395 -2.5197
  468MPD2    H2 7023   2.280   3.126  10.439  0.2499 -1.6300 -3.1626
  468MPD2    H3 7024   2.362   2.934  10.312 -1.2962  0.5862 -1.2111
  468MPD2     N 7025   2.150   2.638  10.592  0.3769 -0.4400 -0.1969
  468MPD2    H5 7026   2.181   2.559  10.537  1.2727 -0.1233 -0.1513
  468MPD2    N1 7027   2.145   3.128  10.665 -0.3283 -0.2457  0.3648
  468MPD2    H7 7028   2.092   3.122  10.752 -1.0596  1.7363  0.0505
  469TMC3    C1 7029   2.125   3.349  10.721 -0.0810  1.0428 -0.6920
  469TMC3    C2 7030   2.210   3.444  10.769  0.2246 -0.1007  0.1005
  469TMC3    C3 7031   2.163   3.528  10.868 -0.5184  0.5543  0.2044
  469TMC3    C4 7032   1.996   3.341  10.767 -0.5154 -0.1091 -0.0015
  469TMC3    C5 7033   1.950   3.436  10.853 -0.6182 -0.6466 -0.7691
  469TMC3    C6 7034   2.031   3.527  10.905 -1.1867 -0.0416 -0.5073
  469TMC3     C 7035   2.192   3.253  10.638  0.2559 -0.2995  0.1841
  469TMC3     O 7036   2.280   3.308  10.569 -0.3525 -0.1510 -0.5578
  469TMC3     H 7037   2.316   3.431  10.752  0.4188  0.5367  0.8749
  469TMC3    H1 7038   1.937   3.256  10.734 -1.5896  0.3382  0.7595
  469TMC3    H2 7039   1.997   3.591  10.986 -0.6543  0.0026 -0.3226
  469TMC3    C7 7040   1.805   3.429  10.883 -0.2659  0.7964  0.4874
  469TMC3    C8 7041   2.259   3.590  10.963  0.0881 -0.1325  0.6628
  469TMC3    O1 7042   1.740   3.324  10.873  0.4970 -0.0598 -0.1941
  469TMC3    O2 7043   2.379   3.613  10.926 -0.5014 -0.0865 -0.3246
  470TMC3    C1 7044   3.768   2.651   0.347 -0.2265  0.4499 -0.4763
  470TMC3    C2 7045   3.738   2.788   0.347 -0.4288 -0.6785 -0.3941
  470TMC3    C3 7046   3.795   2.862   0.442 -0.1381 -0.8350  0.3972
  470TMC3    C4 7047   3.872   2.593   0.415  0.9429 -0.2035 -0.0685
  470TMC3    C5 7048   3.930   2.677   0.507 -0.6605  1.2413  0.2834
  470TMC3    C6 7049   3.894   2.805   0.517 -0.9793 -0.1451  0.5015
  470TMC3     C 7050   3.725   2.575   0.231 -0.4352  0.3201 -0.8738
  470TMC3     O 7051   3.692   2.641   0.135 -0.3000  0.0026  0.0034
  470TMC3     H 7052   3.659   2.830   0.286 -1.0397 -0.3011  0.6590
  470TMC3    H1 7053   3.901   2.490   0.398  0.0896 -0.5832  0.7342
  470TMC3    H2 7054   3.939   2.876   0.586  2.3446 -1.0415 -0.7328
  470TMC3    C7 7055   4.073   2.651   0.499  0.4206  0.2973  0.6502
  470TMC3    C8 7056   3.790   3.007   0.450 -0.1205 -0.4937  0.2069
  470TMC3    O1 7057   4.111   2.624   0.386  0.3921  0.2212 -0.2828
  470TMC3    O2 7058   3.782   3.050   0.562  0.2659  0.3553  0.0353
  471MPD2     C 7059   4.286   4.318  16.668 -0.0758 -0.4429  0.0688
  471MPD2    C1 7060   4.299   4.178  16.689  0.8279  0.6768  0.2762
  471MPD2    C2 7061   4.316   4.129  16.819 -0.3576  0.1123  0.2254
  471MPD2    C3 7062   4.353   4.218  16.922 -0.1573 -0.6806 -0.3246
  471MPD2    C4 7063   4.338   4.349  16.900 -0.5404 -0.4953 -0.2926
  471MPD2    C5 7064   4.300   4.398  16.776 -0.1560 -0.5248  0.4665
  471MPD2     H 7065   4.337   4.024  16.836  2.0130  0.4960 -0.3279
  471MPD2    H1 7066   4.351   4.422  16.978  0.8779  0.2427 -1.2156
  471MPD2    H2 7067   4.244   4.363  16.579  0.9769 -0.5889 -0.5029
  471MPD2    H3 7068   4.282   4.505  16.774  0.2575 -0.4519  0.5189
  471MPD2     N 7069   4.400   4.156  17.042  0.2813 -0.3593 -0.2491
  471MPD2    H5 7070   4.401   4.054  17.049  1.3281 -0.3380 -0.1215
  471MPD2    N1 7071   4.299   4.072  16.585  0.4264 -0.5598 -0.5280
  471MPD2    H7 7072   4.298   3.977  16.621 -0.8480 -0.4337 -0.2029
  472TMC3    C1 7073   4.326   3.999  16.356  0.0876 -0.5183  0.7816
  472TMC3    C2 7074   4.286   4.035  16.225  0.2699  1.0814 -0.2108
  472TMC3    C3 7075   4.288   3.930  16.133  0.6369  0.8988 -0.1347
  472TMC3    C4 7076   4.359   3.874  16.398 -0.0519  0.0219 -0.5489
  472TMC3    C5 7077   4.358   3.774  16.305  0.6049 -0.9758 -0.3610
  472TMC3    C6 7078   4.328   3.799  16.172 -0.6984 -0.4604  0.0687
  472TMC3     C 7079   4.305   4.104  16.453 -0.9615 -0.3457  0.3608
  472TMC3     O 7080   4.291   4.212  16.403  0.1421 -0.3530  0.2319
  472TMC3     H 7081   4.267   4.137  16.197  0.6542  1.0822 -0.4619
  472TMC3    H1 7082   4.381   3.847  16.500  0.3560 -2.7076 -1.3403
  472TMC3    H2 7083   4.346   3.725  16.094 -0.0313 -1.4444  1.1673
  472TMC3    C7 7084   4.327   3.639  16.350  0.1027 -0.7998  0.6129
  472TMC3    C8 7085   4.161   3.926  16.062 -0.0924  0.6313 -0.0610
  472TMC3    O1 7086   4.350   3.615  16.469  0.6304  0.0045 -0.1950
  472TMC3    O2 7087   4.141   4.000  15.969  0.0549 -0.0732 -0.5311
  473MPD2     C 7088   0.301   2.020  13.782  0.2273 -0.5642  0.8185
  473MPD2    C1 7089   0.199   2.091  13.729 -0.1687 -0.4829  0.4169
  473MPD2    C2 7090   0.104   2.148  13.808  0.1541 -0.4071 -0.2826
  473MPD2    C3 7091   0.103   2.126  13.945 -0.2098  0.2541  0.3349
  473MPD2    C4 7092   0.201   2.052  13.997  0.6891  0.0731 -0.4357
  473MPD2    C5 7093   0.305   2.002  13.919 -0.7825  0.4269  0.8191
  473MPD2     H 7094   0.027   2.203  13.755  0.3958 -0.4230 -0.6520
  473MPD2    H1 7095   0.223   2.028  14.100  1.3678  0.8126 -0.4100
  473MPD2    H2 7096   0.384   1.979  13.725 -0.7359 -0.0247 -0.9528
  473MPD2    H3 7097   0.390   1.954  13.966 -0.0539 -0.6241 -1.6237
  473MPD2     N 7098   4.738   2.165  14.034  0.2123  0.6557 -0.0495
  473MPD2    H5 7099   0.001   2.131  14.130 -0.9896  1.8789  0.3927
  473MPD2    N1 7100   0.201   2.130  13.594  0.2611 -0.2180  0.0412
  473MPD2    H7 7101   0.124   2.192  13.571  0.5490 -0.2250 -0.9614
  474TMC3    C1 7102   4.541   2.254  14.131  0.1465  0.0303 -0.8722
  474TMC3    C2 7103   4.476   2.365  14.148 -0.2593  0.3202  0.0007
  474TMC3    C3 7104   4.408   2.395  14.266 -0.1523 -0.2192  0.0224
  474TMC3    C4 7105   4.544   2.169  14.232  1.0162  0.5394  0.4468
  474TMC3    C5 7106   4.470   2.193  14.346 -0.7579 -0.3780  0.4431
  474TMC3    C6 7107   4.404   2.307  14.366 -0.6710 -0.1700  0.8597
  474TMC3     C 7108   4.632   2.244  14.012  0.3617 -0.0290  0.2191
  474TMC3     O 7109   4.602   2.309  13.914 -0.3618 -0.0303 -0.0868
  474TMC3     H 7110   4.464   2.429  14.062  1.0775  1.7634  0.8730
  474TMC3    H1 7111   4.604   2.079  14.223 -0.3324 -0.5605  2.5689
  474TMC3    H2 7112   4.347   2.338  14.453 -0.0243 -1.3752  1.7111
  474TMC3    C7 7113   4.484   2.091  14.447  0.0239 -0.7292 -0.7157
  474TMC3    C8 7114   4.291   2.482  14.252  0.3777  1.5391 -1.0119
  474TMC3    O1 7115   4.499   1.972  14.422  0.7411 -0.2459 -0.7236
  474TMC3    O2 7116   4.177   2.448  14.291  0.4029  0.4125 -0.3211
  475MPD2     C 7117   2.768   0.883  11.306  0.2156 -0.1434  0.7742
  475MPD2    C1 7118   2.811   0.947  11.192 -0.0143 -0.0332  0.4098
  475MPD2    C2 7119   2.723   1.014  11.113  0.2353 -0.3615 -0.4029
  475MPD2    C3 7120   2.592   1.011  11.133  0.1054 -0.7820 -0.6009
  475MPD2    C4 7121   2.546   0.957  11.254  0.0335  0.4302  0.3713
  475MPD2    C5 7122   2.631   0.879  11.328  0.0935  0.5933  0.1721
  475MPD2     H 7123   2.757   1.078  11.032  1.6696 -0.9149 -0.2507
  475MPD2    H1 7124   2.439   0.960  11.272  0.2415 -1.3852  1.9120
  475MPD2    H2 7125   2.836   0.836  11.376  1.8417 -0.0199 -0.7166
  475MPD2    H3 7126   2.592   0.825  11.414  1.3615  0.4765  0.6918
  475MPD2     N 7127   2.513   1.082  11.033 -0.1132 -0.3168 -0.5691
  475MPD2    H5 7128   2.563   1.143  10.969  1.1714 -1.9218 -1.0861
  475MPD2    N1 7129   2.950   0.960  11.173 -0.2943 -0.1795 -0.7019
  475MPD2    H7 7130   3.016   0.927  11.242  0.5277 -0.4728 -1.6219
  476TMC3    C1 7131   3.131   1.065  11.096  0.2086 -0.0304 -0.3158
  476TMC3    C2 7132   3.207   1.101  10.991 -0.0915 -0.1800  0.0334
  476TMC3    C3 7133   3.306   1.194  11.003 -0.3097  0.8676 -0.3659
  476TMC3    C4 7134   3.159   1.101  11.224 -0.1278 -0.0002 -0.4790
  476TMC3    C5 7135   3.258   1.199  11.229  0.2044 -1.5571 -0.4836
  476TMC3    C6 7136   3.326   1.252  11.120  0.5227  0.5027  0.2091
  476TMC3     C 7137   2.999   1.015  11.062  0.0925 -0.3419  0.1762
  476TMC3     O 7138   2.955   1.025  10.947  0.5095 -0.5569 -0.3292
  476TMC3     H 7139   3.176   1.067  10.893  0.5527 -1.0902  0.1446
  476TMC3    H1 7140   3.094   1.090  11.310  1.5014  1.7904  0.9958
  476TMC3    H2 7141   3.403   1.328  11.128  0.2794  0.8225 -0.5295
  476TMC3    C7 7142   3.262   1.266  11.350  0.0025  0.1764 -0.7512
  476TMC3    C8 7143   3.391   1.246  10.898  0.3297 -0.5784  0.2572
  476TMC3    O1 7144   3.229   1.203  11.451  0.0105  0.2416 -0.0081
  476TMC3    O2 7145   3.501   1.291  10.939  0.2078 -0.0174 -0.3830
  477MPD2     C 7146   0.940   2.080  12.379 -0.2686 -0.9557  0.3265
  477MPD2    C1 7147   0.912   2.031  12.249 -0.4913  0.3365  0.0616
  477MPD2    C2 7148   0.934   1.899  12.227 -0.0888 -0.2413  0.8098
  477MPD2    C3 7149   0.967   1.804  12.322  0.4168  0.6742  0.3966
  477MPD2    C4 7150   0.998   1.858  12.445  0.0897  0.3626  0.3273
  477MPD2    C5 7151   0.991   1.993  12.478 -0.5122 -0.3617  0.2280
  477MPD2     H 7152   0.916   1.860  12.127  2.7018 -0.5438  0.4419
  477MPD2    H1 7153   1.028   1.790  12.524  1.2925 -0.4313 -0.8289
  477MPD2    H2 7154   0.928   2.184  12.405  0.3649 -0.3031 -1.9211
  477MPD2    H3 7155   1.016   2.019  12.580  1.2219  0.9993 -0.5365
  477MPD2     N 7156   0.968   1.662  12.288 -0.0684  0.1161 -0.4778
  477MPD2    H5 7157   0.954   1.635  12.191 -2.6901 -1.0148  0.1949
  477MPD2    N1 7158   0.866   2.120  12.151  0.0192 -0.0113  0.1191
  477MPD2    H7 7159   0.867   2.219  12.173 -0.0749 -0.3750  1.7915
  478TMC3    C1 7160   0.749   2.199  11.971  0.0864 -0.4080  0.4162
  478TMC3    C2 7161   0.704   2.312  12.039  0.2811 -0.4009  0.0017
  478TMC3    C3 7162   0.649   2.413  11.968 -0.2601 -0.3990 -0.2935
  478TMC3    C4 7163   0.715   2.180  11.843 -0.8319  1.2302  0.0684
  478TMC3    C5 7164   0.666   2.287  11.766 -0.1953  0.0445 -0.7061
  478TMC3    C6 7165   0.632   2.405  11.830  0.3513  0.7847 -0.1250
  478TMC3     C 7166   0.815   2.085  12.031 -0.0561 -0.6264 -0.1511
  478TMC3     O 7167   0.832   1.983  11.967  0.5499 -0.0288 -0.1195
  478TMC3     H 7168   0.693   2.310  12.147 -2.6777  2.0296 -0.2438
  478TMC3    H1 7169   0.724   2.084  11.793  1.4328  1.4335  0.1063
  478TMC3    H2 7170   0.597   2.487  11.767 -2.2403 -0.3851 -0.1822
  478TMC3    C7 7171   0.584   2.249  11.649 -0.0856  0.2871  0.0337
  478TMC3    C8 7172   0.593   2.521  12.036 -0.3563  0.9335 -0.0553
  478TMC3    O1 7173   0.541   2.137  11.648 -0.0513 -0.2848 -0.1266
  478TMC3    O2 7174   0.598   2.510  12.158  0.3603  0.0290  0.0434
  479MPD2     C 7175   4.064   3.480  15.178 -0.6720 -0.3872  0.4690
  479MPD2    C1 7176   3.978   3.457  15.285  0.5706 -0.0797 -0.6151
  479MPD2    C2 7177   4.016   3.499  15.407  0.2673 -0.1847 -0.0336
  479MPD2    C3 7178   4.132   3.576  15.428 -0.2988 -0.1674 -0.4667
  479MPD2    C4 7179   4.214   3.603  15.321 -0.0771  0.3916  0.4318
  479MPD2    C5 7180   4.182   3.549  15.198  0.3705 -0.3159  0.2929
  479MPD2     H 7181   3.967   3.468  15.498 -2.6952 -0.2715 -1.6839
  479MPD2    H1 7182   4.313   3.647  15.329 -0.2805  0.5374  2.0490
  479MPD2    H2 7183   4.060   3.422  15.087 -0.1719  2.0089 -1.0938
  479MPD2    H3 7184   4.257   3.562  15.120 -0.6511  0.6896 -0.5310
  479MPD2     N 7185   4.177   3.616  15.559  0.3715  0.8244  0.0646
  479MPD2    H5 7186   4.275   3.645  15.563 -0.0846  2.5189 -0.9111
  479MPD2    N1 7187   3.855   3.388  15.259  0.4650  0.4582 -0.0991
  479MPD2    H7 7188   3.840   3.351  15.166 -1.1844  0.2675  0.2532
  480TMC3    C1 7189   3.793   3.518  15.792  0.1573 -0.0197  0.2428
  480TMC3    C2 7190   3.710   3.586  15.710  0.1731 -0.6677  0.1373
  480TMC3    C3 7191   3.772   3.673  15.628  0.2177  0.1817 -0.2600
  480TMC3    C4 7192   3.929   3.518  15.780 -0.3579 -0.3520  0.1976
  480TMC3    C5 7193   3.986   3.614  15.697 -0.0351  0.6219 -0.7263
  480TMC3    C6 7194   3.908   3.694  15.619  0.3037 -0.2517  0.1214
  480TMC3     C 7195   3.749   3.385  15.844  0.7216 -0.0894 -0.1995
  480TMC3     O 7196   3.834   3.292  15.841 -0.8613 -0.1662 -0.7777
  480TMC3     H 7197   3.606   3.562  15.691  0.1917  0.0722 -0.9352
  480TMC3    H1 7198   3.987   3.451  15.843 -0.6791  0.0978  0.9793
  480TMC3    H2 7199   3.949   3.772  15.556 -0.1517  0.8480  1.2037
  480TMC3    C7 7200   4.125   3.610  15.686 -0.2620 -0.7008  0.3562
  480TMC3    C8 7201   3.690   3.726  15.516 -0.2623 -0.4946 -0.8585
  480TMC3    O1 7202   4.185   3.622  15.793  0.0925  0.2406 -0.3398
  480TMC3    O2 7203   3.566   3.744  15.532  0.4810 -0.5029  0.6306
  481MPD2     C 7204   1.080   3.516  14.333 -0.2842  0.4604  0.2607
  481MPD2    C1 7205   0.981   3.424  14.355  0.4709 -0.0639  0.2441
  481MPD2    C2 7206   0.985   3.343  14.476 -0.1433 -0.2535 -0.4534
  481MPD2    C3 7207   1.072   3.373  14.580 -0.0768 -0.3355  0.5980
  481MPD2    C4 7208   1.166   3.477  14.561  0.0254 -0.4380 -0.5600
  481MPD2    C5 7209   1.174   3.537  14.435 -0.0623  0.2310  0.1188
  481MPD2     H 7210   0.913   3.264  14.497 -2.3951  1.4101 -1.9534
  481MPD2    H1 7211   1.245   3.493  14.633 -1.1702 -2.0223  1.1086
  481MPD2    H2 7212   1.091   3.579  14.245  1.5360 -0.5076 -0.2264
  481MPD2    H3 7213   1.262   3.600  14.422  0.1006  0.0650  0.3936
  481MPD2     N 7214   1.051   3.312  14.709  0.3236  0.2691 -0.5998
  481MPD2    H5 7215   1.110   3.343  14.784 -0.7575  1.0992 -0.0886
  481MPD2    N1 7216   0.877   3.404  14.258 -0.2028  0.2388  0.3265
  481MPD2    H7 7217   0.865   3.461  14.176 -0.1408 -1.5056 -0.9008
  482TMC3    C1 7218   0.657   3.363  14.186 -0.3562 -0.1383  0.0116
  482TMC3    C2 7219   0.569   3.266  14.158 -0.2677  0.3246  0.2915
  482TMC3    C3 7220   0.472   3.281  14.059  0.4813 -0.0064 -0.3523
  482TMC3    C4 7221   0.642   3.484  14.118 -0.7817  0.5253  0.3902
  482TMC3    C5 7222   0.536   3.495  14.030  0.3501  0.4453  0.7544
  482TMC3    C6 7223   0.453   3.400  13.993  0.6172  0.8177  0.1032
  482TMC3     C 7224   0.768   3.325  14.270  0.2710 -0.7385 -0.6003
  482TMC3     O 7225   0.751   3.224  14.341  0.7003 -0.1634 -0.0038
  482TMC3     H 7226   0.589   3.174  14.211  1.1500  0.3590 -0.1909
  482TMC3    H1 7227   0.708   3.569  14.134  1.1423 -0.9801  0.4938
  482TMC3    H2 7228   0.386   3.421  13.911  0.7080 -1.5386 -0.5624
  482TMC3    C7 7229   0.541   3.606  13.939  0.6480  0.4660 -0.7124
  482TMC3    C8 7230   0.388   3.159  14.046 -0.2315 -0.0350  0.3203
  482TMC3    O1 7231   0.657   3.643  13.915 -0.0673 -0.2491  0.4021
  482TMC3    O2 7232   0.418   3.064  14.109  0.1479 -0.2077 -0.1451
  483TMC3    C1 7233   3.662   1.780   1.014 -0.2436 -0.8433 -0.3672
  483TMC3    C2 7234   3.726   1.830   0.907 -0.1763  0.3746  0.2602
  483TMC3    C3 7235   3.843   1.895   0.929 -0.4182 -0.0663  0.2589
  483TMC3    C4 7236   3.712   1.767   1.140  0.1267  0.3874 -0.8295
  483TMC3    C5 7237   3.831   1.840   1.162  0.6198  0.7566  0.6453
  483TMC3    C6 7238   3.892   1.906   1.060 -0.5827  0.2688 -0.2293
  483TMC3     C 7239   3.542   1.708   0.982  0.2306 -0.1768  0.1627
  483TMC3     O 7240   3.471   1.766   0.901 -0.4903 -0.1961 -0.4094
  483TMC3     H 7241   3.692   1.814   0.806 -1.1745 -0.7573  0.7848
  483TMC3    H1 7242   3.660   1.732   1.229 -1.4474  1.3250 -1.3853
  483TMC3    H2 7243   3.973   1.975   1.082 -3.3342  2.1368  3.9996
  483TMC3    C7 7244   3.873   1.854   1.304 -0.0620 -0.8290  0.5075
  483TMC3    C8 7245   3.904   1.959   0.817  0.1780 -0.9115  0.7839
  483TMC3    O1 7246   3.790   1.818   1.390  0.1141 -0.0030  0.1314
  483TMC3    O2 7247   3.835   1.979   0.720  0.1592 -0.0159  0.7302
  484MPD2     C 7248   1.316   0.748  12.351 -0.1822  0.4664  0.2945
  484MPD2    C1 7249   1.366   0.713  12.473 -0.5084  0.1627  0.1440
  484MPD2    C2 7250   1.492   0.756  12.516  0.3318 -0.4483 -0.7792
  484MPD2    C3 7251   1.555   0.841  12.426  0.6788 -0.2171 -0.9252
  484MPD2    C4 7252   1.506   0.875  12.303 -0.1307  0.5942 -0.0959
  484MPD2    C5 7253   1.377   0.837  12.269  0.1905  0.2298 -0.7128
  484MPD2     H 7254   1.526   0.746  12.619  2.4608 -0.7575 -1.5097
  484MPD2    H1 7255   1.559   0.943  12.237  0.9870  1.4976  1.7063
  484MPD2    H2 7256   1.219   0.717  12.314 -0.9984  2.2768  0.8953
  484MPD2    H3 7257   1.323   0.864  12.180 -2.0103 -0.5903  0.3742
  484MPD2     N 7258   1.684   0.900  12.447 -0.4370 -0.1092  0.2708
  484MPD2    H5 7259   1.729   0.943  12.366  0.6674 -2.2629 -0.2583
  484MPD2    N1 7260   1.284   0.633  12.560 -0.4808 -0.1443  0.3359
  484MPD2    H7 7261   1.190   0.609  12.529 -0.5450  0.6209 -0.0518
  485TMC3    C1 7262   1.894   0.957  12.560 -0.2924  0.1488  0.0120
  485TMC3    C2 7263   1.977   0.938  12.667  0.1451  0.5932  0.3102
  485TMC3    C3 7264   2.085   1.020  12.686  0.2202 -0.4676  0.0086
  485TMC3    C4 7265   1.906   1.071  12.492  0.1249  0.9418  0.1008
  485TMC3    C5 7266   2.003   1.165  12.523 -0.5728 -0.0150  0.0001
  485TMC3    C6 7267   2.092   1.141  12.624  0.3009 -0.3808  0.7024
  485TMC3     C 7268   1.766   0.883  12.560 -0.5377  0.6941 -0.1402
  485TMC3     O 7269   1.738   0.822  12.662  0.0219 -0.3296  0.1122
  485TMC3     H 7270   1.961   0.836  12.700 -0.5643  0.2077 -1.2003
  485TMC3    H1 7271   1.837   1.088  12.411 -2.1182  0.6542  1.9356
  485TMC3    H2 7272   2.173   1.208  12.650 -0.4045  1.6641 -2.3440
  485TMC3    C7 7273   2.061   1.232  12.411 -0.0499  0.2977 -0.3310
  485TMC3    C8 7274   2.210   0.947  12.653  0.3653 -0.2511  0.7943
  485TMC3    O1 7275   1.998   1.302  12.329 -0.8401  0.0071 -0.2200
  485TMC3    O2 7276   2.285   1.001  12.573 -0.7357  0.2252 -0.7878
  486MPD2     C 7277   3.268   4.107  12.867  0.2473 -0.0207  0.1176
  486MPD2    C1 7278   3.206   4.088  12.745  0.4568  0.4385  0.0698
  486MPD2    C2 7279   3.119   4.185  12.695 -0.9733  0.0057  0.0020
  486MPD2    C3 7280   3.099   4.305  12.762 -0.2731  0.1290  0.3137
  486MPD2    C4 7281   3.162   4.320  12.878 -0.0251  0.2397  0.5293
  486MPD2    C5 7282   3.257   4.229  12.925 -0.2620  1.2126  0.1941
  486MPD2     H 7283   3.065   4.167  12.603 -1.2195  1.3791 -0.1203
  486MPD2    H1 7284   3.149   4.415  12.929  0.1985  1.6267 -1.9664
  486MPD2    H2 7285   3.331   4.031  12.913  0.4083 -0.5393 -0.9656
  486MPD2    H3 7286   3.293   4.251  13.025 -0.8510 -0.3244  0.7590
  486MPD2     N 7287   3.002   4.392  12.708 -0.9646  0.7812 -0.3601
  486MPD2    H5 7288   2.977   4.382  12.610 -0.3598 -1.0355 -0.3389
  486MPD2    N1 7289   3.234   3.968  12.676 -0.2021 -0.2815  0.1575
  486MPD2    H7 7290   3.298   3.902  12.717 -2.8779 -2.5735  0.6624
  487TMC3    C1 7291   3.218   3.792  12.544  0.1410  0.3063 -0.6741
  487TMC3    C2 7292   3.112   3.713  12.515  0.3350  0.1925 -0.5930
  487TMC3    C3 7293   3.126   3.577  12.503 -0.4294 -0.2464  0.4734
  487TMC3    C4 7294   3.341   3.733  12.569 -0.1451 -0.2896  0.1073
  487TMC3    C5 7295   3.355   3.596  12.544 -0.8054 -0.3279 -1.1415
  487TMC3    C6 7296   3.249   3.519  12.496 -0.8332  0.2748  0.8094
  487TMC3     C 7297   3.183   3.930  12.552  0.5937 -0.1871 -0.4091
  487TMC3     O 7298   3.100   3.982  12.476 -0.1524  0.1895  0.2889
  487TMC3     H 7299   3.012   3.753  12.532  0.1341 -0.5903  0.0836
  487TMC3    H1 7300   3.425   3.797  12.594  0.0563 -0.7099  0.4970
  487TMC3    H2 7301   3.254   3.411  12.495 -1.7164  0.2409 -0.7577
  487TMC3    C7 7302   3.454   3.531  12.632  0.1104 -0.5100 -0.3492
  487TMC3    C8 7303   3.047   3.514  12.604 -0.9145  0.7083 -0.3337
  487TMC3    O1 7304   3.526   3.610  12.693  0.5017  0.1013 -0.0411
  487TMC3    O2 7305   3.028   3.579  12.705  0.1080  0.7392 -0.3240
  488MPD2     C 7306   4.064   0.378  16.315  0.3945  0.8384  0.1796
  488MPD2    C1 7307   4.009   0.501  16.329 -0.2417 -0.7213 -0.1851
  488MPD2    C2 7308   3.962   0.536  16.452 -0.4412 -0.4897 -0.0955
  488MPD2    C3 7309   3.960   0.447  16.562 -0.8290  0.0654 -0.5747
  488MPD2    C4 7310   3.999   0.319  16.545  0.7484  0.1447 -0.4449
  488MPD2    C5 7311   4.049   0.282  16.418 -0.1087  0.3176 -0.6766
  488MPD2     H 7312   3.921   0.634  16.472  1.0097  0.5347 -2.2834
  488MPD2    H1 7313   3.988   0.244  16.623 -2.8134  0.3295 -0.7563
  488MPD2    H2 7314   4.122   0.354  16.227 -0.0451 -0.6820  0.3087
  488MPD2    H3 7315   4.088   0.184  16.393 -1.2523 -0.2606 -0.1655
  488MPD2     N 7316   3.911   0.492  16.688 -0.5698  0.3938 -0.3781
  488MPD2    H5 7317   3.880   0.588  16.694  1.1441  0.8980  0.6292
  488MPD2    N1 7318   3.997   0.591  16.222 -0.3253 -0.0310  0.2907
  488MPD2    H7 7319   3.972   0.687  16.244 -2.4506 -0.8326  1.4122
  489TMC3    C1 7320   3.857   0.502  16.913 -0.6407  0.8600  0.0300
  489TMC3    C2 7321   3.922   0.625  16.939 -0.6580  0.1369  0.2419
  489TMC3    C3 7322   3.879   0.704  17.045  0.0957 -0.2608  0.5634
  489TMC3    C4 7323   3.776   0.455  17.006 -0.3395 -0.4727 -0.4249
  489TMC3    C5 7324   3.745   0.533  17.117 -0.0850  0.1769 -0.2712
  489TMC3    C6 7325   3.784   0.657  17.133 -1.2096  0.1363  0.0678
  489TMC3     C 7326   3.894   0.416  16.796  0.0441 -0.1806 -0.2957
  489TMC3     O 7327   3.878   0.294  16.815  0.1804 -0.3788  0.0960
  489TMC3     H 7328   4.006   0.656  16.878 -1.7305  0.6580 -0.9934
  489TMC3    H1 7329   3.725   0.361  16.995  0.1195 -0.8336  0.5523
  489TMC3    H2 7330   3.776   0.710  17.227 -0.8358 -0.4656  0.4286
  489TMC3    C7 7331   3.686   0.467  17.233 -0.5050 -0.3985  0.4783
  489TMC3    C8 7332   3.915   0.839  17.025 -0.5371  0.1017  0.6904
  489TMC3    O1 7333   3.715   0.348  17.245 -0.1145  0.4975  0.3343
  489TMC3    O2 7334   4.021   0.864  16.966 -0.4162  0.4133  0.0785
  490MPD2     C 7335   4.177   0.025   0.001  0.1469  0.6412  0.7375
  490MPD2    C1 7336   4.218   4.724  17.627 -0.8143 -0.5125  0.2989
  490MPD2    C2 7337   4.290   0.072  17.547  0.1323 -0.3570  0.2761
  490MPD2    C3 7338   4.325   0.207  17.592 -0.2091  0.5154 -0.8936
  490MPD2    C4 7339   4.283   0.237  17.719  0.3335  0.4398 -0.0857
  490MPD2    C5 7340   4.223   0.144   0.048  0.4936 -0.1112 -0.1844
  490MPD2     H 7341   4.310   0.045  17.444 -0.4960 -0.2340  0.1198
  490MPD2    H1 7342   4.315   0.328   0.016  2.0859  1.4299 -3.1213
  490MPD2    H2 7343   4.115   4.700   0.063 -0.6908 -0.3459 -1.1218
  490MPD2    H3 7344   4.205   0.181   0.148 -2.8465  0.9185 -1.1699
  490MPD2     N 7345   4.404   0.299  17.516  0.8472  0.2265 -0.4798
  490MPD2    H5 7346   4.428   0.385  17.565  1.4954 -0.5247  0.5131
  490MPD2    N1 7347   4.192   4.594  17.571  0.5527  0.0489  0.4087
  490MPD2    H7 7348   4.200   4.577  17.471  4.0942  3.5853  0.1087
  491TMC3    C1 7349   4.107   4.378  17.542  0.3181 -0.5321  0.0009
  491TMC3    C2 7350   4.116   4.246  17.585 -0.4233 -0.5611 -0.8272
  491TMC3    C3 7351   4.088   4.140  17.509 -0.4790 -0.1883  0.1670
  491TMC3    C4 7352   4.065   4.403  17.413  0.1634 -0.3216  0.1058
  491TMC3    C5 7353   4.031   4.294  17.339 -0.4192  0.1324  0.2023
  491TMC3    C6 7354   4.039   4.166  17.386 -0.0165  0.3982  0.5127
  491TMC3     C 7355   4.136   4.485  17.638  0.6503  0.2190  0.0701
  491TMC3     O 7356   4.135   4.467   0.004 -0.2686  0.1001 -0.0719
  491TMC3     H 7357   4.152   4.233  17.686  0.3736  1.9186 -0.7777
  491TMC3    H1 7358   4.039   4.504  17.382  0.8260  0.1200  0.9893
  491TMC3    H2 7359   4.013   4.086  17.319 -1.1053  1.1481  0.0414
  491TMC3    C7 7360   3.967   4.307  17.211 -0.8028 -0.0990  0.4171
  491TMC3    C8 7361   4.014   4.037  17.584 -1.2457  0.0793 -0.3736
  491TMC3    O1 7362   3.925   4.208  17.161  0.3286  0.6001 -0.2628
  491TMC3    O2 7363   3.989   4.064  17.699  0.5670  0.1616 -0.1729
  492MPD2     C 7364   0.205   0.875  11.586 -0.5287  0.2491  0.0734
  492MPD2    C1 7365   0.091   0.845  11.518  0.4289 -0.2455 -0.5125
  492MPD2    C2 7366   4.724   0.779  11.589 -1.1693 -0.4756  0.6349
  492MPD2    C3 7367   0.000   0.737  11.720 -0.3546  0.8014 -0.2530
  492MPD2    C4 7368   0.117   0.773  11.790 -0.1990 -0.2678 -0.6185
  492MPD2    C5 7369   0.214   0.848  11.724 -0.8842  0.1109 -0.3384
  492MPD2     H 7370   4.632   0.746  11.541 -1.1723 -0.4116  0.5964
  492MPD2    H1 7371   0.128   0.742  11.893 -1.7608  1.7693  0.1466
  492MPD2    H2 7372   0.283   0.924  11.529  0.2761  0.0317  0.9726
  492MPD2    H3 7373   0.306   0.875  11.774 -0.4346 -0.7965 -0.6862
  492MPD2     N 7374   4.644   0.654  11.796  0.4789  0.1944 -0.4635
  492MPD2    H5 7375   4.666   0.650  11.895  1.1888  2.6080 -0.5303
  492MPD2    N1 7376   0.084   0.872  11.380  0.4056  0.1827  0.2953
  492MPD2    H7 7377   0.170   0.906  11.336  2.2096 -1.8469  2.2607
  493TMC3    C1 7378   4.722   0.903  11.163 -0.5544 -0.2407 -0.9047
  493TMC3    C2 7379   0.106   0.951  11.122 -0.3063 -0.5080 -0.2755
  493TMC3    C3 7380   0.104   1.017  11.003  0.3074 -0.1553  0.0121
  493TMC3    C4 7381   4.612   0.905  11.089  0.1468 -0.3205 -0.0556
  493TMC3    C5 7382   4.620   0.960  10.964  0.1357  0.8696 -0.4549
  493TMC3    C6 7383   4.729   1.020  10.922  0.7391  0.3115  0.1651
  493TMC3     C 7384   4.706   0.868  11.305  0.1448  0.1967  0.2272
  493TMC3     O 7385   4.592   0.848  11.354 -0.3525  0.3982  0.5541
  493TMC3     H 7386   0.195   0.946  11.184 -0.2378  0.2269 -0.3108
  493TMC3    H1 7387   4.516   0.882  11.133  0.8129  0.9476  2.0621
  493TMC3    H2 7388   4.731   1.063  10.822  2.9650  2.5185  1.1608
  493TMC3    C7 7389   4.506   0.965  10.877 -0.3998  0.6714  0.0390
  493TMC3    C8 7390   0.231   1.023  10.924 -0.4938 -0.0841 -0.1576
  493TMC3    O1 7391   4.509   1.056  10.796 -0.6076 -0.0635 -0.2817
  493TMC3    O2 7392   0.320   0.950  10.960 -0.0488 -0.2021  0.4169
  494TMC3    C1 7393   0.664   1.280   0.256 -0.1969 -0.3103  0.5107
  494TMC3    C2 7394   0.682   1.144   0.269  0.1417  0.3146  0.0551
  494TMC3    C3 7395   0.675   1.066   0.156 -0.7475  0.4480  0.1412
  494TMC3    C4 7396   0.623   1.338   0.142 -0.1867  0.0209  0.2173
  494TMC3    C5 7397   0.607   1.260   0.033 -0.1641 -0.0645 -1.0031
  494TMC3    C6 7398   0.646   1.128   0.037 -0.7293 -0.2580 -0.2988
  494TMC3     C 7399   0.648   1.354   0.378 -0.0671 -0.3976 -0.2505
  494TMC3     O 7400   0.714   1.321   0.476 -0.6407 -0.4328 -0.2630
  494TMC3     H 7401   0.707   1.108   0.368 -0.8473 -1.2859 -0.2689
  494TMC3    H1 7402   0.641   1.445   0.136 -1.7441  0.3981  2.4439
  494TMC3    H2 7403   0.653   1.079  17.691  1.3432  1.3379 -0.9698
  494TMC3    C7 7404   0.563   1.322  17.658 -0.6937  0.8994 -0.0641
  494TMC3    C8 7405   0.754   0.945   0.148  0.1118 -0.5662  0.2787
  494TMC3    O1 7406   0.550   1.241  17.563 -1.4999 -0.5667  0.2732
  494TMC3    O2 7407   0.856   0.948   0.221  0.2239  0.9193 -0.5145
  495TMC3    C1 7408   4.157   3.612  14.727 -0.4536  0.6004  0.2372
  495TMC3    C2 7409   4.097   3.653  14.607  0.3381  0.0176  0.2556
  495TMC3    C3 7410   4.017   3.764  14.611  0.1247 -0.0015  0.7194
  495TMC3    C4 7411   4.154   3.685  14.843 -0.6844  0.1509  1.0499
  495TMC3    C5 7412   4.089   3.804  14.835  0.5330  0.5479 -0.4190
  495TMC3    C6 7413   4.011   3.844  14.725  0.0564  0.1056 -1.0968
  495TMC3     C 7414   4.149   3.470  14.758  1.0797 -0.1380 -0.1009
  495TMC3     O 7415   4.219   3.423  14.846  0.7316  0.0064  0.3755
  495TMC3     H 7416   4.098   3.594  14.517 -1.8192 -0.2563  0.4128
  495TMC3    H1 7417   4.181   3.640  14.938 -0.5270 -1.1032  0.4121
  495TMC3    H2 7418   3.944   3.928  14.716 -1.1364 -0.6637  0.5390
  495TMC3    C7 7419   4.027   3.816  14.966  0.0312 -0.2090  0.4328
  495TMC3    C8 7420   3.884   3.752  14.553 -0.2059 -0.6053 -0.6324
  495TMC3    O1 7421   4.095   3.838  15.068 -0.3257 -0.1063  0.2491
  495TMC3    O2 7422   3.799   3.749  14.640 -0.7403  0.1850 -0.3454
  496MPD2     C 7423   1.353   4.087  14.852 -0.3771 -0.2129 -0.6162
  496MPD2    C1 7424   1.379   4.040  14.983  0.4124 -0.2833 -0.6677
  496MPD2    C2 7425   1.273   3.998  15.054  0.9075  0.5444 -1.1523
  496MPD2    C3 7426   1.145   3.990  15.006  0.1067 -0.2010 -0.5070
  496MPD2    C4 7427   1.123   4.028  14.877 -0.2428  0.6749 -0.3552
  496MPD2    C5 7428   1.226   4.075  14.795 -0.8229  0.1945 -0.2522
  496MPD2     H 7429   1.298   3.959  15.152 -0.2824  0.5774 -0.8345
  496MPD2    H1 7430   1.027   4.006  14.833 -0.2121  2.1120 -1.1582
  496MPD2    H2 7431   1.418   4.145  14.788  0.8474 -0.5774  0.2984
  496MPD2    H3 7432   1.211   4.090  14.688 -0.0872  0.4070 -0.3293
  496MPD2     N 7433   1.039   3.939  15.086  0.2068 -0.0064 -0.2977
  496MPD2    H5 7434   0.952   3.928  15.035 -0.1971  1.3931  0.0853
  496MPD2    N1 7435   1.507   4.071  15.037 -0.4555 -0.0829 -0.3167
  496MPD2    H7 7436   1.573   4.104  14.967 -2.0657  2.2987 -0.6953
  497TMC3    C1 7437   0.901   3.873  15.264 -0.7565  0.1685  0.7638
  497TMC3    C2 7438   0.830   3.786  15.183  0.1592 -0.0524  0.1134
  497TMC3    C3 7439   0.728   3.720  15.243  0.3113 -0.1261 -0.4766
  497TMC3    C4 7440   0.869   3.889  15.395  0.6430  0.3027 -0.4013
  497TMC3    C5 7441   0.770   3.814  15.447  0.1505  0.0801  0.0814
  497TMC3    C6 7442   0.694   3.733  15.376  0.0672  0.4233 -0.3804
  497TMC3     C 7443   1.039   3.903  15.218  0.1301  0.4634 -0.3919
  497TMC3     O 7444   1.118   3.924  15.308  0.8647 -0.0416 -0.3833
  497TMC3     H 7445   0.831   3.799  15.075  1.1389  1.9983  0.3727
  497TMC3    H1 7446   0.921   3.969  15.446  0.1801  1.2426 -1.4141
  497TMC3    H2 7447   0.630   3.665  15.431 -2.3778  2.2866 -0.8899
  497TMC3    C7 7448   0.732   3.837  15.581  0.0868  0.2142  0.2489
  497TMC3    C8 7449   0.649   3.628  15.171  0.3369  0.1133 -0.5378
  497TMC3    O1 7450   0.611   3.815  15.607  0.6010  0.3793  0.5650
  497TMC3    O2 7451   0.534   3.617  15.219 -0.0275 -0.6110 -0.2237
  498MPD2     C 7452   2.306   1.459   9.915 -0.6008 -0.1839 -0.5185
  498MPD2    C1 7453   2.384   1.422  10.020  0.6807  0.2560  0.1259
  498MPD2    C2 7454   2.321   1.392  10.138 -0.0769  0.0052 -0.1759
  498MPD2    C3 7455   2.192   1.405  10.159  0.2664  0.3424 -0.0145
  498MPD2    C4 7456   2.110   1.432  10.054 -0.1003 -0.0639 -0.2570
  498MPD2    C5 7457   2.168   1.462   9.936 -0.2726 -0.2756 -0.6757
  498MPD2     H 7458   2.380   1.354  10.220  0.8642 -3.6461 -2.5394
  498MPD2    H1 7459   2.002   1.441  10.059 -0.1170 -0.8348  0.9303
  498MPD2    H2 7460   2.344   1.483   9.816 -0.7423  2.2342  0.0100
  498MPD2    H3 7461   2.102   1.492   9.856 -0.2343 -1.1455 -1.0297
  498MPD2     N 7462   2.142   1.357  10.285  0.0318 -0.6699  0.4906
  498MPD2    H5 7463   2.207   1.306  10.344  0.8930  0.7045  0.7263
  498MPD2    N1 7464   2.520   1.413  10.025  0.1039 -0.6331  1.2668
  498MPD2    H7 7465   2.567   1.384  10.110  1.5873 -2.7247 -0.2807
  499TMC3    C1 7466   2.739   1.458   9.957 -0.8627 -0.0796  0.2562
  499TMC3    C2 7467   2.782   1.458  10.087  0.2943 -0.3718  0.2841
  499TMC3    C3 7468   2.912   1.505  10.113 -0.5360 -0.6120  0.7277
  499TMC3    C4 7469   2.821   1.498   9.853 -0.0088  0.5168  0.0768
  499TMC3    C5 7470   2.943   1.545   9.881  0.5911  0.6033  0.0351
  499TMC3    C6 7471   2.990   1.555  10.013 -0.8444  0.1299  0.0152
  499TMC3     C 7472   2.602   1.456   9.921 -0.2119 -0.1314  0.0076
  499TMC3     O 7473   2.578   1.511   9.817 -0.0878 -0.5290 -0.1856
  499TMC3     H 7474   2.716   1.421  10.165 -2.2091  1.3137 -1.0296
  499TMC3    H1 7475   2.793   1.472   9.751 -0.6847 -2.7576  1.1109
  499TMC3    H2 7476   3.092   1.581  10.036 -0.1560 -2.3606 -0.2056
  499TMC3    C7 7477   3.020   1.598   9.771  0.9134 -0.2129  0.1374
  499TMC3    C8 7478   2.961   1.509  10.255  0.6768  0.0510  0.0722
  499TMC3    O1 7479   3.130   1.631   9.806  0.4138 -0.2390 -0.0642
  499TMC3    O2 7480   2.904   1.435  10.333 -0.3408 -0.0560  0.0994
  500MPD2     C 7481   4.033   2.180  11.122 -0.5570 -0.8560 -0.1277
  500MPD2    C1 7482   4.131   2.187  11.026  1.0412  1.0922 -0.2750
  500MPD2    C2 7483   4.082   2.210  10.901 -0.0569 -0.0139 -0.2595
  500MPD2    C3 7484   3.954   2.240  10.867  0.3754 -0.3150 -0.1032
  500MPD2    C4 7485   3.860   2.232  10.968 -0.3530  1.1447  0.5859
  500MPD2    C5 7486   3.901   2.201  11.091  0.2769  0.1464 -0.7072
  500MPD2     H 7487   4.146   2.231  10.816  0.1098  0.2760 -0.0620
  500MPD2    H1 7488   3.756   2.239  10.936 -0.5912 -4.2429  0.2199
  500MPD2    H2 7489   4.052   2.156  11.226 -0.7397 -0.8677 -0.0955
  500MPD2    H3 7490   3.832   2.185  11.173  1.4549 -3.2105 -0.3769
  500MPD2     N 7491   3.917   2.260  10.731  0.3392 -0.3781 -0.0531
  500MPD2    H5 7492   3.819   2.272  10.710 -0.0450 -1.9675  0.8513
  500MPD2    N1 7493   4.263   2.147  11.048 -0.7522 -0.2528  0.9542
  500MPD2    H7 7494   4.326   2.167  10.971 -1.8146  1.8416  0.6063
  501TMC3    C1 7495   4.444   2.051  11.162  0.1413  0.3373 -0.3379
  501TMC3    C2 7496   4.527   2.139  11.093 -0.0293 -0.7642  0.2447
  501TMC3    C3 7497   4.664   2.109  11.085 -0.1347 -0.3554 -0.1698
  501TMC3    C4 7498   4.497   1.942  11.227 -0.9016 -0.4071  0.2282
  501TMC3    C5 7499   4.633   1.914  11.200 -0.4589 -0.4881  0.0764
  501TMC3    C6 7500   4.712   1.994  11.139 -1.0023 -0.1406  0.7542
  501TMC3     C 7501   4.306   2.073  11.152  0.3519 -0.1433 -0.8984
  501TMC3     O 7502   4.233   2.021  11.238 -0.5438 -0.4310 -0.1122
  501TMC3     H 7503   4.492   2.235  11.058 -1.3208 -1.3868 -0.1618
  501TMC3    H1 7504   4.426   1.880  11.280 -0.7625 -2.1020 -1.5571
  501TMC3    H2 7505   0.075   1.967  11.109 -0.3348  2.5808  0.5773
  501TMC3    C7 7506   4.683   1.808  11.276 -0.6896  0.4011  1.0118
  501TMC3    C8 7507   0.019   2.176  11.003 -0.3298 -0.1554 -0.3356
  501TMC3    O1 7508   4.611   1.741  11.346  0.1790  0.3698 -0.7887
  501TMC3    O2 7509   0.135   2.181  11.040 -0.0520 -0.2294  0.2068
  502TMC3    C1 7510   3.709   0.200  14.802  0.1520 -0.6884  0.1437
  502TMC3    C2 7511   3.690   0.335  14.817  0.6865  0.1207 -0.5098
  502TMC3    C3 7512   3.566   0.381  14.850  0.0462 -0.3683 -0.1147
  502TMC3    C4 7513   3.610   0.105  14.788  0.0640 -0.5645 -0.5835
  502TMC3    C5 7514   3.492   0.152  14.828 -0.4068  0.0999  0.3973
  502TMC3    C6 7515   3.470   0.285  14.863 -0.3353 -0.2623 -1.2152
  502TMC3     C 7516   3.826   0.157  14.882 -0.0270 -0.1486 -0.1959
  502TMC3     O 7517   3.916   0.235  14.906 -0.5429 -0.5429 -0.0165
  502TMC3     H 7518   3.773   0.404  14.826  1.4763 -0.8058 -0.5693
  502TMC3    H1 7519   3.637   0.005  14.756 -0.0549 -0.6837 -0.3132
  502TMC3    H2 7520   3.365   0.311  14.872 -0.0496  0.9786 -1.4748
  502TMC3    C7 7521   3.428   0.040  14.895  0.3229  0.1031 -0.2133
  502TMC3    C8 7522   3.526   0.516  14.846 -0.4452  0.0802  0.3512
  502TMC3    O1 7523   3.498   4.694  14.951 -0.2231 -0.1828  0.1899
  502TMC3    O2 7524   3.594   0.597  14.791 -0.0378  0.8294 -0.0443
  503MPD2     C 7525   0.796   0.196  16.710 -0.7820 -0.4345 -0.8048
  503MPD2    C1 7526   0.859   0.274  16.803 -0.2369  0.3821 -0.3398
  503MPD2    C2 7527   0.939   0.213  16.891 -0.3353  0.3303  0.1844
  503MPD2    C3 7528   0.971   0.082  16.886 -0.4128 -0.0259  0.0359
  503MPD2    C4 7529   0.911   0.004  16.790  0.0846  0.1148 -0.8196
  503MPD2    C5 7530   0.818   0.060  16.704  0.3748  0.1183  0.2988
  503MPD2     H 7531   0.980   0.269  16.974 -1.3244  1.6612 -0.2300
  503MPD2    H1 7532   0.930   4.637  16.778  1.0706  0.1843  0.1544
  503MPD2    H2 7533   0.731   0.243  16.637 -3.1941  0.3126  1.8210
  503MPD2    H3 7534   0.783   4.735  16.623 -2.4806  0.2786  1.4395
  503MPD2     N 7535   1.075   0.036  16.972  0.5950 -0.4761 -0.1121
  503MPD2    H5 7536   1.128   0.102  17.027 -1.0230  0.9061 -0.2124
  503MPD2    N1 7537   0.836   0.410  16.818 -0.5933  0.0185 -0.0356
  503MPD2    H7 7538   0.890   0.448  16.896 -0.2769 -0.9969  0.2404
  504TMC3    C1 7539   1.231   4.613  17.045  0.2730  1.2955 -0.0350
  504TMC3    C2 7540   1.228   4.505  17.131 -0.0332  0.2537  0.4343
  504TMC3    C3 7541   1.339   4.486  17.203 -0.3078  0.4490 -0.2377
  504TMC3    C4 7542   1.341   4.697  17.038  0.5168  0.6059  0.1547
  504TMC3    C5 7543   1.444   4.676  17.116  0.4489  0.2245  0.1543
  504TMC3    C6 7544   1.448   4.570  17.202  0.3246 -0.3844 -0.2068
  504TMC3     C 7545   1.108   4.641  16.977  0.2832  0.0380 -0.0845
  504TMC3     O 7546   1.048   4.544  16.934  0.4777 -0.4415 -0.2761
  504TMC3     H 7547   1.142   4.439  17.123 -0.0248  0.3752 -0.6655
  504TMC3    H1 7548   1.340   0.047  16.974 -3.1771 -0.0097 -0.6185
  504TMC3    H2 7549   1.535   4.529  17.252 -0.2972 -0.1938  1.0492
  504TMC3    C7 7550   1.572   0.010  17.083 -0.1180 -0.0539 -0.1484
  504TMC3    C8 7551   1.331   4.370  17.291 -0.4192  0.3068  0.0562
  504TMC3    O1 7552   1.582   0.072  16.978  0.6984  0.1358 -0.4480
  504TMC3    O2 7553   1.234   4.300  17.278 -0.3501 -0.0253 -0.9908
  505MPD2     C 7554   1.611   0.956  11.457 -0.0797 -0.2575 -0.0722
  505MPD2    C1 7555   1.599   0.834  11.398 -1.0146  0.6000 -0.6281
  505MPD2    C2 7556   1.716   0.767  11.372  0.9408 -0.4629 -0.3601
  505MPD2    C3 7557   1.838   0.822  11.388  0.5777  0.1129 -0.3177
  505MPD2    C4 7558   1.849   0.953  11.440  0.4847  1.3871  0.8829
  505MPD2    C5 7559   1.731   1.017  11.474 -0.1072 -0.1836  0.3723
  505MPD2     H 7560   1.718   0.660  11.359  1.3358 -0.4865 -0.1009
  505MPD2    H1 7561   1.942   1.001  11.466  1.9475  0.5874 -2.9913
  505MPD2    H2 7562   1.523   1.015  11.481 -1.3683 -1.7192 -1.2183
  505MPD2    H3 7563   1.741   1.118  11.511 -0.0173  0.3813 -1.2002
  505MPD2     N 7564   1.951   0.745  11.365  0.0977 -0.3400 -0.4313
  505MPD2    H5 7565   1.930   0.650  11.338  0.9951 -0.0951 -1.9685
  505MPD2    N1 7566   1.470   0.783  11.361 -0.3838  0.1604  0.4197
  505MPD2    H7 7567   1.382   0.829  11.380  0.5125  1.8864  0.3964
  506TMC3    C1 7568   1.328   0.648  11.230 -0.3892 -0.4849  0.1723
  506TMC3    C2 7569   1.302   0.726  11.121 -0.3000 -0.4492  0.4292
  506TMC3    C3 7570   1.234   0.666  11.021  0.7038 -0.0443  0.5812
  506TMC3    C4 7571   1.296   0.514  11.231 -0.3488 -0.0927  0.3512
  506TMC3    C5 7572   1.234   0.458  11.123  0.0982  0.4051 -0.0748
  506TMC3    C6 7573   1.194   0.536  11.018  0.0679 -0.2138 -0.0194
  506TMC3     C 7574   1.457   0.674  11.279  0.5122 -0.5170 -0.5329
  506TMC3     O 7575   1.524   0.573  11.280  0.0433 -0.0066  0.1073
  506TMC3     H 7576   1.342   0.827  11.116 -1.4922  0.0481  1.0315
  506TMC3    H1 7577   1.315   0.451  11.317  0.8250 -2.3024 -1.5131
  506TMC3    H2 7578   1.142   0.496  10.931  0.0488  0.7170 -0.4271
  506TMC3    C7 7579   1.316   0.349  11.076  1.0179  0.5542  0.1140
  506TMC3    C8 7580   1.227   0.729  10.890  0.1566  0.2208  0.2690
  506TMC3    O1 7581   1.275   0.284  10.982 -0.2783  0.1180  0.3288
  506TMC3    O2 7582   1.132   0.699  10.815  0.3547 -0.5617  0.2091
  507TMC3    C1 7583   2.184   0.202  14.809  0.2308 -0.0520  1.0308
  507TMC3    C2 7584   2.150   0.104  14.717 -0.4910 -0.2993 -0.0462
  507TMC3    C3 7585   2.210   0.089  14.596  0.5507  0.2582  0.6658
  507TMC3    C4 7586   2.264   0.307  14.773 -0.2646 -0.4055  0.2218
  507TMC3    C5 7587   2.323   0.300  14.648  0.2754 -0.7909 -0.7402
  507TMC3    C6 7588   2.303   0.190  14.563  0.0705  0.1797  0.1818
  507TMC3     C 7589   2.101   0.220  14.923  0.2951 -0.1869  0.4086
  507TMC3     O 7590   2.152   0.293  15.009  0.0832  0.3430 -0.4393
  507TMC3     H 7591   2.091   0.020  14.753 -0.2872 -0.5457 -0.2892
  507TMC3    H1 7592   2.287   0.383  14.846  2.2599 -1.0158  0.0760
  507TMC3    H2 7593   2.362   0.187  14.472  1.0091 -4.3368  0.9468
  507TMC3    C7 7594   2.312   0.422  14.582 -0.2021  0.4579  0.6485
  507TMC3    C8 7595   2.120   0.053  14.493  0.6301 -0.0588 -0.3714
  507TMC3    O1 7596   2.278   0.410  14.464  0.0949 -0.1949 -0.0353
  507TMC3    O2 7597   2.029   4.713  14.521  0.2825 -0.7550 -0.0237
  508MPD2     C 7598   2.579   2.227  16.162 -0.5993 -0.3936 -0.3485
  508MPD2    C1 7599   2.688   2.260  16.088  0.0934 -0.5037  0.1272
  508MPD2    C2 7600   2.691   2.369  16.007  0.2825  0.4620  0.3395
  508MPD2    C3 7601   2.577   2.444  16.004  0.3246  0.3720 -0.0575
  508MPD2    C4 7602   2.465   2.417  16.083 -0.4153  0.4476  0.1808
  508MPD2    C5 7603   2.467   2.304  16.160  0.1968  0.1951 -0.2709
  508MPD2     H 7604   2.777   2.406  15.952 -0.0449  0.2807 -0.2989
  508MPD2    H1 7605   2.371   2.470  16.086 -0.6877 -0.0808  1.1442
  508MPD2    H2 7606   2.588   2.152  16.240 -2.5266  1.4459  1.6470
  508MPD2    H3 7607   2.391   2.283  16.234  1.1872  1.5175  1.1276
  508MPD2     N 7608   2.588   2.568  15.939  0.2987 -0.0427 -0.1079
  508MPD2    H5 7609   2.675   2.583  15.889 -0.5741  0.3442 -1.5241
  508MPD2    N1 7610   2.791   2.160  16.094  0.1356  0.3021 -0.0535
  508MPD2    H7 7611   2.777   2.085  16.162 -0.4873 -0.8593 -1.4501
  509TMC3    C1 7612   2.498   3.011  15.799 -0.5853  0.3385  1.2152
  509TMC3    C2 7613   2.631   3.052  15.795  0.3652 -0.0711  0.3642
  509TMC3    C3 7614   2.718   2.956  15.833  0.5182 -0.3459 -0.1526
  509TMC3    C4 7615   2.459   2.895  15.863  0.1160  0.0514 -0.0132
  509TMC3    C5 7616   2.557   2.801  15.900 -1.3158  0.3853 -0.5003
  509TMC3    C6 7617   2.688   2.829  15.880  0.7658  0.3451 -0.2301
  509TMC3     C 7618   2.391   3.101  15.764  0.3405 -0.0032  0.0492
  509TMC3     O 7619   2.283   3.089  15.821  0.1192 -0.5632 -0.2396
  509TMC3     H 7620   2.653   3.150  15.753  0.1752 -0.6615 -1.0947
  509TMC3    H1 7621   2.357   2.860  15.875 -0.0165  0.6728  0.6932
  509TMC3    H2 7622   2.761   2.753  15.905  1.7573  2.0229  2.0120
  509TMC3    C7 7623   2.515   2.684  15.961  1.3311  0.2744  0.0012
  509TMC3    C8 7624   2.857   2.973  15.803 -0.4093 -0.2363 -0.0305
  509TMC3    O1 7625   2.415   2.703  16.026  0.7609  0.0476  0.3242
  509TMC3    O2 7626   2.914   2.866  15.789  0.0333  0.6225  0.2647
  510MPD2     C 7627   0.376   4.497  14.486  0.6497 -0.0757  0.2729
  510MPD2    C1 7628   0.417   4.375  14.436 -1.3228 -0.2085  0.0476
  510MPD2    C2 7629   0.494   4.368  14.317 -0.3046 -0.8168 -0.0392
  510MPD2    C3 7630   0.529   4.475  14.249  0.0010  0.5601 -0.1830
  510MPD2    C4 7631   0.481   4.598  14.299 -0.1216  0.7952  0.1758
  510MPD2    C5 7632   0.405   4.607  14.414 -0.1954  0.1658 -0.6249
  510MPD2     H 7633   0.526   4.273  14.276 -0.9505 -0.2727 -1.8341
  510MPD2    H1 7634   0.494   4.693  14.248  2.9218 -0.2098 -0.9082
  510MPD2    H2 7635   0.299   4.511  14.560  1.0907 -1.6945  1.0301
  510MPD2    H3 7636   0.358   4.702  14.435 -1.5117 -0.7637  0.6287
  510MPD2     N 7637   0.595   4.461  14.123  0.2284  0.1563  0.1477
  510MPD2    H5 7638   0.592   4.375  14.069 -0.4867 -0.9401  1.9223
  510MPD2    N1 7639   0.373   4.262  14.513 -0.2240  0.8082  0.0112
  510MPD2    H7 7640   0.319   4.284  14.596 -3.1335 -0.5060 -1.5525
  511TMC3    C1 7641   0.319   4.060  14.603  0.2327  0.3465  0.0038
  511TMC3    C2 7642   0.280   4.122  14.718  0.5302 -0.5131 -0.3783
  511TMC3    C3 7643   0.239   4.033  14.815  0.4479  0.0482 -0.2688
  511TMC3    C4 7644   0.308   3.920  14.584 -0.0423 -0.2372  0.1671
  511TMC3    C5 7645   0.248   3.841  14.683  0.0817  0.5037  0.2928
  511TMC3    C6 7646   0.212   3.898  14.800 -0.1041 -1.1610  0.7067
  511TMC3     C 7647   0.387   4.134  14.494 -0.0480  0.9165  0.0619
  511TMC3     O 7648   0.460   4.076  14.416 -0.3176 -0.7749 -0.1227
  511TMC3     H 7649   0.284   4.227  14.743  0.4225 -0.5242 -0.3137
  511TMC3    H1 7650   0.340   3.872  14.492 -0.3090 -2.3209  1.1508
  511TMC3    H2 7651   0.156   3.846  14.877 -3.0541 -1.3417 -1.6046
  511TMC3    C7 7652   0.205   3.710  14.639 -0.0514 -0.2314 -0.0014
  511TMC3    C8 7653   0.215   4.084  14.950 -0.0504 -0.2688  0.9561
  511TMC3    O1 7654   0.174   3.690  14.525  0.1709 -0.0943  0.5124
  511TMC3    O2 7655   0.206   4.205  14.964  0.0179  0.1606 -0.1169
  512TMC3    C1 7656   4.353   3.947  12.852 -0.0742  0.6055 -1.5208
  512TMC3    C2 7657   4.390   3.921  12.980  0.0931 -0.3389 -0.0411
  512TMC3    C3 7658   4.479   3.823  13.001 -0.3810 -0.0274  0.5406
  512TMC3    C4 7659   4.397   3.872  12.741 -0.7575  0.1586  0.2342
  512TMC3    C5 7660   4.474   3.768  12.776  0.1379  0.3994 -0.1980
  512TMC3    C6 7661   4.520   3.739  12.904  0.2687 -0.3625 -0.1085
  512TMC3     C 7662   4.243   4.041  12.838  0.1552 -1.1348  0.6148
  512TMC3     O 7663   4.209   4.118  12.928  0.2773 -0.2010 -0.2763
  512TMC3     H 7664   4.367   3.996  13.055 -0.7871  2.3874 -3.0141
  512TMC3    H1 7665   4.378   3.906  12.640 -0.6488 -1.4736 -0.3308
  512TMC3    H2 7666   4.590   3.659  12.927  1.6337  0.8401 -0.0686
  512TMC3    C7 7667   4.514   3.681  12.670 -0.2686 -0.5006 -0.0743
  512TMC3    C8 7668   4.569   3.821  13.119  0.4781 -0.2665 -0.5008
  512TMC3    O1 7669   4.457   3.710  12.572  0.5833 -0.6342  0.5152
  512TMC3    O2 7670   4.622   3.717  13.153 -0.4217 -1.0412 -0.4209
  513MPD2     C 7671   1.579   3.922  13.408 -0.2863 -0.0414  0.0942
  513MPD2    C1 7672   1.671   3.972  13.318 -0.7000 -0.1203  0.0982
  513MPD2    C2 7673   1.795   4.006  13.364 -0.6082 -0.2243  0.1874
  513MPD2    C3 7674   1.832   3.992  13.496 -1.0889  0.2294 -0.0659
  513MPD2    C4 7675   1.748   3.935  13.583 -0.1388 -0.8805  0.0101
  513MPD2    C5 7676   1.619   3.903  13.538  0.0144  0.2084 -0.6979
  513MPD2     H 7677   1.869   4.048  13.298 -1.3625  0.8452  0.0214
  513MPD2    H1 7678   1.774   3.940  13.688  0.5421 -1.2761 -0.1427
  513MPD2    H2 7679   1.479   3.886  13.384 -0.9660  1.6728  0.3503
  513MPD2    H3 7680   1.544   3.855  13.599 -0.0936  1.3389  0.0673
  513MPD2     N 7681   1.956   4.041  13.530  0.2939 -0.7152 -0.0357
  513MPD2    H5 7682   1.998   4.081  13.447 -0.0922  1.1711  0.6803
  513MPD2    N1 7683   1.642   3.982  13.179 -0.4166  1.0681 -0.2506
  513MPD2    H7 7684   1.718   4.011  13.119  0.9540 -0.0706  0.9505
  514TMC3    C1 7685   1.535   3.987  12.969  0.0692 -0.2177 -0.1855
  514TMC3    C2 7686   1.458   4.093  12.927 -0.4971  0.2347 -0.0107
  514TMC3    C3 7687   1.516   4.189  12.850  0.1927 -0.9881 -0.1764
  514TMC3    C4 7688   1.666   3.983  12.943  0.7335  0.0551  0.1076
  514TMC3    C5 7689   1.725   4.083  12.874  0.5715 -0.4230 -0.3453
  514TMC3    C6 7690   1.649   4.188  12.834  0.6373 -0.2637 -0.4769
  514TMC3     C 7691   1.522   3.969  13.115  0.5410  0.1774 -0.1647
  514TMC3     O 7692   1.409   3.948  13.153 -0.5007 -0.2643  0.1104
  514TMC3     H 7693   1.357   4.108  12.962 -0.2824  0.9592  0.3014
  514TMC3    H1 7694   1.725   3.897  12.974 -1.2415 -1.0924  0.7595
  514TMC3    H2 7695   1.689   4.286  12.811  2.7234 -0.6009  1.7718
  514TMC3    C7 7696   1.861   4.105  12.917  0.3065  0.4184  0.0951
  514TMC3    C8 7697   1.441   4.294  12.788 -0.0976 -0.7879 -0.2246
  514TMC3    O1 7698   1.890   4.027  13.009 -0.3028 -0.0830  0.3577
  514TMC3    O2 7699   1.331   4.310  12.830  0.8843 -0.1346 -0.1771
  515MPD2     C 7700   4.301   0.627  15.077 -0.0180  0.3997 -0.3120
  515MPD2    C1 7701   4.408   0.592  14.994 -1.1741 -0.3747 -0.1646
  515MPD2    C2 7702   4.532   0.654  15.003 -0.1115 -0.5790 -0.1356
  515MPD2    C3 7703   4.549   0.767  15.091  0.2467 -0.4915 -0.3139
  515MPD2    C4 7704   4.437   0.808  15.161  0.2303 -0.6739 -0.0347
  515MPD2    C5 7705   4.318   0.739  15.154 -0.4550  0.5092 -0.1959
  515MPD2     H 7706   4.620   0.630  14.945 -1.0952 -1.5112 -1.2555
  515MPD2    H1 7707   4.437   0.887  15.235 -0.3243 -1.7188  1.0793
  515MPD2    H2 7708   4.205   0.576  15.077  0.5059 -0.5587  1.9546
  515MPD2    H3 7709   4.242   0.762  15.228 -2.0468 -0.1403 -1.6347
  515MPD2     N 7710   4.675   0.827  15.108 -0.2692 -0.4885 -0.8421
  515MPD2    H5 7711   4.676   0.914  15.159  0.1624 -0.5931 -0.6717
  515MPD2    N1 7712   4.382   0.493  14.888 -0.8899 -0.0867 -1.0535
  515MPD2    H7 7713   4.293   0.449  14.908 -0.1699 -1.1452 -0.2110
  516TMC3    C1 7714   4.388   0.400  14.687  0.2599  0.6782  0.4139
  516TMC3    C2 7715   4.340   0.478  14.586 -0.1309 -0.6254 -0.2390
  516TMC3    C3 7716   4.224   0.428  14.529  0.8178  0.6326  0.1660
  516TMC3    C4 7717   4.317   0.292  14.738  0.4605 -0.1698 -0.3481
  516TMC3    C5 7718   4.208   0.243  14.682  0.1381 -0.3761  0.1574
  516TMC3    C6 7719   4.161   0.316  14.570 -0.0843 -0.2006  0.1706
  516TMC3     C 7720   4.466   0.465  14.778  0.0420 -0.1969 -0.0900
  516TMC3     O 7721   4.575   0.513  14.745  0.0713 -0.7555  0.1751
  516TMC3     H 7722   4.389   0.571  14.560 -0.5292 -0.1027  0.9111
  516TMC3    H1 7723   4.366   0.239  14.818 -0.1251  0.3889  0.3759
  516TMC3    H2 7724   4.066   0.290  14.523  0.4944  1.8090 -2.1056
  516TMC3    C7 7725   4.181   0.107  14.710  0.8323  0.0904 -0.6652
  516TMC3    C8 7726   4.128   0.519  14.463 -0.1907  0.5774  0.6587
  516TMC3    O1 7727   4.255   0.045  14.786  0.4315  0.8225  0.3048
  516TMC3    O2 7728   4.044   0.465  14.394  0.8097  0.5256  0.5989
  517MPD2     C 7729   3.756   1.772  17.321  0.3251  0.3036  1.0212
  517MPD2    C1 7730   3.889   1.790  17.341  0.3139 -0.0471  0.4819
  517MPD2    C2 7731   3.929   1.890  17.433  0.0832 -0.7123 -0.0431
  517MPD2    C3 7732   3.838   1.975  17.492  0.3491  0.4653  0.6662
  517MPD2    C4 7733   3.708   1.970  17.454  0.2361 -0.0252 -0.5076
  517MPD2    C5 7734   3.668   1.867  17.372  0.5440 -0.5084  0.5126
  517MPD2     H 7735   4.034   1.901  17.457  0.2931 -3.1648  0.1023
  517MPD2    H1 7736   3.634   2.038  17.495 -0.0198 -0.0494 -0.9243
  517MPD2    H2 7737   3.712   1.705  17.248 -0.5238  0.0018  1.8031
  517MPD2    H3 7738   3.564   1.849  17.344  0.7592  0.5045 -0.9670
  517MPD2     N 7739   3.878   2.077  17.585 -0.5689 -0.6316  0.5129
  517MPD2    H5 7740   3.807   2.124  17.641 -0.3180  0.7547 -0.3557
  517MPD2    N1 7741   3.989   1.710  17.291  0.4010  0.4579  0.2522
  517MPD2    H7 7742   4.088   1.731  17.303  1.0454 -0.7471 -2.7948
  518TMC3    C1 7743   4.083   1.513  17.196 -0.1849  0.1569 -0.4296
  518TMC3    C2 7744   4.063   1.379  17.177  0.0553 -0.8303 -0.0141
  518TMC3    C3 7745   4.163   1.293  17.176  0.0878  0.5963  0.8072
  518TMC3    C4 7746   4.214   1.566  17.200  0.0272 -0.7279  0.5814
  518TMC3    C5 7747   4.314   1.473  17.185 -0.3860  0.1729  1.2178
  518TMC3    C6 7748   4.293   1.340  17.174  0.4334 -0.0890  0.0860
  518TMC3     C 7749   3.962   1.594  17.218  0.1738  0.3654 -0.7660
  518TMC3     O 7750   3.854   1.547  17.181  0.1648  0.2606  0.8727
  518TMC3     H 7751   3.958   1.355  17.172  0.3784 -2.2242  0.0001
  518TMC3    H1 7752   4.240   1.669  17.222  0.1376 -1.3093  3.2767
  518TMC3    H2 7753   4.377   1.272  17.168  0.5737  0.0235  0.7200
  518TMC3    C7 7754   4.407   1.496  17.294  1.0007  0.4123  0.1843
  518TMC3    C8 7755   4.144   1.161  17.234  0.3656  0.9221 -1.1257
  518TMC3    O1 7756   4.370   1.578  17.380  0.9284 -0.1548  0.2906
  518TMC3    O2 7757   4.237   1.083  17.217  0.3042  0.5166 -0.1102
  519MPD2     C 7758   0.617   0.656  14.298 -0.3504 -0.4656 -0.4438
  519MPD2    C1 7759   0.684   0.726  14.204  0.8140 -0.5827 -0.1552
  519MPD2    C2 7760   0.799   0.677  14.155  0.4367  0.2485  0.4381
  519MPD2    C3 7761   0.842   0.557  14.202  0.5791 -0.1762  0.0355
  519MPD2    C4 7762   0.775   0.486  14.295 -0.8491 -0.5225 -0.0208
  519MPD2    C5 7763   0.666   0.544  14.351 -0.0609 -0.4160 -0.0270
  519MPD2     H 7764   0.848   0.726  14.071 -1.1308  1.2058  0.0733
  519MPD2    H1 7765   0.814   0.391  14.332  0.0378  0.4742  1.6054
  519MPD2    H2 7766   0.528   0.695  14.347 -0.7944 -0.9987 -0.8273
  519MPD2    H3 7767   0.612   0.480  14.420  2.3392  0.5598  2.7026
  519MPD2     N 7768   0.948   0.505  14.126 -0.0831  0.2311  1.0597
  519MPD2    H5 7769   0.990   0.562  14.053 -0.2444  0.4150  1.1087
  519MPD2    N1 7770   0.619   0.841  14.155 -0.1221 -0.1165  0.1629
  519MPD2    H7 7771   0.529   0.871  14.188  0.6819  1.1819  1.1447
  520TMC3    C1 7772   1.091   0.337  14.039 -0.3841 -0.6561 -0.7473
  520TMC3    C2 7773   1.078   0.368  13.908 -0.2750 -0.5649 -0.4259
  520TMC3    C3 7774   1.125   0.291  13.812  0.2558  0.5622  0.1561
  520TMC3    C4 7775   1.171   0.231  14.073 -0.8131 -0.2977 -0.1366
  520TMC3    C5 7776   1.237   0.168  13.965 -0.1289  0.1776  0.0566
  520TMC3    C6 7777   1.212   0.194  13.832  0.0285 -0.2234 -0.2791
  520TMC3     C 7778   1.004   0.378  14.146 -0.6393 -0.8133 -0.0238
  520TMC3     O 7779   0.997   0.298  14.236 -0.5006 -0.0911 -0.3729
  520TMC3     H 7780   1.002   0.441  13.881  0.7849  1.2854  1.6612
  520TMC3    H1 7781   1.198   0.204  14.174  2.6331  2.6288 -0.2934
  520TMC3    H2 7782   1.268   0.144  13.753  1.6373  2.4791 -0.8618
  520TMC3    C7 7783   1.357   0.099  14.001 -0.3362  0.5721  0.3730
  520TMC3    C8 7784   1.088   0.314  13.672  0.5360 -0.4119 -0.9850
  520TMC3    O1 7785   1.353   0.033  14.103  0.0069  0.3750 -0.8769
  520TMC3    O2 7786   1.162   0.264  13.591  0.5146  0.4724  0.0380
  521MPD2     C 7787   1.428   2.116  16.943  0.6521  0.1203 -0.0676
  521MPD2    C1 7788   1.480   2.187  16.833 -0.1330 -0.2431  0.1464
  521MPD2    C2 7789   1.610   2.176  16.791  0.1388 -0.3088  0.4498
  521MPD2    C3 7790   1.690   2.082  16.854  0.4499  0.4646  0.6229
  521MPD2    C4 7791   1.645   2.016  16.964 -0.3564 -0.3981 -0.7907
  521MPD2    C5 7792   1.520   2.040  17.014  0.1228  0.7788 -0.0076
  521MPD2     H 7793   1.643   2.240  16.710 -0.2990  0.6432  1.0311
  521MPD2    H1 7794   1.703   1.946  17.023  0.3285 -0.6448 -1.7595
  521MPD2    H2 7795   1.332   2.132  16.989  0.6471  0.1520 -0.0892
  521MPD2    H3 7796   1.495   1.987  17.105 -0.5794 -0.8032 -1.1190
  521MPD2     N 7797   1.816   2.066  16.800  0.3722 -0.3230 -0.6299
  521MPD2    H5 7798   1.851   2.138  16.738 -0.2365 -2.8151 -3.8692
  521MPD2    N1 7799   1.395   2.275  16.757  0.4621  0.2099  0.4342
  521MPD2    H7 7800   1.434   2.339  16.690  2.4197  1.8759  3.2011
  522TMC3    C1 7801   2.033   1.978  16.751  0.0067  0.6141 -0.5748
  522TMC3    C2 7802   2.128   1.878  16.761 -0.2222 -0.5426  0.0615
  522TMC3    C3 7803   2.246   1.889  16.693 -0.1892  0.7624 -0.3243
  522TMC3    C4 7804   2.048   2.084  16.672 -0.1003  0.1104 -0.0882
  522TMC3    C5 7805   2.174   2.094  16.607  0.5081  0.3138 -0.6256
  522TMC3    C6 7806   2.266   1.995  16.613  1.0410  0.1689 -0.1648
  522TMC3     C 7807   1.900   1.961  16.823  0.3713  0.1354  0.4661
  522TMC3     O 7808   1.884   1.859  16.886 -0.7847 -0.1542 -0.3376
  522TMC3     H 7809   2.113   1.800  16.834  0.9800  0.8392  1.7931
  522TMC3    H1 7810   1.975   2.162  16.656 -1.7459 -1.7874 -1.8755
  522TMC3    H2 7811   2.356   2.001  16.552  0.7898  1.5586 -0.3876
  522TMC3    C7 7812   2.214   2.210  16.537 -0.1131  0.2664 -0.2882
  522TMC3    C8 7813   2.361   1.811  16.731 -0.4071  0.3318  0.4908
  522TMC3    O1 7814   2.318   2.210  16.473 -0.5003  0.4826 -0.1446
  522TMC3    O2 7815   2.349   1.764  16.846  0.0012  0.2162 -0.2669
  523MPD2     C 7816   0.037   3.952  10.428  0.5197 -0.5074 -0.0905
  523MPD2    C1 7817   4.723   3.824  10.447 -0.2784 -0.4135  0.5391
  523MPD2    C2 7818   4.613   3.786  10.371  0.3797  0.1683 -0.3792
  523MPD2    C3 7819   4.548   3.867  10.276  0.3136  0.0863  0.1282
  523MPD2    C4 7820   4.602   3.994  10.261  0.1757 -0.5266  0.3689
  523MPD2    C5 7821   4.715   4.037  10.335 -1.0094  0.4205  0.1645
  523MPD2     H 7822   4.590   3.680  10.382  0.5327  0.3588  1.7572
  523MPD2    H1 7823   4.568   4.048  10.173 -1.7481 -1.0827  0.7865
  523MPD2    H2 7824   0.122   3.989  10.485  0.7974  0.1068 -0.9093
  523MPD2    H3 7825   0.030   4.128  10.309 -1.2163  0.3268 -0.5991
  523MPD2     N 7826   4.442   3.830  10.189 -0.3753  0.2006 -0.9222
  523MPD2    H5 7827   4.414   3.889  10.112 -0.5653  0.1000 -0.9308
  523MPD2    N1 7828   0.031   3.732  10.539 -0.5869  0.0410 -0.1563
  523MPD2    H7 7829   4.707   3.656  10.565 -1.9027  1.3494  0.4945
  524TMC3    C1 7830   4.306   3.668  10.077  0.6545  0.3109 -0.4396
  524TMC3    C2 7831   4.235   3.557  10.081  0.3767 -0.0933  0.3516
  524TMC3    C3 7832   4.185   3.507   9.962  0.5054  0.3248  0.1234
  524TMC3    C4 7833   4.317   3.742   9.960  0.4818  0.2367  0.1746
  524TMC3    C5 7834   4.255   3.695   9.842  0.4111  0.1205  0.7036
  524TMC3    C6 7835   4.203   3.571   9.837 -0.1484 -0.6599 -0.5457
  524TMC3     C 7836   4.391   3.699  10.191  0.0210  0.2587  0.1587
  524TMC3     O 7837   4.403   3.604  10.262 -0.3670 -0.0614 -0.2093
  524TMC3     H 7838   4.220   3.501  10.172 -1.4001  0.3599  0.3374
  524TMC3    H1 7839   4.375   3.833   9.949  0.6321  0.2294  0.8928
  524TMC3    H2 7840   4.157   3.544   9.742  1.1640 -0.1220 -1.3317
  524TMC3    C7 7841   4.231   3.764   9.717  0.8606 -0.5259  0.2981
  524TMC3    C8 7842   4.149   3.370   9.961 -0.1903 -0.1600 -0.0776
  524TMC3    O1 7843   4.202   3.699   9.617  0.5937  1.0831 -0.5909
  524TMC3    O2 7844   4.176   3.308  10.061  0.2352  0.0860  0.8559
  525MPD2     C 7845   2.336   4.567  14.361  0.4193 -0.0677 -0.0033
  525MPD2    C1 7846   2.449   4.571  14.437 -0.6545 -0.4506  1.0441
  525MPD2    C2 7847   2.543   4.667  14.414  0.1110 -0.0850 -0.5750
  525MPD2    C3 7848   2.521   0.024  14.323  0.0997  0.2213  0.1008
  525MPD2    C4 7849   2.401   0.027  14.256  0.2628  0.3205  0.2356
  525MPD2    C5 7850   2.308   4.668  14.271 -0.6413 -0.2097 -0.4194
  525MPD2     H 7851   2.637   4.665  14.468  0.4839  0.1892 -1.2281
  525MPD2    H1 7852   2.361   0.108  14.197  1.8957 -0.6506 -2.2450
  525MPD2    H2 7853   2.271   4.481  14.376  0.2779  0.1294  0.5104
  525MPD2    H3 7854   2.225   4.658  14.203  0.6066 -0.9432 -1.8534
  525MPD2     N 7855   2.604   0.129  14.293 -0.5025  0.0955  0.0500
  525MPD2    H5 7856   2.582   0.201  14.225  0.0034 -1.9924 -2.3537
  525MPD2    N1 7857   2.483   4.474  14.537  0.3706  0.4727 -0.2328
  525MPD2    H7 7858   2.574   4.467  14.581 -0.7979  0.5649  2.2202
  526TMC3    C1 7859   2.452   4.293  14.683 -0.5070 -0.3596  0.5146
  526TMC3    C2 7860   2.387   4.267  14.797 -0.0218 -0.6070 -0.6583
  526TMC3    C3 7861   2.435   4.176  14.891  0.2792  0.5880 -0.4248
  526TMC3    C4 7862   2.569   4.240  14.641 -0.8729 -0.4415  0.1332
  526TMC3    C5 7863   2.623   4.158  14.742 -0.5409 -0.1770 -0.1992
  526TMC3    C6 7864   2.561   4.131  14.862 -0.0372 -0.0868  0.2227
  526TMC3     C 7865   2.388   4.393  14.604 -0.0976  0.0764 -0.5083
  526TMC3     O 7866   2.264   4.392  14.597 -0.1922  0.4503 -0.0885
  526TMC3     H 7867   2.285   4.304  14.799  0.5295  0.6805  3.5825
  526TMC3    H1 7868   2.610   4.260  14.543 -0.9227  0.0864  0.2181
  526TMC3    H2 7869   2.618   4.083  14.940 -0.9957 -0.6902  0.5623
  526TMC3    C7 7870   2.733   4.067  14.704 -0.1174 -0.1310 -0.7799
  526TMC3    C8 7871   2.380   4.183  15.026  0.1604 -0.1864  0.0084
  526TMC3    O1 7872   2.733   3.968  14.773 -0.3821  0.3702  0.4546
  526TMC3    O2 7873   2.453   4.144  15.119 -0.0612  0.2605 -0.7666
  527MPD2     C 7874   0.383   2.640   1.133 -0.0455 -0.2531 -0.1518
  527MPD2    C1 7875   0.327   2.575   1.025 -0.0764  0.0345 -0.6826
  527MPD2    C2 7876   0.379   2.452   0.999  0.5872  0.1473 -0.0450
  527MPD2    C3 7877   0.485   2.396   1.069  0.4962 -0.8838  0.0785
  527MPD2    C4 7878   0.541   2.464   1.178 -0.3049  0.1774 -0.2300
  527MPD2    C5 7879   0.491   2.590   1.206 -0.0728 -0.0072 -0.2874
  527MPD2     H 7880   0.328   2.400   0.919  1.6372 -1.3006  0.2212
  527MPD2    H1 7881   0.627   2.425   1.232  1.9626  0.8916 -3.3575
  527MPD2    H2 7882   0.332   2.731   1.161 -1.0800 -0.4106 -1.5237
  527MPD2    H3 7883   0.526   2.654   1.286 -1.0319 -1.1452  1.0430
  527MPD2     N 7884   0.535   2.276   1.013 -0.1646 -0.2955 -0.1858
  527MPD2    H5 7885   0.493   2.242   0.927 -2.5706 -0.2933  0.9991
  527MPD2    N1 7886   0.224   2.621   0.938 -0.2687  0.8497  0.1272
  527MPD2    H7 7887   0.195   2.566   0.858 -0.2959  0.7401  0.2133
  528TMC3    C1 7888   0.052   2.753   0.849  0.1688  0.1879  0.5430
  528TMC3    C2 7889   0.069   2.705   0.718 -0.4958 -0.0935  0.2225
  528TMC3    C3 7890   4.716   2.740   0.622  0.2601  0.0140  0.3487
  528TMC3    C4 7891   4.686   2.826   0.880  0.6753 -0.6532  0.0800
  528TMC3    C5 7892   4.592   2.862   0.787  0.1647  0.1933  0.7662
  528TMC3    C6 7893   4.599   2.811   0.656  0.2809  1.1245  0.3370
  528TMC3     C 7894   0.158   2.742   0.945 -0.0007 -0.9185  0.0512
  528TMC3     O 7895   0.162   2.829   1.033  0.1096 -0.1356  0.2635
  528TMC3     H 7896   0.153   2.641   0.693 -1.6372 -0.7705 -1.8389
  528TMC3    H1 7897   4.654   2.822   0.984 -0.6686  0.1718 -0.3016
  528TMC3    H2 7898   4.524   2.836   0.582  0.6463  2.9264  0.5648
  528TMC3    C7 7899   4.463   2.889   0.840 -0.2023  0.0969 -0.3459
  528TMC3    C8 7900   4.727   2.688   0.481  0.2454 -0.1764  0.1448
  528TMC3    O1 7901   4.431   2.858   0.951  0.1558 -0.2602 -0.2897
  528TMC3    O2 7902   0.082   2.614   0.454 -0.1606  0.1963  0.0531
  529MPD2     C 7903   2.509   1.030   0.978  0.3652 -0.6303  0.3346
  529MPD2    C1 7904   2.643   1.056   0.949  0.7919  0.0871 -0.2706
  529MPD2    C2 7905   2.673   1.136   0.838  0.4833 -0.2831 -0.0705
  529MPD2    C3 7906   2.574   1.192   0.759 -0.1498  0.1970  0.2413
  529MPD2    C4 7907   2.446   1.166   0.793 -0.4285  0.5239 -0.6430
  529MPD2    C5 7908   2.417   1.096   0.906  0.0159  0.7444  0.3274
  529MPD2     H 7909   2.776   1.156   0.811 -0.0369  0.9406 -1.1684
  529MPD2    H1 7910   2.366   1.217   0.743  0.0044  0.6605 -1.1892
  529MPD2    H2 7911   2.478   0.966   1.060 -1.0999 -2.9647 -2.0367
  529MPD2    H3 7912   2.311   1.090   0.927  0.3723 -1.2730  1.6136
  529MPD2     N 7913   2.590   1.289   0.657  0.1953  0.7338 -0.7044
  529MPD2    H5 7914   2.501   1.314   0.615  0.2889 -0.1234 -1.4150
  529MPD2    N1 7915   2.751   0.999   1.014  0.4465  0.3778  0.4018
  529MPD2    H7 7916   2.841   0.996   0.966  1.0779 -0.4447  1.6673
  530TMC3    C1 7917   2.862   0.849   1.151 -1.0040 -0.8119 -0.1376
  530TMC3    C2 7918   2.909   0.833   1.282  0.4496  0.2572 -0.1194
  530TMC3    C3 7919   2.989   0.725   1.307  0.4300 -0.5540 -0.3240
  530TMC3    C4 7920   2.880   0.751   1.054  0.7381 -0.2726 -0.0849
  530TMC3    C5 7921   2.976   0.658   1.077 -0.3507  0.6587  0.0891
  530TMC3    C6 7922   3.019   0.637   1.206 -0.0707 -0.2265  0.2960
  530TMC3     C 7923   2.755   0.939   1.135 -0.1716  0.5386  0.3785
  530TMC3     O 7924   2.675   0.957   1.228  0.3840  0.3850 -0.0706
  530TMC3     H 7925   2.876   0.898   1.362 -0.0798 -0.2722  0.0916
  530TMC3    H1 7926   2.822   0.747   0.962  2.6905  0.9058 -1.3709
  530TMC3    H2 7927   3.104   0.573   1.228 -1.3766 -1.6319  1.2483
  530TMC3    C7 7928   2.956   0.538   1.012 -0.5402  0.2642  0.7060
  530TMC3    C8 7929   3.096   0.762   1.405 -0.0086 -0.3162 -0.3278
  530TMC3    O1 7930   2.958   0.537   0.889 -0.2777  0.0609  0.3330
  530TMC3    O2 7931   3.111   0.881   1.430  0.0154  0.3596 -0.3488
  531MPD2     C 7932   2.318   4.287  12.997 -0.7006  0.8327 -0.4051
  531MPD2    C1 7933   2.223   4.241  13.081  0.5930  0.4038  0.1754
  531MPD2    C2 7934   2.095   4.213  13.038  0.3007  0.4896  0.1699
  531MPD2    C3 7935   2.064   4.236  12.903  0.4993  0.3603 -0.1242
  531MPD2    C4 7936   2.165   4.292  12.822  0.2209 -0.6023  0.2293
  531MPD2    C5 7937   2.292   4.315  12.868  0.0983 -0.1988  0.4510
  531MPD2     H 7938   2.019   4.181  13.107  0.6314 -0.6668 -0.0078
  531MPD2    H1 7939   2.140   4.316  12.719 -0.5652 -1.3227  0.2538
  531MPD2    H2 7940   2.419   4.295  13.036 -1.7783  2.8703  1.9678
  531MPD2    H3 7941   2.373   4.351  12.805 -1.6300  3.0250  0.0705
  531MPD2     N 7942   1.944   4.195  12.847  1.0751 -1.0686  0.2354
  531MPD2    H5 7943   1.906   4.227  12.759  0.7174 -1.4480  0.2566
  531MPD2    N1 7944   2.263   4.234  13.214  0.3167 -0.5566  0.0753
  531MPD2    H7 7945   2.361   4.241  13.237  0.7648 -0.5950 -1.7706
  532TMC3    C1 7946   2.265   4.185  13.441  0.1301 -0.4840 -0.6417
  532TMC3    C2 7947   2.172   4.176  13.538  0.0227  0.1177  0.0075
  532TMC3    C3 7948   2.165   4.071  13.626 -0.9550  0.7421 -0.0301
  532TMC3    C4 7949   2.364   4.090  13.430  0.0317 -0.0437 -0.5780
  532TMC3    C5 7950   2.356   3.989  13.526 -0.1564  0.8054 -0.0128
  532TMC3    C6 7951   2.256   3.980  13.622  0.2352  0.3108  0.9748
  532TMC3     C 7952   2.186   4.215  13.323  0.5316  0.3603  0.0947
  532TMC3     O 7953   2.066   4.185  13.332 -0.2258 -0.2824 -0.0830
  532TMC3     H 7954   2.106   4.259  13.559  1.6108  1.2511  0.4951
  532TMC3    H1 7955   2.428   4.078  13.343 -2.1264 -1.0903 -2.0469
  532TMC3    H2 7956   2.251   3.888  13.680  0.5608 -0.4729 -0.2150
  532TMC3    C7 7957   2.441   3.872  13.518  0.3936  0.0216 -0.2685
  532TMC3    C8 7958   2.033   4.023  13.645  0.8706  0.7553  0.1310
  532TMC3    O1 7959   2.560   3.891  13.530  0.1007 -0.1825  0.4803
  532TMC3    O2 7960   2.006   3.958  13.744 -0.3974  0.2752 -0.1639
  533TMC3    C1 7961   2.782   0.285  14.308  0.6784 -0.8371 -0.1303
  533TMC3    C2 7962   2.916   0.324  14.327 -0.0662 -0.2740 -0.5315
  533TMC3    C3 7963   2.951   0.434  14.403  1.0031  0.1388 -0.1971
  533TMC3    C4 7964   2.687   0.375  14.352 -0.0167 -0.4335 -0.1721
  533TMC3    C5 7965   2.730   0.483  14.426 -0.4364  0.3312  0.0824
  533TMC3    C6 7966   2.859   0.514  14.454  0.1888 -0.0890  0.0837
  533TMC3     C 7967   2.732   0.151  14.335 -0.5283  0.4833 -0.9142
  533TMC3     O 7968   2.807   0.071  14.388 -0.1427 -0.7387 -0.1349
  533TMC3     H 7969   2.984   0.241  14.312  2.0901  1.1303  1.4291
  533TMC3    H1 7970   2.581   0.358  14.337 -0.4031  0.2812  1.6973
  533TMC3    H2 7971   2.886   0.601  14.514  2.7019 -0.7748 -0.0345
  533TMC3    C7 7972   2.672   0.453  14.559 -0.2080  0.0768 -0.0694
  533TMC3    C8 7973   3.063   0.513  14.364 -0.4287  0.0699 -0.0586
  533TMC3    O1 7974   2.623   0.342  14.567 -0.5236 -1.3266 -0.9967
  533TMC3    O2 7975   3.045   0.629  14.330  0.0485  0.4676 -0.4987
  534MPD2     C 7976   1.424   0.367   1.149 -0.0100  0.4022 -0.7396
  534MPD2    C1 7977   1.336   0.470   1.168 -0.0052  0.3448 -0.2995
  534MPD2    C2 7978   1.199   0.449   1.163 -0.1188  0.0376  0.0974
  534MPD2    C3 7979   1.149   0.318   1.130  0.1162 -0.0833  0.6773
  534MPD2    C4 7980   1.241   0.220   1.103 -0.1342  0.2002 -0.6257
  534MPD2    C5 7981   1.378   0.245   1.105 -0.1416  0.4963  0.1413
  534MPD2     H 7982   1.127   0.526   1.190 -2.2088 -1.6734 -0.5814
  534MPD2    H1 7983   1.221   0.117   1.077  0.6502 -0.3472  0.9531
  534MPD2    H2 7984   1.531   0.381   1.158  0.0998 -2.2342  2.1343
  534MPD2    H3 7985   1.441   0.158   1.092 -0.8964  0.0442 -0.5307
  534MPD2     N 7986   1.019   0.277   1.136  0.2347 -0.0750  0.0592
  534MPD2    H5 7987   1.000   0.188   1.090 -0.6843  0.7972 -1.2705
  534MPD2    N1 7988   1.384   0.601   1.201 -0.3755  0.0337  0.1683
  534MPD2    H7 7989   1.316   0.676   1.203 -1.0000 -0.6472  3.5548
  535TMC3    C1 7990   0.782   0.317   1.134  0.3942  0.3195  0.2497
  535TMC3    C2 7991   0.685   0.348   1.220 -0.1844  0.0985 -0.1683
  535TMC3    C3 7992   0.556   0.327   1.177 -0.5341  0.4457  0.3019
  535TMC3    C4 7993   0.761   0.250   1.017  0.1579 -0.1549 -0.8599
  535TMC3    C5 7994   0.624   0.225   0.983 -1.0410  0.2811  0.9299
  535TMC3    C6 7995   0.520   0.259   1.062 -0.0723 -0.2661 -0.6285
  535TMC3     C 7996   0.919   0.360   1.172  0.4540 -0.6423  0.3745
  535TMC3     O 7997   0.923   0.459   1.246 -0.2266  0.4227  0.0704
  535TMC3     H 7998   0.709   0.411   1.304 -1.1398  1.1531 -0.6829
  535TMC3    H1 7999   0.839   0.248   0.941 -0.0929 -0.2160 -1.1158
  535TMC3    H2 8000   0.417   0.252   1.030 -0.7916  1.0579  1.4242
  535TMC3    C7 8001   0.591   0.151   0.864  0.2619  0.0604 -0.4466
  535TMC3    C8 8002   0.445   0.368   1.260 -0.1455 -0.4231  0.6815
  535TMC3    O1 8003   0.680   0.139   0.781  0.0210  0.2728 -0.0807
  535TMC3    O2 8004   0.340   0.372   1.195 -0.5997 -0.0859  0.3355
  536MPD2     C 8005   4.100   4.328  16.080  0.1572  0.2995  0.2634
  536MPD2    C1 8006   3.991   4.246  16.090 -0.4600  0.0838 -0.4845
  536MPD2    C2 8007   3.910   4.223  15.979 -0.5659  0.6504  0.3018
  536MPD2    C3 8008   3.936   4.295  15.862 -0.6117 -0.1214 -0.1413
  536MPD2    C4 8009   4.041   4.383  15.868 -0.3810  0.1888  0.2502
  536MPD2    C5 8010   4.119   4.410  15.972 -0.7953  0.1950  0.6689
  536MPD2     H 8011   3.825   4.157  15.991  2.0146 -2.6081  0.6170
  536MPD2    H1 8012   4.057   4.434  15.773  3.0563  0.4309  0.9509
  536MPD2    H2 8013   4.165   4.343  16.165  0.5451 -2.7736  0.5109
  536MPD2    H3 8014   4.211   4.469  15.967 -0.8777  0.4078  1.7322
  536MPD2     N 8015   3.848   4.302  15.761  0.7220 -0.1758 -0.3531
  536MPD2    H5 8016   3.865   4.375  15.693  0.9412  1.2965  1.2626
  536MPD2    N1 8017   3.968   4.185  16.214 -0.5263  0.4296  0.0627
  536MPD2    H7 8018   4.042   4.186  16.283  0.2171  0.8516 -0.7545
  537TMC3    C1 8019   3.858   4.055  16.367  0.2105 -1.3581 -0.8881
  537TMC3    C2 8020   3.899   4.127  16.475 -0.3564 -0.1645 -0.6406
  537TMC3    C3 8021   3.866   4.074  16.596  0.7677 -1.1897 -0.5864
  537TMC3    C4 8022   3.779   3.942  16.379  0.7579 -0.1318 -0.2584
  537TMC3    C5 8023   3.757   3.886  16.501 -0.1027 -0.7189 -0.0925
  537TMC3    C6 8024   3.803   3.952  16.611  0.7003 -0.6417  0.0241
  537TMC3     C 8025   3.859   4.109  16.242  0.1987  0.0262 -0.1024
  537TMC3     O 8026   3.761   4.093  16.171 -0.1709  0.1054  0.3397
  537TMC3     H 8027   3.947   4.223  16.458 -1.0156  0.6679  2.2169
  537TMC3    H1 8028   3.727   3.907  16.290  0.1252 -0.2523  0.1609
  537TMC3    H2 8029   3.769   3.918  16.708  0.8436 -1.2542 -0.1425
  537TMC3    C7 8030   3.631   3.819  16.515 -0.5239  0.0049  1.0688
  537TMC3    C8 8031   3.873   4.159  16.709 -1.0109 -0.3422 -0.2055
  537TMC3    O1 8032   3.552   3.822  16.422  0.5379 -0.7890 -0.7405
  537TMC3    O2 8033   3.877   4.103  16.817  0.0924  0.0219 -0.0554
  538TMC3    C1 8034   0.899   3.555  11.333  0.6137 -0.3292  0.6317
  538TMC3    C2 8035   0.988   3.545  11.233 -0.2097  0.0087  0.6802
  538TMC3    C3 8036   0.953   3.613  11.124 -0.6132  0.2677 -0.3374
  538TMC3    C4 8037   0.774   3.614  11.333  0.2753  0.6726 -0.5978
  538TMC3    C5 8038   0.748   3.681  11.218  0.1141  0.6183  0.6736
  538TMC3    C6 8039   0.836   3.684  11.111 -1.0027  0.3130 -0.2777
  538TMC3     C 8040   0.922   3.458  11.440 -0.2115 -0.2152 -0.4401
  538TMC3     O 8041   0.841   3.470  11.534 -0.0188  0.2775  0.3224
  538TMC3     H 8042   1.078   3.484  11.230 -0.9199 -0.9495 -1.1611
  538TMC3    H1 8043   0.705   3.601  11.416 -0.2049  0.3850 -1.0393
  538TMC3    H2 8044   0.799   3.685  11.009  0.0213  0.8206 -0.6510
  538TMC3    C7 8045   0.613   3.731  11.207 -0.4120  0.4236  0.0649
  538TMC3    C8 8046   1.011   3.571  11.001  0.2981  0.3803  0.1139
  538TMC3    O1 8047   0.529   3.703  11.296  0.0999 -0.1431  0.0590
  538TMC3    O2 8048   1.056   3.459  11.004 -0.7460  0.1424  0.0333
  539MPD2     C 8049   0.573   2.799  12.119 -1.1005  0.0132 -0.6310
  539MPD2    C1 8050   0.511   2.755  12.008  0.4262  0.2141  0.1144
  539MPD2    C2 8051   0.430   2.846  11.943 -0.0619  0.0156  0.1800
  539MPD2    C3 8052   0.411   2.974  11.986  0.0962  0.7154 -0.0417
  539MPD2    C4 8053   0.476   3.013  12.104 -0.2926  0.1636  0.3239
  539MPD2    C5 8054   0.566   2.926  12.168 -0.3902 -0.2610  0.1969
  539MPD2     H 8055   0.358   2.822  11.866  1.7401  1.4336 -1.9538
  539MPD2    H1 8056   0.459   3.112  12.144 -0.9757  0.0244  0.3791
  539MPD2    H2 8057   0.630   2.728  12.177  0.0229  0.6665 -0.9490
  539MPD2    H3 8058   0.611   2.953  12.262 -1.1947  0.2107  0.4542
  539MPD2     N 8059   0.320   3.075  11.934  0.1061  0.3078  0.3326
  539MPD2    H5 8060   0.315   3.165  11.982 -1.5268  0.0853  0.5821
  539MPD2    N1 8061   0.524   2.620  11.966 -0.3094  0.5200 -0.3978
  539MPD2    H7 8062   0.483   2.591  11.877 -1.6805 -2.6032  1.2186
  540TMC3    C1 8063   0.154   3.168  11.792  0.0917  0.0921 -0.3804
  540TMC3    C2 8064   0.162   3.234  11.672  0.6083  0.5894  0.4216
  540TMC3    C3 8065   0.098   3.351  11.653  0.2680 -0.3014 -0.0872
  540TMC3    C4 8066   0.082   3.227  11.894 -0.1470 -0.2105  0.5122
  540TMC3    C5 8067   0.024   3.348  11.873  0.2290 -0.8179 -0.1893
  540TMC3    C6 8068   0.026   3.415  11.752 -0.7190 -0.1206 -0.2583
  540TMC3     C 8069   0.236   3.053  11.820 -0.8217  0.7993 -0.4697
  540TMC3     O 8070   0.230   2.958  11.746  0.3562 -0.2956 -0.0503
  540TMC3     H 8071   0.215   3.187  11.590  0.4807  1.5075 -0.1925
  540TMC3    H1 8072   0.080   3.179  11.992  0.9437 -0.9916  0.1521
  540TMC3    H2 8073   4.704   3.504  11.738  2.1034  1.4883 -2.1931
  540TMC3    C7 8074   4.646   3.360  11.955  0.1715  0.5825 -0.3336
  540TMC3    C8 8075   0.065   3.397  11.521  0.5414  0.6663 -0.4013
  540TMC3    O1 8076   4.583   3.261  11.986  0.5722  0.7560  0.2260
  540TMC3    O2 8077   4.714   3.482  11.517 -0.1769  0.2539 -0.1968
  541MPD2     C 8078   3.366   3.895  13.359 -0.4503 -0.1313  0.7533
  541MPD2    C1 8079   3.310   3.792  13.288  0.4118  0.1168  0.2402
  541MPD2    C2 8080   3.213   3.821  13.193  0.7762 -0.1858  0.8982
  541MPD2    C3 8081   3.162   3.954  13.180  0.0692 -0.1603 -0.1328
  541MPD2    C4 8082   3.212   4.056  13.257 -0.6817 -0.2510  0.1951
  541MPD2    C5 8083   3.322   4.023  13.333 -0.0590 -0.6919 -0.5281
  541MPD2     H 8084   3.168   3.746  13.129 -0.2657  0.7249  0.5754
  541MPD2    H1 8085   3.185   4.160  13.248  0.1414 -0.2260 -1.9808
  541MPD2    H2 8086   3.448   3.886  13.429  0.3642 -1.4937 -0.3652
  541MPD2    H3 8087   3.375   4.107  13.377  2.2006 -2.9242  0.9875
  541MPD2     N 8088   3.063   3.993  13.087 -0.3125 -0.3028 -0.0702
  541MPD2    H5 8089   3.038   4.092  13.085 -1.7918 -0.6496  0.9514
  541MPD2    N1 8090   3.355   3.658  13.310 -0.1031 -0.6511 -0.1211
  541MPD2    H7 8091   3.429   3.648  13.379 -0.5328 -0.8275  0.3060
  542TMC3    C1 8092   2.898   3.976  12.922 -0.0201  0.0192  0.6127
  542TMC3    C2 8093   2.865   3.924  12.798 -0.0745  0.2031  0.4228
  542TMC3    C3 8094   2.763   3.977  12.734  0.1555  0.0515  0.5634
  542TMC3    C4 8095   2.827   4.080  12.971 -0.1093  0.5091  0.4752
  542TMC3    C5 8096   2.746   4.150  12.885  0.0938  1.0306  0.4295
  542TMC3    C6 8097   2.695   4.087  12.774 -0.5962  0.3696 -0.1508
  542TMC3     C 8098   3.001   3.912  12.997  0.4714 -0.9009  0.2108
  542TMC3     O 8099   3.010   3.795  12.974 -0.3971 -0.0289  0.3978
  542TMC3     H 8100   2.924   3.843  12.755 -1.0838 -1.6447  2.5028
  542TMC3    H1 8101   2.857   4.124  13.065  0.8962 -0.2696  0.5227
  542TMC3    H2 8102   2.610   4.122  12.716 -1.5267 -1.0485  0.3604
  542TMC3    C7 8103   2.696   4.282  12.927 -0.4169  0.3523  0.6798
  542TMC3    C8 8104   2.758   3.961  12.588  0.7962  0.5330 -0.3050
  542TMC3    O1 8105   2.719   4.309  13.046 -0.0596 -0.4534 -0.5776
  542TMC3    O2 8106   2.726   4.059  12.530 -0.0634 -0.3254  1.2181
  543TMC3    C1 8107   2.927   0.343  17.249 -0.0402  0.1640  0.0909
  543TMC3    C2 8108   2.922   0.223  17.322 -0.4239  0.2845  0.3303
  543TMC3    C3 8109   2.881   0.220  17.450  0.3046  0.4298 -0.6078
  543TMC3    C4 8110   2.900   0.458  17.318  0.0058 -0.1334 -0.6106
  543TMC3    C5 8111   2.867   0.444  17.447 -0.9237  0.3421 -0.5199
  543TMC3    C6 8112   2.853   0.328  17.521  0.3906 -0.3843  0.0432
  543TMC3     C 8113   2.951   0.325  17.110  0.4739 -0.0368 -0.1532
  543TMC3     O 8114   2.959   0.209  17.072 -0.3750 -0.4438  0.2285
  543TMC3     H 8115   2.930   0.129  17.268  1.9187  0.4279  0.4053
  543TMC3    H1 8116   2.900   0.552  17.266  0.9051 -1.5823 -3.2435
  543TMC3    H2 8117   2.818   0.325  17.624  1.9835  0.4581  0.6116
  543TMC3    C7 8118   2.872   0.572  17.521  0.5997  0.3750 -0.1887
  543TMC3    C8 8119   2.861   0.082  17.505  0.4314  0.5195 -0.0037
  543TMC3    O1 8120   2.863   0.672  17.453  0.1379  0.2093  0.3605
  543TMC3    O2 8121   2.853   4.730  17.428  0.1318  0.0596 -0.5389
  544MPD2     C 8122   2.816   4.471   0.135 -0.6095  0.1163  0.5458
  544MPD2    C1 8123   2.800   4.457  17.751  0.5426 -0.8388 -0.6992
  544MPD2    C2 8124   2.825   4.561  17.666 -0.4065 -0.3641 -0.3184
  544MPD2    C3 8125   2.866   4.687  17.718  0.3948 -0.5797 -0.2429
  544MPD2    C4 8126   2.882   4.698   0.102 -0.2009  0.0851 -0.0909
  544MPD2    C5 8127   2.861   4.591   0.184  1.1217  0.4668 -0.2309
  544MPD2     H 8128   2.806   4.551  17.560 -2.3314  0.6764 -0.0706
  544MPD2    H1 8129   2.931   0.048   0.138 -0.3459  0.5386 -1.0093
  544MPD2    H2 8130   2.797   4.397   0.212 -0.7564  1.0838  1.4379
  544MPD2    H3 8131   2.892   4.594   0.288 -0.8234 -0.6178  0.3936
  544MPD2     N 8132   2.874   0.071  17.639  0.0866 -0.1857  0.4387
  544MPD2    H5 8133   2.908   0.149  17.694  1.3181 -1.1219  1.0022
  544MPD2    N1 8134   2.753   4.328  17.706  0.5023  0.1011  0.2790
  544MPD2    H7 8135   2.757   4.251   0.020  0.5680  1.1051  1.4683
  545TMC3    C1 8136   2.705   4.156  17.553  0.4302 -0.0042  0.5027
  545TMC3    C2 8137   2.716   4.117  17.418 -0.3453 -0.2965 -0.0681
  545TMC3    C3 8138   2.659   3.997  17.382  0.2656  0.2997  0.0295
  545TMC3    C4 8139   2.633   4.082  17.647 -0.4734 -0.0480 -0.2526
  545TMC3    C5 8140   2.574   3.966  17.600  0.0611 -0.4643  0.2409
  545TMC3    C6 8141   2.588   3.918  17.470  0.8472 -0.0218 -0.2719
  545TMC3     C 8142   2.738   4.298  17.571 -0.1021  0.6897 -0.0749
  545TMC3     O 8143   2.754   4.364  17.469  0.1214 -0.9975 -0.2757
  545TMC3     H 8144   2.762   4.175  17.339  1.1864 -0.0454  1.0179
  545TMC3    H1 8145   2.618   4.113  17.749  1.4454 -3.7625  1.1610
  545TMC3    H2 8146   2.544   3.826  17.430 -0.4529  0.7422 -0.6136
  545TMC3    C7 8147   2.496   3.886  17.691  0.1839 -0.2354  0.0683
  545TMC3    C8 8148   2.670   3.941  17.246 -0.2727  0.5377 -0.1536
  545TMC3    O1 8149   2.427   3.954   0.018  0.1228  0.2125 -0.3896
  545TMC3    O2 8150   2.590   3.857  17.207  0.0108  0.2722 -0.2432
  546MPD2     C 8151   3.704   4.474  17.718  0.4748  0.4623 -0.3210
  546MPD2    C1 8152   3.694   4.480  17.579 -0.3921 -0.8297 -0.4311
  546MPD2    C2 8153   3.767   4.581  17.521  0.3449 -0.2480 -1.0724
  546MPD2    C3 8154   3.831   4.684  17.595  0.2772  0.3140 -1.1695
  546MPD2    C4 8155   3.819   4.683  17.731 -0.5648  0.1795 -0.4667
  546MPD2    C5 8156   3.761   4.574   0.039  0.3055  0.2769  0.9685
  546MPD2     H 8157   3.761   4.596  17.414  1.6144 -0.8633 -1.2342
  546MPD2    H1 8158   3.857   0.019   0.048 -1.8488 -0.4012  0.8609
  546MPD2    H2 8159   3.662   4.388   0.017  2.1846  1.0421  2.1180
  546MPD2    H3 8160   3.761   4.575   0.147  1.2134  0.4145  0.9658
  546MPD2     N 8161   3.907   0.046  17.535 -0.6856  0.2806 -0.3708
  546MPD2    H5 8162   3.947   0.111  17.603 -1.6613  0.5233 -0.0263
  546MPD2    N1 8163   3.622   4.383  17.512  0.5616  0.2236  0.0516
  546MPD2    H7 8164   3.565   4.322  17.569  1.4427 -0.2011  0.4796
  547TMC3    C1 8165   3.528   4.263  17.334  0.2438  0.0780 -0.3406
  547TMC3    C2 8166   3.475   4.278  17.208 -0.7378  0.0538  0.0655
  547TMC3    C3 8167   3.435   4.171  17.140 -0.0151 -0.1160  0.3355
  547TMC3    C4 8168   3.533   4.142  17.392  0.1223  0.6035  0.1326
  547TMC3    C5 8169   3.496   4.036  17.321  0.0673  0.6959 -0.5100
  547TMC3    C6 8170   3.432   4.048  17.201 -0.5099  0.1233 -0.9463
  547TMC3     C 8171   3.621   4.371  17.375 -0.0390 -0.2314  0.3808
  547TMC3     O 8172   3.674   4.434  17.286 -0.7615 -0.2286  0.1175
  547TMC3     H 8173   3.475   4.376  17.162  0.2056  0.3475  0.6792
  547TMC3    H1 8174   3.585   4.127  17.486 -2.4073 -2.2160  1.0987
  547TMC3    H2 8175   3.396   3.963  17.144 -0.2451 -0.0723 -0.8189
  547TMC3    C7 8176   3.474   3.921  17.391 -0.0184 -0.7766  0.1044
  547TMC3    C8 8177   3.375   4.211  17.013  0.3566  0.1183 -0.4214
  547TMC3    O1 8178   3.446   3.936  17.508 -0.0955 -0.0558 -0.2656
  547TMC3    O2 8179   3.374   4.328  16.977  0.0251 -0.4470  0.3071
  548MPD2     C 8180   3.534   1.207  12.597  0.1880  0.2501 -0.1128
  548MPD2    C1 8181   3.471   1.104  12.664 -0.6466 -0.5184 -0.7968
  548MPD2    C2 8182   3.534   1.036  12.761  0.1497 -0.1518  0.4207
  548MPD2    C3 8183   3.662   1.067  12.787 -0.2004  0.7564 -0.5568
  548MPD2    C4 8184   3.731   1.166  12.722 -0.3309 -0.1728  0.0753
  548MPD2    C5 8185   3.665   1.236  12.624 -0.3337  0.0097  0.7419
  548MPD2     H 8186   3.495   0.945  12.804  0.4416  0.4087  1.8443
  548MPD2    H1 8187   3.834   1.185  12.747 -1.1329  1.8822  1.8273
  548MPD2    H2 8188   3.478   1.266  12.526  0.9165  1.7048  0.5319
  548MPD2    H3 8189   3.718   1.309  12.563  0.5390 -1.0712  0.2062
  548MPD2     N 8190   3.728   0.984  12.886 -0.3344 -0.0150  0.0354
  548MPD2    H5 8191   3.675   0.908  12.928 -0.3690 -1.9491 -3.5103
  548MPD2    N1 8192   3.336   1.076  12.620  0.2130  0.6073  0.2852
  548MPD2    H7 8193   3.301   1.113  12.533  1.0272  3.0998  1.0074
  549TMC3    C1 8194   3.117   1.015  12.666  0.3484 -0.1648 -0.4778
  549TMC3    C2 8195   3.078   1.147  12.653 -0.3174  0.5017 -0.1932
  549TMC3    C3 8196   2.947   1.173  12.680  0.0577  0.7023 -0.6507
  549TMC3    C4 8197   3.027   0.922  12.712 -0.1593 -0.1045 -0.0122
  549TMC3    C5 8198   2.899   0.958  12.745 -0.0430 -0.1605  0.5712
  549TMC3    C6 8199   2.863   1.087  12.740 -0.6577 -0.1643 -0.3428
  549TMC3     C 8200   3.257   0.981  12.682 -0.2355 -0.4164 -0.0105
  549TMC3     O 8201   3.282   0.879  12.751  0.4692 -0.5575 -0.4541
  549TMC3     H 8202   3.151   1.219  12.620 -0.1849  0.0789 -0.8431
  549TMC3    H1 8203   3.063   0.824  12.738 -4.9870 -2.0864 -0.6919
  549TMC3    H2 8204   2.757   1.101  12.756 -0.7050  0.8941 -1.5529
  549TMC3    C7 8205   2.806   0.857  12.791 -0.6869 -0.8505 -0.4445
  549TMC3    C8 8206   2.903   1.296  12.609 -0.4133  0.6669 -0.4548
  549TMC3    O1 8207   2.704   0.887  12.853  0.1902  0.1695 -0.0499
  549TMC3    O2 8208   2.980   1.357  12.538 -0.3647  0.0798 -0.1390
  550TMC3    C1 8209   2.383   3.808  12.250 -0.2687  0.1515  0.0954
  550TMC3    C2 8210   2.398   3.880  12.366 -0.4002  0.0374  0.0279
  550TMC3    C3 8211   2.460   4.004  12.370 -0.5211  0.3940 -0.4882
  550TMC3    C4 8212   2.434   3.864  12.135  0.0888  0.0224 -0.6036
  550TMC3    C5 8213   2.502   3.979  12.135  0.0608  0.1400 -0.0751
  550TMC3    C6 8214   2.519   4.045  12.254  0.4348 -0.7012  0.5497
  550TMC3     C 8215   2.252   3.749  12.237  0.5544  0.1444  0.6360
  550TMC3     O 8216   2.207   3.691  12.336 -0.0562  0.3063  0.5200
  550TMC3     H 8217   2.342   3.848  12.453  1.1514 -2.4479  0.0877
  550TMC3    H1 8218   2.426   3.805  12.044 -1.3327  0.0425 -0.4877
  550TMC3    H2 8219   2.560   4.145  12.256 -0.0633 -0.4701 -0.6843
  550TMC3    C7 8220   2.448   4.061  12.035 -0.1014  0.1646  1.0846
  550TMC3    C8 8221   2.376   4.107  12.424  0.8683 -1.5753  0.3372
  550TMC3    O1 8222   2.338   4.012  12.001  0.8522  0.5965 -0.6602
  550TMC3    O2 8223   2.423   4.218  12.441  0.6153 -0.1140 -0.1658
  551TMC3    C1 8224   0.162   1.672  13.385 -0.0205  0.8959 -0.5634
  551TMC3    C2 8225   0.283   1.700  13.337 -0.5414 -0.0270  0.0508
  551TMC3    C3 8226   0.385   1.686  13.429  0.4822  0.5002  0.8044
  551TMC3    C4 8227   0.130   1.631  13.514 -0.0621  0.0213 -0.0083
  551TMC3    C5 8228   0.240   1.621  13.602 -0.1733 -0.3078 -0.0829
  551TMC3    C6 8229   0.366   1.643  13.557  0.1637 -0.0553 -0.3973
  551TMC3     C 8230   0.053   1.657  13.296 -0.3832  0.2170  0.4258
  551TMC3     O 8231   4.684   1.617  13.341  0.8129 -0.0922 -0.3481
  551TMC3     H 8232   0.300   1.746  13.240  1.2720  1.0023  0.8582
  551TMC3    H1 8233   0.032   1.600  13.547 -0.9126  0.1293 -2.4420
  551TMC3    H2 8234   0.456   1.631  13.618 -0.5250 -1.3311  0.3751
  551TMC3    C7 8235   0.212   1.615  13.745  0.2798  0.5251  0.7547
  551TMC3    C8 8236   0.510   1.743  13.414 -0.8955 -0.2275  0.1241
  551TMC3    O1 8237   0.297   1.554  13.810  0.1606  0.3336  0.0418
  551TMC3    O2 8238   0.582   1.753  13.513  1.1172 -0.1138  0.2052
  552MPD2     C 8239   1.793   3.302  14.588 -0.7331  0.5550  0.4098
  552MPD2    C1 8240   1.926   3.271  14.580  0.3452 -0.0107 -0.6643
  552MPD2    C2 8241   2.008   3.269  14.684  0.6432 -0.1766  0.0552
  552MPD2    C3 8242   1.961   3.281  14.808  0.1678 -0.5845  0.0251
  552MPD2    C4 8243   1.828   3.302  14.829  0.5968 -0.5624 -0.3591
  552MPD2    C5 8244   1.747   3.318  14.719  0.6076  0.4312 -0.0085
  552MPD2     H 8245   2.113   3.242  14.682  0.9161  1.1614 -3.8475
  552MPD2    H1 8246   1.780   3.288  14.926  1.1489  0.2233  0.0316
  552MPD2    H2 8247   1.720   3.294  14.508  0.6781 -2.4146 -0.5950
  552MPD2    H3 8248   1.640   3.305  14.725  0.3472  2.8137  0.3446
  552MPD2     N 8249   2.057   3.264  14.908  0.4467  0.2486 -0.5878
  552MPD2    H5 8250   2.154   3.260  14.880  0.8333 -1.5790  1.0128
  552MPD2    N1 8251   1.987   3.251  14.453 -0.0548 -0.2609 -0.0770
  552MPD2    H7 8252   2.086   3.233  14.452 -0.2369 -1.2591 -0.2481
  553TMC3    C1 8253   2.024   3.230  14.223  0.3399  0.1023 -0.2420
  553TMC3    C2 8254   1.964   3.235  14.098  0.3040  0.0235 -0.5776
  553TMC3    C3 8255   2.032   3.181  13.990  0.7002  0.4536  0.6253
  553TMC3    C4 8256   2.139   3.165  14.248  0.1562 -0.0615  0.3330
  553TMC3    C5 8257   2.201   3.102  14.137  0.6910  0.4829 -0.0435
  553TMC3    C6 8258   2.153   3.104  14.011  0.0992 -0.1102 -0.1586
  553TMC3     C 8259   1.929   3.249  14.326 -0.1485  0.2982 -0.5205
  553TMC3     O 8260   1.810   3.276  14.300 -0.1031  0.1618 -0.5040
  553TMC3     H 8261   1.879   3.297  14.074 -0.6100  0.1473  2.9830
  553TMC3    H1 8262   2.186   3.158  14.345  0.1588 -0.9535  0.2729
  553TMC3    H2 8263   2.192   3.055  13.922  0.3223 -0.8495  0.3470
  553TMC3    C7 8264   2.316   3.011  14.159 -0.1644  1.0386 -0.8005
  553TMC3    C8 8265   1.982   3.173  13.856  0.0978 -0.3060  0.1186
  553TMC3    O1 8266   2.386   2.980  14.066  0.1404 -0.4124  0.4536
  553TMC3    O2 8267   2.062   3.187  13.763  0.7012 -0.2231 -0.1556
  554TMC3    C1 8268   4.416   2.725  11.618 -0.6313 -0.4429  0.3416
  554TMC3    C2 8269   4.287   2.712  11.579  0.0052  0.2716  0.1235
  554TMC3    C3 8270   4.207   2.820  11.572  0.5381 -0.1362 -0.6202
  554TMC3    C4 8271   4.467   2.852  11.639 -0.3229 -0.1140 -0.4785
  554TMC3    C5 8272   4.381   2.960  11.621 -0.8698 -0.2602 -0.4993
  554TMC3    C6 8273   4.252   2.942  11.585 -0.5347 -0.3279 -0.4077
  554TMC3     C 8274   4.507   2.612  11.654  0.2153 -0.3275  0.0752
  554TMC3     O 8275   4.627   2.638  11.674 -0.2075  0.2469 -0.0485
  554TMC3     H 8276   4.238   2.618  11.553 -0.8372  0.7063  0.1437
  554TMC3    H1 8277   4.562   2.864  11.691 -0.1096  0.2648 -0.9521
  554TMC3    H2 8278   4.172   3.015  11.573  1.0529  1.4170 -0.4068
  554TMC3    C7 8279   4.423   3.094  11.648 -0.0501  0.5947  0.0414
  554TMC3    C8 8280   4.069   2.801  11.537 -0.4945  0.3594 -0.1622
  554TMC3    O1 8281   4.532   3.122  11.599  0.0550 -0.3738  0.3321
  554TMC3    O2 8282   4.009   2.710  11.594 -0.0996 -0.2610  0.3757
  555TMC3    C1 8283   2.764   1.913  14.651 -0.4015  0.2324  0.7721
  555TMC3    C2 8284   2.717   1.987  14.755  0.0453  1.2221  0.2221
  555TMC3    C3 8285   2.702   1.926  14.877  0.2423  0.2465 -0.2018
  555TMC3    C4 8286   2.804   1.785  14.662 -0.0339  0.0470  0.4430
  555TMC3    C5 8287   2.782   1.726  14.784  0.2174  0.0520 -0.6351
  555TMC3    C6 8288   2.726   1.795  14.889  0.1380  0.0902  0.1785
  555TMC3     C 8289   2.814   1.984  14.532 -0.2869  0.6248 -0.2065
  555TMC3     O 8290   2.901   1.922  14.469 -0.1721 -0.4242 -0.1841
  555TMC3     H 8291   2.700   2.094  14.747  2.1279  1.4378 -1.5511
  555TMC3    H1 8292   2.849   1.735  14.577  0.0216  2.6898 -1.0986
  555TMC3    H2 8293   2.722   1.741  14.983 -0.4124 -2.1201 -1.1145
  555TMC3    C7 8294   2.803   1.581  14.806 -0.7464 -0.1725 -0.2303
  555TMC3    C8 8295   2.724   2.018  14.994  0.2864 -0.2486  0.2954
  555TMC3    O1 8296   2.747   1.536  14.906 -0.4160 -0.3558 -0.1737
  555TMC3    O2 8297   2.674   2.129  14.995  0.0252  0.6186  0.0993
  556MPD2     C 8298   0.840   0.036  10.851 -0.2960 -0.6568 -0.2452
  556MPD2    C1 8299   0.901   4.658  10.892 -0.3007 -0.1509 -0.0448
  556MPD2    C2 8300   0.942   4.568  10.796 -0.2793 -0.0357  0.0487
  556MPD2    C3 8301   0.919   4.584  10.660  0.1708  0.1797  0.3300
  556MPD2    C4 8302   0.848   4.694  10.620  0.7519  1.3175 -0.0186
  556MPD2    C5 8303   0.798   0.042  10.722  0.9086 -0.0027  0.8904
  556MPD2     H 8304   1.000   4.482  10.828 -0.9310 -0.8365 -0.9204
  556MPD2    H1 8305   0.812   4.720  10.522  1.7948 -1.3903 -1.1082
  556MPD2    H2 8306   0.794   0.109  10.917  0.8842  0.7740 -0.9994
  556MPD2    H3 8307   0.741   0.130  10.695  0.8281 -0.4769 -0.5249
  556MPD2     N 8308   0.962   4.479  10.566  0.0423  0.2894 -0.6753
  556MPD2    H5 8309   1.006   4.395  10.602 -0.0473  0.6766  0.3185
  556MPD2    N1 8310   0.951   4.637  11.021 -0.3696  0.0574 -0.3015
  556MPD2    H7 8311   1.020   4.563  11.027 -0.2608  0.0595 -1.4277
  557TMC3    C1 8312   0.981   4.347  10.370 -0.2374  0.2420  0.4152
  557TMC3    C2 8313   0.984   4.333  10.235 -0.1404  0.3119 -0.0915
  557TMC3    C3 8314   0.992   4.201  10.185 -0.1312 -0.2781  0.0107
  557TMC3    C4 8315   1.002   4.232  10.456  0.0485  0.1791 -0.2179
  557TMC3    C5 8316   0.997   4.107  10.400 -0.5712  0.2902  0.4868
  557TMC3    C6 8317   1.003   4.090  10.264  0.2957  0.9381 -0.8519
  557TMC3     C 8318   0.945   4.477  10.427 -0.4832  0.1155 -0.1177
  557TMC3     O 8319   0.903   4.567  10.356  0.0614 -0.0104 -0.1937
  557TMC3     H 8320   0.994   4.417  10.167 -3.4507 -0.0752 -1.0498
  557TMC3    H1 8321   1.011   4.240  10.563  2.8937  1.0613 -0.5230
  557TMC3    H2 8322   1.026   3.992  10.225  0.1800  1.1648 -1.5000
  557TMC3    C7 8323   0.995   3.997  10.502  0.3640  0.5020  0.9478
  557TMC3    C8 8324   1.039   4.197  10.043  0.5106  0.2989  0.2510
  557TMC3    O1 8325   1.017   4.031  10.618 -0.1371  0.1635  0.3261
  557TMC3    O2 8326   1.088   4.294   9.989  0.1470  0.0723 -0.2785
  558TMC3    C1 8327   3.914   2.273  10.504 -0.2243  0.6753  0.0631
  558TMC3    C2 8328   3.780   2.291  10.510 -0.1527  0.0879  0.2273
  558TMC3    C3 8329   3.700   2.242  10.409 -0.3446 -0.1445 -0.3923
  558TMC3    C4 8330   3.965   2.200  10.402 -0.1610  0.0710 -0.5491
  558TMC3    C5 8331   3.886   2.139  10.307  0.0238  0.0558 -0.6213
  558TMC3    C6 8332   3.751   2.161  10.306  0.0305  0.4700  0.4445
  558TMC3     C 8333   3.996   2.280  10.621 -0.4557  0.4243 -0.2274
  558TMC3     O 8334   4.117   2.279  10.603 -0.7127 -0.0140 -0.6404
  558TMC3     H 8335   3.752   2.375  10.572 -0.5990  0.0982  0.0121
  558TMC3    H1 8336   4.071   2.179  10.396 -0.0382 -0.4903  3.5063
  558TMC3    H2 8337   3.692   2.107  10.232 -0.4142 -0.1267  1.2390
  558TMC3    C7 8338   3.936   2.027  10.233 -0.3047  0.5115  0.4092
  558TMC3    C8 8339   3.559   2.213  10.441 -0.3150  0.3126  0.0557
  558TMC3    O1 8340   4.034   1.964  10.283  0.0793 -0.5396 -0.3037
  558TMC3    O2 8341   3.496   2.135  10.361  0.7739  0.4891 -0.5871
  559MPD2     C 8342   3.747   2.613  10.313 -0.7621  0.4077 -0.2911
  559MPD2    C1 8343   3.680   2.625  10.436  0.7146  0.5381  0.1404
  559MPD2    C2 8344   3.750   2.659  10.549  0.3367  0.1532  0.8787
  559MPD2    C3 8345   3.888   2.669  10.553  0.1176  0.5704  0.4545
  559MPD2    C4 8346   3.957   2.661  10.428 -0.7462  0.5162 -0.2156
  559MPD2    C5 8347   3.884   2.616  10.321 -0.3938 -0.4572 -0.0688
  559MPD2     H 8348   3.683   2.672  10.633  0.6256  1.7374  0.8732
  559MPD2    H1 8349   4.065   2.666  10.424 -0.6011 -3.0560 -0.7717
  559MPD2    H2 8350   3.705   2.584  10.218 -0.2158  1.1042 -0.7483
  559MPD2    H3 8351   3.941   2.592  10.232  1.6434  0.0108  1.1083
  559MPD2     N 8352   3.949   2.685  10.682  0.3727 -0.2229  0.2424
  559MPD2    H5 8353   3.885   2.715  10.756 -1.1178 -0.1598 -1.0786
  559MPD2    N1 8354   3.540   2.618  10.430 -0.1359 -0.0767 -0.1690
  559MPD2    H7 8355   3.497   2.639  10.341  0.5765 -0.3296 -0.5771
  560TMC3    C1 8356   4.119   2.729  10.842 -1.1676 -0.2956  0.5450
  560TMC3    C2 8357   4.056   2.665  10.947 -0.7413 -0.3346 -0.5271
  560TMC3    C3 8358   4.108   2.680  11.072 -0.0797  0.5972 -0.1331
  560TMC3    C4 8359   4.244   2.775  10.860 -0.2883 -0.5860  0.4109
  560TMC3    C5 8360   4.303   2.769  10.984 -0.3932 -0.6053 -0.5337
  560TMC3    C6 8361   4.238   2.726  11.094 -0.0621  1.0275 -0.0733
  560TMC3     C 8362   4.085   2.687  10.707 -0.2866  0.0749 -0.1885
  560TMC3     O 8363   4.184   2.683  10.632 -0.2528  0.2153 -0.3822
  560TMC3     H 8364   3.961   2.618  10.928 -1.3451  2.1517 -3.6838
  560TMC3    H1 8365   4.307   2.797  10.775 -1.1793  1.5426  0.3110
  560TMC3    H2 8366   4.278   2.739  11.194 -0.2897  1.5098 -0.0466
  560TMC3    C7 8367   4.447   2.737  10.975 -0.0796 -0.2921  0.1918
  560TMC3    C8 8368   4.033   2.606  11.175  0.0530 -0.1146 -0.5504
  560TMC3    O1 8369   4.484   2.691  10.866 -0.0733 -0.6808 -0.5320
  560TMC3    O2 8370   3.913   2.598  11.151 -0.2060  0.7868 -0.0896
  561TMC3    C1 8371   1.369   1.738  11.078 -0.1197  0.3287 -0.6935
  561TMC3    C2 8372   1.306   1.636  11.141 -0.3681  0.1393  0.8132
  561TMC3    C3 8373   1.312   1.630  11.278 -0.6467 -0.0488 -0.2768
  561TMC3    C4 8374   1.430   1.840  11.147 -0.4059  0.5633 -0.5488
  561TMC3    C5 8375   1.437   1.835  11.282  0.1043  0.4978  0.7227
  561TMC3    C6 8376   1.374   1.736  11.355  0.0028 -0.0833 -0.5559
  561TMC3     C 8377   1.347   1.753  10.938 -0.5847  0.4492 -0.0782
  561TMC3     O 8378   1.315   1.648  10.884 -0.1300  0.2121  0.0321
  561TMC3     H 8379   1.264   1.556  11.080  0.3675 -1.5619  2.5317
  561TMC3    H1 8380   1.489   1.913  11.092 -0.9312  0.6076 -1.0499
  561TMC3    H2 8381   1.387   1.727  11.462 -0.3774 -3.1522 -0.7447
  561TMC3    C7 8382   1.566   1.867  11.345 -0.2177  0.9844  0.7526
  561TMC3    C8 8383   1.250   1.513  11.347 -0.4566  0.0620 -0.3548
  561TMC3    O1 8384   1.587   1.823  11.460  0.0793  0.6126  0.0755
  561TMC3    O2 8385   1.232   1.416  11.276  0.2363  0.2827 -0.1701
  562TMC3    C1 8386   2.764   1.575  16.107  0.3381  0.4627  0.2628
  562TMC3    C2 8387   2.669   1.628  16.189  0.3666  0.0280  0.1146
  562TMC3    C3 8388   2.557   1.674  16.134 -0.2523 -0.6123 -0.0922
  562TMC3    C4 8389   2.738   1.540  15.977  0.0505  0.4539 -0.4181
  562TMC3    C5 8390   2.613   1.577  15.930 -0.8100 -0.4356 -0.0379
  562TMC3    C6 8391   2.521   1.641  16.010  0.2500 -0.2486 -0.1099
  562TMC3     C 8392   2.877   1.510  16.168 -1.0336  0.4385  0.0837
  562TMC3     O 8393   2.978   1.481  16.106 -0.2364 -0.3088 -0.2078
  562TMC3     H 8394   2.690   1.663  16.290  0.4266  0.1930  0.0447
  562TMC3    H1 8395   2.808   1.478  15.922 -0.2384  0.0535 -0.3301
  562TMC3    H2 8396   2.424   1.673  15.974  0.1140 -1.5349 -0.8971
  562TMC3    C7 8397   2.580   1.562  15.786  0.5063 -1.3068 -0.2385
  562TMC3    C8 8398   2.457   1.734  16.216 -0.0913  0.5230 -0.0803
  562TMC3    O1 8399   2.467   1.581  15.744 -0.7005  0.3461 -0.2467
  562TMC3    O2 8400   2.456   1.704  16.335 -0.2550 -0.2958 -0.3071
  563MPD2     C 8401   0.314   3.529  15.981  1.1104  1.2483  0.2716
  563MPD2    C1 8402   0.318   3.538  16.119 -0.2341 -0.0043 -0.1009
  563MPD2    C2 8403   0.435   3.539  16.182  0.5590  1.3692 -0.0913
  563MPD2    C3 8404   0.555   3.520  16.122 -0.4629  0.2915  0.0755
  563MPD2    C4 8405   0.556   3.507  15.983  0.4495 -0.4074 -0.2844
  563MPD2    C5 8406   0.435   3.513  15.915 -0.2507  0.7623 -0.0161
  563MPD2     H 8407   0.432   3.563  16.288 -1.0925 -0.9435  0.3663
  563MPD2    H1 8408   0.647   3.511  15.925  0.7337 -0.6006  0.1560
  563MPD2    H2 8409   0.221   3.525  15.926 -0.1817  1.2403  2.4374
  563MPD2    H3 8410   0.429   3.511  15.806  0.7818  1.6029 -0.0957
  563MPD2     N 8411   0.678   3.531  16.192  0.0638 -0.7155 -0.8067
  563MPD2    H5 8412   0.671   3.539  16.293  3.6201  0.9544 -0.6722
  563MPD2    N1 8413   0.202   3.545  16.197 -0.4264 -0.4525  0.8438
  563MPD2    H7 8414   0.220   3.570  16.294 -1.6623  0.2234  0.9019
  564TMC3    C1 8415   0.004   3.451  16.278  0.0755 -0.2910 -0.1003
  564TMC3    C2 8416   4.615   3.398  16.251  0.5573 -0.2381 -0.0588
  564TMC3    C3 8417   4.561   3.312  16.349  0.0582 -0.9538 -0.5586
  564TMC3    C4 8418   0.073   3.417  16.392  0.0106 -0.6781  0.1331
  564TMC3    C5 8419   0.025   3.317  16.475  0.6778 -0.1214 -0.2671
  564TMC3    C6 8420   4.634   3.271  16.456  0.4141  0.1816  0.5926
  564TMC3     C 8421   0.077   3.508  16.163  0.1799  0.2989  0.2934
  564TMC3     O 8422   0.025   3.507  16.051  0.2603 -0.0457  0.0306
  564TMC3     H 8423   4.568   3.435  16.161 -0.8819 -0.7945  0.4651
  564TMC3    H1 8424   0.179   3.439  16.397  0.0773 -1.0796  0.5233
  564TMC3    H2 8425   4.587   3.207  16.529 -0.6546 -2.0020 -1.9952
  564TMC3    C7 8426   0.122   3.208  16.481  0.5180  0.2555 -0.1852
  564TMC3    C8 8427   4.496   3.194  16.299 -0.0728 -0.5723  0.3197
  564TMC3    O1 8428   0.244   3.242  16.486 -0.0048 -0.4035 -0.0852
  564TMC3    O2 8429   4.515   3.089  16.353  0.1997  0.1484 -0.0323
  565TMC3    C1 8430   0.199   0.478  10.481  0.1612 -0.7026 -0.3427
  565TMC3    C2 8431   0.141   0.431  10.599 -0.0881  0.0618 -0.4662
  565TMC3    C3 8432   0.049   0.329  10.592  0.0259  0.4170 -0.3222
  565TMC3    C4 8433   0.169   0.427  10.354  0.2304  0.6251  0.4950
  565TMC3    C5 8434   0.068   0.334  10.353 -0.6370  1.1314  0.2802
  565TMC3    C6 8435   0.011   0.280  10.469  0.6116  0.2409  0.3869
  565TMC3     C 8436   0.250   0.613  10.488  0.3117 -0.4841  0.6224
  565TMC3     O 8437   0.293   0.652  10.595  0.4256 -0.1938  0.0428
  565TMC3     H 8438   0.173   0.477  10.692  0.9837 -5.0018  1.7121
  565TMC3    H1 8439   0.224   0.459  10.266 -0.6352  0.4215 -0.1118
  565TMC3    H2 8440   4.699   0.184  10.469  2.0726 -0.5331  1.4811
  565TMC3    C7 8441   0.002   0.335  10.222 -0.0590 -0.6431  0.2580
  565TMC3    C8 8442   4.712   0.284  10.706 -0.1438  0.4227 -0.0626
  565TMC3    O1 8443   0.062   0.387  10.132 -0.5347  0.2993  0.4507
  565TMC3    O2 8444   4.604   0.237  10.674 -0.0765  0.0604 -0.0945
  566MPD2     C 8445   2.316   2.146  14.199  0.3722 -0.4590 -0.0207
  566MPD2    C1 8446   2.385   2.106  14.082 -0.6706  0.6440  0.8775
  566MPD2    C2 8447   2.312   2.066  13.966 -0.6284 -0.9032 -0.0559
  566MPD2    C3 8448   2.172   2.065  13.973 -0.2361 -0.2831 -0.2413
  566MPD2    C4 8449   2.105   2.101  14.095  0.2509  0.3105  0.6804
  566MPD2    C5 8450   2.183   2.144  14.195  0.2528  0.6219  0.2743
  566MPD2     H 8451   2.360   2.026  13.878  0.1072 -0.1159 -0.0150
  566MPD2    H1 8452   1.998   2.111  14.108  0.2477 -0.8390  1.5372
  566MPD2    H2 8453   2.369   2.202  14.275 -0.3711 -0.7720  0.7317
  566MPD2    H3 8454   2.131   2.187  14.279  0.0301 -0.6130  0.7568
  566MPD2     N 8455   2.081   2.028  13.873  0.2965  0.1859 -0.3813
  566MPD2    H5 8456   1.985   2.019  13.903  0.0428 -2.5586 -1.9787
  566MPD2    N1 8457   2.530   2.123  14.092 -0.1746  0.6739 -0.3078
  566MPD2    H7 8458   2.569   2.144  14.184 -2.3125  1.6194  0.4020
  567TMC3    C1 8459   2.749   2.097  14.019  0.2408  0.0638  0.9871
  567TMC3    C2 8460   2.838   2.128  13.923  1.2611 -0.2937  1.0853
  567TMC3    C3 8461   2.958   2.060  13.904  0.7005  0.6405  0.0476
  567TMC3    C4 8462   2.774   1.992  14.106 -0.5283  0.2674  0.0301
  567TMC3    C5 8463   2.899   1.927  14.084 -0.0555  0.0380 -0.2196
  567TMC3    C6 8464   2.997   1.962  13.991  0.5090  0.4904 -0.1096
  567TMC3     C 8465   2.609   2.110  13.979 -0.5922  1.3830  0.4332
  567TMC3     O 8466   2.582   2.102  13.863 -0.1702  0.3781 -0.1440
  567TMC3     H 8467   2.809   2.192  13.841  3.0489 -0.6290  0.1841
  567TMC3    H1 8468   2.685   1.957  14.156  0.5231  0.5228  2.0506
  567TMC3    H2 8469   3.095   1.916  13.996  0.8241  1.2817  1.0470
  567TMC3    C7 8470   2.917   1.799  14.148  0.4348  0.2863 -0.2945
  567TMC3    C8 8471   3.047   2.125  13.802  0.3485  0.5076 -0.0599
  567TMC3    O1 8472   3.013   1.733  14.117 -0.0121  0.4260 -0.2686
  567TMC3    O2 8473   3.027   2.239  13.770 -0.6129 -0.3770  0.0677
  568MPD2     C 8474   4.486   1.710  15.969  0.3671  0.1657  0.8904
  568MPD2    C1 8475   4.545   1.784  16.076 -0.5009  0.3660 -0.1094
  568MPD2    C2 8476   4.524   1.919  16.100  1.0455 -0.4906  0.5500
  568MPD2    C3 8477   4.437   1.989  16.019 -0.4018  0.6427 -0.0464
  568MPD2    C4 8478   4.381   1.922  15.916 -0.4996  0.8547 -0.4997
  568MPD2    C5 8479   4.413   1.791  15.884  0.2734  0.0027  0.0068
  568MPD2     H 8480   4.563   1.976  16.183  1.0910 -0.5892  0.5956
  568MPD2    H1 8481   4.314   1.980  15.853  0.5745  0.8153 -1.6880
  568MPD2    H2 8482   4.512   1.610  15.937  1.8125  0.3310  1.5464
  568MPD2    H3 8483   4.376   1.758  15.788 -0.7041  0.9110  0.0772
  568MPD2     N 8484   4.403   2.123  16.058  0.6349  0.7210 -0.4327
  568MPD2    H5 8485   4.458   2.157  16.137 -1.0492  1.2299  0.5106
  568MPD2    N1 8486   4.626   1.708  16.166  0.8936  0.0331  0.2001
  568MPD2    H7 8487   4.641   1.610  16.146 -1.6024  0.0847 -1.9772
  569TMC3    C1 8488   4.275   2.306  16.095 -0.0847 -0.2792  0.6791
  569TMC3    C2 8489   4.331   2.296  16.219 -0.0908  0.2359  0.1059
  569TMC3    C3 8490   4.352   2.412  16.296 -0.1155 -0.0427 -0.1740
  569TMC3    C4 8491   4.252   2.427  16.044  0.6243 -0.2715 -0.6935
  569TMC3    C5 8492   4.281   2.538  16.110  0.2043  0.3512 -0.2946
  569TMC3    C6 8493   4.331   2.536  16.242 -0.0892  0.2776  0.5733
  569TMC3     C 8494   4.304   2.200  16.007  0.1665  0.0804 -0.0060
  569TMC3     O 8495   4.234   2.177  15.911 -0.1227  0.0257 -0.2304
  569TMC3     H 8496   4.333   2.197  16.263 -0.6463 -0.3056 -1.0991
  569TMC3    H1 8497   4.204   2.438  15.948 -3.6774  2.1273  1.7359
  569TMC3    H2 8498   4.372   2.626  16.286 -0.0044  0.3604  0.3249
  569TMC3    C7 8499   4.277   2.658  16.034  0.1198 -0.6025  0.3200
  569TMC3    C8 8500   4.430   2.391  16.415  0.1551  0.2480 -0.7167
  569TMC3    O1 8501   4.283   2.647  15.913 -0.2058  0.1539  0.2755
  569TMC3    O2 8502   4.480   2.278  16.421  0.0399 -0.1633  0.1229
  570TMC3    C1 8503   4.007   0.687  16.015 -0.6757  0.1099  0.4073
  570TMC3    C2 8504   4.090   0.711  15.905 -0.5690  0.2066 -1.2217
  570TMC3    C3 8505   4.078   0.836  15.850 -0.0236 -0.2297  0.4884
  570TMC3    C4 8506   3.919   0.782  16.066  0.0827 -0.4581 -0.1990
  570TMC3    C5 8507   3.901   0.904  16.000  0.3369 -0.0303  0.6863
  570TMC3    C6 8508   3.987   0.928  15.900  0.1663 -0.1417 -0.3558
  570TMC3     C 8509   4.033   0.569  16.090 -0.2435 -0.3993  0.0416
  570TMC3     O 8510   4.079   0.474  16.031 -0.4718 -0.7472  0.0385
  570TMC3     H 8511   4.172   0.645  15.878  0.1605 -0.1495  1.8708
  570TMC3    H1 8512   3.841   0.753  16.136  0.4475  2.9353  1.6328
  570TMC3    H2 8513   3.963   1.018  15.844  0.5259  0.0731 -0.1629
  570TMC3    C7 8514   3.887   1.015  16.092 -0.4213  0.2884 -0.4267
  570TMC3    C8 8515   4.198   0.893  15.797 -0.0670 -1.0618  0.3964
  570TMC3    O1 8516   3.928   1.007  16.206 -0.8318  0.4898 -0.4102
  570TMC3    O2 8517   4.207   1.014  15.804  0.3196  0.6901  0.9109
  571MPD2     C 8518   1.436   2.316  17.530  0.4589  0.4515 -0.3688
  571MPD2    C1 8519   1.393   2.340  17.659 -0.3210 -0.6236  0.5575
  571MPD2    C2 8520   1.450   2.451  17.725  0.0342  0.0283 -0.4244
  571MPD2    C3 8521   1.551   2.527  17.675 -0.1412  0.5194  0.0926
  571MPD2    C4 8522   1.590   2.499  17.541 -0.3444  0.1955 -0.0179
  571MPD2    C5 8523   1.525   2.395  17.472 -0.0082 -0.3368  0.7350
  571MPD2     H 8524   1.413   2.481   0.071  1.2935  1.2067 -0.3218
  571MPD2    H1 8525   1.665   2.559  17.490  1.1189 -2.3946 -0.8690
  571MPD2    H2 8526   1.411   2.239  17.458  1.2662  0.2782 -0.4628
  571MPD2    H3 8527   1.551   2.373  17.369 -0.1083 -3.2796  1.3435
  571MPD2     N 8528   1.616   2.632  17.741  0.4280  0.5051 -0.8581
  571MPD2    H5 8529   1.686   2.685  17.690  1.5166 -0.7475 -0.6744
  571MPD2    N1 8530   1.291   2.260  17.717 -0.3132  0.0014  0.6042
  571MPD2    H7 8531   1.247   2.197  17.650 -1.0514  1.6207 -0.4283
  572TMC3    C1 8532   1.701   2.781   0.155  0.4521  0.3593  0.0094
  572TMC3    C2 8533   1.702   2.812   0.287 -0.1681 -0.0827  0.2615
  572TMC3    C3 8534   1.750   2.941   0.312  0.5506 -0.5739 -0.5436
  572TMC3    C4 8535   1.766   2.855   0.050 -0.8555 -1.3533  0.7947
  572TMC3    C5 8536   1.840   2.964   0.087  0.6705  0.6119 -0.0386
  572TMC3    C6 8537   1.830   3.004   0.216 -0.4174  0.3137  0.2207
  572TMC3     C 8538   1.609   2.666   0.120 -0.2573  0.3434 -0.8081
  572TMC3     O 8539   1.563   2.598   0.209 -0.6982  0.0678 -1.0165
  572TMC3     H 8540   1.641   2.757   0.359 -0.9129  0.0978 -0.2358
  572TMC3    H1 8541   1.761   2.823  17.698 -1.6728  1.9153 -0.1768
  572TMC3    H2 8542   1.880   3.095   0.245 -1.9294  0.8910  1.0065
  572TMC3    C7 8543   1.887   3.060  17.738  0.3974 -0.4188  0.4943
  572TMC3    C8 8544   1.741   3.002   0.445  0.1974  0.6402 -0.4351
  572TMC3    O1 8545   1.832   3.047  17.632  0.4005  0.3064  0.8661
  572TMC3    O2 8546   1.796   3.111   0.460 -0.1696  0.0977 -0.3898
  573MPD2     C 8547   2.944   2.260   0.094 -0.6017  0.3183  0.2944
  573MPD2    C1 8548   2.938   2.346   0.205 -0.1615  0.3075  0.3696
  573MPD2    C2 8549   2.928   2.479   0.184 -0.9102 -0.0020  0.1260
  573MPD2    C3 8550   2.925   2.533   0.053  0.3484 -0.8844 -0.7693
  573MPD2    C4 8551   2.938   2.440  17.696  0.3277 -1.2445 -0.8908
  573MPD2    C5 8552   2.949   2.305  17.716 -0.0233  0.0879  0.1039
  573MPD2     H 8553   2.902   2.543   0.267 -0.2096  0.2303  0.1649
  573MPD2    H1 8554   2.941   2.476  17.594 -0.3025  1.5953  0.0730
  573MPD2    H2 8555   2.948   2.154   0.111  0.0945  0.1405 -0.9347
  573MPD2    H3 8556   2.956   2.241  17.630 -1.1663 -1.8344  1.4351
  573MPD2     N 8557   2.919   2.666   0.028 -0.0960  0.0687 -0.1744
  573MPD2    H5 8558   2.943   2.701  17.687  0.1729  0.8151  0.1849
  573MPD2    N1 8559   2.945   2.294   0.334 -0.5493  0.5449  0.5264
  573MPD2    H7 8560   2.922   2.196   0.349  2.5672 -0.2299  0.3343
  574TMC3    C1 8561   2.867   2.895   0.059 -0.4784  0.3501  0.0341
  574TMC3    C2 8562   2.785   2.987   0.120  0.0474  0.1635  0.1910
  574TMC3    C3 8563   2.789   3.124   0.089  0.2664 -0.5102  0.3584
  574TMC3    C4 8564   2.956   2.934  17.715 -0.4932 -0.7868 -0.4092
  574TMC3    C5 8565   2.956   3.067  17.676  0.6577 -0.4088  0.3430
  574TMC3    C6 8566   2.867   3.155  17.730  0.1271  0.1118 -0.3197
  574TMC3     C 8567   2.862   2.760   0.115  0.2364 -1.0695  1.4166
  574TMC3     O 8568   2.798   2.746   0.217  0.1572 -0.0343  0.0329
  574TMC3     H 8569   2.713   2.961   0.197  0.2764  0.0743  0.3768
  574TMC3    H1 8570   3.026   2.867  17.667 -1.1784  0.3962 -3.0223
  574TMC3    H2 8571   2.871   3.254  17.686 -0.1757  0.5493  0.6127
  574TMC3    C7 8572   3.086   3.134  17.655 -0.0996 -0.7838  0.2604
  574TMC3    C8 8573   2.697   3.215   0.146 -0.4237 -1.1286  0.0375
  574TMC3    O1 8574   3.095   3.254  17.662 -0.1594  0.0412  0.3767
  574TMC3    O2 8575   2.621   3.161   0.226 -0.8254  0.1982 -0.6520
  575TMC3    C1 8576   0.490   0.162  11.560  0.6551 -0.4037 -0.3005
  575TMC3    C2 8577   0.505   0.028  11.575  0.0480 -0.3896 -0.1492
  575TMC3    C3 8578   0.429   4.687  11.490  0.3051 -0.4449  0.3243
  575TMC3    C4 8579   0.407   0.223  11.475 -0.1115  0.0411  0.1774
  575TMC3    C5 8580   0.323   0.141  11.405  0.5196  0.2822 -0.5654
  575TMC3    C6 8581   0.339   0.008  11.405  0.1457  0.0517  0.0659
  575TMC3     C 8582   0.588   0.250  11.621 -0.3896 -0.0672 -0.2065
  575TMC3     O 8583   0.619   0.350  11.554  0.0553  0.3482  0.3338
  575TMC3     H 8584   0.598   4.735  11.622 -0.9408  1.0825  2.7939
  575TMC3    H1 8585   0.402   0.329  11.455 -1.9113 -0.5298 -2.4966
  575TMC3    H2 8586   0.276   4.695  11.333 -1.0288 -0.6902  1.6188
  575TMC3    C7 8587   0.227   0.203  11.310 -0.4797  0.8350 -0.3133
  575TMC3    C8 8588   0.481   4.561  11.451 -0.2542 -0.1758  0.1112
  575TMC3    O1 8589   0.250   0.320  11.279 -0.2664 -0.0322 -0.0846
  575TMC3    O2 8590   0.535   4.494  11.537  0.0675 -0.1515  0.3010
  576MPD2     C 8591   1.205   0.926  12.688  0.3786  0.3225  0.3775
  576MPD2    C1 8592   1.076   0.983  12.675 -1.1011 -0.0063 -0.2072
  576MPD2    C2 8593   0.983   0.946  12.774  0.9661 -0.0303  0.5644
  576MPD2    C3 8594   1.012   0.880  12.891  0.0606 -0.3006 -0.9248
  576MPD2    C4 8595   1.142   0.842  12.904 -0.7727  0.4181 -0.5412
  576MPD2    C5 8596   1.236   0.858  12.808  0.8302  0.5612 -0.3059
  576MPD2     H 8597   0.881   0.980  12.761  1.0957 -0.4736 -1.6505
  576MPD2    H1 8598   1.186   0.792  12.989 -1.6208 -1.3747 -1.1593
  576MPD2    H2 8599   1.282   0.951  12.616 -1.1037  1.6453 -0.7600
  576MPD2    H3 8600   1.337   0.819  12.819  0.3401 -0.2475  1.3742
  576MPD2     N 8601   0.913   0.864  12.991  0.0935  0.8306 -0.8590
  576MPD2    H5 8602   0.820   0.896  12.969 -0.2490 -0.6354 -1.5111
  576MPD2    N1 8603   1.034   1.076  12.568 -0.0052  0.1855  0.9237
  576MPD2    H7 8604   0.939   1.110  12.560  0.0885  0.5979  1.5843
  577TMC3    C1 8605   1.056   1.214  12.375  0.5209  0.4452  0.2072
  577TMC3    C2 8606   1.108   1.203  12.252  0.1396 -0.0978  0.0357
  577TMC3    C3 8607   1.116   1.311  12.169 -0.7112 -0.6122  0.1000
  577TMC3    C4 8608   0.999   1.332  12.422 -0.6409 -0.5499  0.3181
  577TMC3    C5 8609   0.986   1.434  12.328 -0.4870 -0.1321 -0.0626
  577TMC3    C6 8610   1.047   1.423  12.204  0.1899 -0.2726  0.1035
  577TMC3     C 8611   1.122   1.116  12.470 -1.1347 -0.2835 -0.0014
  577TMC3     O 8612   1.244   1.094  12.455 -0.2274  0.1991 -0.5849
  577TMC3     H 8613   1.148   1.107  12.221  0.1108 -0.2305  0.4086
  577TMC3    H1 8614   0.970   1.347  12.526  1.0418 -1.3598  0.8977
  577TMC3    H2 8615   1.028   1.500  12.130  1.8294  0.8450  0.8384
  577TMC3    C7 8616   0.967   1.563  12.382  0.0929  0.0471  0.0124
  577TMC3    C8 8617   1.106   1.273  12.027 -0.4974  0.3792 -0.0364
  577TMC3    O1 8618   0.962   1.573  12.503  0.0317 -0.1439  0.4683
  577TMC3    O2 8619   1.082   1.152  12.011  0.1927 -0.2701  0.3494
  578MPD2     C 8620   3.803   1.029   1.597 -0.5356  0.0732 -0.3463
  578MPD2    C1 8621   3.797   0.913   1.515  0.2864 -0.3467 -0.3107
  578MPD2    C2 8622   3.911   0.824   1.526  0.0591  0.5103 -0.1884
  578MPD2    C3 8623   4.018   0.846   1.612  0.5263 -0.2230  0.3954
  578MPD2    C4 8624   4.025   0.961   1.682  1.1780  0.1851 -0.9855
  578MPD2    C5 8625   3.916   1.052   1.667  0.5558 -0.0278 -0.4598
  578MPD2     H 8626   3.916   0.727   1.479 -2.7852 -0.0641  0.7199
  578MPD2    H1 8627   4.099   0.987   1.757 -0.4891  2.3640 -0.0842
  578MPD2    H2 8628   3.721   1.098   1.616 -0.9929 -0.1324 -1.5999
  578MPD2    H3 8629   3.912   1.148   1.717  1.8916 -0.7615  1.0647
  578MPD2     N 8630   4.116   0.748   1.612  0.4063 -0.3154 -0.6910
  578MPD2    H5 8631   4.098   0.674   1.545  0.2134 -0.5830 -0.3443
  578MPD2    N1 8632   3.687   0.905   1.429  0.2956 -0.1346 -0.1261
  578MPD2    H7 8633   3.617   0.977   1.437 -0.8537 -1.2889  0.1583
  579TMC3    C1 8634   4.322   0.638   1.624  0.2923 -0.2236  0.4132
  579TMC3    C2 8635   4.459   0.655   1.635  0.5324  0.5059 -0.2688
  579TMC3    C3 8636   4.548   0.559   1.591  0.7326  0.9329 -0.2481
  579TMC3    C4 8637   4.278   0.513   1.580 -0.1270 -0.3942 -0.0236
  579TMC3    C5 8638   4.371   0.418   1.536 -0.2393  0.0701  1.0440
  579TMC3    C6 8639   4.505   0.437   1.544 -0.2068  0.7286 -0.6912
  579TMC3     C 8640   4.241   0.749   1.666  0.0037 -0.4160 -0.6832
  579TMC3     O 8641   4.287   0.835   1.744  0.0530 -0.4179  0.8033
  579TMC3     H 8642   4.496   0.749   1.674 -0.8427  0.2625  1.6246
  579TMC3    H1 8643   4.173   0.486   1.575 -0.0061 -0.8771 -0.0060
  579TMC3    H2 8644   4.578   0.362   1.515  0.1487  0.3453  1.1673
  579TMC3    C7 8645   4.333   0.286   1.492  0.4021  0.2454 -0.1601
  579TMC3    C8 8646   4.688   0.570   1.635 -0.2359 -0.3259 -0.2726
  579TMC3    O1 8647   4.415   0.193   1.504  0.1292 -0.0874 -0.0447
  579TMC3    O2 8648   4.714   0.657   1.716  0.3592  0.1556 -0.1082
  580TMC3    C1 8649   3.253   0.485  11.794  0.9096 -0.2909 -0.0192
  580TMC3    C2 8650   3.276   0.508  11.660 -0.4127  0.3063  0.1291
  580TMC3    C3 8651   3.285   0.388  11.585  0.0463 -0.5336  0.1037
  580TMC3    C4 8652   3.252   0.355  11.848  1.2956 -0.1427 -0.3553
  580TMC3    C5 8653   3.260   0.246  11.768  0.5938 -0.7505  0.0484
  580TMC3    C6 8654   3.262   0.260  11.636  0.4090 -0.3905 -0.7577
  580TMC3     C 8655   3.256   0.598  11.886  0.0630  0.2783 -0.1613
  580TMC3     O 8656   3.292   0.704  11.842 -0.1368 -0.3641 -0.7519
  580TMC3     H 8657   3.280   0.610  11.625 -0.2464 -0.4475 -2.0134
  580TMC3    H1 8658   3.243   0.335  11.955  0.3331  1.3949 -0.1482
  580TMC3    H2 8659   3.281   0.175  11.572  0.6771 -1.1115  0.2775
  580TMC3    C7 8660   3.220   0.125  11.832  0.7209 -0.3916  0.1070
  580TMC3    C8 8661   3.367   0.389  11.463  0.5841 -0.7792 -0.2636
  580TMC3    O1 8662   3.281   0.095  11.934 -0.4179  0.3885  0.5870
  580TMC3    O2 8663   3.353   0.309  11.378 -0.0764 -0.0866 -0.0324
  581MPD2     C 8664   1.090   4.583  14.902  0.1650  0.7795  0.2305
  581MPD2    C1 8665   1.087   4.700  14.974  0.3030 -0.1797  0.2034
  581MPD2    C2 8666   0.976   0.046  14.973 -0.3992 -0.4994  0.5029
  581MPD2    C3 8667   0.870   0.011  14.881 -0.1851  0.4564  0.2114
  581MPD2    C4 8668   0.873   4.633  14.815  0.0928  0.1349  0.4293
  581MPD2    C5 8669   0.984   4.550  14.825  0.6121  0.3899 -0.3622
  581MPD2     H 8670   0.969   0.138  15.030  2.6351 -0.0164  0.1265
  581MPD2    H1 8671   0.797   4.617  14.740  1.3866  0.1383 -0.8659
  581MPD2    H2 8672   1.182   4.526  14.897 -0.7054 -0.6778  0.6647
  581MPD2    H3 8673   0.985   4.458  14.767 -1.1766  0.7786 -1.0355
  581MPD2     N 8674   0.755   0.096  14.868 -0.0583  0.4264  0.7099
  581MPD2    H5 8675   0.774   0.190  14.903  0.5164  0.2809  0.7968
  581MPD2    N1 8676   1.206   4.726  15.046 -1.2251 -0.0042 -0.4851
  581MPD2    H7 8677   1.279   4.656  15.040 -2.1447 -0.8864 -1.5281
  582TMC3    C1 8678   1.346   0.072  15.222 -0.3642  0.4633  0.4712
  582TMC3    C2 8679   1.333   0.132  15.349  0.1568  0.3579 -0.6349
  582TMC3    C3 8680   1.429   0.102  15.438  0.0462  0.3722 -0.2690
  582TMC3    C4 8681   1.438   4.709  15.192  0.1845 -0.3882  0.3197
  582TMC3    C5 8682   1.511   4.667  15.307  0.8564 -0.4794 -0.5930
  582TMC3    C6 8683   1.516   4.737  15.422 -0.2975 -0.6832 -0.6084
  582TMC3     C 8684   1.232   0.097  15.127  0.4331  0.2218 -0.0133
  582TMC3     O 8685   1.167   0.196  15.147  0.1291  0.4857  0.2855
  582TMC3     H 8686   1.257   0.207  15.368 -1.2307 -1.0556 -0.5643
  582TMC3    H1 8687   1.435   4.643  15.106 -1.5856 -0.9818  0.8350
  582TMC3    H2 8688   1.575   4.696  15.503 -0.3661  1.8750  0.7350
  582TMC3    C7 8689   1.553   4.528  15.314  0.7008 -0.5099 -0.1491
  582TMC3    C8 8690   1.381   0.089  15.576  0.2885  0.3553  0.4456
  582TMC3    O1 8691   1.674   4.503  15.307 -0.6342 -0.1087 -0.2164
  582TMC3    O2 8692   1.272   0.036  15.593 -0.2121  0.1583  0.0310
  583MPD2     C 8693   1.283   1.090  16.535  0.2503  0.3529  0.3871
  583MPD2    C1 8694   1.211   1.170  16.450  0.2536  0.1493 -0.2713
  583MPD2    C2 8695   1.097   1.224  16.503  0.2948  0.0157  0.1313
  583MPD2    C3 8696   1.044   1.179  16.628 -0.4091  0.7868  0.0623
  583MPD2    C4 8697   1.112   1.092  16.708  0.4674 -0.5882  0.0841
  583MPD2    C5 8698   1.234   1.050  16.659 -0.2743 -0.5933 -0.1961
  583MPD2     H 8699   1.040   1.285  16.434 -0.1678  0.1086  0.5997
  583MPD2    H1 8700   1.087   1.081  16.813 -0.2649 -1.5219 -0.1942
  583MPD2    H2 8701   1.377   1.046  16.502 -0.5067 -1.0216  0.0379
  583MPD2    H3 8702   1.290   0.983  16.724  0.0821 -1.3719 -1.3001
  583MPD2     N 8703   0.925   1.249  16.673 -0.6969 -0.3234 -0.1437
  583MPD2    H5 8704   0.870   1.304  16.609 -1.3749  0.3190  0.9978
  583MPD2    N1 8705   1.247   1.192  16.314 -0.0002 -0.2235  0.0173
  583MPD2    H7 8706   1.188   1.256  16.261  0.1633 -0.8480 -0.9114
  584TMC3    C1 8707   0.767   1.345  16.809 -0.7990  0.3499 -0.2439
  584TMC3    C2 8708   0.777   1.461  16.731  1.2483 -0.0595  0.2768
  584TMC3    C3 8709   0.726   1.569  16.789  1.0512  0.0650 -0.1410
  584TMC3    C4 8710   0.694   1.343  16.926  0.2661 -0.6220  0.8519
  584TMC3    C5 8711   0.640   1.456  16.982 -0.0583  0.4407  0.3381
  584TMC3    C6 8712   0.658   1.576  16.913 -0.3593 -0.0079  0.2464
  584TMC3     C 8713   0.864   1.240  16.797 -0.1371 -0.1869 -0.3730
  584TMC3     O 8714   0.883   1.161  16.888 -0.0352  0.2918  0.0474
  584TMC3     H 8715   0.833   1.472  16.639 -0.6222  1.6286 -0.6555
  584TMC3    H1 8716   0.691   1.250  16.982  0.8256 -0.3223  1.3795
  584TMC3    H2 8717   0.617   1.668  16.954  0.2080  0.4243 -0.1649
  584TMC3    C7 8718   0.593   1.452  17.119 -0.4010 -0.6490  0.3860
  584TMC3    C8 8719   0.751   1.688  16.712  0.3372 -0.6123  0.1705
  584TMC3    O1 8720   0.625   1.356  17.184  0.2357 -0.4400 -0.1169
  584TMC3    O2 8721   0.866   1.703  16.665 -0.4789 -0.9009  0.0842
  585MPD2     C 8722   0.187   0.419   0.178 -0.1904  0.1274 -0.1671
  585MPD2    C1 8723   0.233   0.345   0.069 -0.2223 -0.3828  0.8064
  585MPD2    C2 8724   0.213   0.398  17.692 -0.5692  0.0276 -0.0123
  585MPD2    C3 8725   0.120   0.500  17.677  0.4456 -0.0523 -0.5067
  585MPD2    C4 8726   0.072   0.573   0.038 -0.3507  0.2994 -0.2934
  585MPD2    C5 8727   0.104   0.522   0.160 -0.4087 -0.4689  0.2329
  585MPD2     H 8728   0.255   0.345  17.607 -2.5449 -1.6073  0.0332
  585MPD2    H1 8729   0.018   0.666   0.025 -2.4825 -0.6807  1.4451
  585MPD2    H2 8730   0.208   0.398   0.282 -0.3726 -2.0194 -0.5552
  585MPD2    H3 8731   0.079   0.583   0.246  0.4333  2.3115 -1.4909
  585MPD2     N 8732   0.065   0.532  17.548  0.3274 -0.4376 -0.1644
  585MPD2    H5 8733   4.731   0.602  17.547  0.2457 -0.4618  2.3408
  585MPD2    N1 8734   0.327   0.241   0.089  1.0742  0.0653 -0.4490
  585MPD2    H7 8735   0.348   0.226   0.187  2.1456  0.1656 -0.6663
  586TMC3    C1 8736   4.720   0.495  17.332 -0.0670  1.1643  0.6063
  586TMC3    C2 8737   0.018   0.460  17.213 -0.2589 -0.3681  0.1712
  586TMC3    C3 8738   4.671   0.381  17.141  0.3310 -0.1864 -0.0293
  586TMC3    C4 8739   4.588   0.472  17.382  0.3687  0.0398  0.4627
  586TMC3    C5 8740   4.503   0.391  17.313  0.1094 -0.3320 -0.1106
  586TMC3    C6 8741   4.542   0.348  17.190 -0.3185 -0.3432 -0.5032
  586TMC3     C 8742   0.084   0.466  17.429  0.4877 -0.0744 -1.0071
  586TMC3     O 8743   0.174   0.391  17.396 -0.0566  0.3271  0.3198
  586TMC3     H 8744   0.118   0.477  17.174 -0.7615  0.9818 -0.5261
  586TMC3    H1 8745   4.572   0.501  17.485  1.3146  0.6497  0.4449
  586TMC3    H2 8746   4.477   0.297  17.120 -3.2160  2.9444 -0.1959
  586TMC3    C7 8747   4.437   0.281  17.382 -1.4357  0.1791  0.5770
  586TMC3    C8 8748   4.732   0.268  17.069 -0.3728 -0.0062  0.6361
  586TMC3    O1 8749   4.421   0.183  17.315  0.1232 -0.4936 -0.2614
  586TMC3    O2 8750   4.683   0.159  17.086 -0.2865  0.2079  0.6055
  587TMC3    C1 8751   2.368   4.011  16.239  0.7163  0.1247 -0.2052
  587TMC3    C2 8752   2.485   4.078  16.259 -0.4553 -0.1143  0.1555
  587TMC3    C3 8753   2.583   4.017  16.325  0.7470  0.0384  0.3009
  587TMC3    C4 8754   2.353   3.879  16.290 -0.1428  0.1255 -0.1451
  587TMC3    C5 8755   2.461   3.819  16.365  0.1629  0.4950 -0.4376
  587TMC3    C6 8756   2.577   3.893  16.380 -0.2684 -0.1953  0.1046
  587TMC3     C 8757   2.263   4.073  16.156  0.0222  0.0210  0.2362
  587TMC3     O 8758   2.289   4.168  16.085 -0.2638  0.2923 -0.2808
  587TMC3     H 8759   2.486   4.185  16.241  0.7677 -0.0727  0.4933
  587TMC3    H1 8760   2.261   3.824  16.274  0.6807 -1.2995  0.0735
  587TMC3    H2 8761   2.662   3.853  16.434  0.5546 -0.2357 -1.2348
  587TMC3    C7 8762   2.440   3.690  16.426 -0.3286  0.7504  0.4861
  587TMC3    C8 8763   2.683   4.096  16.395 -0.7134 -0.2415 -0.0469
  587TMC3    O1 8764   2.330   3.648  16.449  0.5001 -0.0761  0.0563
  587TMC3    O2 8765   2.785   4.038  16.417 -0.1270  0.6245 -0.3379
  588TMC3    C1 8766   0.402   2.655  10.038  0.1242  0.6562 -0.5353
  588TMC3    C2 8767   0.372   2.525  10.016 -0.5805  0.9595 -0.1617
  588TMC3    C3 8768   0.474   2.436  10.024  0.2178  0.0310  0.0286
  588TMC3    C4 8769   0.529   2.701  10.072 -0.5643  0.4015  0.3292
  588TMC3    C5 8770   0.630   2.606  10.077  0.1790  0.0690  0.1011
  588TMC3    C6 8771   0.607   2.473  10.058  0.2241  0.6611  0.4649
  588TMC3     C 8772   0.293   2.760  10.019 -0.2508  0.8057 -0.3454
  588TMC3     O 8773   0.176   2.728  10.029  0.4093 -0.3739  0.2580
  588TMC3     H 8774   0.274   2.494   9.983  0.9713 -2.8987 -1.1517
  588TMC3    H1 8775   0.548   2.806  10.092 -1.5116  1.1342 -2.5492
  588TMC3    H2 8776   0.686   2.399  10.070  0.7342  1.0267 -0.7103
  588TMC3    C7 8777   0.755   2.652  10.135 -0.3580 -0.1572 -0.5101
  588TMC3    C8 8778   0.430   2.304  10.010  0.4158 -0.2680  0.4987
  588TMC3    O1 8779   0.823   2.569  10.195  0.2339 -0.3508  0.2506
  588TMC3    O2 8780   0.349   2.279   9.920  0.7594  0.0680  0.1478
  589TMC3    C1 8781   3.958   3.735   0.886 -0.2208 -0.6075  0.1347
  589TMC3    C2 8782   4.096   3.721   0.924 -0.0220  0.7410  0.0649
  589TMC3    C3 8783   4.173   3.637   0.850 -0.0763  0.0308 -0.3731
  589TMC3    C4 8784   3.907   3.671   0.777 -0.2799  0.0405  0.7063
  589TMC3    C5 8785   3.997   3.607   0.692  0.0207  0.1491  0.2541
  589TMC3    C6 8786   4.130   3.592   0.726 -0.5306 -0.5903 -0.6213
  589TMC3     C 8787   3.857   3.796   0.976  0.5361 -0.7372  0.5535
  589TMC3     O 8788   3.737   3.787   0.943  0.0947 -0.0924 -0.3576
  589TMC3     H 8789   4.137   3.754   1.019  1.6685  0.1465 -0.4431
  589TMC3    H1 8790   3.801   3.654   0.766 -0.3451 -0.5374  2.2311
  589TMC3    H2 8791   4.200   3.523   0.679 -0.0132  1.3458 -2.6703
  589TMC3    C7 8792   3.939   3.498   0.617  0.2128 -0.0552 -0.4669
  589TMC3    C8 8793   4.265   3.552   0.926  0.1746  0.8198 -0.0459
  589TMC3    O1 8794   3.833   3.447   0.655 -0.2264 -0.4390  0.5574
  589TMC3    O2 8795   4.258   3.575   1.046 -0.0817 -0.1602 -0.6730
  590MPD2     C 8796   3.545   2.052  16.520  0.3390 -0.7538  0.3095
  590MPD2    C1 8797   3.473   2.132  16.433 -0.5857  0.2941 -0.5662
  590MPD2    C2 8798   3.516   2.265  16.408 -0.0088 -0.6429 -0.8198
  590MPD2    C3 8799   3.620   2.316  16.490 -0.5895  0.1624  0.3359
  590MPD2    C4 8800   3.687   2.232  16.578 -0.3124  0.4532  0.3034
  590MPD2    C5 8801   3.657   2.103  16.586  0.6071  0.2867 -0.3565
  590MPD2     H 8802   3.473   2.325  16.328  0.2022 -1.2323 -1.3709
  590MPD2    H1 8803   3.771   2.266  16.637 -0.4960  1.0761  0.2159
  590MPD2    H2 8804   3.513   1.950  16.538  0.1284 -0.6416  0.5853
  590MPD2    H3 8805   3.714   2.043  16.656  2.0865  0.2983 -1.5451
  590MPD2     N 8806   3.652   2.455  16.471 -0.0253 -0.3979 -0.4329
  590MPD2    H5 8807   3.589   2.510  16.414  0.7659  1.3926  0.4051
  590MPD2    N1 8808   3.371   2.070  16.358  0.1584 -0.0983 -0.4985
  590MPD2    H7 8809   3.348   1.972  16.371 -0.5542  0.0772 -0.4363
  591TMC3    C1 8810   3.800   2.628  16.439 -0.3624  0.4086  0.2717
  591TMC3    C2 8811   3.902   2.606  16.346  0.2898 -0.0451 -0.0034
  591TMC3    C3 8812   3.898   2.686  16.232 -0.3282  0.4050 -0.0363
  591TMC3    C4 8813   3.711   2.730  16.426 -0.2953 -0.0298 -0.3339
  591TMC3    C5 8814   3.727   2.821  16.329 -0.0596 -0.7019 -0.4411
  591TMC3    C6 8815   3.821   2.801  16.233 -0.5449  0.8025 -0.0971
  591TMC3     C 8816   3.770   2.515  16.521  0.5140 -0.0881 -0.9444
  591TMC3     O 8817   3.866   2.450  16.566  0.6728 -1.0092  0.3588
  591TMC3     H 8818   3.978   2.529  16.348 -0.4426 -0.7979 -0.7604
  591TMC3    H1 8819   3.634   2.749  16.500 -0.3842 -1.5042 -0.0636
  591TMC3    H2 8820   3.849   2.873  16.157 -1.3440 -0.3181 -1.4252
  591TMC3    C7 8821   3.629   2.924  16.303 -0.9105  0.3616 -0.3065
  591TMC3    C8 8822   3.925   2.618  16.102 -0.6939 -0.3564 -0.4435
  591TMC3    O1 8823   3.535   2.928  16.380 -0.0899  0.0004  0.8937
  591TMC3    O2 8824   3.972   2.508  16.109  0.5635  0.4037 -0.1939
  592MPD2     C 8825   3.867   0.266  12.192 -0.5813 -1.1495 -0.1184
  592MPD2    C1 8826   3.876   0.322  12.315 -0.2511 -0.3087 -0.0276
  592MPD2    C2 8827   3.830   0.244  12.424  0.5218 -0.3911  0.5226
  592MPD2    C3 8828   3.771   0.115  12.416 -0.1513  0.2677  0.1879
  592MPD2    C4 8829   3.769   0.063  12.292 -0.2544 -0.2884  0.1243
  592MPD2    C5 8830   3.820   0.133  12.182 -0.0034  0.0257  0.5314
  592MPD2     H 8831   3.844   0.273  12.528  2.0132  1.3041 -0.1676
  592MPD2    H1 8832   3.742   4.698  12.276  0.3007 -0.3760 -0.2450
  592MPD2    H2 8833   3.909   0.307  12.101  1.0289 -0.3525  0.9939
  592MPD2    H3 8834   3.832   0.076  12.090  0.5898 -0.6791  1.0485
  592MPD2     N 8835   3.709   0.045  12.529  0.0222 -0.1789 -0.1987
  592MPD2    H5 8836   3.689   0.100  12.612 -0.9267 -0.9654  0.1035
  592MPD2    N1 8837   3.925   0.457  12.322  0.0355 -1.0919 -0.1576
  592MPD2    H7 8838   3.954   0.505  12.238  1.3105 -0.1329  0.8375
  593TMC3    C1 8839   4.021   0.643  12.427 -0.3234 -0.2843  0.1454
  593TMC3    C2 8840   4.013   0.735  12.535  0.3732  0.6504 -0.5507
  593TMC3    C3 8841   4.104   0.831  12.545  0.2672  0.7425  0.1314
  593TMC3    C4 8842   4.120   0.647  12.332  0.2040  0.2025  0.5914
  593TMC3    C5 8843   4.208   0.751  12.347  0.0851 -0.3265  0.3509
  593TMC3    C6 8844   4.212   0.832  12.455 -0.4322  0.6465  0.5321
  593TMC3     C 8845   3.936   0.523  12.442 -0.1293 -0.3248  0.0003
  593TMC3     O 8846   3.911   0.493  12.560  0.4647  0.4257  0.1615
  593TMC3     H 8847   3.939   0.713  12.610  0.8123 -1.8230 -0.8419
  593TMC3    H1 8848   4.122   0.575  12.250 -0.4077  0.1859  0.5904
  593TMC3    H2 8849   4.291   0.905  12.450  0.2066 -0.2017 -1.9922
  593TMC3    C7 8850   4.255   0.814  12.222 -0.1421 -0.0704  0.4658
  593TMC3    C8 8851   4.029   0.954  12.560 -0.0184 -0.0773  0.0680
  593TMC3    O1 8852   4.327   0.913  12.248  0.3290  0.2930  0.4324
  593TMC3    O2 8853   3.909   0.953  12.536 -0.0666  0.8373 -0.4627
  594MPD2     C 8854   2.829   2.998  15.141 -0.1735 -0.3088  0.0020
  594MPD2    C1 8855   2.753   3.105  15.090 -0.2032  0.3229 -0.0371
  594MPD2    C2 8856   2.824   3.208  15.017  0.2988  0.1088 -0.2864
  594MPD2    C3 8857   2.956   3.196  14.996  0.4943 -0.4309  0.2640
  594MPD2    C4 8858   3.030   3.093  15.060  0.4068 -0.3506  0.2775
  594MPD2    C5 8859   2.965   3.002  15.140 -0.5690 -0.7255  0.7210
  594MPD2     H 8860   2.766   3.278  14.958  0.2019  0.5972  0.3812
  594MPD2    H1 8861   3.138   3.084  15.052  0.5559  1.5190  0.2453
  594MPD2    H2 8862   2.774   2.923  15.197  1.2795 -0.4483  1.2667
  594MPD2    H3 8863   3.029   2.925  15.181 -2.6221 -2.1911  1.1617
  594MPD2     N 8864   3.023   3.291  14.916 -0.0232 -0.1494  0.0722
  594MPD2    H5 8865   2.960   3.348  14.861  1.7147  2.0375  0.3608
  594MPD2    N1 8866   2.608   3.103  15.107 -0.4493 -0.4504 -0.5453
  594MPD2    H7 8867   2.567   3.026  15.158 -0.5987 -0.7587 -1.1279
  595TMC3    C1 8868   3.312   3.401  14.562  0.5850 -0.2504  0.7404
  595TMC3    C2 8869   3.291   3.345  14.684 -0.3976 -0.6810 -0.1106
  595TMC3    C3 8870   3.171   3.360  14.750 -0.2031  0.3724  0.7042
  595TMC3    C4 8871   3.218   3.486  14.510 -0.0742  0.1779 -0.1319
  595TMC3    C5 8872   3.103   3.518  14.581  0.5609  0.1417 -0.4961
  595TMC3    C6 8873   3.081   3.446  14.698 -0.3604  0.2626  0.9230
  595TMC3     C 8874   3.441   3.450  14.532 -0.0243  0.1507  0.0163
  595TMC3     O 8875   3.508   3.482  14.627  0.1181  0.5160  0.2290
  595TMC3     H 8876   3.368   3.285  14.730  0.1429 -1.3633 -1.9402
  595TMC3    H1 8877   3.236   3.542  14.420 -0.1649  1.9474  0.9546
  595TMC3    H2 8878   3.000   3.464  14.768 -1.4655  0.1437 -0.3230
  595TMC3    C7 8879   3.019   3.635  14.572  0.0607  0.4885 -0.3742
  595TMC3    C8 8880   3.148   3.275  14.857  0.3258 -0.3691 -0.3041
  595TMC3    O1 8881   2.919   3.630  14.642  0.1872 -0.3504  0.1575
  595TMC3    O2 8882   3.234   3.194  14.887  0.7207  0.3110 -0.3456
  596MPD2     C 8883   2.009   1.572  16.659 -0.1136 -0.6360  0.0961
  596MPD2    C1 8884   1.914   1.589  16.558 -0.0452  0.0584 -0.0413
  596MPD2    C2 8885   1.946   1.556  16.430 -1.0197  0.5761  0.4035
  596MPD2    C3 8886   2.076   1.525  16.404 -0.2585 -0.2175  0.2377
  596MPD2    C4 8887   2.166   1.492  16.503  0.1876 -0.3206  0.1673
  596MPD2    C5 8888   2.131   1.526  16.631 -0.0014 -0.1394 -0.3511
  596MPD2     H 8889   1.869   1.563  16.355 -2.1236  2.9307  1.7645
  596MPD2    H1 8890   2.264   1.461  16.469  0.0727 -1.1301  0.5651
  596MPD2    H2 8891   1.987   1.602  16.761  0.1721 -3.5496  1.0451
  596MPD2    H3 8892   2.196   1.516  16.716 -0.4494 -0.7437 -0.0804
  596MPD2     N 8893   2.110   1.498  16.263  0.0050 -0.4970 -0.2755
  596MPD2    H5 8894   2.176   1.426  16.236 -0.4242 -1.2895  0.7674
  596MPD2    N1 8895   1.789   1.640  16.587  0.3671  0.3158  0.1037
  596MPD2    H7 8896   1.726   1.663  16.511 -1.4770  1.0498  1.8741
  597TMC3    C1 8897   1.620   1.740  16.705 -0.2402  0.1429  0.1696
  597TMC3    C2 8898   1.608   1.826  16.600  0.0151  0.1990 -0.4124
  597TMC3    C3 8899   1.483   1.881  16.577  0.5149  0.3391  0.5149
  597TMC3    C4 8900   1.516   1.713  16.794 -0.8783 -0.4574 -0.4827
  597TMC3    C5 8901   1.394   1.785  16.769 -0.4228  0.5419 -0.1796
  597TMC3    C6 8902   1.377   1.867  16.659  0.3681 -0.6805  0.1013
  597TMC3     C 8903   1.735   1.654  16.712  0.0300  0.1648 -0.5977
  597TMC3     O 8904   1.763   1.601  16.816 -0.2982 -0.3804  0.0499
  597TMC3     H 8905   1.686   1.861  16.534  1.8216 -3.2616 -0.0839
  597TMC3    H1 8906   1.532   1.649  16.880  0.0221 -0.9673 -1.0407
  597TMC3    H2 8907   1.289   1.928  16.646  0.7346  0.2517  1.9051
  597TMC3    C7 8908   1.298   1.791  16.874 -0.1564 -0.5216 -0.3151
  597TMC3    C8 8909   1.480   2.007  16.492  0.7388  0.0143  0.5494
  597TMC3    O1 8910   1.318   1.728  16.976  0.0858  0.1878 -0.0622
  597TMC3    O2 8911   1.584   2.066  16.478 -0.3069  0.1260  0.4465
  598TMC3    C1 8912   0.065   3.155  15.464  0.2175  0.1535  0.2757
  598TMC3    C2 8913   4.711   3.052  15.436 -0.3793  0.4441  0.0169
  598TMC3    C3 8914   4.680   3.035  15.299 -0.3209 -0.2894 -0.1674
  598TMC3    C4 8915   0.128   3.239  15.374  0.7030 -0.2479  0.1543
  598TMC3    C5 8916   0.082   3.220  15.244  0.0158  0.3527 -0.6455
  598TMC3    C6 8917   4.737   3.112  15.199  0.1845 -0.8010 -0.2741
  598TMC3     C 8918   0.096   3.192  15.598  0.3303 -0.0903  0.3238
  598TMC3     O 8919   0.179   3.281  15.606 -0.2110 -0.1919  0.0664
  598TMC3     H 8920   4.663   2.992  15.514  0.6692 -0.2607  0.1176
  598TMC3    H1 8921   0.192   3.324  15.397 -0.9832  0.9794  0.2832
  598TMC3    H2 8922   4.681   3.110  15.106 -1.7799 -2.0723  0.9356
  598TMC3    C7 8923   0.138   3.300  15.140 -0.3377 -0.6768  0.0144
  598TMC3    C8 8924   4.589   2.933  15.257 -0.3608  0.5572  0.4175
  598TMC3    O1 8925   0.181   3.407  15.175  0.0655 -0.5816 -0.4360
  598TMC3    O2 8926   4.548   2.945  15.143 -0.2494  0.1840  0.3830
  599MPD2     C 8927   0.181   0.751  15.604 -0.0917  0.2442 -0.3306
  599MPD2    C1 8928   0.140   0.619  15.604 -0.2116 -0.2663  0.0225
  599MPD2    C2 8929   0.030   0.575  15.683  0.3496  0.6295  0.3826
  599MPD2    C3 8930   4.700   0.665  15.761  0.3600  0.1750  0.5252
  599MPD2    C4 8931   0.005   0.797  15.765 -0.3334  0.3157 -0.0444
  599MPD2    C5 8932   0.113   0.832  15.691  1.1736  0.1569 -1.2376
  599MPD2     H 8933   0.001   0.470  15.691 -2.3838  1.1867 -2.6310
  599MPD2    H1 8934   4.690   0.867  15.828  0.1068  0.0696  0.6097
  599MPD2    H2 8935   0.259   0.793  15.542 -1.3643 -1.5522 -3.1296
  599MPD2    H3 8936   0.146   0.935  15.698 -0.7063  0.5869  1.4851
  599MPD2     N 8937   4.595   0.642  15.857  0.0058 -0.4511 -0.2206
  599MPD2    H5 8938   4.566   0.717  15.917  0.2511 -1.8353  1.6194
  599MPD2    N1 8939   0.224   0.533  15.540 -0.4283  0.0655  0.3622
  599MPD2    H7 8940   0.310   0.574  15.504  1.0699 -0.5851  3.1614
  600TMC3    C1 8941   4.440   0.509  15.981 -0.7257  0.1778  0.1785
  600TMC3    C2 8942   4.427   0.384  16.037  0.9020  0.0653 -0.7910
  600TMC3    C3 8943   4.404   0.374  16.177  0.1991 -0.6402 -0.9104
  600TMC3    C4 8944   4.432   0.620  16.055  0.0323  0.1085 -0.3142
  600TMC3    C5 8945   4.423   0.607  16.189 -0.2098  0.4482  0.5512
  600TMC3    C6 8946   4.399   0.487  16.253  0.2097 -0.4435  0.1958
  600TMC3     C 8947   4.539   0.513  15.870  0.1035  0.2142  0.0989
  600TMC3     O 8948   4.561   0.405  15.817  0.2240  0.2952  0.2078
  600TMC3     H 8949   4.459   0.298  15.978 -1.5673 -0.6809 -1.0653
  600TMC3    H1 8950   4.421   0.720  16.015  1.2625  0.9016  1.2911
  600TMC3    H2 8951   4.369   0.484  16.357 -1.1409 -1.0916 -0.2100
  600TMC3    C7 8952   4.432   0.724  16.274  0.2126 -0.8283 -0.1314
  600TMC3    C8 8953   4.398   0.240  16.240 -0.3691 -0.9391 -0.1154
  600TMC3    O1 8954   4.402   0.833  16.220 -0.1958  0.3808  0.2947
  600TMC3    O2 8955   4.437   0.244  16.359  0.7352 -0.3699 -0.2903
  601MPD2     C 8956   2.234   3.423  17.594 -0.7751 -0.1469 -1.0213
  601MPD2    C1 8957   2.124   3.374  17.522  0.0614 -0.2384 -0.0687
  601MPD2    C2 8958   2.043   3.283  17.587 -0.2233 -0.5630 -0.4730
  601MPD2    C3 8959   2.062   3.238  17.709 -0.5309  0.2238 -0.9642
  601MPD2    C4 8960   2.175   3.276   0.021  0.1792 -0.7262  0.4783
  601MPD2    C5 8961   2.258   3.372  17.714 -0.4931  0.2926 -0.2279
  601MPD2     H 8962   1.957   3.237  17.539  1.2947 -3.0520 -0.7989
  601MPD2    H1 8963   2.194   3.237   0.121 -2.2653 -2.0833  0.4201
  601MPD2    H2 8964   2.297   3.506  17.563 -0.1142  0.9560  3.2672
  601MPD2    H3 8965   2.336   3.416   0.023 -1.2826  0.9638  0.3038
  601MPD2     N 8966   1.982   3.140   0.035 -0.1253 -0.5613 -0.3333
  601MPD2    H5 8967   2.006   3.121   0.131 -0.3279  0.2212 -0.1302
  601MPD2    N1 8968   2.085   3.430  17.401  0.1483 -0.0112  0.4259
  601MPD2    H7 8969   1.992   3.416  17.362  0.8957 -0.0521 -1.3476
  602TMC3    C1 8970   2.120   3.532  17.184  0.4276 -0.1259 -0.0620
  602TMC3    C2 8971   2.221   3.570  17.089 -0.2315  0.6617  0.1931
  602TMC3    C3 8972   2.185   3.679  17.012  0.7385  0.8751  0.6073
  602TMC3    C4 8973   1.991   3.580  17.181 -0.1754 -0.2679 -0.6900
  602TMC3    C5 8974   1.959   3.668  17.082 -0.1835  0.6866  0.4069
  602TMC3    C6 8975   2.056   3.724  16.998  0.1804  0.0389 -0.4795
  602TMC3     C 8976   2.179   3.489  17.315  0.5044 -0.2284 -0.2065
  602TMC3     O 8977   2.301   3.494  17.328  0.5154 -0.6285 -0.3617
  602TMC3     H 8978   2.321   3.529  17.101 -0.4934  0.8494  3.0372
  602TMC3    H1 8979   1.912   3.537  17.241  0.2920  0.3259  0.3493
  602TMC3    H2 8980   2.023   3.793  16.921  2.3527  1.6169 -0.0149
  602TMC3    C7 8981   1.831   3.742  17.112  0.4835 -0.8180  0.7893
  602TMC3    C8 8982   2.285   3.757  16.950  0.2726 -0.6247  0.1686
  602TMC3    O1 8983   1.738   3.683  17.169  0.2118 -0.1509 -0.3731
  602TMC3    O2 8984   2.393   3.706  16.922 -0.0671  0.2789 -0.4204
  603TMC3    C1 8985   4.349   0.310  11.273  0.9400 -1.0115 -0.1971
  603TMC3    C2 8986   4.398   0.305  11.402 -0.9407 -0.2953 -0.7797
  603TMC3    C3 8987   4.522   0.337  11.429  0.4017  0.4820  0.3141
  603TMC3    C4 8988   4.418   0.387  11.180 -0.0780  0.0135  0.1314
  603TMC3    C5 8989   4.545   0.439  11.220  0.0740  0.2934 -0.2358
  603TMC3    C6 8990   4.598   0.406  11.339  0.5201 -0.2822 -0.2058
  603TMC3     C 8991   4.215   0.263  11.236  0.0003 -0.6432  0.9399
  603TMC3     O 8992   4.175   0.311  11.129 -0.0033 -0.2366  0.3127
  603TMC3     H 8993   4.337   0.250  11.473 -0.3476 -0.1307 -0.1401
  603TMC3    H1 8994   4.386   0.397  11.077  0.4121  1.5130  0.1339
  603TMC3    H2 8995   4.706   0.410  11.346  0.5938 -1.5775 -0.6441
  603TMC3    C7 8996   4.621   0.530  11.137 -0.3673  0.5597 -0.1408
  603TMC3    C8 8997   4.588   0.275  11.547 -0.2126  0.6559  0.0842
  603TMC3    O1 8998   4.716   0.587  11.195 -0.2583 -0.2411  0.3555
  603TMC3    O2 8999   4.533   0.182  11.599 -0.1487 -0.4381  0.0820
  604MPD2     C 9000   0.795   2.357  16.144  0.4863 -0.6552  0.3303
  604MPD2    C1 9001   0.830   2.488  16.135  0.4484  0.3710 -0.1010
  604MPD2    C2 9002   0.881   2.530  16.011 -0.0504 -1.0529  0.5626
  604MPD2    C3 9003   0.892   2.442  15.907 -0.0457 -0.5771 -0.4221
  604MPD2    C4 9004   0.858   2.307  15.925 -0.0753 -0.1705 -0.0094
  604MPD2    C5 9005   0.805   2.265  16.044  0.8676  0.3631 -0.4407
  604MPD2     H 9006   0.898   2.635  15.989 -1.4311 -1.1406 -0.9104
  604MPD2    H1 9007   0.866   2.237  15.843  1.0013  1.6949 -1.4987
  604MPD2    H2 9008   0.770   2.323  16.243 -1.4798  0.8787  0.3473
  604MPD2    H3 9009   0.779   2.160  16.052 -0.2965  0.7902  1.3703
  604MPD2     N 9010   0.944   2.483  15.780  0.1521  0.1215  0.0348
  604MPD2    H5 9011   0.956   2.583  15.776 -2.3989  0.5046  1.8217
  604MPD2    N1 9012   0.807   2.569  16.250  0.1065 -0.5352  0.1498
  604MPD2    H7 9013   0.759   2.533  16.332 -1.3077 -0.5154 -0.6676
  605TMC3    C1 9014   0.841   2.766  16.383 -0.1350 -0.4292 -0.1125
  605TMC3    C2 9015   0.942   2.837  16.439 -0.3662  0.4751  0.5157
  605TMC3    C3 9016   0.909   2.922  16.542  0.7228  0.2050  0.7310
  605TMC3    C4 9017   0.712   2.775  16.424 -0.3411  0.3655 -0.1577
  605TMC3    C5 9018   0.681   2.856  16.525 -0.0314 -0.7918 -0.2318
  605TMC3    C6 9019   0.781   2.932  16.584  0.4035  0.0454 -0.0897
  605TMC3     C 9020   0.868   2.689  16.262 -0.1189  0.5887 -0.6135
  605TMC3     O 9021   0.971   2.723  16.201  0.1065  0.1132  0.0293
  605TMC3     H 9022   1.035   2.866  16.391  0.0563 -2.8149 -0.6841
  605TMC3    H1 9023   0.633   2.756  16.352 -0.7030  0.2548  0.2738
  605TMC3    H2 9024   0.746   3.001  16.660  2.6406 -0.3955  1.3673
  605TMC3    C7 9025   0.547   2.892  16.549 -0.2395 -0.3046 -0.2034
  605TMC3    C8 9026   0.977   3.045  16.568 -0.1523  0.5315  0.0906
  605TMC3    O1 9027   0.531   3.007  16.591 -0.1550 -0.5355  0.2067
  605TMC3    O2 9028   0.910   3.148  16.573  0.2329 -0.1015 -1.2205
  606TMC3    C1 9029   2.178   1.049  17.252 -0.1856  0.3805 -0.2395
  606TMC3    C2 9030   2.229   1.139  17.342 -1.1511 -0.0601  0.1109
  606TMC3    C3 9031   2.217   1.093  17.475  0.7853 -0.7418  0.0424
  606TMC3    C4 9032   2.134   0.923  17.279  0.0541 -0.7426 -0.4897
  606TMC3    C5 9033   2.140   0.884  17.407  0.3383  0.1004  0.3035
  606TMC3    C6 9034   2.175   0.967  17.513  0.0196 -0.1671 -0.1172
  606TMC3     C 9035   2.166   1.080  17.113  0.3199  0.6382  0.0717
  606TMC3     O 9036   2.065   1.040  17.056 -0.5043  0.3999  0.0294
  606TMC3     H 9037   2.263   1.238  17.314  1.3162 -1.0809 -0.4092
  606TMC3    H1 9038   2.098   0.858  17.200 -2.0379 -1.3697  0.9820
  606TMC3    H2 9039   2.166   0.938  17.617  1.0958  0.1477  0.0628
  606TMC3    C7 9040   2.064   0.761  17.450  0.4388  0.1872  1.3463
  606TMC3    C8 9041   2.219   1.193  17.579  0.2128 -0.8231  0.1704
  606TMC3    O1 9042   2.106   0.705  17.552 -0.0376 -0.1266  0.3645
  606TMC3    O2 9043   2.278   1.300  17.558  0.8021  0.1151  0.3148
  607MPD2     C 9044   4.019   4.738  11.760  0.5939  0.5977  0.2683
  607MPD2    C1 9045   4.101   0.028  11.865  0.0726 -0.5063  0.3239
  607MPD2    C2 9046   4.110   4.678  11.968 -0.4789 -0.2573  0.3734
  607MPD2    C3 9047   4.042   4.563  11.973  0.4534  0.1838 -0.2218
  607MPD2    C4 9048   3.964   4.526  11.864 -0.0476  0.0861  0.2360
  607MPD2    C5 9049   3.956   4.614  11.756 -0.0401 -0.0857  0.1055
  607MPD2     H 9050   4.165   4.707  12.058 -1.5362  0.1804  0.8748
  607MPD2    H1 9051   3.920   4.427  11.862 -0.0298  0.0323  2.1202
  607MPD2    H2 9052   3.989   0.066  11.679  1.5370 -0.6399 -1.1011
  607MPD2    H3 9053   3.884   4.595  11.676  0.4617  0.0445 -0.3796
  607MPD2     N 9054   4.033   4.498  12.096 -0.1566 -0.0326 -0.1164
  607MPD2    H5 9055   4.089   4.526  12.176 -0.3115 -0.1078  0.0184
  607MPD2    N1 9056   4.160   0.155  11.887 -0.4691 -0.0746 -0.0600
  607MPD2    H7 9057   4.223   0.163  11.966  0.5785  1.6790 -1.0431
  608TMC3    C1 9058   4.269   0.365  11.851 -0.3357 -0.1672  0.5992
  608TMC3    C2 9059   4.266   0.370  11.992 -0.2877  0.0588 -0.2615
  608TMC3    C3 9060   4.364   0.451  12.038  0.5026 -0.1553  0.3533
  608TMC3    C4 9061   4.350   0.435  11.767  0.1235  0.0454  0.7886
  608TMC3    C5 9062   4.450   0.511  11.825  0.2032  0.5341 -1.3468
  608TMC3    C6 9063   4.452   0.530  11.961  0.3120  0.0507 -0.4733
  608TMC3     C 9064   4.185   0.258  11.798  0.2145 -0.5466 -0.2206
  608TMC3     O 9065   4.178   0.250  11.676  0.1240  0.0262 -0.4977
  608TMC3     H 9066   4.193   0.326  12.059  0.7451 -0.0162  0.8401
  608TMC3    H1 9067   4.350   0.429  11.659 -0.6587  1.8383  0.6732
  608TMC3    H2 9068   4.534   0.587  12.005  0.7659 -1.4425  0.6063
  608TMC3    C7 9069   4.537   0.585  11.738 -0.1940  1.0951  0.1268
  608TMC3    C8 9070   4.391   0.453  12.183  0.3778 -0.1735  0.6663
  608TMC3    O1 9071   4.501   0.585  11.619 -0.2212 -0.4672  0.1260
  608TMC3    O2 9072   4.410   0.561  12.240  0.6879 -0.5585  0.4220
  609TMC3    C1 9073   2.895   0.066   9.738  0.5139 -0.4855 -0.0355
  609TMC3    C2 9074   2.965   0.181   9.766 -0.2060 -0.7497 -0.0359
  609TMC3    C3 9075   3.096   0.181   9.733 -0.3257 -1.0386 -1.2124
  609TMC3    C4 9076   2.947   4.692   9.675 -0.7886 -0.1955 -0.3212
  609TMC3    C5 9077   3.079   4.706   9.635  0.3505  0.0302  0.5072
  609TMC3    C6 9078   3.150   0.084   9.659  0.2819 -0.5473  0.0891
  609TMC3     C 9079   2.763   0.051   9.810 -0.0697  0.6932  0.3858
  609TMC3     O 9080   2.716   4.677   9.828  0.5855 -0.2883  0.0087
  609TMC3     H 9081   2.922   0.266   9.817  3.6615  0.9901  0.3478
  609TMC3    H1 9082   2.901   4.597   9.654  1.4159 -0.9603 -1.7588
  609TMC3    H2 9083   3.256   0.102   9.649 -0.3882  2.6559 -1.4533
  609TMC3    C7 9084   3.159   4.589   9.592 -0.2251  0.2384  0.0346
  609TMC3    C8 9085   3.141   0.315   9.725 -0.6503  0.0478 -0.0117
  609TMC3    O1 9086   3.271   4.575   9.641 -0.3880 -0.2789  0.1213
  609TMC3    O2 9087   3.129   0.386   9.821  0.4790  0.0884 -0.3166
  610TMC3    C1 9088   4.318   4.482  12.919 -0.2720  0.0843  0.2301
  610TMC3    C2 9089   4.343   4.577  12.828  0.1335  0.2877  0.0340
  610TMC3    C3 9090   4.457   4.560  12.751  0.2772  0.2384 -0.6983
  610TMC3    C4 9091   4.408   4.388  12.955 -0.2815 -0.2700  0.3313
  610TMC3    C5 9092   4.511   4.371  12.870  0.3708  0.5927 -0.1195
  610TMC3    C6 9093   4.540   4.452  12.764  0.3786 -0.0543  0.1886
  610TMC3     C 9094   4.186   4.478  12.976 -0.3126 -0.2307 -0.3583
  610TMC3     O 9095   4.103   4.551  12.919  0.3351 -0.6610 -0.1862
  610TMC3     H 9096   4.267   4.653  12.817  1.3801  1.2618 -1.8932
  610TMC3    H1 9097   4.386   4.309  13.026  1.0863 -0.7103  0.2626
  610TMC3    H2 9098   4.634   4.438  12.711 -0.2669  1.0849 -1.2510
  610TMC3    C7 9099   4.591   4.249  12.891  0.6240  0.4781 -0.1277
  610TMC3    C8 9100   4.482   4.650  12.641 -0.4880  0.1091  0.2181
  610TMC3    O1 9101   4.579   4.189  12.998 -0.3299  0.0423  0.5074
  610TMC3    O2 9102   4.408   0.011  12.647  0.3575 -0.0408 -0.6894
  611MPD2     C 9103   3.574   0.512  10.285  0.1818  0.1026  0.7017
  611MPD2    C1 9104   3.668   0.420  10.315  0.2850  0.3214 -0.0277
  611MPD2    C2 9105   3.803   0.454  10.326 -0.2995 -0.1718  0.2294
  611MPD2    C3 9106   3.842   0.585  10.298  0.5951 -0.2189 -0.5414
  611MPD2    C4 9107   3.748   0.676  10.265 -0.5754  0.1646 -0.6560
  611MPD2    C5 9108   3.615   0.641  10.256 -0.2324 -0.5415  0.5954
  611MPD2     H 9109   3.881   0.384  10.354  1.5379  1.6493 -0.3480
  611MPD2    H1 9110   3.773   0.778  10.238 -1.1826  0.0437 -1.6942
  611MPD2    H2 9111   3.469   0.490  10.271 -0.2481  1.7619  1.2525
  611MPD2    H3 9112   3.538   0.716  10.237  1.4797  0.7364 -1.3567
  611MPD2     N 9113   3.979   0.623  10.293 -0.6991 -1.1857 -0.2981
  611MPD2    H5 9114   3.993   0.713  10.249  1.5051 -0.7578  1.2518
  611MPD2    N1 9115   3.615   0.294  10.346  0.0874  0.7055  0.3180
  611MPD2    H7 9116   3.514   0.293  10.347  0.1022 -0.6721  0.0109
  612TMC3    C1 9117   4.211   0.614  10.289  0.0364  0.1389 -0.2937
  612TMC3    C2 9118   4.322   0.608  10.372 -0.1292 -0.0801 -0.1112
  612TMC3    C3 9119   4.439   0.667  10.327  0.1370  0.3040 -0.1412
  612TMC3    C4 9120   4.220   0.684  10.170 -0.6403 -0.3889 -0.3159
  612TMC3    C5 9121   4.341   0.740  10.133  0.0735  0.2095 -0.0924
  612TMC3    C6 9122   4.455   0.736  10.211 -0.2194 -0.1407  0.5036
  612TMC3     C 9123   4.087   0.544  10.332 -1.0282 -0.6468  0.3955
  612TMC3     O 9124   4.102   0.433  10.389 -0.2355  0.7010  0.6829
  612TMC3     H 9125   4.312   0.569  10.472  0.8985  3.7628  1.4970
  612TMC3    H1 9126   4.134   0.680  10.103 -0.5441 -1.0614 -0.3962
  612TMC3    H2 9127   4.547   0.789  10.190 -0.6227  1.3948  2.6403
  612TMC3    C7 9128   4.328   0.847  10.038  0.4444 -0.2250 -0.6049
  612TMC3    C8 9129   4.543   0.694  10.425  0.1018  0.4509 -0.1198
  612TMC3    O1 9130   4.236   0.839   9.957  0.4535 -0.0860  0.4326
  612TMC3    O2 9131   4.609   0.793  10.405 -0.5395  0.4791 -0.1540
  613MPD2     C 9132   3.727   1.427  15.708 -0.1068  0.3811 -0.4636
  613MPD2    C1 9133   3.596   1.460  15.713  0.2530  0.5706 -0.3463
  613MPD2    C2 9134   3.500   1.377  15.654 -0.7596  0.1283 -0.5523
  613MPD2    C3 9135   3.547   1.259  15.599  0.2071  0.2862 -0.1651
  613MPD2    C4 9136   3.682   1.223  15.609 -0.0388 -0.5012 -0.6844
  613MPD2    C5 9137   3.773   1.311  15.661 -0.4824  0.6528 -0.0130
  613MPD2     H 9138   3.398   1.409  15.635 -0.2974  1.6362 -0.4696
  613MPD2    H1 9139   3.714   1.123  15.579 -0.6574 -0.5406 -1.2164
  613MPD2    H2 9140   3.799   1.500  15.742  0.5696 -0.7862  0.6042
  613MPD2    H3 9141   3.879   1.292  15.650 -0.4460  1.9912 -2.0067
  613MPD2     N 9142   3.458   1.177  15.524 -0.6629  0.3576 -1.0879
  613MPD2    H5 9143   3.494   1.096  15.474 -0.1977 -0.8066  1.1331
  613MPD2    N1 9144   3.573   1.593  15.747  0.1953 -0.3500  0.8418
  613MPD2    H7 9145   3.653   1.651  15.769 -0.1550  0.4308  0.0240
  614TMC3    C1 9146   3.472   1.789  15.686  0.2433 -0.4245  0.2541
  614TMC3    C2 9147   3.539   1.780  15.561 -0.3923 -0.4276  0.7720
  614TMC3    C3 9148   3.478   1.832  15.448  0.4494 -0.1760 -0.6018
  614TMC3    C4 9149   3.351   1.857  15.684  0.3165  0.2539 -0.3411
  614TMC3    C5 9150   3.293   1.913  15.572 -0.1374 -0.1064 -0.5732
  614TMC3    C6 9151   3.353   1.893  15.449  0.9819  0.1774  0.3089
  614TMC3     C 9152   3.449   1.660  15.738 -0.1450 -0.2554  0.0136
  614TMC3     O 9153   3.336   1.615  15.725 -0.8072  1.0025 -0.5320
  614TMC3     H 9154   3.642   1.747  15.551  0.1889  1.3534  0.8126
  614TMC3    H1 9155   3.298   1.854  15.778  1.3238  0.2077  0.2285
  614TMC3    H2 9156   3.319   1.950  15.363  0.2290  1.0591  1.1788
  614TMC3    C7 9157   3.162   1.969  15.574  0.2053  0.7267  0.1971
  614TMC3    C8 9158   3.520   1.769  15.328  0.0054  0.4834  0.6999
  614TMC3    O1 9159   3.122   2.026  15.675 -0.0051  0.2428 -0.1741
  614TMC3    O2 9160   3.592   1.670  15.327 -0.3683 -0.0915  0.1610
  615MPD2     C 9161   2.205   3.270  16.803 -0.4398 -0.5591 -0.5723
  615MPD2    C1 9162   2.247   3.253  16.669 -0.3377 -0.1134 -0.1767
  615MPD2    C2 9163   2.188   3.331  16.569  0.3263 -0.2614 -0.1874
  615MPD2    C3 9164   2.101   3.433  16.605  0.5596 -0.1704  0.2269
  615MPD2    C4 9165   2.065   3.447  16.743 -0.0986 -0.1492  0.2034
  615MPD2    C5 9166   2.117   3.370  16.835 -0.6115  1.1461  0.5747
  615MPD2     H 9167   2.218   3.309  16.467  0.3885  1.3268 -0.5070
  615MPD2    H1 9168   2.015   3.538  16.775  0.2445 -0.9304  2.9014
  615MPD2    H2 9169   2.248   3.222  16.891 -2.0083 -1.0280 -0.0613
  615MPD2    H3 9170   2.111   3.394  16.941  0.0887  0.3328  0.8053
  615MPD2     N 9171   2.035   3.505  16.497  0.8146 -0.4063 -0.1350
  615MPD2    H5 9172   2.069   3.476  16.406 -2.3178 -0.9222 -1.1222
  615MPD2    N1 9173   2.350   3.164  16.627 -0.2439 -0.4958 -0.2354
  615MPD2    H7 9174   2.381   3.165  16.530  1.6845 -0.4587  0.3829
  616TMC3    C1 9175   2.496   2.982  16.630 -0.6980  0.5979 -0.1210
  616TMC3    C2 9176   2.571   3.035  16.533 -0.0365 -0.2917 -0.1237
  616TMC3    C3 9177   2.694   2.989  16.500 -0.1945 -0.3030 -0.5571
  616TMC3    C4 9178   2.545   2.866  16.689 -0.5359 -0.0938  0.0829
  616TMC3    C5 9179   2.664   2.811  16.646 -0.8358 -0.5108 -0.0628
  616TMC3    C6 9180   2.738   2.874  16.549 -0.2360 -0.2546  0.6888
  616TMC3     C 9181   2.405   3.061  16.703 -0.8881  0.0307  0.3264
  616TMC3     O 9182   2.383   3.029  16.816  0.6640 -0.7529  0.5306
  616TMC3     H 9183   2.554   3.137  16.498 -1.4502 -1.1196 -1.8128
  616TMC3    H1 9184   2.489   2.817  16.768 -0.3711 -0.9445 -0.3258
  616TMC3    H2 9185   2.821   2.816  16.512  0.1960  2.5751 -2.7252
  616TMC3    C7 9186   2.702   2.704  16.723 -0.4099 -0.1823 -0.5552
  616TMC3    C8 9187   2.766   3.067  16.402  0.1612 -0.6739 -0.5647
  616TMC3    O1 9188   2.622   2.654  16.798  0.0490 -0.4685 -0.7272
  616TMC3    O2 9189   2.698   3.140  16.331 -0.4924 -0.0846  0.0560
  617MPD2     C 9190   0.821   1.660  13.754 -0.2219 -0.5433 -0.3570
  617MPD2    C1 9191   0.853   1.539  13.809  0.7785  0.0061 -0.0406
  617MPD2    C2 9192   0.762   1.465  13.880  0.9270 -0.2056  0.3470
  617MPD2    C3 9193   0.636   1.513  13.909 -0.2816  0.4395 -0.5587
  617MPD2    C4 9194   0.602   1.630  13.846 -0.2452  0.2463  0.2040
  617MPD2    C5 9195   0.696   1.702  13.774 -0.6049  0.1960  0.6507
  617MPD2     H 9196   0.788   1.362  13.900 -2.0244 -1.4926 -2.3282
  617MPD2    H1 9197   0.507   1.680  13.857  0.0568 -0.0832  4.1221
  617MPD2    H2 9198   0.896   1.717  13.701 -0.4994 -1.0258 -1.2568
  617MPD2    H3 9199   0.669   1.798  13.730 -0.6854 -0.4243 -0.6503
  617MPD2     N 9200   0.533   1.454  13.987 -0.6188 -0.0658  0.3585
  617MPD2    H5 9201   0.443   1.500  14.001  0.0068  0.3222  3.1677
  617MPD2    N1 9202   0.984   1.484  13.786  0.2896 -0.0944 -0.0095
  617MPD2    H7 9203   1.036   1.526  13.709  1.0758  1.1364  1.1846
  618TMC3    C1 9204   1.196   1.385  13.824 -0.1932  0.0915 -0.2548
  618TMC3    C2 9205   1.261   1.275  13.868  0.5659  0.3344 -0.2445
  618TMC3    C3 9206   1.398   1.286  13.869  0.3284  0.4878 -0.7382
  618TMC3    C4 9207   1.257   1.490  13.776 -0.2331  0.1789  0.1581
  618TMC3    C5 9208   1.391   1.500  13.783  0.1201  0.0805 -0.8546
  618TMC3    C6 9209   1.460   1.397  13.836  0.4760 -0.0480 -0.0987
  618TMC3     C 9210   1.052   1.387  13.854 -0.4416 -0.4405 -0.2781
  618TMC3     O 9211   1.017   1.316  13.945 -0.3025  0.1701  0.1071
  618TMC3     H 9212   1.207   1.185  13.895 -0.7786  0.8679 -1.1886
  618TMC3    H1 9213   1.200   1.580  13.752  1.2002  1.2489  0.7911
  618TMC3    H2 9214   1.566   1.389  13.818  0.3992  1.2743 -1.1294
  618TMC3    C7 9215   1.450   1.551  13.656 -0.1702 -0.3034 -0.1151
  618TMC3    C8 9216   1.468   1.157  13.873  0.0202 -0.3452 -0.1725
  618TMC3    O1 9217   1.376   1.557  13.557 -0.2238 -0.2986 -0.2277
  618TMC3    O2 9218   1.401   1.060  13.839 -0.1927  0.4194  0.1975
  619MPD2     C 9219   2.182   2.873  13.572  0.0754 -0.6343 -0.0119
  619MPD2    C1 9220   2.071   2.849  13.500 -0.5834 -0.1854 -0.1196
  619MPD2    C2 9221   1.957   2.813  13.568 -0.3055  1.0930 -0.0534
  619MPD2    C3 9222   1.951   2.809  13.705 -0.4854  0.2475  0.0294
  619MPD2    C4 9223   2.068   2.813  13.776 -0.6512  0.1475 -0.8805
  619MPD2    C5 9224   2.179   2.849  13.706 -0.1542  0.0047  0.1583
  619MPD2     H 9225   1.876   2.809  13.496  0.1338  1.7378 -0.5795
  619MPD2    H1 9226   2.066   2.803  13.884  1.1078 -4.0628 -1.2551
  619MPD2    H2 9227   2.274   2.904  13.525 -1.2637  2.5090 -0.5233
  619MPD2    H3 9228   2.273   2.873  13.754 -1.5199 -2.0806  3.8096
  619MPD2     N 9229   1.830   2.775  13.767  0.1577  0.2263 -0.0629
  619MPD2    H5 9230   1.754   2.740  13.709 -2.1418  1.3966  2.2753
  619MPD2    N1 9231   2.057   2.890  13.366 -0.3013 -0.2610 -0.2333
  619MPD2    H7 9232   1.960   2.884  13.335  0.2339  1.1570 -2.1664
  620TMC3    C1 9233   2.088   3.027  13.177 -0.5197  0.3643  0.0244
  620TMC3    C2 9234   1.950   3.044  13.162 -1.1906 -0.5962 -0.4174
  620TMC3    C3 9235   1.889   3.173  13.162 -0.6282  0.0802  0.3217
  620TMC3    C4 9236   2.172   3.135  13.169  0.3316  0.0255  0.1265
  620TMC3    C5 9237   2.118   3.259  13.160 -0.7775  0.3519  0.0324
  620TMC3    C6 9238   1.980   3.277  13.156  0.1811  0.4003  0.4608
  620TMC3     C 9239   2.150   2.937  13.280 -0.0927 -0.2000 -0.0668
  620TMC3     O 9240   2.269   2.945  13.300 -0.5751  0.1431 -0.1454
  620TMC3     H 9241   1.883   2.963  13.186 -2.9345  0.4585 -1.8052
  620TMC3    H1 9242   2.279   3.123  13.183  1.1247  2.3385 -3.8298
  620TMC3    H2 9243   1.954   3.381  13.165  2.4463  1.0647 -0.7261
  620TMC3    C7 9244   2.202   3.372  13.204 -0.4810  0.0583 -0.5073
  620TMC3    C8 9245   1.771   3.178  13.245 -1.1903  0.3792  0.0015
  620TMC3    O1 9246   2.160   3.482  13.174 -0.2204 -0.7027  0.0275
  620TMC3    O2 9247   1.667   3.135  13.194  0.0168  0.9419 -0.0722
  621MPD2     C 9248   2.437   3.929  10.331  1.0970  0.2539 -0.0787
  621MPD2    C1 9249   2.507   3.848  10.246 -0.1296 -0.8426  0.6118
  621MPD2    C2 9250   2.612   3.898  10.182 -0.4032  0.1169 -0.3855
  621MPD2    C3 9251   2.645   4.023  10.182 -0.1968  0.2082 -0.6355
  621MPD2    C4 9252   2.591   4.104  10.279 -0.0507  0.3491  0.1279
  621MPD2    C5 9253   2.480   4.063  10.343  0.0133  0.2976 -0.1630
  621MPD2     H 9254   2.641   3.832  10.101 -3.1892  0.2984 -1.5225
  621MPD2    H1 9255   2.614   4.209  10.291 -1.4652  0.8417 -1.5373
  621MPD2    H2 9256   2.338   3.895  10.361  0.7614  1.6665  0.4105
  621MPD2    H3 9257   2.424   4.137  10.399  0.3906  0.1783  0.3721
  621MPD2     N 9258   2.745   4.073  10.088 -0.4832 -0.1917 -0.3694
  621MPD2    H5 9259   2.780   4.006  10.020 -3.2928 -1.8250 -0.2236
  621MPD2    N1 9260   2.472   3.711  10.224  0.3361  0.3524 -1.2666
  621MPD2    H7 9261   2.531   3.661  10.158  2.3379  0.5893  0.3439
  622TMC3    C1 9262   2.340   3.513  10.216  0.1888  0.3471 -0.3592
  622TMC3    C2 9263   2.259   3.428  10.288 -0.6002  0.1749  0.0528
  622TMC3    C3 9264   2.219   3.316  10.230  0.9795  0.3061  0.4614
  622TMC3    C4 9265   2.384   3.482  10.089 -0.2450  0.3405  0.2353
  622TMC3    C5 9266   2.341   3.361  10.035 -0.0510 -0.6383 -0.2626
  622TMC3    C6 9267   2.255   3.279  10.105  0.2847 -0.5395  0.4149
  622TMC3     C 9268   2.374   3.640  10.285  0.5302 -0.2750 -0.2497
  622TMC3     O 9269   2.290   3.675  10.368 -0.3856  0.3645 -0.2108
  622TMC3     H 9270   2.233   3.450  10.391  0.5840 -2.5950  0.9254
  622TMC3    H1 9271   2.448   3.548  10.031 -2.6324  0.6580 -2.0298
  622TMC3    H2 9272   2.214   3.190  10.059  0.6608 -0.7798  0.5430
  622TMC3    C7 9273   2.374   3.322   9.900  0.6579  0.6253 -0.0280
  622TMC3    C8 9274   2.090   3.258  10.265 -0.8282 -0.5452  0.0594
  622TMC3    O1 9275   2.392   3.204   9.869 -0.4284 -0.1529  0.1798
  622TMC3    O2 9276   2.048   3.148  10.230 -0.2696 -0.6123  0.0199
  623MPD2     C 9277   1.505   3.304  16.178  0.0988 -0.5724  0.3210
  623MPD2    C1 9278   1.475   3.348  16.305  0.0388  0.4926 -0.0934
  623MPD2    C2 9279   1.562   3.339  16.413 -0.4519 -0.8132 -0.3506
  623MPD2    C3 9280   1.684   3.280  16.401 -0.7245 -1.0082 -0.6298
  623MPD2    C4 9281   1.727   3.238  16.272  0.3877  0.2225  0.6823
  623MPD2    C5 9282   1.635   3.250  16.165  0.0982  0.1359 -0.0287
  623MPD2     H 9283   1.529   3.377  16.509  0.5938  1.0012 -0.6968
  623MPD2    H1 9284   1.826   3.194  16.265  1.0829  2.0920 -1.3691
  623MPD2    H2 9285   1.436   3.307  16.095  0.6002  0.1437 -0.0685
  623MPD2    H3 9286   1.668   3.218  16.067 -1.9891  2.0293 -1.3652
  623MPD2     N 9287   1.755   3.262  16.521  0.3365 -0.1128 -0.1418
  623MPD2    H5 9288   1.695   3.278  16.601  0.5854 -2.2172  0.4827
  623MPD2    N1 9289   1.340   3.389  16.334  0.1155 -0.0024 -0.8220
  623MPD2    H7 9290   1.332   3.453  16.412 -0.5953 -3.1762  1.7166
  624TMC3    C1 9291   1.928   2.942  16.735 -0.0992  0.1393 -0.0818
  624TMC3    C2 9292   1.817   2.949  16.824 -0.3344 -0.0269 -0.6276
  624TMC3    C3 9293   1.746   3.061  16.820  0.4605  0.4180  0.3583
  624TMC3    C4 9294   1.977   3.046  16.659 -0.4998 -0.0957 -0.1021
  624TMC3    C5 9295   1.904   3.162  16.677 -0.2988 -0.0700  0.0049
  624TMC3    C6 9296   1.796   3.176  16.759  0.4756 -0.1751 -0.7618
  624TMC3     C 9297   1.971   2.813  16.698 -0.1678  0.3032  0.3053
  624TMC3     O 9298   1.932   2.721  16.772  0.3426 -0.0280 -0.1378
  624TMC3     H 9299   1.782   2.860  16.876 -2.2921 -0.5861 -2.8866
  624TMC3    H1 9300   2.068   3.051  16.601 -0.3795  0.3863  0.1325
  624TMC3    H2 9301   1.769   3.278  16.784  1.7572  0.2519 -1.1265
  624TMC3    C7 9302   1.881   3.208  16.538 -0.3708 -1.3744  0.1452
  624TMC3    C8 9303   1.605   3.041  16.816  0.3480  0.1996  0.1040
  624TMC3    O1 9304   1.959   3.172  16.450  0.5454  0.2380 -0.3977
  624TMC3    O2 9305   1.574   2.935  16.771 -0.1108 -0.6694  0.1769
  625MPD2     C 9306   2.217   4.090   0.534 -0.6200  0.2859  0.4051
  625MPD2    C1 9307   2.211   4.222   0.538  0.3268  0.4739 -0.9327
  625MPD2    C2 9308   2.305   4.290   0.609 -0.5095  0.0649  0.7576
  625MPD2    C3 9309   2.414   4.234   0.662 -0.4490 -0.7646 -0.3661
  625MPD2    C4 9310   2.430   4.095   0.648 -0.0486 -0.5187  0.1588
  625MPD2    C5 9311   2.328   4.035   0.585 -0.1052 -0.7282 -0.3667
  625MPD2     H 9312   2.285   4.397   0.613 -0.6489  0.0457  0.5469
  625MPD2    H1 9313   2.514   4.042   0.692  0.3077 -0.2162 -0.1614
  625MPD2    H2 9314   2.140   4.025   0.493  0.5108 -0.4585 -0.5333
  625MPD2    H3 9315   2.331   3.927   0.588 -1.1886 -0.7621 -0.4862
  625MPD2     N 9316   2.500   4.316   0.738  0.5088  0.6561 -0.2075
  625MPD2    H5 9317   2.467   4.412   0.745 -3.0092 -0.4997 -1.0359
  625MPD2    N1 9318   2.111   4.296   0.462 -0.5240 -0.2175  0.1720
  625MPD2    H7 9319   2.128   4.396   0.462  1.5098 -0.5573  1.8148
  626TMC3    C1 9320   1.910   4.334   0.350  0.6581  0.0445 -0.4962
  626TMC3    C2 9321   1.836   4.323   0.236  0.2525 -0.1360  0.9947
  626TMC3    C3 9322   1.738   4.415   0.209  0.2592  0.3012 -0.6327
  626TMC3    C4 9323   1.888   4.438   0.430  0.1162  0.2843 -0.6948
  626TMC3    C5 9324   1.771   4.515   0.408 -0.2204 -0.2396  0.4414
  626TMC3    C6 9325   1.707   4.516   0.290  0.2444  0.0815 -0.0768
  626TMC3     C 9326   2.016   4.239   0.376  0.0373 -0.6477  0.0675
  626TMC3     O 9327   1.987   4.120   0.342 -0.3674 -0.1305  0.1233
  626TMC3     H 9328   1.862   4.245   0.164 -1.4727 -0.0768  0.3076
  626TMC3    H1 9329   1.944   4.449   0.522 -1.0967 -0.1923  0.0988
  626TMC3    H2 9330   1.615   4.571   0.275  0.4639  0.5926  0.4393
  626TMC3    C7 9331   1.712   4.601   0.507 -0.2296 -0.1460  0.4124
  626TMC3    C8 9332   1.668   4.396   0.084 -0.0567 -0.5525 -0.1404
  626TMC3    O1 9333   1.620   4.676   0.479  0.1874 -0.5195 -0.2690
  626TMC3    O2 9334   1.594   4.489   0.048 -0.2044 -0.2836  0.0206
  627MPD2     C 9335   4.677   0.188  14.540  0.2085  0.4947 -0.0540
  627MPD2    C1 9336   0.008   0.100  14.621 -0.4479 -0.7170  0.4612
  627MPD2    C2 9337   4.677   4.731  14.667  0.0657  0.1147 -0.5904
  627MPD2    C3 9338   4.549   4.708  14.627  1.0778 -0.2331 -0.5201
  627MPD2    C4 9339   4.490   0.057  14.532  0.4289 -0.3449 -0.8484
  627MPD2    C5 9340   4.556   0.165  14.486 -0.2238 -0.2806 -0.4871
  627MPD2     H 9341   4.720   4.665  14.742 -2.1340  1.6034  1.9796
  627MPD2    H1 9342   4.393   0.043  14.486  1.0603 -0.6617 -2.0942
  627MPD2    H2 9343   4.733   0.272  14.500 -0.6263  0.7858 -0.5972
  627MPD2    H3 9344   4.510   0.220  14.405 -1.1612  2.0421  1.6519
  627MPD2     N 9345   4.481   4.591  14.677  0.0961 -0.0839 -0.1514
  627MPD2    H5 9346   4.525   4.536  14.750  0.3829 -0.1776 -0.3973
  627MPD2    N1 9347   0.142   0.123  14.666 -0.2505  0.0399  0.8187
  627MPD2    H7 9348   0.191   0.057  14.726  0.1483 -0.3256  0.0945
  628TMC3    C1 9349   0.331   0.252  14.718  0.1735  0.0477  0.5072
  628TMC3    C2 9350   0.416   0.150  14.749  0.1449 -0.2546  0.2569
  628TMC3    C3 9351   0.542   0.169  14.802  0.2787  0.0824  0.0553
  628TMC3    C4 9352   0.374   0.380  14.733  0.3557  0.4551 -0.2683
  628TMC3    C5 9353   0.501   0.397  14.790  1.2773 -0.3679 -0.5018
  628TMC3    C6 9354   0.583   0.299  14.829  0.4128  0.1960 -0.2076
  628TMC3     C 9355   0.216   0.232  14.634  0.4129 -0.3199  0.1474
  628TMC3     O 9356   0.180   0.340  14.582 -0.3917 -0.2308 -0.1289
  628TMC3     H 9357   0.392   0.056  14.701 -1.8337 -0.8304  2.3607
  628TMC3    H1 9358   0.300   0.459  14.723  0.9478  1.1414  0.7739
  628TMC3    H2 9359   0.685   0.320  14.859 -0.1640  0.6027  1.4338
  628TMC3    C7 9360   0.556   0.536  14.804  1.0994 -0.1072  0.3430
  628TMC3    C8 9361   0.629   0.055  14.818  0.5198 -0.9858  1.0336
  628TMC3    O1 9362   0.656   0.549  14.872  0.3838 -0.1201  0.4827
  628TMC3    O2 9363   0.583   4.679  14.810 -0.0640 -0.0014 -0.3966
  629MPD2     C 9364   3.131   3.406  16.282  0.1118  0.0218  0.8436
  629MPD2    C1 9365   3.180   3.323  16.381  0.2768  0.5621  0.8953
  629MPD2    C2 9366   3.102   3.215  16.425 -0.5361 -0.2469 -0.1877
  629MPD2    C3 9367   2.973   3.187  16.378  0.7483 -0.2655 -0.5890
  629MPD2    C4 9368   2.932   3.272  16.269 -0.1302  0.3862  0.4122
  629MPD2    C5 9369   3.008   3.378  16.219 -0.3036  0.3719  0.3714
  629MPD2     H 9370   3.137   3.149  16.504 -0.9316  1.6527  1.5486
  629MPD2    H1 9371   2.842   3.254  16.211 -1.0797  0.4726  1.8604
  629MPD2    H2 9372   3.181   3.496  16.246 -2.0828 -1.0605 -4.7614
  629MPD2    H3 9373   2.985   3.446  16.138 -1.1309 -0.2687  0.0715
  629MPD2     N 9374   2.898   3.077  16.428  0.1405  0.5693 -0.0666
  629MPD2    H5 9375   2.939   3.018  16.500  0.7483 -0.7457 -1.4638
  629MPD2    N1 9376   3.314   3.348  16.416 -0.4214 -0.1508 -0.1760
  629MPD2    H7 9377   3.359   3.428  16.375 -0.7127 -0.5610 -1.2983
  630TMC3    C1 9378   3.530   3.295  16.501  0.6640 -0.0817 -0.8606
  630TMC3    C2 9379   3.590   3.356  16.396  0.1704  0.2454  0.9779
  630TMC3    C3 9380   3.727   3.386  16.414 -0.0322  0.1066 -0.0783
  630TMC3    C4 9381   3.602   3.256  16.615  0.0049  0.2215 -0.7965
  630TMC3    C5 9382   3.726   3.297  16.631  0.5413 -0.3536 -0.2571
  630TMC3    C6 9383   3.792   3.352  16.532 -0.4887  0.1707 -0.8592
  630TMC3     C 9384   3.390   3.259  16.494  0.1841 -0.5852  0.4419
  630TMC3     O 9385   3.346   3.182  16.580 -0.3146  0.0084 -0.4384
  630TMC3     H 9386   3.544   3.375  16.300  3.7073  1.5522 -0.4753
  630TMC3    H1 9387   3.550   3.220  16.703 -1.7227  0.8803 -1.5437
  630TMC3    H2 9388   3.896   3.381  16.543 -1.0245  1.2095  1.4327
  630TMC3    C7 9389   3.786   3.269  16.760  0.0298 -0.9388 -0.0758
  630TMC3    C8 9390   3.791   3.498  16.343  0.0831 -0.0549  0.1623
  630TMC3    O1 9391   3.730   3.177  16.822 -0.1961  0.3124 -0.1554
  630TMC3    O2 9392   3.888   3.550  16.401 -0.3489  0.0083  0.4070
  631MPD2     C 9393   2.220   3.763  15.561  0.3857  0.9819  0.8150
  631MPD2    C1 9394   2.084   3.778  15.564 -0.0372 -0.0337 -0.3239
  631MPD2    C2 9395   2.012   3.748  15.676  0.5263  0.5818 -0.3456
  631MPD2    C3 9396   2.083   3.724  15.796 -0.2113 -0.4544  0.5602
  631MPD2    C4 9397   2.224   3.724  15.802  0.2950  0.2712  0.5639
  631MPD2    C5 9398   2.286   3.748  15.681 -0.2683  0.2025 -0.2860
  631MPD2     H 9399   1.904   3.741  15.673  0.4683  1.4267 -0.1098
  631MPD2    H1 9400   2.288   3.689  15.883  0.2162 -3.3019 -0.9294
  631MPD2    H2 9401   2.267   3.779  15.465  1.2672 -0.5675  0.9834
  631MPD2    H3 9402   2.394   3.758  15.677  0.1328 -2.3293  3.5481
  631MPD2     N 9403   1.998   3.696  15.910  0.1447 -0.3184 -0.2353
  631MPD2    H5 9404   1.904   3.684  15.873 -1.4453  1.4738  3.2478
  631MPD2    N1 9405   2.014   3.811  15.443  0.2003 -0.3021 -0.3422
  631MPD2    H7 9406   2.069   3.857  15.372  0.1328 -0.8944 -0.7823
  632TMC3    C1 9407   1.855   3.891  15.293  1.2077 -0.2910  0.1699
  632TMC3    C2 9408   1.748   3.983  15.283  0.0977 -0.4196 -0.0493
  632TMC3    C3 9409   1.705   4.030  15.163  0.2944  0.3381 -0.5429
  632TMC3    C4 9410   1.906   3.850  15.174 -0.0842  0.1341 -0.1654
  632TMC3    C5 9411   1.876   3.914  15.056 -0.0232  0.2119 -0.6008
  632TMC3    C6 9412   1.772   4.000  15.051  0.1452 -0.9640  0.0751
  632TMC3     C 9413   1.884   3.827  15.418  1.0312  0.1246 -0.1847
  632TMC3     O 9414   1.783   3.816  15.493  0.2743  0.7018  0.3399
  632TMC3     H 9415   1.699   4.000  15.378  0.0750  0.6024 -0.2481
  632TMC3    H1 9416   1.981   3.773  15.185  0.8336  1.0843  0.2635
  632TMC3    H2 9417   1.737   4.043  14.957  0.3652 -0.4865  0.2096
  632TMC3    C7 9418   1.915   3.863  14.926  0.0978  0.4504  0.2768
  632TMC3    C8 9419   1.566   4.035  15.162 -0.1353 -0.2524  0.1203
  632TMC3    O1 9420   1.879   3.925  14.829 -0.3746 -0.5973  0.2946
  632TMC3    O2 9421   1.506   3.992  15.263 -0.7652 -0.2350 -0.5385
  633MPD2     C 9422   1.208   1.223  17.134  0.5336 -0.1256 -0.2586
  633MPD2    C1 9423   1.252   1.166  17.022 -0.1417 -0.3204  0.0225
  633MPD2    C2 9424   1.269   1.031  17.011 -0.3562 -0.0150  0.2682
  633MPD2    C3 9425   1.232   0.950  17.121 -0.3037 -0.0454 -0.2781
  633MPD2    C4 9426   1.193   1.005  17.241 -0.5023 -0.5288  0.1337
  633MPD2    C5 9427   1.189   1.146  17.243 -0.7667  0.0537 -0.2553
  633MPD2     H 9428   1.299   0.981  16.920 -0.5380  0.6828 -0.1721
  633MPD2    H1 9429   1.156   0.948  17.326 -0.3155  0.2045  0.7132
  633MPD2    H2 9430   1.206   1.329  17.156 -2.9692 -0.5100  1.4143
  633MPD2    H3 9431   1.163   1.209  17.327  0.9729  1.9665 -1.1365
  633MPD2     N 9432   1.223   0.808  17.120 -0.2386 -0.1517  0.8298
  633MPD2    H5 9433   1.197   0.763  17.207 -2.0414  0.9298  0.8561
  633MPD2    N1 9434   1.274   1.245  16.910  0.3553 -0.2306  0.8342
  633MPD2    H7 9435   1.323   1.195  16.836  1.2379 -1.2132  2.0956
  634TMC3    C1 9436   1.288   1.416  16.756 -0.0581  0.1739 -0.2072
  634TMC3    C2 9437   1.409   1.370  16.717  0.5105  0.7117  0.4924
  634TMC3    C3 9438   1.465   1.405  16.596 -0.0504  0.6792  0.3351
  634TMC3    C4 9439   1.218   1.499  16.674 -0.9276  0.5503 -0.1379
  634TMC3    C5 9440   1.273   1.527  16.549 -0.1385  0.2491 -0.0233
  634TMC3    C6 9441   1.398   1.486  16.507  0.2673 -0.9410  0.0121
  634TMC3     C 9442   1.235   1.377  16.882  0.0509 -0.4268 -0.3009
  634TMC3     O 9443   1.161   1.454  16.944 -0.6693  0.2648  0.4133
  634TMC3     H 9444   1.474   1.312  16.782 -0.9308  0.6294  1.8707
  634TMC3    H1 9445   1.126   1.535  16.719 -0.8723 -0.8063  1.0765
  634TMC3    H2 9446   1.425   1.489  16.402  0.4704  1.3324  0.1455
  634TMC3    C7 9447   1.200   1.599  16.445  0.1688  0.5142 -1.1157
  634TMC3    C8 9448   1.593   1.339  16.563  0.3484  0.0832  0.0162
  634TMC3    O1 9449   1.262   1.670  16.372 -0.5717  0.2639  0.1778
  634TMC3    O2 9450   1.628   1.247  16.637 -0.1811 -0.1645 -0.2924
  635TMC3    C1 9451   1.126   2.186   0.125  0.2939 -0.1412 -0.2360
  635TMC3    C2 9452   1.035   2.173   0.020 -0.5705 -0.2511  0.1756
  635TMC3    C3 9453   0.903   2.157   0.047  0.4911  0.2950  0.3975
  635TMC3    C4 9454   1.075   2.191   0.251 -0.2809 -0.6355  0.3994
  635TMC3    C5 9455   0.949   2.174   0.281 -0.1791  0.1079 -0.2070
  635TMC3    C6 9456   0.856   2.166   0.179  0.5997 -0.0085  0.2847
  635TMC3     C 9457   1.247   2.268   0.095 -1.0777  0.3613  0.0371
  635TMC3     O 9458   1.290   2.326   0.194 -0.1447 -0.3976  1.0625
  635TMC3     H 9459   1.061   2.164  17.666  3.0220  1.2003  0.9340
  635TMC3    H1 9460   1.144   2.217   0.331  0.3861 -1.8390  0.2085
  635TMC3    H2 9461   0.750   2.149   0.197  0.2681  0.9058 -0.8285
  635TMC3    C7 9462   0.902   2.216   0.412  0.2175 -0.3836 -0.2304
  635TMC3    C8 9463   0.811   2.114  17.695  0.3812  0.1445 -0.4402
  635TMC3    O1 9464   0.992   2.239   0.490  0.5358 -0.1517  0.2361
  635TMC3    O2 9465   0.859   2.040  17.608 -0.2709  0.1018 -0.0513
  636MPD2     C 9466   2.590   1.497  15.480  0.6186  0.1779  0.4946
  636MPD2    C1 9467   2.697   1.478  15.577 -0.0644 -0.0204  0.1178
  636MPD2    C2 9468   2.817   1.421  15.537 -0.2872 -0.5018 -0.0147
  636MPD2    C3 9469   2.821   1.368  15.412  0.2731 -0.4516  0.2325
  636MPD2    C4 9470   2.719   1.378  15.322  0.4071 -0.0018  0.3513
  636MPD2    C5 9471   2.611   1.462  15.352  0.2549 -0.3439  0.8888
  636MPD2     H 9472   2.899   1.399  15.604  0.3319 -2.8610 -1.5690
  636MPD2    H1 9473   2.734   1.338  15.222 -2.0141  2.6089 -1.0575
  636MPD2    H2 9474   2.499   1.549  15.508  0.3515  0.2903 -0.5865
  636MPD2    H3 9475   2.535   1.475  15.276  2.0822  1.6862 -0.6027
  636MPD2     N 9476   2.935   1.292  15.378 -0.2340 -0.5294 -0.1943
  636MPD2    H5 9477   2.998   1.273  15.456 -0.1934  0.1158 -0.0718
  636MPD2    N1 9478   2.692   1.526  15.712  1.0394  0.3577 -0.0125
  636MPD2    H7 9479   2.779   1.516  15.763  0.8273  1.5751  0.5914
  637TMC3    C1 9480   3.093   1.179  15.250 -0.0204  0.2580 -0.0803
  637TMC3    C2 9481   3.147   1.137  15.367  0.3660 -0.7811  0.4549
  637TMC3    C3 9482   3.284   1.125  15.375  0.8205  0.3226 -0.1715
  637TMC3    C4 9483   3.171   1.219  15.142 -0.6120 -0.8701 -0.4839
  637TMC3    C5 9484   3.307   1.198  15.141  0.0251 -0.3293 -1.5173
  637TMC3    C6 9485   3.360   1.150  15.264 -0.6990 -0.1858 -0.2508
  637TMC3     C 9486   2.962   1.245  15.255 -0.6627 -0.1244 -0.3996
  637TMC3     O 9487   2.910   1.259  15.145 -0.3029 -0.0705  0.7197
  637TMC3     H 9488   3.089   1.097  15.449 -0.4563 -1.0178 -0.2357
  637TMC3    H1 9489   3.122   1.251  15.050 -0.2977  1.4090  0.1529
  637TMC3    H2 9490   3.468   1.152  15.270 -0.5857  1.6602 -2.7477
  637TMC3    C7 9491   3.381   1.301  15.085  0.4834 -0.2478 -0.6547
  637TMC3    C8 9492   3.326   1.190  15.498 -0.2531  0.0581  0.9178
  637TMC3    O1 9493   3.494   1.318  15.129  0.0360  0.0156 -0.0742
  637TMC3    O2 9494   3.238   1.249  15.563  0.7018 -0.2380  0.6445
  638MPD2     C 9495   2.607   0.668  14.854 -0.0771 -0.3639 -0.0296
  638MPD2    C1 9496   2.624   0.548  14.778 -0.0361  0.2958  0.4456
  638MPD2    C2 9497   2.604   0.427  14.846 -0.6010  0.0585 -0.0847
  638MPD2    C3 9498   2.564   0.422  14.972  0.0111 -0.9840 -0.6175
  638MPD2    C4 9499   2.530   0.538  15.037  0.0199  0.2736 -0.1674
  638MPD2    C5 9500   2.560   0.661  14.983  0.0087 -0.3661  0.3725
  638MPD2     H 9501   2.612   0.330  14.798  2.6656  0.2576  0.0592
  638MPD2    H1 9502   2.510   0.528  15.143 -0.6331 -1.2188 -0.4286
  638MPD2    H2 9503   2.622   0.767  14.812  1.4708  0.6934  2.9770
  638MPD2    H3 9504   2.558   0.745  15.052  2.3451  1.3857 -1.6839
  638MPD2     N 9505   2.543   0.286  15.024 -0.1582 -0.2521  0.6923
  638MPD2    H5 9506   2.588   0.212  14.971 -1.5201 -1.3502  1.0730
  638MPD2    N1 9507   2.667   0.560  14.644 -0.0553  0.0669 -0.4487
  638MPD2    H7 9508   2.710   0.647  14.616  1.7775 -0.9260 -0.7747
  639TMC3    C1 9509   2.493   0.115  15.154 -0.1668 -1.0137 -0.0184
  639TMC3    C2 9510   2.378   0.045  15.151  0.7797  0.4083  0.1262
  639TMC3    C3 9511   2.377   4.647  15.116  0.0706 -0.5668  0.2958
  639TMC3    C4 9512   2.614   0.053  15.128 -0.2422 -0.4538 -0.0357
  639TMC3    C5 9513   2.611   4.655  15.114 -0.1188  0.6938  0.2577
  639TMC3    C6 9514   2.498   4.585  15.095  0.7100  0.2120  0.0804
  639TMC3     C 9515   2.480   0.250  15.137  0.2119 -0.3154  0.2165
  639TMC3     O 9516   2.419   0.321  15.217 -0.0285  0.2861  0.1502
  639TMC3     H 9517   2.282   0.097  15.154  1.3572  1.4874 -0.2367
  639TMC3    H1 9518   2.705   0.107  15.152 -1.2447  0.3962  1.8049
  639TMC3    H2 9519   2.497   4.477  15.086  1.9148  0.3296 -1.4186
  639TMC3    C7 9520   2.737   4.587  15.109 -0.4242 -0.2138  0.3302
  639TMC3    C8 9521   2.271   4.608  15.023  0.5149 -0.8160  0.2081
  639TMC3    O1 9522   2.739   4.469  15.122 -0.1948  0.1297  0.5300
  639TMC3    O2 9523   2.318   4.550  14.922 -0.1888 -0.0729  0.0865
  640MPD2     C 9524   3.197   0.581  10.177  0.4250 -0.5619  0.0484
  640MPD2    C1 9525   3.274   0.631  10.077 -0.2391  0.1234 -0.0399
  640MPD2    C2 9526   3.261   0.763  10.035  0.1788 -0.2284  0.7495
  640MPD2    C3 9527   3.166   0.848  10.092 -0.4647  0.2126 -0.2818
  640MPD2    C4 9528   3.077   0.789  10.181  0.0200  0.2056 -0.2376
  640MPD2    C5 9529   3.099   0.659  10.229  0.9653 -0.6791  0.1904
  640MPD2     H 9530   3.313   0.816   9.956  0.8576 -0.7879  0.8132
  640MPD2    H1 9531   2.995   0.850  10.217  0.5596  1.5126 -1.2288
  640MPD2    H2 9532   3.195   0.474  10.198 -1.7283 -0.6390 -0.4870
  640MPD2    H3 9533   3.022   0.618  10.294 -0.9994  0.0047 -1.6758
  640MPD2     N 9534   3.138   0.973  10.050 -0.5824 -0.3911 -0.1798
  640MPD2    H5 9535   3.073   1.030  10.103  1.4566  0.6342  1.2381
  640MPD2    N1 9536   3.373   0.549  10.009 -0.0326  0.4278  0.5405
  640MPD2    H7 9537   3.374   0.453  10.039 -0.4513 -0.0507 -0.9523
  641TMC3    C1 9538   3.520   0.470   9.845 -0.4917  0.7403 -0.0969
  641TMC3    C2 9539   3.586   0.384   9.919 -0.1169  0.3508 -0.0286
  641TMC3    C3 9540   3.661   0.296   9.848  0.2383 -0.1837 -0.3324
  641TMC3    C4 9541   3.540   0.493   9.708 -0.2822  0.0982  0.4024
  641TMC3    C5 9542   3.613   0.403   9.650 -0.1644 -0.5566  0.0888
  641TMC3    C6 9543   3.682   0.302   9.712  0.5754 -0.4184  0.0061
  641TMC3     C 9544   3.460   0.583   9.905 -0.1381 -0.0497  0.8668
  641TMC3     O 9545   3.466   0.690   9.843 -0.2366  0.3596  0.2418
  641TMC3     H 9546   3.573   0.364  10.025  2.7645  0.6515  0.3767
  641TMC3    H1 9547   3.476   0.559   9.649  1.9913  0.0688 -2.0519
  641TMC3    H2 9548   3.728   0.220   9.659  1.7924 -0.0505  0.5067
  641TMC3    C7 9549   3.621   0.413   9.501  1.0676  0.5355 -0.5349
  641TMC3    C8 9550   3.691   0.168   9.911 -0.6302  0.0667 -0.3741
  641TMC3    O1 9551   3.655   0.311   9.435  0.3974 -0.3675  0.2414
  641TMC3    O2 9552   3.751   0.197  10.015 -0.0351  0.4675  0.3446
  642TMC3    C1 9553   3.889   0.893  13.019  0.4567 -0.2479 -0.3303
  642TMC3    C2 9554   3.963   0.927  13.124  0.4826 -0.2481  1.2802
  642TMC3    C3 9555   3.980   0.835  13.231 -0.5330  0.6558  0.8618
  642TMC3    C4 9556   3.829   0.764  13.012 -0.4978  0.7970  0.8585
  642TMC3    C5 9557   3.859   0.673  13.109  0.0043 -1.0480 -0.6842
  642TMC3    C6 9558   3.926   0.706  13.223 -0.1224  0.4417  0.9774
  642TMC3     C 9559   3.850   1.005  12.939 -0.2623  0.6485 -0.2894
  642TMC3     O 9560   3.935   1.093  12.924 -0.2474 -0.2169 -0.6138
  642TMC3     H 9561   4.001   1.028  13.135  0.9774 -0.1366 -1.5306
  642TMC3    H1 9562   3.775   0.735  12.923  0.6415  0.5846  0.2370
  642TMC3    H2 9563   3.956   0.635  13.300 -1.3518  1.7266  2.6567
  642TMC3    C7 9564   3.793   0.537  13.085 -0.4832  1.0439  0.0389
  642TMC3    C8 9565   4.076   0.867  13.338  0.1050  1.0265 -0.5241
  642TMC3    O1 9566   3.749   0.513  12.973 -0.6625 -0.5633  0.1813
  642TMC3    O2 9567   4.151   0.959  13.318  0.1590  0.0518 -0.3943
  643TMC3    C1 9568   2.976   3.699   0.177  0.5704  0.3748 -0.4616
  643TMC3    C2 9569   2.890   3.730   0.074 -0.6202 -0.4471 -0.5634
  643TMC3    C3 9570   2.890   3.658  17.713  0.1003  0.3775 -0.0496
  643TMC3    C4 9571   3.076   3.605   0.159 -0.1532 -0.0785 -0.1282
  643TMC3    C5 9572   3.075   3.543   0.034 -1.0699 -0.1737 -1.0739
  643TMC3    C6 9573   2.967   3.552  17.699  0.5630 -0.5055  0.6931
  643TMC3     C 9574   3.014   3.831   0.220  0.2649  0.2103 -0.0871
  643TMC3     O 9575   2.989   3.926   0.143 -0.1142  0.2093 -0.1105
  643TMC3     H 9576   2.806   3.799   0.084  0.5992  0.7053  1.7774
  643TMC3    H1 9577   3.159   3.592   0.227 -0.9004 -0.2325  0.7416
  643TMC3    H2 9578   2.967   3.511  17.599 -1.9385 -0.4706  0.6798
  643TMC3    C7 9579   3.195   3.580  17.710 -0.1797  0.4786  0.3196
  643TMC3    C8 9580   2.897   3.745  17.598  0.1076  0.3013 -0.5978
  643TMC3    O1 9581   3.265   3.673   0.000  0.8177  0.3264 -0.4056
  643TMC3    O2 9582   2.876   3.696  17.490  0.6394 -0.0890 -0.0106
  644MPD2     C 9583   3.926   0.507   9.918  0.1664  0.0658 -1.0117
  644MPD2    C1 9584   3.963   0.430   9.811  0.3780 -0.3732 -0.5255
  644MPD2    C2 9585   3.955   0.491   9.692 -0.1822  0.3694  0.5120
  644MPD2    C3 9586   3.898   0.614   9.668 -0.6649  0.0670  0.0237
  644MPD2    C4 9587   3.849   0.686   9.776  0.1489  0.0367 -0.0743
  644MPD2    C5 9588   3.873   0.628   9.898 -0.3144  0.9167 -0.4232
  644MPD2     H 9589   3.991   0.439   9.604  0.2010  0.4676  0.6123
  644MPD2    H1 9590   3.799   0.780   9.758  1.8317  0.3724 -3.1905
  644MPD2    H2 9591   3.930   0.466  10.019 -0.0287 -2.1666 -1.9109
  644MPD2    H3 9592   3.860   0.689   9.986 -2.1852 -0.7689  0.4684
  644MPD2     N 9593   3.906   0.662   9.532 -0.0245  0.3251 -0.6894
  644MPD2    H5 9594   3.942   0.601   9.460 -2.3498  1.6281 -2.9699
  644MPD2    N1 9595   4.001   0.295   9.837  0.2406 -0.0321 -0.7426
  644MPD2    H7 9596   4.034   0.274   9.930  0.3853  3.4737  0.0081
  645TMC3    C1 9597   3.898   0.816   9.346  0.3376 -0.2402  0.5571
  645TMC3    C2 9598   3.902   0.704   9.258  0.0631  0.1752 -0.4517
  645TMC3    C3 9599   3.954   0.731   9.135 -0.0985  0.4061  0.2832
  645TMC3    C4 9600   3.945   0.938   9.319  0.0509  0.0266 -0.4497
  645TMC3    C5 9601   3.984   0.964   9.194  0.0177 -0.1997 -0.0140
  645TMC3    C6 9602   3.988   0.859   9.103 -0.0183 -0.5914 -0.1875
  645TMC3     C 9603   3.888   0.793   9.491  0.3058 -0.2865  0.0604
  645TMC3     O 9604   3.868   0.889   9.560  0.5270  0.4725 -0.2492
  645TMC3     H 9605   3.850   0.616   9.293  1.3781 -0.5105 -0.2200
  645TMC3    H1 9606   3.937   1.016   9.393 -0.9553 -3.1073  2.7669
  645TMC3    H2 9607   4.031   0.873   9.005 -1.9142  1.7962 -0.6773
  645TMC3    C7 9608   4.059   1.085   9.156 -0.2713 -0.5212  0.1209
  645TMC3    C8 9609   3.934   0.634   9.034 -0.0271  0.2646 -0.3145
  645TMC3    O1 9610   4.146   1.076   9.072 -0.2601 -0.2804 -0.0085
  645TMC3    O2 9611   3.951   0.670   8.919 -0.6172 -0.2018  0.4101
  646MPD2     C 9612   2.571   3.885  14.488  0.3027  0.4958  0.7175
  646MPD2    C1 9613   2.474   3.893  14.581 -0.0962  0.0108  0.3862
  646MPD2    C2 9614   2.375   3.983  14.552  0.0686 -0.3327 -0.0145
  646MPD2    C3 9615   2.367   4.065  14.443 -0.3072 -0.0408 -0.8032
  646MPD2    C4 9616   2.472   4.052  14.355  0.2125  1.1794 -0.1532
  646MPD2    C5 9617   2.575   3.966  14.385 -0.4969 -0.3918  0.2568
  646MPD2     H 9618   2.287   3.980  14.616  0.8268  1.0354  1.0963
  646MPD2    H1 9619   2.489   4.103  14.260  2.4721  3.6499  1.5645
  646MPD2    H2 9620   2.649   3.811  14.505  0.8212  0.9989  0.5066
  646MPD2    H3 9621   2.660   3.987  14.321  0.3278 -2.1428  0.7843
  646MPD2     N 9622   2.247   4.137  14.421  0.1288  0.2150  0.3461
  646MPD2    H5 9623   2.174   4.126  14.491 -0.2035  0.7944  0.0851
  646MPD2    N1 9624   2.466   3.804  14.693  0.1441  0.5806 -0.1429
  646MPD2    H7 9625   2.532   3.728  14.703  0.1680  0.6712  0.4036
  647TMC3    C1 9626   2.433   3.735  14.915 -0.2973  0.2439 -0.0272
  647TMC3    C2 9627   2.354   3.705  15.019  0.3823  0.5405  0.2523
  647TMC3    C3 9628   2.402   3.657  15.132  0.2446 -0.4973 -0.1164
  647TMC3    C4 9629   2.571   3.713  14.920 -0.5340 -0.1497  0.0537
  647TMC3    C5 9630   2.613   3.662  15.037  0.5690  0.5552 -0.3736
  647TMC3    C6 9631   2.536   3.638  15.144  0.3128 -0.3928 -0.1397
  647TMC3     C 9632   2.387   3.817  14.804  1.3745  0.1199 -0.1958
  647TMC3     O 9633   2.290   3.886  14.834  0.9802 -0.0216  0.2069
  647TMC3     H 9634   2.248   3.725  15.020  0.1864 -0.2632 -2.6025
  647TMC3    H1 9635   2.635   3.749  14.840 -0.7828 -0.3571 -0.2393
  647TMC3    H2 9636   2.589   3.618  15.236  0.4290  2.3298  0.4036
  647TMC3    C7 9637   2.757   3.638  15.059  0.3652  0.0707  0.7115
  647TMC3    C8 9638   2.308   3.595  15.225  0.0326  0.2621  0.1638
  647TMC3    O1 9639   2.789   3.574  15.156 -0.3835  0.4421  0.5000
  647TMC3    O2 9640   2.189   3.620  15.213 -0.4302 -0.1847 -0.0710
  648TMC3    C1 9641   2.109   1.515  16.025  0.8377  0.9299  1.0846
  648TMC3    C2 9642   2.219   1.439  16.019  0.6127  0.2851 -0.7290
  648TMC3    C3 9643   2.252   1.367  15.902  0.6179  0.0282 -0.2811
  648TMC3    C4 9644   2.037   1.538  15.912 -0.4961  0.5300 -0.5614
  648TMC3    C5 9645   2.052   1.459  15.804 -0.6249 -0.2429 -0.2856
  648TMC3    C6 9646   2.162   1.381  15.796  0.3414  0.4331  0.0651
  648TMC3     C 9647   2.054   1.562  16.150 -0.4692  0.6462  0.4562
  648TMC3     O 9648   1.953   1.630  16.138  0.1388  0.0214  0.0468
  648TMC3     H 9649   2.279   1.425  16.109 -0.5904 -2.6582 -0.3852
  648TMC3    H1 9650   1.960   1.615  15.916 -1.1837 -0.2913  2.5227
  648TMC3    H2 9651   2.168   1.309  15.716 -3.0835  1.0106 -0.6818
  648TMC3    C7 9652   1.954   1.461  15.694 -0.6561  0.0463 -0.1885
  648TMC3    C8 9653   2.387   1.308  15.889 -0.1730  0.2535 -0.7231
  648TMC3    O1 9654   1.973   1.392  15.595  0.6405  0.1080  0.3285
  648TMC3    O2 9655   2.448   1.311  15.998 -0.1474  0.2110  0.1777
  649TMC3    C1 9656   0.815   2.780  13.311 -0.0899  0.6105 -0.0283
  649TMC3    C2 9657   0.892   2.878  13.365 -0.2041  0.1540 -0.1034
  649TMC3    C3 9658   0.955   2.853  13.485  0.3363  0.0795 -0.1381
  649TMC3    C4 9659   0.787   2.665  13.374 -0.0626 -1.2181 -0.4361
  649TMC3    C5 9660   0.858   2.632  13.492 -0.1159  0.0542 -0.9694
  649TMC3    C6 9661   0.942   2.729  13.549  0.4367  0.2640  0.5385
  649TMC3     C 9662   0.745   2.839  13.192 -0.0641 -0.6549 -0.1707
  649TMC3     O 9663   0.727   2.960  13.191  0.5852  0.4868 -0.3320
  649TMC3     H 9664   0.924   2.964  13.307  0.1835  0.5958  0.7605
  649TMC3    H1 9665   0.722   2.592  13.327 -1.5474 -1.5075  2.0796
  649TMC3    H2 9666   0.980   2.736  13.651  0.0610 -0.3698  0.7224
  649TMC3    C7 9667   0.814   2.523  13.578 -0.3259  0.5362 -0.0857
  649TMC3    C8 9668   1.041   2.950  13.551  0.0939  0.3948  0.4763
  649TMC3    O1 9669   0.703   2.475  13.558  0.2138 -0.1252  0.3240
  649TMC3    O2 9670   1.077   2.942  13.670 -0.1494  0.2276  0.2141
  650TMC3    C1 9671   2.891   4.598  12.669  0.2416  0.6222  0.3702
  650TMC3    C2 9672   2.897   4.729  12.705 -0.0746 -0.2165 -0.1171
  650TMC3    C3 9673   2.897   0.083  12.609 -0.4847 -0.0182  0.5039
  650TMC3    C4 9674   2.879   4.557  12.538  0.0917 -0.1397 -0.6813
  650TMC3    C5 9675   2.895   4.658  12.444 -0.3830  0.7923 -0.1341
  650TMC3    C6 9676   2.910   0.048  12.475  0.2640 -0.7569  0.1580
  650TMC3     C 9677   2.958   4.513  12.759 -0.3379 -0.2110 -0.1158
  650TMC3     O 9678   2.997   4.564  12.862  0.0341  0.8371 -0.3700
  650TMC3     H 9679   2.886   0.019  12.809  0.2338  2.1647 -0.7501
  650TMC3    H1 9680   2.872   4.452  12.513 -2.3344  0.3011 -1.8637
  650TMC3    H2 9681   2.902   0.124  12.398 -0.2567  0.5962  1.5423
  650TMC3    C7 9682   2.859   4.618  12.307 -0.2164  0.5521  0.3923
  650TMC3    C8 9683   2.873   0.221  12.635 -0.1413  0.1086  0.2335
  650TMC3    O1 9684   2.771   4.529  12.302  0.1057 -0.6293 -0.5022
  650TMC3    O2 9685   2.930   0.302  12.558  0.4869  1.1138 -0.1100
  651MPD2     C 9686   2.632   2.108  10.622 -0.5433  0.2544  0.4517
  651MPD2    C1 9687   2.604   2.240  10.645 -0.2570 -0.8098 -0.1272
  651MPD2    C2 9688   2.706   2.332  10.615 -0.6058  0.3988  1.1545
  651MPD2    C3 9689   2.824   2.289  10.564 -0.5968  0.5986  0.8065
  651MPD2    C4 9690   2.860   2.156  10.568 -0.6756 -0.1307 -0.9513
  651MPD2    C5 9691   2.764   2.065  10.593 -0.0014  0.3830 -0.1140
  651MPD2     H 9692   2.679   2.437  10.616  0.3578  0.6694 -1.1219
  651MPD2    H1 9693   2.955   2.112  10.541  0.2806  0.6319  1.1829
  651MPD2    H2 9694   2.555   2.033  10.629  0.6601 -1.0830 -0.7627
  651MPD2    H3 9695   2.773   1.957  10.593 -1.6625  0.2393 -0.3728
  651MPD2     N 9696   2.917   2.388  10.527  0.4403 -0.3540 -0.1001
  651MPD2    H5 9697   2.889   2.485  10.538  1.2149 -0.2737  1.2042
  651MPD2    N1 9698   2.479   2.288  10.692  0.4928 -0.4028 -0.2732
  651MPD2    H7 9699   2.455   2.387  10.689 -0.7611 -0.6849  0.6224
  652TMC3    C1 9700   3.327   2.572  10.470 -0.0405 -0.4931 -0.0789
  652TMC3    C2 9701   3.249   2.475  10.514  0.3061  0.3718  0.1832
  652TMC3    C3 9702   3.121   2.473  10.458 -0.2582 -0.3138  0.7181
  652TMC3    C4 9703   3.289   2.678  10.403 -0.1163 -0.6967  0.5024
  652TMC3    C5 9704   3.160   2.679  10.366  0.5181  0.0725 -0.3493
  652TMC3    C6 9705   3.074   2.575  10.382  0.2142 -0.3884  0.2606
  652TMC3     C 9706   3.458   2.590  10.530  0.0861 -0.1299  0.6593
  652TMC3     O 9707   3.470   2.543  10.643  0.4986 -0.0488 -0.3306
  652TMC3     H 9708   3.286   2.396  10.579  0.5430  0.8240  0.5990
  652TMC3    H1 9709   3.349   2.767  10.386  0.5242 -1.4889 -1.4212
  652TMC3    H2 9710   2.970   2.576  10.353  0.4709 -0.0891 -0.6259
  652TMC3    C7 9711   3.095   2.806  10.340 -0.6384 -0.5298  0.3080
  652TMC3    C8 9712   3.041   2.358  10.479  0.2826 -0.3872  0.3603
  652TMC3    O1 9713   2.979   2.802  10.307  0.1743 -0.4601  0.3364
  652TMC3    O2 9714   3.102   2.251  10.469 -0.3999  0.0034 -0.0403
  653MPD2     C 9715   0.902   1.092  17.518  0.2144 -0.0804  0.2794
  653MPD2    C1 9716   0.888   1.181  17.412 -0.3924  0.2083  0.2129
  653MPD2    C2 9717   0.865   1.134  17.282  0.0067 -0.3722  0.3898
  653MPD2    C3 9718   0.841   0.999  17.261  0.1178 -0.4152 -0.5801
  653MPD2    C4 9719   0.862   0.915  17.365 -0.1725  0.7235 -0.2633
  653MPD2    C5 9720   0.891   0.962  17.491 -0.4731 -0.0741 -0.4246
  653MPD2     H 9721   0.845   1.211  17.208  1.9165  0.2551  0.5280
  653MPD2    H1 9722   0.874   0.808  17.357 -0.1069  0.6431  0.9116
  653MPD2    H2 9723   0.920   1.116  17.622  1.2382 -3.3614  0.8602
  653MPD2    H3 9724   0.906   0.893  17.573  1.2753 -0.3192 -0.9452
  653MPD2     N 9725   0.825   0.947  17.132  0.2725  0.0667  0.0543
  653MPD2    H5 9726   0.832   1.010  17.053  1.3683 -0.3489 -0.1716
  653MPD2    N1 9727   0.901   1.322  17.426  0.3866  0.2244 -0.0781
  653MPD2    H7 9728   0.890   1.378  17.342  0.3912  0.8279  0.3202
  654TMC3    C1 9729   0.775   0.791  16.959  0.1922 -0.0993  0.8159
  654TMC3    C2 9730   0.705   0.883  16.881 -1.4369 -0.2199  0.3830
  654TMC3    C3 9731   0.659   0.843  16.761 -0.9007  0.2472  0.8224
  654TMC3    C4 9732   0.790   0.665  16.916  0.2488  0.7359  0.3483
  654TMC3    C5 9733   0.734   0.621  16.796  1.0013  0.4704 -0.1758
  654TMC3    C6 9734   0.661   0.709  16.719  0.2126  0.1144 -0.3307
  654TMC3     C 9735   0.794   0.814  17.102  0.5507 -0.5839  0.0591
  654TMC3     O 9736   0.765   0.722  17.174 -0.3927 -0.7532  0.5879
  654TMC3     H 9737   0.689   0.986  16.909 -0.5321  0.5816 -2.0231
  654TMC3    H1 9738   0.853   0.597  16.973 -0.4735 -0.2004  0.0444
  654TMC3    H2 9739   0.605   0.669  16.635 -0.1987 -1.4384  0.6931
  654TMC3    C7 9740   0.749   0.492  16.744  0.1603 -0.7002  0.3628
  654TMC3    C8 9741   0.588   0.945  16.683  0.5485  0.1124  0.1173
  654TMC3    O1 9742   0.687   0.463  16.641  0.3074 -0.3263  0.2825
  654TMC3    O2 9743   0.550   1.046  16.738  0.7573 -0.6305 -0.2442
  655MPD2     C 9744   2.475   1.888  15.464 -0.0567  0.2418 -0.1831
  655MPD2    C1 9745   2.345   1.889  15.420  0.4559  0.2337  0.2698
  655MPD2    C2 9746   2.319   1.850  15.292  0.3661  0.3223 -0.0561
  655MPD2    C3 9747   2.415   1.807  15.200 -0.6129 -0.2403  0.8015
  655MPD2    C4 9748   2.544   1.800  15.248 -0.3523 -0.6452  0.1206
  655MPD2    C5 9749   2.572   1.841  15.378 -0.1681  0.3467  0.2448
  655MPD2     H 9750   2.214   1.845  15.265  0.7642  0.5607 -1.6241
  655MPD2    H1 9751   2.624   1.769  15.181 -0.3219  0.3306 -0.2937
  655MPD2    H2 9752   2.496   1.917  15.567  0.6389  0.0678 -0.2718
  655MPD2    H3 9753   2.675   1.841  15.412 -0.5824  1.7368  1.4913
  655MPD2     N 9754   2.389   1.756  15.065  0.0988 -0.0664 -0.0085
  655MPD2    H5 9755   2.469   1.725  15.013  0.3324  1.4565 -0.5560
  655MPD2    N1 9756   2.234   1.931  15.500 -0.2165 -0.0657 -0.5463
  655MPD2    H7 9757   2.140   1.930  15.462 -0.1903  0.6424 -0.6341
  656TMC3    C1 9758   2.124   2.019  15.687  0.6562 -0.1778 -0.5370
  656TMC3    C2 9759   2.042   1.947  15.769  0.3587 -0.4118 -0.6056
  656TMC3    C3 9760   1.932   2.002  15.819  0.6523  0.3102 -0.5050
  656TMC3    C4 9761   2.089   2.137  15.637  0.3030 -0.8361  0.4783
  656TMC3    C5 9762   1.973   2.187  15.679 -0.0431 -0.4430 -0.0102
  656TMC3    C6 9763   1.895   2.125  15.773  0.3886 -0.3458 -0.2429
  656TMC3     C 9764   2.239   1.949  15.637 -0.5133  0.1823  0.7465
  656TMC3     O 9765   2.304   1.881  15.715  0.1655 -0.4186  0.4330
  656TMC3     H 9766   2.068   1.847  15.801 -0.0096 -1.3961 -3.4012
  656TMC3    H1 9767   2.149   2.189  15.564 -0.4857 -0.8465 -0.1794
  656TMC3    H2 9768   1.817   2.175  15.830  0.5314 -2.2356  1.6258
  656TMC3    C7 9769   1.938   2.328  15.642  0.0779  0.1477 -0.2455
  656TMC3    C8 9770   1.839   1.911  15.877  0.0251  0.0282 -0.1572
  656TMC3    O1 9771   2.032   2.397  15.603 -0.6002  0.0704  0.0260
  656TMC3    O2 9772   1.860   1.794  15.845 -0.2676 -0.1037 -0.4848
  657TMC3    C1 9773   1.274   1.229  14.546 -0.7813 -0.2917  0.0441
  657TMC3    C2 9774   1.162   1.292  14.593  0.0125  0.2105 -0.6884
  657TMC3    C3 9775   1.117   1.403  14.518  0.1345  0.0385 -0.0632
  657TMC3    C4 9776   1.342   1.266  14.428 -0.0808 -0.2641  0.2545
  657TMC3    C5 9777   1.293   1.380  14.361  0.1072  0.1498 -0.3517
  657TMC3    C6 9778   1.186   1.450  14.407  0.8051 -0.2365  0.0088
  657TMC3     C 9779   1.296   1.094  14.593 -0.2167 -0.4297  0.6250
  657TMC3     O 9780   1.201   1.044  14.650 -0.6090 -0.0680  0.2252
  657TMC3     H 9781   1.095   1.248  14.666  0.9285  0.3729  0.2472
  657TMC3    H1 9782   1.413   1.198  14.383 -1.0512  0.6309 -2.6400
  657TMC3    H2 9783   1.144   1.531  14.348 -1.3539 -0.4913  1.1955
  657TMC3    C7 9784   1.374   1.450  14.260 -0.0724  0.0182 -0.1582
  657TMC3    C8 9785   1.047   1.511  14.594 -0.1871  0.2744 -0.1121
  657TMC3    O1 9786   1.343   1.566  14.239  0.0932 -0.1825 -0.0059
  657TMC3    O2 9787   0.989   1.601  14.537  0.4510  0.0855  0.5560
  658MPD2     C 9788   2.681   1.416  14.408 -0.1440  0.7888 -0.1206
  658MPD2    C1 9789   2.617   1.533  14.433 -0.4499 -0.8090  0.3328
  658MPD2    C2 9790   2.673   1.650  14.382  0.7251 -0.3555  0.0672
  658MPD2    C3 9791   2.774   1.650  14.289 -0.7809 -0.2820  0.4161
  658MPD2    C4 9792   2.821   1.529  14.253  0.1570  0.3024  0.5592
  658MPD2    C5 9793   2.782   1.417  14.316 -0.5410  0.7129  0.0446
  658MPD2     H 9794   2.630   1.747  14.402  1.0794 -0.6995  2.5358
  658MPD2    H1 9795   2.892   1.522  14.171 -0.8728  0.0874 -0.3181
  658MPD2    H2 9796   2.646   1.324  14.454  0.1260  1.2467  0.9948
  658MPD2    H3 9797   2.831   1.322  14.299 -1.5612 -0.1639  1.9390
  658MPD2     N 9798   2.812   1.773  14.232 -0.4289  0.1133 -0.3901
  658MPD2    H5 9799   2.762   1.857  14.259 -0.5942  0.0661 -0.5533
  658MPD2    N1 9800   2.502   1.534  14.512  0.0159 -0.4597  0.3626
  658MPD2    H7 9801   2.458   1.443  14.523  0.4523 -0.4030  2.5106
  659TMC3    C1 9802   2.347   1.609  14.683 -0.2496  0.4307  0.5883
  659TMC3    C2 9803   2.358   1.678  14.803  0.8597 -1.2238  0.1832
  659TMC3    C3 9804   2.266   1.643  14.898 -0.5377 -0.5153 -0.4466
  659TMC3    C4 9805   2.255   1.503  14.656 -1.0907  0.2760  0.2955
  659TMC3    C5 9806   2.166   1.479  14.757  0.2790 -0.3498 -0.3845
  659TMC3    C6 9807   2.169   1.547  14.880  0.0903 -0.2295  0.3414
  659TMC3     C 9808   2.456   1.641  14.588 -0.1566 -0.2621  0.2142
  659TMC3     O 9809   2.505   1.754  14.605 -0.2817  0.0565  0.4437
  659TMC3     H 9810   2.434   1.752  14.824  0.1906 -0.3812 -0.3685
  659TMC3    H1 9811   2.250   1.449  14.562 -0.6083  2.2727 -0.9028
  659TMC3    H2 9812   2.108   1.524  14.966  1.0228  0.9453  1.3301
  659TMC3    C7 9813   2.042   1.406  14.718  0.4952  0.0385 -0.2041
  659TMC3    C8 9814   2.267   1.724  15.020 -0.1679 -0.1307  1.1553
  659TMC3    O1 9815   1.995   1.325  14.796  0.1946  0.0872  0.6459
  659TMC3    O2 9816   2.158   1.744  15.078 -0.2602  0.0384 -0.0561
  660MPD2     C 9817   0.314   1.092  12.370  0.5025  0.0720  0.0800
  660MPD2    C1 9818   0.180   1.107  12.395 -0.0346  0.0497  0.3584
  660MPD2    C2 9819   0.118   1.053  12.504  0.3554  0.7397 -0.4668
  660MPD2    C3 9820   0.196   0.973  12.590  0.1903 -0.0297 -0.3185
  660MPD2    C4 9821   0.327   0.951  12.566 -0.4723 -0.2676 -0.2012
  660MPD2    C5 9822   0.388   1.015  12.458  0.6808 -0.2520  0.5528
  660MPD2     H 9823   0.012   1.061  12.525 -0.2146 -1.2795 -2.5271
  660MPD2    H1 9824   0.372   0.883  12.637 -1.1441  0.7007  1.1581
  660MPD2    H2 9825   0.364   1.129  12.281  2.4766 -0.4650  0.9934
  660MPD2    H3 9826   0.494   0.996  12.440  1.2707  2.1651  1.5114
  660MPD2     N 9827   0.144   0.906  12.707  0.0051 -0.2458  0.0985
  660MPD2    H5 9828   0.212   0.847  12.754  1.7473  1.2451 -0.5115
  660MPD2    N1 9829   0.111   1.181  12.298 -0.0368  0.4400 -0.1915
  660MPD2    H7 9830   0.172   1.227  12.232 -1.0827  0.6876 -0.9960
  661TMC3    C1 9831   4.674   1.276  12.166 -0.0996 -0.0153  0.4146
  661TMC3    C2 9832   0.022   1.379  12.122  0.2594  0.1154 -0.3649
  661TMC3    C3 9833   4.708   1.495  12.063  0.7063 -0.4033  0.2488
  661TMC3    C4 9834   4.538   1.294  12.157  0.1477 -0.7717  0.2282
  661TMC3    C5 9835   4.490   1.410  12.115  0.5351 -0.3784  0.4507
  661TMC3    C6 9836   4.571   1.513  12.074  0.1516  0.1463  0.1891
  661TMC3     C 9837   4.713   1.203  12.284  0.5571 -0.3594 -0.0364
  661TMC3     O 9838   4.623   1.185  12.360  0.0673 -0.2034 -0.3563
  661TMC3     H 9839   0.129   1.376  12.134  0.7286  2.4359 -4.0151
  661TMC3    H1 9840   4.480   1.205  12.178 -1.6034  0.1372 -0.7700
  661TMC3    H2 9841   4.529   1.612  12.062 -2.8103 -1.1751 -0.3062
  661TMC3    C7 9842   4.354   1.438  12.144 -0.8028  0.0478 -0.7286
  661TMC3    C8 9843   0.059   1.574  11.978  0.2697 -0.2752 -0.2279
  661TMC3    O1 9844   4.281   1.512  12.080 -0.2691  0.3830 -0.0337
  661TMC3    O2 9845   0.180   1.556  11.999 -0.0652 -0.0073 -0.3312
  662MPD2     C 9846   0.400   0.065  16.843 -0.7883 -0.0777  0.3988
  662MPD2    C1 9847   0.306   0.006  16.925  0.0160 -0.2816  0.0776
  662MPD2    C2 9848   0.213   0.090  16.985 -0.5717 -0.4501  0.4365
  662MPD2    C3 9849   0.202   0.218  16.949  0.3877  0.2321  0.1031
  662MPD2    C4 9850   0.297   0.275  16.871  1.9566 -1.2936 -0.1108
  662MPD2    C5 9851   0.393   0.201  16.811 -0.3973  0.2560  0.2310
  662MPD2     H 9852   0.144   0.053  17.059  0.4554 -0.6659  1.2853
  662MPD2    H1 9853   0.290   0.382  16.857 -0.9684 -1.1708  2.4543
  662MPD2    H2 9854   0.488   0.010  16.812  1.2710  1.7013  3.1301
  662MPD2    H3 9855   0.473   0.247  16.755 -0.2432 -0.1135  0.1490
  662MPD2     N 9856   0.104   0.301  17.002  0.1618 -0.1890  0.0252
  662MPD2    H5 9857   0.106   0.400  16.983 -1.4102  0.1667  1.7237
  662MPD2    N1 9858   0.323   4.617  16.975  0.0519  0.6489 -0.4258
  662MPD2    H7 9859   0.256   4.593  17.047 -0.3216  0.0556 -0.9708
  663TMC3    C1 9860   0.415   4.407  17.015 -0.0806 -0.1603 -0.2813
  663TMC3    C2 9861   0.383   4.411  17.151  0.3837  0.1375 -0.3980
  663TMC3    C3 9862   0.427   4.313  17.236 -0.2419  0.0182  0.2348
  663TMC3    C4 9863   0.462   4.296  16.955  0.1227 -0.1857 -0.0288
  663TMC3    C5 9864   0.472   4.193  17.040 -0.3588  0.8389  0.4609
  663TMC3    C6 9865   0.467   4.200  17.177  0.2395 -0.1860  0.2762
  663TMC3     C 9866   0.399   4.521  16.921 -0.1071 -0.3571 -0.3867
  663TMC3     O 9867   0.463   4.520  16.815  0.8210 -0.3609 -0.3614
  663TMC3     H 9868   0.357   4.504  17.200 -1.4248 -0.9163  0.6617
  663TMC3    H1 9869   0.451   4.286  16.848  0.9263  0.8590 -0.2018
  663TMC3    H2 9870   0.502   4.123  17.244  3.0353  1.0254  0.2058
  663TMC3    C7 9871   0.531   4.076  16.977 -1.0003 -0.4728 -1.0673
  663TMC3    C8 9872   0.339   4.286  17.349  0.2585  1.0543  0.3713
  663TMC3    O1 9873   0.588   4.098  16.872  0.6996  0.2845  0.4553
  663TMC3    O2 9874   0.341   4.168  17.394  0.1635  0.4815  0.4491
  664MPD2     C 9875   3.356   2.633  17.155  0.5634  0.0779  0.4051
  664MPD2    C1 9876   3.444   2.696  17.243 -0.7910  0.6214 -0.3345
  664MPD2    C2 9877   3.469   2.640  17.359  0.5576  0.0103  0.9490
  664MPD2    C3 9878   3.400   2.530  17.402 -0.0026  0.4856  0.1950
  664MPD2    C4 9879   3.320   2.458  17.307  0.6787  0.2534 -0.6126
  664MPD2    C5 9880   3.308   2.511  17.187 -0.4800  0.3009  0.0900
  664MPD2     H 9881   3.533   2.695  17.427  0.6446  0.7738  0.2558
  664MPD2    H1 9882   3.271   2.366  17.336 -0.4108  1.3049  0.9427
  664MPD2    H2 9883   3.334   2.665  17.054 -0.6525 -2.2068 -0.0538
  664MPD2    H3 9884   3.246   2.458  17.116  0.0088  1.5617 -1.2908
  664MPD2     N 9885   3.389   2.519  17.535  0.2909  0.3835  0.9959
  664MPD2    H5 9886   3.429   2.594  17.591  0.4693  0.7627  0.3611
  664MPD2    N1 9887   3.509   2.814  17.214 -0.3844  0.4263 -0.0920
  664MPD2    H7 9888   3.566   2.852  17.290 -2.4609  0.7798  1.2812
  665TMC3    C1 9889   3.311   2.467  17.743  0.0748 -0.0756 -0.2841
  665TMC3    C2 9890   3.278   2.382   0.094 -0.1463 -0.8877 -0.4822
  665TMC3    C3 9891   3.286   2.429   0.226 -0.6448  0.2315 -0.6715
  665TMC3    C4 9892   3.335   2.603   0.009  0.7756 -0.1680 -0.3345
  665TMC3    C5 9893   3.332   2.645   0.143  0.0152  0.6155  0.3528
  665TMC3    C6 9894   3.320   2.561   0.247  0.7516  0.0589 -0.4386
  665TMC3     C 9895   3.320   2.423  17.607 -0.5137  0.4818  0.1646
  665TMC3     O 9896   3.258   2.326  17.563  0.0756  0.5774 -0.0883
  665TMC3     H 9897   3.265   2.277   0.073 -1.4480 -0.4998 -1.6268
  665TMC3    H1 9898   3.313   2.682  17.689  0.4258  0.3841  0.3809
  665TMC3    H2 9899   3.339   2.593   0.349 -3.0273  1.2929 -0.0956
  665TMC3    C7 9900   3.379   2.780   0.166 -0.0064 -0.2996 -0.2682
  665TMC3    C8 9901   3.313   2.338   0.336 -0.8135  0.3922 -0.3028
  665TMC3    O1 9902   3.459   2.817   0.081 -0.5441  0.4899 -0.4714
  665TMC3    O2 9903   3.339   2.389   0.443 -0.0998  0.4139 -0.6236
  666TMC3    C1 9904   2.893   4.221   9.996 -0.5421  0.0480  0.2600
  666TMC3    C2 9905   3.003   4.142  10.034 -0.0058 -0.1780  0.4264
  666TMC3    C3 9906   3.126   4.204  10.042  0.0296  0.7119  0.3041
  666TMC3    C4 9907   2.910   4.354   9.956 -0.4570 -0.1236  0.4422
  666TMC3    C5 9908   3.032   4.415   9.977 -0.2378  0.4300  0.0552
  666TMC3    C6 9909   3.134   4.338  10.025  0.1339  0.4280  0.1632
  666TMC3     C 9910   2.778   4.204  10.073  0.0967 -0.1997 -0.3596
  666TMC3     O 9911   2.738   4.309  10.130 -0.5683 -0.4283  0.0075
  666TMC3     H 9912   2.987   4.039  10.065 -0.0356 -0.2420  0.2013
  666TMC3    H1 9913   2.832   4.417   9.917 -0.2755 -1.1539 -1.6158
  666TMC3    H2 9914   3.232   4.383  10.023  0.7702 -0.9424  0.5790
  666TMC3    C7 9915   3.050   4.563   9.986  0.0294  0.6979  0.8444
  666TMC3    C8 9916   3.223   4.130  10.122 -0.2234 -0.1796  0.1297
  666TMC3    O1 9917   3.156   4.609   9.955 -0.3430 -0.0166  0.6124
  666TMC3    O2 9918   3.204   4.011  10.136 -0.1187 -0.1458 -0.2548
  667MPD2     C 9919   4.222   3.396  14.362  0.3275 -0.6787  0.3267
  667MPD2    C1 9920   4.306   3.325  14.438  0.5848 -0.3940 -0.0033
  667MPD2    C2 9921   4.284   3.191  14.464 -0.5481 -0.0030  0.8151
  667MPD2    C3 9922   4.188   3.127  14.389  0.0977 -0.5697  0.4806
  667MPD2    C4 9923   4.103   3.202  14.307  0.3641 -0.1329 -0.2280
  667MPD2    C5 9924   4.131   3.329  14.284 -0.3884 -0.0278 -0.2499
  667MPD2     H 9925   4.346   3.131  14.530  0.9008 -3.2899 -3.4679
  667MPD2    H1 9926   4.021   3.153  14.254 -0.5767  0.1254  0.9916
  667MPD2    H2 9927   4.232   3.503  14.345 -0.6883 -0.2696  2.2306
  667MPD2    H3 9928   4.072   3.398  14.225 -1.7937 -0.1666  0.9922
  667MPD2     N 9929   4.151   2.990  14.405  0.0213 -0.4609 -0.3908
  667MPD2    H5 9930   4.065   2.966  14.357  0.6762 -0.2935 -1.6287
  667MPD2    N1 9931   4.417   3.375  14.510 -0.2845 -0.4217  0.2647
  667MPD2    H7 9932   4.464   3.319  14.580  1.1414 -0.1788 -0.4934
  668TMC3    C1 9933   4.523   3.550  14.632  1.1523 -0.4390  0.3637
  668TMC3    C2 9934   4.558   3.685  14.629  0.3055  0.1438 -0.1617
  668TMC3    C3 9935   4.577   3.743  14.753 -0.2433  0.4284  0.4737
  668TMC3    C4 9936   4.533   3.476  14.749  0.2697  0.3658 -0.0331
  668TMC3    C5 9937   4.566   3.536  14.864  0.3506  0.0365 -0.1938
  668TMC3    C6 9938   4.578   3.669  14.871  0.4540  0.7164 -0.0982
  668TMC3     C 9939   4.446   3.506  14.504 -0.3256 -0.3291  0.0706
  668TMC3     O 9940   4.414   3.594  14.425  0.0524 -0.6024  0.3205
  668TMC3     H 9941   4.551   3.750  14.543  0.1624  1.7423  1.0653
  668TMC3    H1 9942   4.511   3.370  14.741 -0.2207  0.6048 -1.8435
  668TMC3    H2 9943   4.581   3.716  14.969 -0.5605  1.4059 -0.3966
  668TMC3    C7 9944   4.550   3.454  14.985  0.0590 -0.2788  0.2053
  668TMC3    C8 9945   4.607   3.886  14.767  0.3286  0.4278  0.3047
  668TMC3    O1 9946   4.512   3.335  14.972  0.2029 -0.7866 -0.6203
  668TMC3    O2 9947   4.637   3.925  14.881  0.5724 -0.4369  0.6888
  669TMC3    C1 9948   2.257   3.117  15.306  0.1299  0.1079  0.3720
  669TMC3    C2 9949   2.146   3.177  15.247  0.2767 -0.5943  0.8071
  669TMC3    C3 9950   2.163   3.237  15.122 -0.0511 -1.2091 -0.7725
  669TMC3    C4 9951   2.378   3.122  15.247  1.1555 -0.0081 -0.0531
  669TMC3    C5 9952   2.393   3.189  15.131  0.9851 -0.2744 -0.2023
  669TMC3    C6 9953   2.287   3.246  15.063 -1.2221  0.6117  0.0639
  669TMC3     C 9954   2.236   3.019  15.411 -0.0583  0.3169  0.0458
  669TMC3     O 9955   2.122   3.005  15.451 -0.0782  0.7304  0.1111
  669TMC3     H 9956   2.050   3.158  15.293 -1.6124  3.9091 -1.3207
  669TMC3    H1 9957   2.470   3.093  15.296  0.2053 -0.3368  1.5284
  669TMC3    H2 9958   2.299   3.307  14.974  0.5612  0.2782  0.0771
  669TMC3    C7 9959   2.525   3.207  15.076 -0.4329  0.1020 -0.7243
  669TMC3    C8 9960   2.038   3.249  15.044 -0.2440 -0.2350 -0.3523
  669TMC3    O1 9961   2.539   3.300  14.996  0.5801 -0.0458  0.2047
  669TMC3    O2 9962   1.930   3.261  15.101  0.2217  0.5205  0.2607
  670MPD2     C 9963   0.899   1.411  13.379  0.0009  0.0264  0.9042
  670MPD2    C1 9964   0.964   1.306  13.436  0.4208  0.3339 -0.1467
  670MPD2    C2 9965   0.892   1.225  13.526 -0.2686  0.4602  0.6655
  670MPD2    C3 9966   0.765   1.247  13.558  0.0405  0.6815 -0.2211
  670MPD2    C4 9967   0.701   1.352  13.495 -0.1411  0.3578  0.4615
  670MPD2    C5 9968   0.766   1.433  13.404  0.6681  0.2714  0.5302
  670MPD2     H 9969   0.949   1.158  13.589 -1.4064  1.1022  2.3922
  670MPD2    H1 9970   0.599   1.382  13.518 -0.4917 -2.0703  2.1312
  670MPD2    H2 9971   0.943   1.469  13.298  0.7821 -0.7403  0.7753
  670MPD2    H3 9972   0.712   1.517  13.361 -0.3188 -0.5730  0.1367
  670MPD2     N 9973   0.707   1.168  13.654 -0.4686 -0.1718  0.2222
  670MPD2    H5 9974   0.765   1.112  13.717  0.6640 -0.0570 -0.7209
  670MPD2    N1 9975   1.095   1.257  13.406 -0.4316  0.0713 -0.2269
  670MPD2    H7 9976   1.138   1.188  13.467  0.3683 -0.3794 -1.3055
  671TMC3    C1 9977   0.538   1.055  13.763 -0.3960 -0.7654 -0.2667
  671TMC3    C2 9978   0.610   1.053  13.876  0.3667  0.5433  0.2156
  671TMC3    C3 9979   0.571   0.972  13.974  0.2920  0.8285 -0.0940
  671TMC3    C4 9980   0.427   0.974  13.737 -0.2446  0.7920 -0.2723
  671TMC3    C5 9981   0.387   0.888  13.833  0.4651  0.9755 -0.1062
  671TMC3    C6 9982   0.457   0.893  13.945  0.5929  0.0102  0.2807
  671TMC3     C 9983   0.569   1.145  13.653  0.6788 -0.0650  0.1491
  671TMC3     O 9984   0.492   1.153  13.562  0.1380 -1.0092 -0.1721
  671TMC3     H 9985   0.680   1.132  13.901  0.1268  0.5165  0.9514
  671TMC3    H1 9986   0.395   0.969  13.634 -0.0537  0.9398 -0.3369
  671TMC3    H2 9987   0.426   0.821  14.020 -1.3045 -1.0326 -1.4761
  671TMC3    C7 9988   0.335   0.766  13.781 -0.0548 -0.2899 -0.0647
  671TMC3    C8 9989   0.669   0.912  14.054  0.2577  0.6670 -0.1925
  671TMC3    O1 9990   0.338   0.747  13.660  0.1521  0.7356  0.0825
  671TMC3    O2 9991   0.779   0.930  14.005  0.0144 -0.2436 -0.6917
  672MPD2     C 9992   1.607   1.032   0.045 -0.1309  0.2591 -0.3639
  672MPD2    C1 9993   1.543   0.931   0.116  0.2321  0.2496 -0.1976
  672MPD2    C2 9994   1.520   0.965   0.250 -0.3487  0.1495  0.3604
  672MPD2    C3 9995   1.541   1.090   0.303 -0.0814  0.5580 -0.3334
  672MPD2    C4 9996   1.604   1.189   0.224  0.0501 -0.4853 -0.9427
  672MPD2    C5 9997   1.633   1.158   0.093 -0.2978 -0.6072  0.6405
  672MPD2     H 9998   1.481   0.887   0.315  0.1991 -0.1581  0.3171
  672MPD2    H1 9999   1.624   1.290   0.259  1.2344 -0.9532 -0.2845
  672MPD2    H210000   1.625   1.014  17.691  1.6663 -0.6440  0.0949
  672MPD2    H310001   1.685   1.235   0.037 -0.1524  0.0339  1.6480
  672MPD2     N10002   1.504   1.112   0.432  0.8703 -0.2307 -0.1309
  672MPD2    H510003   1.462   1.034   0.481  1.7851  0.5647  1.9384
  672MPD2    N110004   1.529   0.801   0.067 -0.3122 -0.2789 -0.3496
  672MPD2    H710005   1.479   0.736   0.127 -1.3020  0.1118 -0.7598
  673TMC3    C110006   1.520   0.616  17.686  0.4043 -0.8249  1.1965
  673TMC3    C210007   1.603   0.508  17.669  0.0785  0.2742 -0.6033
  673TMC3    C310008   1.541   0.389  17.646 -0.1370  0.9096  0.0408
  673TMC3    C410009   1.386   0.607  17.695 -0.0755  0.1578 -0.4759
  673TMC3    C510010   1.330   0.488  17.674 -0.3095  0.1101 -0.7304
  673TMC3    C610011   1.401   0.381  17.631 -0.3982  0.2018  0.6356
  673TMC3     C10012   1.589   0.743  17.702 -0.1588 -0.0533  0.1070
  673TMC3     O10013   1.681   0.778  17.635 -0.0493 -0.0788  0.0798
  673TMC3     H10014   1.710   0.519  17.679  0.2864 -2.4641  0.2950
  673TMC3    H110015   1.329   0.697  17.712 -0.1523  0.0314 -0.0717
  673TMC3    H210016   1.352   0.285  17.622 -1.8468  1.0294 -0.2428
  673TMC3    C710017   1.183   0.480  17.677  0.5752 -0.3236 -0.6004
  673TMC3    C810018   1.603   0.263  17.683  0.0021  0.1481  0.2732
  673TMC3    O110019   1.139   0.376  17.634 -0.2631 -0.3681  0.0105
  673TMC3    O210020   1.573   0.153  17.634 -1.0779  0.0086  0.0983
  674MPD2     C10021   0.803   4.382  17.184  0.8268  0.5745 -0.4380
  674MPD2    C110022   0.785   4.300  17.295  0.9176 -0.5139 -0.9244
  674MPD2    C210023   0.717   4.347  17.404 -0.6054  0.3611 -0.5983
  674MPD2    C310024   0.685   4.480  17.413 -0.0522 -0.0081 -0.0511
  674MPD2    C410025   0.719   4.564  17.308 -0.1004  0.2240 -0.9297
  674MPD2    C510026   0.775   4.513  17.195  0.1341  0.1436 -0.0176
  674MPD2     H10027   0.684   4.274  17.477  1.4578 -1.2835 -1.3274
  674MPD2    H110028   0.694   4.668  17.323 -1.8021 -0.3029 -0.1069
  674MPD2    H210029   0.862   4.354  17.098 -2.1730 -0.4444 -2.1882
  674MPD2    H310030   0.801   4.583  17.117 -0.3110 -1.8527 -1.9629
  674MPD2     N10031   0.620   4.534  17.523  0.4430 -1.4050  0.4314
  674MPD2    H510032   0.614   4.636  17.530  0.5924 -1.3603 -0.0654
  674MPD2    N110033   0.808   4.161  17.283  0.2576 -0.3543  0.3991
  674MPD2    H710034   0.797   4.126  17.188 -1.2804 -0.5296  0.6431
  675TMC3    C110035   0.893   4.118  17.504 -0.1616 -0.6128  0.1755
  675TMC3    C210036   0.831   4.090  17.615 -0.4448 -0.7318  0.7962
  675TMC3    C310037   0.874   4.145  17.735  0.0553 -0.7347  0.4634
  675TMC3    C410038   0.988   4.214  17.502  0.0787 -0.2533  0.5698
  675TMC3    C510039   1.040   4.269  17.623  0.7040 -0.6732  0.5509
  675TMC3    C610040   0.972   4.236  17.735  0.0199  0.0957  0.1631
  675TMC3     C10041   0.827   4.069  17.386  0.2717  0.4024  1.2055
  675TMC3     O10042   0.820   3.952  17.374 -0.3393  0.0522 -0.0215
  675TMC3     H10043   0.748   4.021  17.607 -3.0173  2.3527  1.0094
  675TMC3    H110044   1.033   4.245  17.408 -1.4425 -0.8007 -0.3249
  675TMC3    H210045   1.000   4.288   0.074 -1.0319  0.8288  0.0695
  675TMC3    C710046   1.111   4.399  17.616  0.1035  0.4305 -0.7768
  675TMC3    C810047   0.783   4.125   0.090  0.6138 -0.1446 -0.4153
  675TMC3    O110048   1.163   4.446  17.716  0.0307 -0.3951  0.7664
  675TMC3    O210049   0.691   4.044   0.084  0.5427 -0.4550 -0.3695
  676MPD2     C10050   3.739   0.230  11.728  0.5686 -0.7972  0.1962
  676MPD2    C110051   3.638   0.171  11.802  0.6286  0.4986 -0.5286
  676MPD2    C210052   3.589   0.052  11.760 -0.2762 -0.3571 -0.0155
  676MPD2    C310053   3.633   4.730  11.646 -0.3839 -0.0420  0.6624
  676MPD2    C410054   3.731   0.046  11.575  0.1824 -0.3135 -0.4729
  676MPD2    C510055   3.784   0.166  11.616 -0.3915  0.1951 -0.3864
  676MPD2     H10056   3.516   0.003  11.823 -1.2386  2.0705  0.7492
  676MPD2    H110057   3.765   0.004  11.481 -1.1170 -1.6878 -0.3311
  676MPD2    H210058   3.792   0.321  11.753 -0.2489 -0.6710  1.4641
  676MPD2    H310059   3.865   0.207  11.556  0.7597 -1.5435 -0.0196
  676MPD2     N10060   3.581   4.607  11.585 -0.3407 -0.1881  0.2177
  676MPD2    H510061   3.638   4.573  11.509 -0.1390  0.7095 -0.0382
  676MPD2    N110062   3.588   0.237  11.917 -0.3805 -0.9326  0.3580
  676MPD2    H710063   3.502   0.203  11.956  0.2927 -0.6552  2.0728
  677TMC3    C110064   3.552   0.434  12.041  0.3574  0.0073 -0.1665
  677TMC3    C210065   3.493   0.365  12.140 -0.6450  0.2398 -0.1185
  677TMC3    C310066   3.484   0.420  12.266  0.0905  0.0837  0.0940
  677TMC3    C410067   3.593   0.560  12.056  0.0039 -0.8749  0.6998
  677TMC3    C510068   3.587   0.615  12.181 -0.3299 -0.3553 -0.0499
  677TMC3    C610069   3.533   0.548  12.289 -0.2429 -0.3037 -0.1070
  677TMC3     C10070   3.646   0.356  11.961  0.0849 -0.2228  0.4014
  677TMC3     O10071   3.758   0.407  11.950 -0.1645  0.3601 -0.0685
  677TMC3     H10072   3.458   0.262  12.135  2.0249 -0.7132  1.1944
  677TMC3    H110073   3.648   0.613  11.980 -0.4682 -1.3687  0.0163
  677TMC3    H210074   3.519   0.605  12.380 -0.2285 -0.8201  0.2211
  677TMC3    C710075   3.685   0.715  12.215 -0.1994 -0.6438 -0.6322
  677TMC3    C810076   3.409   0.337  12.361 -0.0611  0.1045  0.0337
  677TMC3    O110077   3.729   0.713  12.333 -0.3309  0.2745 -0.4236
  677TMC3    O210078   3.410   0.216  12.340  0.2785 -0.2764 -0.3126
  678MPD2     C10079   4.605   3.191   1.026  0.7527  0.2541 -0.1437
  678MPD2    C110080   4.636   3.248   0.898 -0.5000 -0.7844  0.0212
  678MPD2    C210081   4.545   3.330   0.838 -0.7299 -0.3770 -0.3592
  678MPD2    C310082   4.432   3.370   0.908 -0.3382  0.3157 -0.6963
  678MPD2    C410083   4.406   3.317   1.034 -0.4334  0.5587  0.0455
  678MPD2    C510084   4.493   3.227   1.091  0.2402  0.3123 -0.1626
  678MPD2     H10085   4.560   3.395   0.752 -0.0159  1.2075  0.9571
  678MPD2    H110086   4.317   3.330   1.094 -0.4363  0.5751  0.0378
  678MPD2    H210087   4.671   3.121   1.076 -0.3828  1.3854  2.9077
  678MPD2    H310088   4.472   3.189   1.191 -1.9225 -0.9446 -1.0853
  678MPD2     N10089   4.355   3.477   0.851  0.0390 -0.3322  0.2310
  678MPD2    H510090   4.370   3.492   0.752  1.8680 -1.5250  0.3346
  678MPD2    N110091   0.016   3.232   0.828  0.6443 -0.1709  0.2503
  678MPD2    H710092   0.025   3.289   0.745  0.4375  1.8754  1.6360
  679TMC3    C110093   0.450   3.130   0.703  0.5456  0.3428 -0.2443
  679TMC3    C210094   0.347   3.109   0.791  0.4586 -0.3840  0.2694
  679TMC3    C310095   0.243   3.197   0.788  0.7919  0.4041 -0.0858
  679TMC3    C410096   0.447   3.234   0.608  0.3286  0.4812  0.2889
  679TMC3    C510097   0.344   3.323   0.613 -0.1470  0.0851 -0.4198
  679TMC3    C610098   0.248   3.304   0.710 -0.4079  0.4912 -0.0150
  679TMC3     C10099   0.555   3.035   0.686  0.2038  0.0118  0.5693
  679TMC3     O10100   0.632   3.051   0.591  0.1382  0.9760 -0.4710
  679TMC3     H10101   0.348   3.023   0.857  0.9830  0.6305  1.5839
  679TMC3    H110102   0.522   3.242   0.530 -0.9685 -0.8702 -1.0886
  679TMC3    H210103   0.165   3.373   0.714 -1.5833 -0.8797 -0.9177
  679TMC3    C710104   0.308   3.407   0.500 -0.0490  0.6331 -0.2264
  679TMC3    C810105   0.131   3.175   0.878  0.1974 -0.3355  0.0423
  679TMC3    O110106   0.212   3.476   0.512 -0.2382  0.0046  0.4772
  679TMC3    O210107   0.151   3.117   0.982  0.1098 -0.0860  0.5871
  680MPD2     C10108   4.708   2.902  13.945  0.8480  0.0387 -0.6437
  680MPD2    C110109   0.098   2.859  13.982  0.1083 -0.3565  0.6384
  680MPD2    C210110   0.199   2.954  13.982  0.1185 -0.4296 -0.0915
  680MPD2    C310111   0.189   3.077  13.934  0.3941  0.2874 -0.3093
  680MPD2    C410112   0.062   3.120  13.895 -0.0176 -0.2529 -0.6551
  680MPD2    C510113   4.693   3.031  13.895 -0.8133  0.3672 -1.1936
  680MPD2     H10114   0.299   2.914  13.997 -0.9442 -3.6502 -1.6142
  680MPD2    H110115   0.041   3.223  13.868  1.4624  0.1198 -0.4095
  680MPD2    H210116   4.621   2.838  13.956  1.7177 -1.0574 -0.2404
  680MPD2    H310117   4.595   3.062  13.861  0.0557  2.5754 -1.6730
  680MPD2     N10118   0.284   3.174  13.962 -0.2976 -0.3922 -0.2340
  680MPD2    H510119   0.253   3.269  13.942  1.8634 -0.0576 -1.9658
  680MPD2    N110120   0.132   2.733  14.039 -0.1150  0.0312 -0.2191
  680MPD2    H710121   0.223   2.724  14.082  0.3525  1.8649 -0.8110
  681TMC3    C110122   0.133   2.513  14.107 -0.2931  0.2299 -0.9501
  681TMC3    C210123   0.082   2.448  14.208 -0.3509 -0.2305 -0.3569
  681TMC3    C310124   0.169   2.392  14.290  0.2393  0.5452  0.7914
  681TMC3    C410125   0.267   2.506  14.072  0.5334 -0.1343  0.4565
  681TMC3    C510126   0.351   2.442  14.154 -0.0544 -0.1930  0.2132
  681TMC3    C610127   0.306   2.378  14.269  0.3621 -0.5376 -0.1065
  681TMC3     C10128   0.050   2.623  14.049 -0.0508  0.8554 -0.4070
  681TMC3     O10129   4.668   2.611  14.036 -0.6409 -0.8377 -0.2578
  681TMC3     H10130   4.716   2.465  14.232  0.5777  3.3425  1.1768
  681TMC3    H110131   0.304   2.560  13.985  0.7136  0.0942  0.6722
  681TMC3    H210132   0.375   2.323  14.331  0.1291  0.4199  0.9966
  681TMC3    C710133   0.495   2.471  14.142 -0.5951 -0.2244  0.0648
  681TMC3    C810134   0.109   2.352  14.418 -0.1640  0.7073  0.1656
  681TMC3    O110135   0.549   2.481  14.249  0.0372  0.1384  0.1588
  681TMC3    O210136   4.730   2.319  14.413 -0.1826 -0.0365 -0.7781
  682MPD2     C10137   2.592   0.505  11.054  0.0062 -0.2752  0.3263
  682MPD2    C110138   2.512   0.397  11.034  0.7388 -0.2217  0.5669
  682MPD2    C210139   2.446   0.337  11.146 -0.9142 -0.0177 -0.9736
  682MPD2    C310140   2.454   0.394  11.274  0.6121  0.1209 -0.0671
  682MPD2    C410141   2.535   0.512  11.284  0.1570 -0.2242 -0.3680
  682MPD2    C510142   2.602   0.557  11.177  0.8975 -0.0203 -0.0926
  682MPD2     H10143   2.400   0.240  11.130 -1.2473  0.0421 -0.3894
  682MPD2    H110144   2.550   0.559  11.380  1.5492 -1.3358 -0.0480
  682MPD2    H210145   2.653   0.552  10.978  1.2423 -5.3818 -1.8530
  682MPD2    H310146   2.653   0.653  11.178  0.5894  0.1653 -1.6941
  682MPD2     N10147   2.405   0.335  11.393  0.2350 -0.0797  0.4956
  682MPD2    H510148   2.411   0.385  11.481  3.2225  0.3349  0.0762
  682MPD2    N110149   2.478   0.347  10.903  0.2132  0.2972 -0.1673
  682MPD2    H710150   2.413   0.270  10.899  0.0824  0.4227 -0.4335
  683TMC3    C110151   2.329   0.211  11.745 -0.4375  0.2934  0.2635
  683TMC3    C210152   2.195   0.207  11.768 -0.4131 -0.6757 -0.3092
  683TMC3    C310153   2.113   0.175  11.664  0.5478  0.4601  0.5540
  683TMC3    C410154   2.372   0.199  11.619 -0.7180  0.9523  0.0371
  683TMC3    C510155   2.280   0.184  11.520 -0.3474 -0.4769 -0.4141
  683TMC3    C610156   2.149   0.157  11.536 -0.2833 -0.4942  0.0630
  683TMC3     C10157   2.416   0.269  11.839  0.1243  0.5898 -0.2460
  683TMC3     O10158   2.369   0.338  11.929 -0.0993  0.2850  0.1407
  683TMC3     H10159   2.161   0.219  11.870  1.2485  2.0944 -0.0760
  683TMC3    H110160   2.475   0.190  11.585 -1.9582 -2.8546 -2.7303
  683TMC3    H210161   2.084   0.138  11.452 -0.1681  3.6672 -0.9949
  683TMC3    C710162   2.315   0.226  11.384  0.2421 -0.4869 -0.2801
  683TMC3    C810163   1.974   0.139  11.694 -0.9090  0.0276 -0.4390
  683TMC3    O110164   2.242   0.185  11.289 -0.3542 -0.1285  0.4609
  683TMC3    O210165   1.921   0.205  11.782  0.2817  0.0575 -0.3869
  684MPD2     C10166   0.979   3.900  16.708  0.0462  0.5780  0.5710
  684MPD2    C110167   0.909   3.878  16.592 -0.0179 -0.1362 -0.5595
  684MPD2    C210168   0.838   3.984  16.535  0.2385  0.8704 -0.6418
  684MPD2    C310169   0.848   4.110  16.584 -0.9534  0.8295  0.0628
  684MPD2    C410170   0.924   4.130  16.700  0.9643  0.9376  0.0925
  684MPD2    C510171   0.995   4.026  16.755  0.1709 -0.1423 -0.1739
  684MPD2     H10172   0.799   3.958  16.437  0.9486 -0.2472 -0.6227
  684MPD2    H110173   0.946   4.229  16.738  0.6015  0.6068  1.1447
  684MPD2    H210174   1.031   3.824  16.765  0.9913  1.4560  0.8726
  684MPD2    H310175   1.074   4.047  16.826 -0.5639 -1.0668  0.9081
  684MPD2     N10176   0.826   4.226  16.503 -0.0181  0.0194 -0.0264
  684MPD2    H510177   0.874   4.309  16.539 -2.2810  2.2352 -2.1448
  684MPD2    N110178   0.902   3.756  16.528  0.0868  0.1647  0.5099
  684MPD2    H710179   0.848   3.743  16.443 -0.2252  2.2748  0.3918
  685TMC3    C110180   0.984   3.546  16.455 -0.3735 -0.4747  0.4099
  685TMC3    C210181   0.877   3.525  16.375 -0.5862 -0.1865  0.4879
  685TMC3    C310182   0.889   3.464  16.256 -0.0128  0.6547 -0.6853
  685TMC3    C410183   1.108   3.497  16.417  0.2041 -0.4169 -0.5328
  685TMC3    C510184   1.111   3.415  16.306  0.0182  0.1733 -0.7286
  685TMC3    C610185   1.002   3.398  16.226 -0.4404 -0.4899  0.1987
  685TMC3     C10186   0.979   3.646  16.563 -0.0225  0.0451 -0.0760
  685TMC3     O10187   1.067   3.634  16.648  0.4965  0.0795 -0.0112
  685TMC3     H10188   0.785   3.570  16.410 -0.8428  0.4542 -1.0348
  685TMC3    H110189   1.194   3.529  16.475  0.8308  1.4644 -2.4923
  685TMC3    H210190   1.002   3.337  16.136  0.2615 -1.5243  0.9085
  685TMC3    C710191   1.233   3.361  16.254 -0.1424  0.5370  0.2164
  685TMC3    C810192   0.793   3.483  16.150 -0.0263 -0.7016 -0.3473
  685TMC3    O110193   1.216   3.274  16.171  0.1566 -0.0514 -0.2752
  685TMC3    O210194   0.828   3.437  16.040 -0.3626 -0.1908 -0.4245
  686MPD2     C10195   1.147   3.593  15.962 -0.4774  0.1188 -0.5533
  686MPD2    C110196   1.237   3.495  15.930 -0.4695 -0.0446  0.1189
  686MPD2    C210197   1.371   3.521  15.971 -0.1135 -0.6471 -0.5531
  686MPD2    C310198   1.405   3.618  16.055  0.5955 -0.1050  0.7637
  686MPD2    C410199   1.309   3.702  16.100 -0.2757  0.0400  0.5318
  686MPD2    C510200   1.185   3.684  16.051  0.0789 -0.2971  0.2072
  686MPD2     H10201   1.453   3.462  15.930  1.6842  1.3771  0.1395
  686MPD2    H110202   1.325   3.791  16.159 -4.7688  0.7788  0.6246
  686MPD2    H210203   1.043   3.600  15.932 -0.0656  0.3803 -1.9231
  686MPD2    H310204   1.104   3.748  16.085  1.3368  2.8021 -2.6651
  686MPD2     N10205   1.541   3.632  16.091  0.1643 -0.1043 -0.1778
  686MPD2    H510206   1.607   3.572  16.042 -0.0350 -0.1547 -0.3835
  686MPD2    N110207   1.193   3.381  15.864  0.0474 -0.3372  0.3377
  686MPD2    H710208   1.097   3.375  15.833  0.7879  1.9970 -2.4282
  687TMC3    C110209   1.730   3.673  16.222  0.4724 -0.2266 -0.5230
  687TMC3    C210210   1.810   3.673  16.116  0.6062 -0.7523  0.7959
  687TMC3    C310211   1.941   3.649  16.139 -0.0536  0.5382 -0.2045
  687TMC3    C410212   1.773   3.660  16.354 -0.3508  0.0883 -0.2458
  687TMC3    C510213   1.904   3.637  16.376 -0.1989 -0.3968 -0.0503
  687TMC3    C610214   1.988   3.643  16.271  0.2261  0.3591 -0.1288
  687TMC3     C10215   1.588   3.695  16.203 -0.4222 -0.2949  0.3390
  687TMC3     O10216   1.527   3.757  16.286  0.3719 -0.0671 -0.0428
  687TMC3     H10217   1.773   3.679  16.014 -1.2200 -1.7248  1.4011
  687TMC3    H110218   1.717   3.679  16.445 -1.9127 -1.9571 -0.7703
  687TMC3    H210219   2.094   3.620  16.275  0.0871 -0.6837 -2.0704
  687TMC3    C710220   1.941   3.597  16.509 -0.6351 -0.0418 -1.3633
  687TMC3    C810221   2.043   3.670  16.039  0.2027 -0.1307  0.1127
  687TMC3    O110222   1.879   3.632  16.610 -0.3402 -0.2067  0.2846
  687TMC3    O210223   2.159   3.669  16.080  0.0277 -0.1206  0.4167
  688MPD2     C10224   0.843   1.934  17.052 -0.9771  0.5533 -0.0670
  688MPD2    C110225   0.929   1.838  17.108  1.0422 -0.3872 -0.1504
  688MPD2    C210226   1.044   1.804  17.027 -0.0381  0.4775  0.4585
  688MPD2    C310227   1.070   1.875  16.918 -0.1966  0.1388  1.2623
  688MPD2    C410228   0.993   1.970  16.869 -0.7257 -0.3108 -0.2249
  688MPD2    C510229   0.869   1.984  16.927 -0.2447  0.4563  0.3328
  688MPD2     H10230   1.104   1.716  17.047  1.6678  1.0783 -2.0938
  688MPD2    H110231   1.017   2.027  16.780  1.7874 -1.2839 -0.1821
  688MPD2    H210232   0.747   1.959  17.096 -0.4053  0.7223  1.0982
  688MPD2    H310233   0.792   2.049  16.888 -0.5691 -0.1891 -0.1194
  688MPD2     N10234   1.193   1.865  16.843  0.1804 -0.6072  0.1175
  688MPD2    H510235   1.196   1.934  16.769  0.9516 -1.0428 -0.2552
  688MPD2    N110236   0.904   1.765  17.233 -0.6698 -0.1572 -0.0441
  688MPD2    H710237   0.962   1.683  17.247 -4.3998 -2.6770  0.6079
  689TMC3    C110238   0.798   1.715  17.440  0.4373 -0.1958  0.1035
  689TMC3    C210239   0.762   1.771  17.560  0.1192  0.1624 -0.7795
  689TMC3    C310240   0.803   1.701  17.673  0.0164 -0.5062  0.0997
  689TMC3    C410241   0.856   1.595  17.422 -0.6514 -0.8352 -0.1812
  689TMC3    C510242   0.887   1.529  17.540  0.3511  0.2789 -0.3564
  689TMC3    C610243   0.860   1.581  17.664 -0.5986  0.6917 -0.6121
  689TMC3     C10244   0.800   1.794  17.320  0.1594  0.3233  0.6433
  689TMC3     O10245   0.730   1.895  17.313 -0.2928  0.8392 -0.5008
  689TMC3     H10246   0.719   1.870  17.562 -1.5091 -0.5680  0.7251
  689TMC3    H110247   0.868   1.545  17.327 -0.7143  0.8190 -1.0561
  689TMC3    H210248   0.864   1.518   0.001  1.2816  0.4738 -0.8404
  689TMC3    C710249   0.924   1.390  17.548 -0.8326 -0.3374  0.2947
  689TMC3    C810250   0.755   1.742   0.055 -0.4806  0.1982  0.2105
  689TMC3    O110251   0.951   1.341  17.657  0.3352 -0.3664  0.4930
  689TMC3    O210252   0.814   1.693   0.148  0.2454 -0.0926 -0.1308
  690MPD2     C10253   3.274   4.183  15.449  0.3321 -0.1151 -0.1720
  690MPD2    C110254   3.361   4.096  15.508  0.5353  0.1196 -0.2659
  690MPD2    C210255   3.475   4.066  15.440  0.4225  0.1870 -0.3144
  690MPD2    C310256   3.513   4.133  15.326  0.2657  0.3362 -0.0979
  690MPD2    C410257   3.417   4.216  15.260 -0.2147  0.5449 -0.6213
  690MPD2    C510258   3.303   4.242  15.327  0.2146  0.7384 -0.9087
  690MPD2     H10259   3.550   3.997  15.477 -0.7764 -0.8790  0.1229
  690MPD2    H110260   3.430   4.256  15.160 -0.6067 -2.2990 -1.8441
  690MPD2    H210261   3.180   4.211  15.495  0.9122 -1.9820  2.1132
  690MPD2    H310262   3.233   4.317  15.294 -1.9200 -0.1938  1.5522
  690MPD2     N10263   3.643   4.115  15.278 -0.1745 -0.2507 -0.3703
  690MPD2    H510264   3.712   4.070  15.337 -1.0328 -0.5317  0.4240
  690MPD2    N110265   3.343   4.026  15.630  0.3474 -0.1114  0.2893
  690MPD2    H710266   3.402   3.946  15.651  2.5125  1.1316 -1.0837
  691TMC3    C110267   3.245   3.943  15.830  0.2432  0.3251 -0.1167
  691TMC3    C210268   3.149   3.972  15.922  0.1358  0.0679  1.0458
  691TMC3    C310269   3.095   3.865  15.984  0.1232 -0.3058  0.4072
  691TMC3    C410270   3.292   3.820  15.802  0.1389  0.2471  0.0373
  691TMC3    C510271   3.235   3.719  15.873  1.1299  0.0197  0.4185
  691TMC3    C610272   3.133   3.738  15.963 -0.5776  0.4254  0.6513
  691TMC3     C10273   3.257   4.051  15.729  0.0183  0.6679 -0.0662
  691TMC3     O10274   3.175   4.142  15.734  0.1154  0.1499 -0.0075
  691TMC3     H10275   3.109   4.072  15.932  0.7165  0.4300 -0.3060
  691TMC3    H110276   3.366   3.804  15.725 -0.1311 -0.7375 -0.0241
  691TMC3    H210277   3.081   3.659  16.015  1.7930  0.3586  2.9044
  691TMC3    C710278   3.268   3.583  15.831  0.2556  0.2932  0.6682
  691TMC3    C810279   2.956   3.866  16.015 -0.5519 -0.5535  0.2944
  691TMC3    O110280   3.385   3.560  15.798 -0.1293  0.3142 -0.6730
  691TMC3    O210281   2.914   3.768  16.073 -0.2057 -0.3710  0.2643
  692TMC3    C110282   0.320   0.324  15.476 -0.1439 -0.3005 -0.0370
  692TMC3    C210283   0.433   0.390  15.498 -0.4276  0.2815  0.8033
  692TMC3    C310284   0.549   0.318  15.521 -0.2381 -0.4274 -0.4369
  692TMC3    C410285   0.300   0.189  15.493 -0.0215 -0.5218  0.2385
  692TMC3    C510286   0.420   0.120  15.519 -0.2012  0.0362 -0.1924
  692TMC3    C610287   0.538   0.183  15.541  0.8833 -0.1152 -0.0518
  692TMC3     C10288   0.205   0.403  15.517 -0.4571  0.8927 -0.1158
  692TMC3     O10289   0.102   0.340  15.538 -0.2778  0.0277 -0.0845
  692TMC3     H10290   0.449   0.487  15.452 -0.5895 -0.4255 -0.7343
  692TMC3    H110291   0.204   0.138  15.482  0.7247 -1.3616 -2.5749
  692TMC3    H210292   0.632   0.129  15.545  0.5927 -0.6183  0.0311
  692TMC3    C710293   0.415   4.715  15.530  0.7479  0.9340 -0.7532
  692TMC3    C810294   0.626   0.381  15.628 -0.3529 -0.0667  0.1196
  692TMC3    O110295   0.327   4.660  15.466 -0.4133  0.1739  0.4326
  692TMC3    O210296   0.723   0.317  15.664 -0.0175 -0.7525  0.1481
  693MPD2     C10297   0.230   3.934  10.945 -0.0484 -0.3255  0.0401
  693MPD2    C110298   0.231   3.865  11.062  0.5084  0.1442  0.2914
  693MPD2    C210299   0.345   3.813  11.111  0.5190 -0.2988 -0.0576
  693MPD2    C310300   0.470   3.855  11.057  0.3571  0.2674  0.0065
  693MPD2    C410301   0.468   3.937  10.951 -0.1764  0.4449 -0.3891
  693MPD2    C510302   0.350   3.974  10.893 -0.3288  0.4616  0.0697
  693MPD2     H10303   0.343   3.751  11.200 -0.1029 -2.1673 -1.3765
  693MPD2    H110304   0.559   3.970  10.902 -0.7618  2.6576  0.0153
  693MPD2    H210305   0.139   3.982  10.910  0.0142  0.8097  1.4530
  693MPD2    H310306   0.356   4.034  10.803 -0.3333 -0.8437 -0.7997
  693MPD2     N10307   0.602   3.811  11.101 -0.2144  0.3309 -0.5104
  693MPD2    H510308   0.681   3.842  11.046  0.0315 -0.4450 -0.5936
  693MPD2    N110309   0.109   3.840  11.121 -0.4815  0.2015 -0.2101
  693MPD2    H710310   0.027   3.869  11.069  0.0675  0.9342 -0.6649
  694TMC3    C110311   4.684   3.739  11.237 -0.0210  0.6138  0.4468
  694TMC3    C210312   4.611   3.764  11.128  0.6280  0.6453 -0.5295
  694TMC3    C310313   4.475   3.776  11.145  0.2669  0.0607 -0.2064
  694TMC3    C410314   4.634   3.727  11.360  1.0918 -0.8174 -0.2251
  694TMC3    C510315   4.500   3.739  11.373 -1.0217 -0.2638  0.5124
  694TMC3    C610316   4.414   3.756  11.266 -0.2241 -0.0739 -0.1472
  694TMC3     C10317   0.084   3.770  11.236  0.2713  0.4584  0.2064
  694TMC3     O10318   0.154   3.705  11.309  0.6722 -0.9575  0.4425
  694TMC3     H10319   4.655   3.739  11.032  1.0122  1.5497 -0.5782
  694TMC3    H110320   4.696   3.716  11.448  0.9609 -1.2545 -0.1875
  694TMC3    H210321   4.307   3.748  11.283 -0.6531 -2.3568 -3.8283
  694TMC3    C710322   4.434   3.711  11.499 -0.3795  0.2096  0.4195
  694TMC3    C810323   4.386   3.739  11.036  0.3127 -0.4789 -0.4297
  694TMC3    O110324   4.333   3.770  11.530 -0.4665 -0.0351  0.4709
  694TMC3    O210325   4.268   3.732  11.068 -0.5155 -0.4504 -0.2607
  695MPD2     C10326   0.965   0.370  13.406 -0.1622 -0.0127 -0.5252
  695MPD2    C110327   0.898   0.392  13.525  0.2235  0.3314  0.4578
  695MPD2    C210328   0.765   0.435  13.531  0.1925 -0.5064 -0.1156
  695MPD2    C310329   0.703   0.458  13.405 -0.3251  0.3565  0.2151
  695MPD2    C410330   0.772   0.437  13.283 -0.0163  0.3168  0.1074
  695MPD2    C510331   0.905   0.397  13.288 -0.6986 -0.5325 -0.1553
  695MPD2     H10332   0.713   0.439  13.626 -0.4130  0.5480 -0.4926
  695MPD2    H110333   0.732   0.456  13.184  1.6297  0.2589 -0.5879
  695MPD2    H210334   1.065   0.328  13.406  0.0421  0.4640 -1.4352
  695MPD2    H310335   0.971   0.379  13.204  0.5006  2.5891  0.1116
  695MPD2     N10336   0.570   0.506  13.403 -0.5911  0.0456  0.2603
  695MPD2    H510337   0.521   0.503  13.492 -5.4551 -1.6777 -2.4743
  695MPD2    N110338   0.963   0.376  13.651  0.0058  0.3566  0.6265
  695MPD2    H710339   0.911   0.396  13.736 -1.4878 -0.0038 -0.1949
  696TMC3    C110340   0.368   0.594  13.317  0.2234  0.3529  0.0224
  696TMC3    C210341   0.309   0.496  13.391 -0.1516 -0.3875 -0.2153
  696TMC3    C310342   0.186   0.520  13.446 -0.5029 -0.0432  0.2150
  696TMC3    C410343   0.312   0.719  13.305  0.7844  0.1373 -0.0069
  696TMC3    C510344   0.192   0.737  13.359 -0.3157 -0.6828  0.2707
  696TMC3    C610345   0.128   0.645  13.431 -0.0320 -0.5833  0.5726
  696TMC3     C10346   0.507   0.582  13.302  0.0357  0.0954  0.5623
  696TMC3     O10347   0.556   0.617  13.195  1.3757 -0.1780  0.6986
  696TMC3     H10348   0.348   0.395  13.392 -0.5018 -0.5152  0.5313
  696TMC3    H110349   0.363   0.797  13.250  2.3535 -0.9009 -0.0231
  696TMC3    H210350   0.030   0.667  13.471 -0.1725 -1.6757  0.8238
  696TMC3    C710351   0.142   0.878  13.369 -0.4620 -0.8297 -0.3203
  696TMC3    C810352   0.104   0.408  13.470  0.2669  0.1036  0.3976
  696TMC3    O110353   0.162   0.949  13.270  0.2241 -0.0815 -0.3497
  696TMC3    O210354   0.113   0.322  13.376 -0.0165 -0.2257  0.3557
  697MPD2     C10355   0.006   1.947  15.788 -0.3482 -0.0682 -0.3791
  697MPD2    C110356   0.009   1.914  15.653  0.1583  0.1958  0.2376
  697MPD2    C210357   0.031   2.008  15.556  0.4724  0.9113 -0.0695
  697MPD2    C310358   0.039   2.143  15.581 -0.6449  0.5201 -0.4131
  697MPD2    C410359   0.031   2.183  15.717 -0.5131  0.7918  0.1179
  697MPD2    C510360   0.010   2.084  15.815 -0.7333 -0.2920 -0.4207
  697MPD2     H10361   0.038   1.973  15.454  0.1724 -0.3115  0.3278
  697MPD2    H110362   0.036   2.286  15.751 -3.1100  1.2691 -0.9766
  697MPD2    H210363   4.718   1.875  15.865 -0.0933 -1.4698 -1.5969
  697MPD2    H310364   0.010   2.104  15.921 -0.9090 -1.4415 -0.2039
  697MPD2     N10365   0.057   2.234  15.471  0.0151  1.3974 -0.2611
  697MPD2    H510366   0.036   2.195  15.380  5.8514 -0.1728 -0.9111
  697MPD2    N110367   4.737   1.778  15.608  0.7542  0.2780  0.0460
  697MPD2    H710368   4.723   1.765  15.509  2.4577 -0.1907 -0.1284
  698TMC3    C110369   0.058   2.427  15.359  0.2402 -0.0115 -0.4499
  698TMC3    C210370   0.126   2.549  15.337 -0.3608 -0.3719  0.1615
  698TMC3    C310371   0.120   2.603  15.211 -0.2757 -0.0051  0.9735
  698TMC3    C410372   4.732   2.357  15.259 -0.1890 -0.3123  0.3454
  698TMC3    C510373   0.004   2.409  15.135 -0.1716 -0.3560 -0.4928
  698TMC3    C610374   0.072   2.528  15.110  0.6950  0.8396 -0.3889
  698TMC3     C10375   0.070   2.364  15.482  0.8791  0.4270  0.2109
  698TMC3     O10376   0.087   2.434  15.579  0.3790  0.1283 -0.4074
  698TMC3     H10377   0.167   2.612  15.414 -1.1475  0.2897  0.0487
  698TMC3    H110378   4.672   2.268  15.272 -0.1905 -0.5738 -1.5342
  698TMC3    H210379   0.084   2.557  15.007 -2.3472  2.3128 -0.3371
  698TMC3    C710380   4.682   2.353  15.017 -0.6178  0.7287 -0.5596
  698TMC3    C810381   0.215   2.708  15.175  0.2642  0.0912 -0.2433
  698TMC3    O110382   4.674   2.426  14.914 -0.3114 -0.0879  0.9604
  698TMC3    O210383   0.310   2.728  15.252 -0.2102  0.1016 -0.0869
  699TMC3    C110384   4.727   0.861  12.878  0.4840 -0.6398  0.1444
  699TMC3    C210385   0.041   0.732  12.887 -0.2806 -0.2586 -0.5771
  699TMC3    C310386   0.015   0.667  13.006  0.2353 -0.0685 -0.0637
  699TMC3    C410387   4.639   0.915  12.970 -0.3547  0.0612  0.2751
  699TMC3    C510388   4.619   0.843  13.085  0.9318  0.1719  0.0786
  699TMC3    C610389   4.668   0.713  13.098  0.0803  0.3161 -0.1971
  699TMC3     C10390   0.021   0.935  12.761 -0.3983 -0.0885 -0.6116
  699TMC3     O10391   4.684   1.024  12.731 -0.1671 -0.5540  0.2535
  699TMC3     H10392   0.085   0.677  12.804 -0.5146 -2.1191  0.5438
  699TMC3    H110393   4.603   1.016  12.957  0.2001  0.1706 -0.4283
  699TMC3    H210394   4.650   0.652  13.186 -0.2158  1.1161  0.2944
  699TMC3    C710395   4.556   0.895  13.208  0.6963  0.7407  0.7385
  699TMC3    C810396   0.064   0.537  13.037 -0.0426 -0.0579  0.1698
  699TMC3    O110397   4.528   0.818  13.297 -0.0161  0.1109  0.0302
  699TMC3    O210398   4.735   0.463  13.110  0.4076  0.4322 -0.0519
  700TMC3    C110399   3.903   2.043  17.059 -0.3887 -0.2817  0.0120
  700TMC3    C210400   4.004   1.987  16.997 -0.4279  0.0164  0.7737
  700TMC3    C310401   4.129   1.979  17.060 -0.1624 -0.0981 -0.3504
  700TMC3    C410402   3.914   2.102  17.178 -0.2796 -0.5100 -0.0978
  700TMC3    C510403   4.037   2.114  17.232 -0.3181 -0.3080  0.4228
  700TMC3    C610404   4.141   2.052  17.176  0.7452 -0.6763  0.5816
  700TMC3     C10405   3.846   2.132  16.958  0.0416 -0.4536  0.1810
  700TMC3     O10406   3.819   2.094  16.841  0.4818  0.5026  0.3367
  700TMC3     H10407   3.998   1.960  16.892  0.0650 -1.1652  1.0447
  700TMC3    H110408   3.821   2.130  17.225 -0.9276 -0.4685 -1.3991
  700TMC3    H210409   4.237   2.058  17.228  1.0442 -0.5290  0.0156
  700TMC3    C710410   4.059   2.233  17.309  0.5429  0.0867 -0.0935
  700TMC3    C810411   4.230   1.904  16.990  0.4905 -0.6861 -0.6642
  700TMC3    O110412   4.173   2.263  17.345  0.4959  0.2712  0.5216
  700TMC3    O210413   4.208   1.871  16.875  0.2103 -0.0128 -0.0228
  701TMC3    C110414   4.023   0.981  15.373 -0.1991 -0.8416  0.4954
  701TMC3    C210415   4.092   0.967  15.255  0.4978 -0.3361  0.4580
  701TMC3    C310416   4.211   1.033  15.238  0.3435 -0.0244 -0.1524
  701TMC3    C410417   4.072   1.060  15.474 -1.0926  0.1797 -0.5263
  701TMC3    C510418   4.197   1.115  15.463 -0.6912  0.0610  0.0670
  701TMC3    C610419   4.265   1.104  15.341 -0.2288  0.3352  0.8573
  701TMC3     C10420   3.914   0.890  15.410 -0.1107  0.3960 -0.3908
  701TMC3     O10421   3.866   0.882  15.522 -0.5992  0.2281 -0.4169
  701TMC3     H10422   4.066   0.897  15.177  1.5633 -0.0162 -0.1856
  701TMC3    H110423   4.010   1.071  15.563  1.4839  1.0424  1.1890
  701TMC3    H210424   4.347   1.169  15.313 -1.7075  1.6856 -0.2968
  701TMC3    C710425   4.214   1.250  15.513 -0.3486  0.4316 -0.0686
  701TMC3    C810426   4.241   1.073  15.097  0.0560 -0.2161 -0.3952
  701TMC3    O110427   4.210   1.332  15.420  0.0897  0.8363  0.0049
  701TMC3    O210428   4.359   1.089  15.067  0.3798  0.3343  0.1398
  702MPD2     C10429   3.866   4.351  10.998  0.1136  0.9763 -0.7792
  702MPD2    C110430   3.730   4.373  10.984 -0.7228 -0.0356  0.9080
  702MPD2    C210431   3.688   4.416  10.859 -0.5613 -0.0764  0.8956
  702MPD2    C310432   3.774   4.437  10.750 -0.3126 -0.1526  0.3352
  702MPD2    C410433   3.908   4.423  10.775  0.2053 -0.0834  0.6269
  702MPD2    C510434   3.950   4.382  10.895  0.0582 -0.5322  0.1045
  702MPD2     H10435   3.581   4.424  10.849 -0.7719 -2.8678  0.9689
  702MPD2    H110436   3.982   4.437  10.697 -0.3085 -3.3958 -0.4491
  702MPD2    H210437   3.902   4.309  11.091  0.2910 -0.7572 -1.6450
  702MPD2    H310438   4.055   4.364  10.914 -0.1587 -3.2909 -1.4348
  702MPD2     N10439   3.739   4.498  10.628 -0.3919  0.0027  0.2381
  702MPD2    H510440   3.815   4.528  10.568  0.5983 -0.8959  1.0470
  702MPD2    N110441   3.623   4.362  11.086  0.0889 -0.1570 -1.1097
  702MPD2    H710442   3.538   4.415  11.072  0.7243  0.8407 -1.1984
  703TMC3    C110443   3.599   4.586  10.464  0.9300  0.0154  1.1841
  703TMC3    C210444   3.469   4.571  10.425  0.4074 -0.5197 -0.0732
  703TMC3    C310445   3.410   4.682  10.370  0.5930 -0.6698  0.1922
  703TMC3    C410446   3.663   4.703  10.450  0.0934 -0.7169  0.1445
  703TMC3    C510447   3.595   0.074  10.410 -0.1828 -0.0708  0.0574
  703TMC3    C610448   3.467   0.062  10.359  0.2798 -0.7764  0.1187
  703TMC3     C10449   3.613   4.525  10.589 -0.0720  0.7389 -0.1987
  703TMC3     O10450   3.510   4.491  10.643  0.1868  0.5712 -0.4047
  703TMC3     H10451   3.410   4.481  10.438  1.6514 -1.3398 -0.1253
  703TMC3    H110452   3.764   4.711  10.490  0.0773 -0.7998  0.2011
  703TMC3    H210453   3.409   0.149  10.328 -0.4951 -0.6394  1.9076
  703TMC3    C710454   3.685   0.179  10.365 -0.3724 -0.1140 -0.4581
  703TMC3    C810455   3.265   4.682  10.374  0.4143 -0.1519  0.6430
  703TMC3    O110456   3.807   0.162  10.346  0.4928  0.2018 -0.2164
  703TMC3    O210457   3.211   0.050  10.370  0.5036  0.2837  0.0502
  704TMC3    C110458   1.438   2.254  12.668 -0.0020 -0.1461 -0.2568
  704TMC3    C210459   1.567   2.273  12.712  0.2792 -0.5283 -0.1728
  704TMC3    C310460   1.624   2.183  12.799 -0.7550  0.0557 -0.3491
  704TMC3    C410461   1.365   2.156  12.722 -0.1381  0.6558 -0.3669
  704TMC3    C510462   1.422   2.066  12.809 -0.4684 -0.0388 -0.8732
  704TMC3    C610463   1.550   2.075  12.847  0.6842  0.5328  0.5069
  704TMC3     C10464   1.374   2.340  12.563  0.6357  0.4660 -0.0060
  704TMC3     O10465   1.256   2.322  12.541  0.1005  0.1261  0.0662
  704TMC3     H10466   1.621   2.354  12.665  0.4285  0.9350  2.5205
  704TMC3    H110467   1.273   2.144  12.666 -0.4802  2.4850 -0.2092
  704TMC3    H210468   1.591   2.004  12.919  3.4177 -0.3363 -1.9248
  704TMC3    C710469   1.371   1.928  12.811 -0.8606  0.4373 -0.6367
  704TMC3    C810470   1.747   2.135  12.730  0.3852  0.1584  0.3781
  704TMC3    O110471   1.451   1.844  12.851  0.3225  0.4384 -0.4664
  704TMC3    O210472   1.741   2.140  12.607 -0.1712 -0.4516 -0.3221
  705MPD2     C10473   0.498   4.551  16.090  0.3239  0.3622 -0.0313
  705MPD2    C110474   0.525   4.602  16.214 -0.1930  0.0520  0.3134
  705MPD2    C210475   0.449   4.558  16.321 -0.5448  0.1265  0.2380
  705MPD2    C310476   0.325   4.494  16.296 -0.9007  0.1261 -0.2367
  705MPD2    C410477   0.305   4.438  16.170 -0.1157  0.4453 -1.2825
  705MPD2    C510478   0.399   4.459  16.071  0.1457 -0.5690  0.0989
  705MPD2     H10479   0.477   4.564  16.425  0.5776 -1.7550  0.0432
  705MPD2    H110480   0.212   4.391  16.140  0.5978 -0.9468 -1.2754
  705MPD2    H210481   0.555   4.580  16.002 -1.1587 -0.3484 -1.2286
  705MPD2    H310482   0.382   4.413  15.975  1.5113 -1.4992  0.2992
  705MPD2     N10483   0.246   4.462  16.407  0.0345 -0.0673 -0.1995
  705MPD2    H510484   0.192   4.377  16.410 -0.0592 -0.0726 -1.7031
  705MPD2    N110485   0.638   4.682  16.243 -0.7382 -0.0807  0.7123
  705MPD2    H710486   0.654   4.706  16.340 -1.0752  0.0051  0.7441
  706TMC3    C110487   1.059   0.106  16.256 -0.0835 -0.3998 -0.0182
  706TMC3    C210488   1.035   0.187  16.362  0.1799  0.5135 -1.0205
  706TMC3    C310489   0.903   0.214  16.393  0.6174  0.3717 -0.1313
  706TMC3    C410490   0.961   0.047  16.181  0.3613 -0.2319  0.5462
  706TMC3    C510491   0.836   0.056  16.227 -0.0271 -0.0493  0.4059
  706TMC3    C610492   0.806   0.148  16.325  0.7191  0.4216 -0.0138
  706TMC3     C10493   1.199   0.104  16.218  0.2221 -0.2087 -0.7698
  706TMC3     O10494   1.277   0.157  16.293 -0.0283  0.6257 -0.3534
  706TMC3     H10495   1.117   0.230  16.418 -0.5885  1.0770 -0.3272
  706TMC3    H110496   0.979   4.709  16.107  0.3117 -0.8999  1.2295
  706TMC3    H210497   0.707   0.187  16.344  0.0302 -0.1877 -2.4113
  706TMC3    C710498   0.736   4.725  16.158 -0.5104 -0.1870 -0.3179
  706TMC3    C810499   0.887   0.360  16.382  0.2466 -0.6404  0.3573
  706TMC3    O110500   0.756   4.707  16.039 -0.1444 -0.5817  0.0767
  706TMC3    O210501   0.800   0.403  16.309 -0.6910  0.9126 -0.7491
  707TMC3    C110502   2.784   1.397   1.015 -0.0159  0.7488 -0.3347
  707TMC3    C210503   2.915   1.363   1.058 -0.4382  0.5768 -0.5814
  707TMC3    C310504   2.922   1.313   1.193  0.2408  0.2217  0.1897
  707TMC3    C410505   2.670   1.366   1.092  0.0751  0.4516 -0.1161
  707TMC3    C510506   2.691   1.302   1.213  0.3785 -0.0217  0.5164
  707TMC3    C610507   2.813   1.271   1.264  0.2651  0.5471  0.0168
  707TMC3     C10508   2.788   1.512   0.933  0.4737 -0.3828 -0.0134
  707TMC3     O10509   2.898   1.558   0.912 -0.5788 -0.2294 -0.3651
  707TMC3     H10510   3.003   1.388   0.999  0.6924 -1.8147  0.0743
  707TMC3    H110511   2.570   1.404   1.074 -0.2096 -0.9137 -1.4595
  707TMC3    H210512   2.832   1.242   1.367 -1.5764 -0.4991  0.0672
  707TMC3    C710513   2.579   1.308   1.311 -0.0882 -0.8063 -0.1903
  707TMC3    C810514   3.042   1.349   1.269  0.5171  0.1748  0.7922
  707TMC3    O110515   2.504   1.409   1.317  0.3249  0.1622  0.3152
  707TMC3    O210516   3.082   1.274   1.357  0.1182  0.0381 -0.4219
  708MPD2     C10517   3.979   2.828  13.679  0.0618  0.1582  0.2024
  708MPD2    C110518   3.906   2.942  13.692  0.5021 -0.1379  0.0189
  708MPD2    C210519   3.826   2.949  13.807  0.5167  0.1082 -0.5502
  708MPD2    C310520   3.805   2.845  13.892 -0.2249 -0.0060 -0.4532
  708MPD2    C410521   3.864   2.726  13.863  0.2925  0.1966 -0.0616
  708MPD2    C510522   3.955   2.711  13.757  0.6521  0.1106  0.5672
  708MPD2     H10523   3.782   3.043  13.839  1.2102  0.6405 -1.1318
  708MPD2    H110524   3.851   2.636  13.921  0.9919  0.0610 -0.1096
  708MPD2    H210525   4.055   2.828  13.601  2.1535  0.7039  2.2329
  708MPD2    H310526   4.010   2.619  13.741  1.6449  0.6173  1.0763
  708MPD2     N10527   3.710   2.857  13.993 -0.2267 -0.0512  0.3696
  708MPD2    H510528   3.672   2.951  13.998  1.8229  0.7190  1.6028
  708MPD2    N110529   3.922   3.046  13.596 -0.5552  0.5068  0.0272
  708MPD2    H710530   3.963   3.021  13.507  1.2290  4.7514 -0.3432
  709TMC3    C110531   3.896   3.264  13.491 -1.0059 -1.2201  0.3662
  709TMC3    C210532   3.841   3.206  13.378  0.3990 -0.8104  0.0556
  709TMC3    C310533   3.766   3.288  13.297  0.3279 -0.2645 -0.6197
  709TMC3    C410534   3.862   3.391  13.523 -0.2902  0.6714  0.0776
  709TMC3    C510535   3.771   3.458  13.446 -0.0467  0.8279  0.3185
  709TMC3    C610536   3.730   3.419  13.323  0.0241 -0.5926  0.1117
  709TMC3     C10537   3.885   3.182  13.616 -0.8170 -0.0666  0.2353
  709TMC3     O10538   3.839   3.234  13.716  0.1492  0.1355  0.2267
  709TMC3     H10539   3.875   3.107  13.351 -2.5182 -1.0486 -2.7063
  709TMC3    H110540   3.910   3.432  13.610 -1.2213  1.6528  0.1287
  709TMC3    H210541   3.655   3.470  13.265 -0.3574 -1.0316  0.2246
  709TMC3    C710542   3.669   3.515  13.525 -0.2521 -0.8048  0.7726
  709TMC3    C810543   3.717   3.229  13.173 -0.4077  0.4257 -0.5971
  709TMC3    O110544   3.596   3.596  13.474  0.2923 -0.1646 -0.1278
  709TMC3    O210545   3.748   3.112  13.163 -0.2348 -0.0197 -0.3960
  710TMC3    C110546   4.513   3.846   0.091 -0.1777 -0.0176 -0.1178
  710TMC3    C210547   4.590   3.955   0.060 -0.0275  0.4647  0.2377
  710TMC3    C310548   4.714   3.938   0.013  0.0470  0.2972  0.3614
  710TMC3    C410549   4.562   3.722   0.095  0.2793  0.3783  0.6953
  710TMC3    C510550   4.686   3.703   0.037 -0.3345 -0.3968 -0.8433
  710TMC3    C610551   0.030   3.810  17.751  0.8456  0.5624  0.3936
  710TMC3     C10552   4.389   3.873   0.160 -0.7444 -0.1011 -0.1962
  710TMC3     O10553   4.304   3.789   0.164  0.0324  0.1028  0.3327
  710TMC3     H10554   4.542   4.052   0.049 -0.7395  0.2325  1.3409
  710TMC3    H110555   4.494   3.640   0.114  1.7443 -0.7221  1.1908
  710TMC3    H210556   0.123   3.795  17.696 -0.1575 -1.5987 -0.6878
  710TMC3    C710557   0.008   3.583   0.080 -0.4366  0.0412  0.3651
  710TMC3    C810558   0.041   4.037  17.684 -0.0637 -0.0649 -0.8864
  710TMC3    O110559   4.701   3.525   0.179  0.7344  0.2665  0.1343
  710TMC3    O210560   0.113   3.991  17.595  0.3568 -0.1565  0.5440
  711TMC3    C110561   0.163   0.890  15.039 -0.0212 -0.2149 -1.2276
  711TMC3    C210562   0.172   0.981  15.137 -0.0515 -0.2134  0.6199
  711TMC3    C310563   0.281   1.004  15.210  0.2288  0.1331  0.5027
  711TMC3    C410564   0.276   0.826  15.005 -0.6158  0.1897  0.5847
  711TMC3    C510565   0.381   0.839  15.086 -0.1865 -0.4372  1.0559
  711TMC3    C610566   0.391   0.932  15.182 -0.5236  0.2911 -0.6080
  711TMC3     C10567   0.058   0.787  15.049  0.1817 -0.3547 -0.6975
  711TMC3     O10568   0.095   0.675  15.016  0.0762 -0.4697 -0.2810
  711TMC3     H10569   0.082   1.037  15.158 -0.5760 -0.4582 -1.0382
  711TMC3    H110570   0.287   0.773  14.911  0.9203  0.8035  0.4165
  711TMC3    H210571   0.484   0.938  15.237 -0.6475 -1.7829 -0.1719
  711TMC3    C710572   0.437   0.719  15.131  0.1376 -0.1602  0.0445
  711TMC3    C810573   0.262   1.063  15.341 -0.1718  0.3188  0.2051
  711TMC3    O110574   0.539   0.725  15.197  0.2468  0.2719 -0.0391
  711TMC3    O210575   0.147   1.089  15.363 -0.7739 -0.1903 -1.0231
  712MPD2     C10576   1.555   1.958  13.680  0.5687 -1.1159  0.8354
  712MPD2    C110577   1.439   2.035  13.669 -1.1323  0.1612 -0.0335
  712MPD2    C210578   1.453   2.173  13.680  0.3967 -0.5868  0.3931
  712MPD2    C310579   1.577   2.228  13.707 -0.3038 -0.0937  0.1308
  712MPD2    C410580   1.692   2.152  13.720 -0.1865  0.7451  0.1483
  712MPD2    C510581   1.681   2.015  13.703  0.6616  0.1636  0.1357
  712MPD2     H10582   1.363   2.230  13.662  0.3844 -0.2028  1.7198
  712MPD2    H110583   1.790   2.196  13.736  0.0582  0.8270 -1.6527
  712MPD2    H210584   1.541   1.852  13.661  1.5158 -1.5561  2.6187
  712MPD2    H310585   1.763   1.946  13.720 -0.8005 -1.7600 -0.5879
  712MPD2     N10586   1.581   2.365  13.747  0.0760 -0.2991 -0.2446
  712MPD2    H510587   1.673   2.407  13.756  0.8335 -1.8302 -0.7719
  712MPD2    N110588   1.307   1.983  13.669  0.0017 -0.3513  0.4619
  712MPD2    H710589   1.235   2.043  13.628  0.1141 -0.6303 -0.1539
  713TMC3    C110590   1.511   2.564  13.853  0.5646 -0.1207  0.0271
  713TMC3    C210591   1.644   2.604  13.859  0.1192  0.5846  0.5827
  713TMC3    C310592   1.672   2.724  13.929 -0.1320 -0.1780  0.4838
  713TMC3    C410593   1.408   2.639  13.911 -0.1818 -0.9189  0.0851
  713TMC3    C510594   1.447   2.759  13.975  0.6075 -0.0213  1.1995
  713TMC3    C610595   1.574   2.801  13.986  0.0791  0.6204 -1.2746
  713TMC3     C10596   1.475   2.438  13.798 -0.0546  0.0761 -0.1467
  713TMC3     O10597   1.359   2.395  13.820 -0.5005 -0.0396 -0.1105
  713TMC3     H10598   1.726   2.549  13.815 -1.3554  0.6567 -2.2488
  713TMC3    H110599   1.310   2.594  13.923 -0.3056 -0.9235 -0.9533
  713TMC3    H210600   1.601   2.897  14.028 -0.8909  0.4766 -0.3190
  713TMC3    C710601   1.338   2.840  14.019  0.0929 -0.1490  0.2781
  713TMC3    C810602   1.795   2.798  13.899 -0.0911  0.1383  0.6132
  713TMC3    O110603   1.234   2.781  14.036 -0.5387  0.2330  0.1069
  713TMC3    O210604   1.849   2.878  13.973 -0.2093 -0.0934  0.2636
  714MPD2     C10605   3.501   0.689   1.701  0.6998  0.3989  0.7090
  714MPD2    C110606   3.448   0.562   1.674 -0.4612 -0.5272 -0.1668
  714MPD2    C210607   3.337   0.555   1.593  1.1840 -0.3450  0.4937
  714MPD2    C310608   3.273   0.669   1.552 -0.1315 -0.4402  0.4165
  714MPD2    C410609   3.319   0.793   1.597 -0.1736 -0.3818 -0.2064
  714MPD2    C510610   3.443   0.802   1.654 -0.1099 -0.4690  0.3580
  714MPD2     H10611   3.309   0.456   1.558  1.2595 -1.0733  2.4899
  714MPD2    H110612   3.281   0.892   1.570 -0.0802 -0.9341 -2.3339
  714MPD2    H210613   3.587   0.700   1.765  2.9262  1.2372 -2.3929
  714MPD2    H310614   3.477   0.897   1.694  0.0467  0.3051 -1.6227
  714MPD2     N10615   3.161   0.657   1.461 -0.3602  0.4727  0.9004
  714MPD2    H510616   3.135   0.562   1.439  0.3919  0.4723  0.0247
  714MPD2    N110617   3.515   0.450   1.725  0.1898 -0.3811 -0.9924
  714MPD2    H710618   3.603   0.471   1.770  0.4987 -1.6312 -1.0029
  715TMC3    C110619   3.599   0.228   1.728  0.1151 -0.6311  0.0112
  715TMC3    C210620   3.561   0.104   1.689 -0.2881  0.4848 -0.5799
  715TMC3    C310621   3.661   0.008   1.691 -0.1292  0.3887 -0.8653
  715TMC3    C410622   3.727   0.265   1.745 -0.0754  0.0137  0.5237
  715TMC3    C510623   3.819   0.161   1.761 -0.5596 -0.1264  0.4890
  715TMC3    C610624   3.791   0.036   1.723 -0.2564  0.2308  0.1211
  715TMC3     C10625   3.491   0.323   1.702 -0.3254  0.2474  0.1286
  715TMC3     O10626   3.393   0.284   1.647 -0.6726  0.2104  0.0691
  715TMC3     H10627   3.459   0.072   1.673 -0.3597  0.1919  0.4285
  715TMC3    H110628   3.743   0.367   1.780 -1.1509  0.0756  0.8240
  715TMC3    H210629   3.865   4.696   1.713 -0.8862 -0.4940  1.0815
  715TMC3    C710630   3.959   0.193   1.792  0.3304 -0.1795  0.6159
  715TMC3    C810631   3.635   4.646   1.583 -0.4345 -0.1912  0.0698
  715TMC3    O110632   4.026   0.100   1.829 -0.0695 -0.0232 -0.8602
  715TMC3    O210633   3.523   4.645   1.537 -0.3083  0.4135  0.2330
  716MPD2     C10634   3.784   4.640   9.993 -0.4648 -0.1974 -0.2023
  716MPD2    C110635   3.733   4.664   9.869 -0.0810 -0.1180  0.1078
  716MPD2    C210636   3.727   4.560   9.781 -1.2429 -0.7462  0.8284
  716MPD2    C310637   3.764   4.435   9.824 -0.2248 -0.8115  0.0392
  716MPD2    C410638   3.795   4.406   9.956  0.0624 -0.0770 -0.0061
  716MPD2    C510639   3.810   4.516  10.040  0.4920  0.2378 -0.1951
  716MPD2     H10640   3.677   4.575   9.686  0.3495  1.4269  0.3460
  716MPD2    H110641   3.809   4.306   9.995  0.9785  0.3864  0.8452
  716MPD2    H210642   3.798   4.709  10.075 -0.9168  1.8241 -1.8300
  716MPD2    H310643   3.848   4.500  10.140  0.5480 -0.2958 -0.2990
  716MPD2     N10644   3.765   4.337   9.728  0.4492  0.2291 -0.1248
  716MPD2    H510645   3.714   4.354   9.642  2.4693  0.1169 -1.3358
  716MPD2    N110646   3.686   0.054   9.835 -0.3286 -0.0867  0.1593
  716MPD2    H710647   3.622   0.057   9.756  0.5884 -1.2869 -0.6209
  717TMC3    C110648   3.822   4.134   9.614  1.1010  0.4719 -0.0127
  717TMC3    C210649   3.777   4.209   9.509  0.2642  0.0231  0.3716
  717TMC3    C310650   3.683   4.161   9.424 -0.5222  0.4193 -0.4118
  717TMC3    C410651   3.785   4.006   9.627 -0.5479 -0.3557 -0.3066
  717TMC3    C510652   3.698   3.958   9.537  0.3313  0.4368 -0.8617
  717TMC3    C610653   3.647   4.034   9.440 -0.1781 -0.0872 -0.3948
  717TMC3     C10654   3.818   4.208   9.741 -0.6349  0.5385 -0.3847
  717TMC3     O10655   3.874   4.160   9.838  0.1509 -0.2491  0.4088
  717TMC3     H10656   3.826   4.304   9.490 -1.8513  1.0411 -0.0575
  717TMC3    H110657   3.829   3.939   9.700 -0.1839  2.2608  1.8767
  717TMC3    H210658   3.559   4.005   9.383 -0.2571 -1.6897  0.5353
  717TMC3    C710659   3.692   3.812   9.531 -0.2002  0.9076  0.6026
  717TMC3    C810660   3.574   4.255   9.421 -0.0612 -0.3247  1.1441
  717TMC3    O110661   3.745   3.757   9.628 -0.4409 -0.2741  0.9564
  717TMC3    O210662   3.584   4.351   9.497 -0.2628  0.4674 -0.2496
  718MPD2     C10663   3.014   2.253  12.830  0.5049 -0.1312 -0.0977
  718MPD2    C110664   2.988   2.389  12.811 -0.8871  0.0828  0.1795
  718MPD2    C210665   2.865   2.443  12.847 -0.2071  0.6724  0.3116
  718MPD2    C310666   2.770   2.356  12.893  0.8927 -0.2099 -0.1590
  718MPD2    C410667   2.802   2.226  12.914  0.3089  0.3355 -0.2058
  718MPD2    C510668   2.924   2.170  12.885 -0.2852 -0.5755 -0.0811
  718MPD2     H10669   2.832   2.545  12.834  0.3217  0.9181  0.8704
  718MPD2    H110670   2.728   2.161  12.960 -0.1574  0.8599 -0.2153
  718MPD2    H210671   3.112   2.222  12.796 -1.4514 -3.1411 -2.9749
  718MPD2    H310672   2.936   2.063  12.896 -0.3189 -0.2800  2.9028
  718MPD2     N10673   2.645   2.413  12.916  0.1856 -0.1621  0.0358
  718MPD2    H510674   2.636   2.512  12.894  2.0335  0.3524  1.5762
  718MPD2    N110675   3.068   2.485  12.739 -0.1478 -0.1203  0.1269
  718MPD2    H710676   3.030   2.573  12.706  0.9256  0.3612  0.1697
  719TMC3    C110677   3.195   2.544  12.557  0.4018  0.4691 -0.6637
  719TMC3    C210678   3.079   2.608  12.519 -0.2654  0.0116  0.7411
  719TMC3    C310679   3.069   2.743  12.501  0.1295  0.0971  0.1463
  719TMC3    C410680   3.303   2.623  12.578  0.2030 -0.2829 -0.3315
  719TMC3    C510681   3.297   2.758  12.570 -0.5366 -0.0230 -0.4090
  719TMC3    C610682   3.179   2.817  12.527  0.0081 -0.5697 -0.4217
  719TMC3     C10683   3.182   2.456  12.673 -1.1031  0.2644 -0.7284
  719TMC3     O10684   3.248   2.351  12.672  0.6259  0.3252  0.1843
  719TMC3     H10685   2.996   2.538  12.519 -1.5443  1.5128 -0.5318
  719TMC3    H110686   3.391   2.563  12.599  0.2348 -0.3214 -0.5699
  719TMC3    H210687   3.163   2.924  12.529 -0.4205 -0.6238 -1.0931
  719TMC3    C710688   3.418   2.829  12.530 -0.3431 -0.4889 -0.4859
  719TMC3    C810689   2.945   2.786  12.569  0.1247 -0.1058  0.8106
  719TMC3    O110690   3.411   2.916  12.442  0.8991 -0.9854  0.3948
  719TMC3    O210691   2.929   2.732  12.678  0.4155 -0.0254  0.4453
  720MPD2     C10692   1.495   4.180  13.946 -0.1009  0.7657 -0.3337
  720MPD2    C110693   1.583   4.167  13.841  0.0806  0.9481 -0.2851
  720MPD2    C210694   1.715   4.132  13.872  0.0143 -0.2131 -0.3364
  720MPD2    C310695   1.766   4.114  13.995  0.5754 -0.2513  0.1776
  720MPD2    C410696   1.676   4.142  14.099  0.8227 -0.3046  0.0296
  720MPD2    C510697   1.541   4.177  14.072  0.7254  0.1770  0.2487
  720MPD2     H10698   1.784   4.134  13.788 -0.7406 -0.0410 -0.9440
  720MPD2    H110699   1.710   4.142  14.202 -1.0097 -0.1333  0.6358
  720MPD2    H210700   1.391   4.211  13.940 -0.0994  0.3951 -2.2421
  720MPD2    H310701   1.474   4.178  14.157  0.2027 -0.0499 -0.1653
  720MPD2     N10702   1.893   4.062  14.011 -0.1918 -0.1047  1.0786
  720MPD2    H510703   1.945   4.037  13.927 -3.3065  0.9219 -1.1399
  720MPD2    N110704   1.551   4.206  13.710 -0.2821  0.4868  0.4317
  720MPD2    H710705   1.629   4.215  13.646  0.3156 -0.7773  0.9901
  721TMC3    C110706   2.062   3.926  14.118 -1.0825  0.5264  0.0465
  721TMC3    C210707   2.075   3.835  14.224  0.1964  0.5195 -0.9041
  721TMC3    C310708   2.198   3.773  14.244  0.5067 -0.0557 -0.3388
  721TMC3    C410709   2.170   3.956  14.037  0.5348 -0.3617  0.1711
  721TMC3    C510710   2.285   3.880  14.061 -0.4301 -0.4521 -0.2787
  721TMC3    C610711   2.302   3.788  14.157 -0.5515 -0.0995  0.2907
  721TMC3     C10712   1.950   4.015  14.132 -0.3420 -0.4417 -0.5605
  721TMC3     O10713   1.910   4.040  14.245 -0.5774  0.1896  0.6913
  721TMC3     H10714   1.987   3.807  14.280  1.3961 -1.8575 -0.2463
  721TMC3    H110715   2.166   4.039  13.967  1.5535 -1.8692 -1.6808
  721TMC3    H210716   2.395   3.736  14.179  0.6974  1.8050 -0.4845
  721TMC3    C710717   2.395   3.900  13.973  0.2606  0.2403 -0.6517
  721TMC3    C810718   2.214   3.685  14.358 -0.0487 -0.3601  0.1250
  721TMC3    O110719   2.431   4.011  13.937 -0.0139  0.2797 -0.1036
  721TMC3    O210720   2.305   3.603  14.349 -0.3559  0.3292 -0.0008
  722MPD2     C10721   0.472   2.674  13.429  0.1683 -0.0202  0.9978
  722MPD2    C110722   0.456   2.807  13.395 -0.3232  0.6237  0.6248
  722MPD2    C210723   0.406   2.836  13.272 -0.0699  0.3977 -0.4973
  722MPD2    C310724   0.361   2.738  13.184  0.2130  0.8052  0.4629
  722MPD2    C410725   0.361   2.609  13.227 -0.4204  0.2411  0.2926
  722MPD2    C510726   0.424   2.576  13.347  0.2642 -0.6097 -0.6348
  722MPD2     H10727   0.413   2.936  13.231  0.5277 -0.4407 -2.4492
  722MPD2    H110728   0.333   2.529  13.158 -3.1265 -0.1025  1.7754
  722MPD2    H210729   0.501   2.652  13.531 -2.9677  1.9519  2.3078
  722MPD2    H310730   0.437   2.472  13.373  0.7015 -0.9738 -2.3057
  722MPD2     N10731   0.317   2.786  13.052 -0.6177  0.1667  0.2367
  722MPD2    H510732   0.316   2.888  13.054 -0.5237  0.1372  1.5529
  722MPD2    N110733   0.499   2.922  13.477  0.6125  0.6620 -0.2383
  722MPD2    H710734   0.471   3.014  13.444 -1.5015 -1.1371 -3.4123
  723TMC3    C110735   0.233   2.769  12.829 -0.2257 -0.3361 -0.9847
  723TMC3    C210736   0.252   2.706  12.706 -0.0326  0.4327  0.0390
  723TMC3    C310737   0.184   2.756  12.601 -0.0470  0.1574  0.0403
  723TMC3    C410738   0.187   2.899  12.833 -0.3402 -0.7339  0.6892
  723TMC3    C510739   0.129   2.943  12.717  0.6831 -0.2841  0.3751
  723TMC3    C610740   0.117   2.877  12.598  0.4022  0.1967  0.4236
  723TMC3     C10741   0.288   2.706  12.943 -0.0186 -0.2641  0.0354
  723TMC3     O10742   0.302   2.583  12.936  0.3152 -0.3594 -0.1446
  723TMC3     H10743   0.292   2.605  12.701  1.7554  1.1355  0.2708
  723TMC3    H110744   0.177   2.957  12.924  1.9936 -0.3349  0.6944
  723TMC3    H210745   0.065   2.913  12.510  0.7492  2.0823  0.9864
  723TMC3    C710746   0.087   3.086  12.717 -0.3414  0.5816 -0.4701
  723TMC3    C810747   0.214   2.686  12.479  0.4543 -0.0637 -0.6453
  723TMC3    O110748   0.078   3.132  12.827  0.3651 -0.0209  0.0123
  723TMC3    O210749   0.328   2.642  12.468  0.1097 -0.3142 -0.1907
  724TMC3    C110750   4.389   2.687   9.359  0.4335 -0.6363  0.1574
  724TMC3    C210751   4.395   2.815   9.317  0.9674 -0.3308  0.1463
  724TMC3    C310752   4.517   2.872   9.325 -0.0182 -0.0897  0.6158
  724TMC3    C410753   4.499   2.616   9.404  0.6288 -0.2002 -0.0419
  724TMC3    C510754   4.619   2.677   9.389 -0.1984 -0.4298 -0.4542
  724TMC3    C610755   4.635   2.802   9.344  0.4572 -0.1472  0.5816
  724TMC3     C10756   4.263   2.611   9.330  0.6557  0.3161 -0.1890
  724TMC3     O10757   4.234   2.511   9.397 -0.2101  0.1490 -0.4914
  724TMC3     H10758   4.304   2.873   9.320  0.3306 -1.2959 -0.8024
  724TMC3    H110759   4.483   2.519   9.450  0.4740 -1.2851 -2.4048
  724TMC3    H210760   4.728   2.851   9.371  0.9014  0.5379 -2.1179
  724TMC3    C710761   4.738   2.591   9.416  0.8926 -0.5360  0.8715
  724TMC3    C810762   4.518   3.014   9.312  0.7645 -0.1601  0.6867
  724TMC3    O110763   4.715   2.483   9.470  0.1429 -0.7920 -0.5679
  724TMC3    O210764   4.414   3.078   9.312  0.2018  0.4788  0.2109
  725TMC3    C110765   2.054   0.143  12.677 -0.6991  0.0193  1.3188
  725TMC3    C210766   1.959   0.218  12.614  0.4010  0.0973 -0.4345
  725TMC3    C310767   1.921   0.166  12.493 -0.0833  0.1528 -0.4399
  725TMC3    C410768   2.115   0.025  12.630  0.4438 -0.4036 -0.1137
  725TMC3    C510769   2.064   4.721  12.516  0.2137 -0.4893  0.4833
  725TMC3    C610770   1.970   0.046  12.446  0.2050 -0.1779  0.3429
  725TMC3     C10771   2.120   0.200  12.792  0.5285  0.8287 -0.1192
  725TMC3     O10772   2.243   0.193  12.800 -0.1740 -0.0915 -0.3353
  725TMC3     H10773   1.925   0.316  12.644  0.1055 -0.5436  1.3559
  725TMC3    H110774   2.191   4.712  12.688 -0.9867 -3.0363 -0.5986
  725TMC3    H210775   1.930   4.735  12.358 -1.7198 -0.8554  1.5977
  725TMC3    C710776   2.104   4.584  12.484  0.4486  0.1043  0.3031
  725TMC3    C810777   1.850   0.248  12.396  0.1348  0.2822 -0.1652
  725TMC3    O110778   2.216   4.551  12.527  0.1267 -0.5801 -1.1555
  725TMC3    O210779   1.777   0.199  12.312 -0.1459  0.1966  0.0821
  726MPD2     C10780   0.051   1.781  10.808  0.3653 -0.1405 -0.4244
  726MPD2    C110781   4.716   1.872  10.739 -0.1664  0.0794  0.1561
  726MPD2    C210782   4.585   1.897  10.773  0.3919  0.0495  0.1022
  726MPD2    C310783   4.522   1.827  10.876 -0.0086 -0.5184 -0.1865
  726MPD2    C410784   4.595   1.733  10.945  0.1332  0.5910 -0.3306
  726MPD2    C510785   4.729   1.718  10.910 -0.6164  0.7284 -0.4797
  726MPD2     H10786   4.525   1.975  10.727 -1.2865 -1.0290  0.4412
  726MPD2    H110787   4.562   1.677  11.032  0.2031  0.9489 -0.0750
  726MPD2    H210788   0.136   1.746  10.751 -0.7205 -0.9302 -1.5490
  726MPD2    H310789   0.037   1.629  10.949  0.3032  1.5403  0.2756
  726MPD2     N10790   4.383   1.834  10.899 -0.0892  0.4630  0.1067
  726MPD2    H510791   4.340   1.781  10.975  0.6234  0.6049  0.6070
  726MPD2    N110792   0.035   1.956  10.637 -0.1045  0.2951  0.1568
  726MPD2    H710793   4.707   2.021  10.596 -1.2897  2.1927  5.0357
  727TMC3    C110794   0.194   2.083  10.524  0.2598  0.1616  0.1940
  727TMC3    C210795   0.304   2.170  10.548  0.2874  0.0240 -0.4988
  727TMC3    C310796   0.321   2.271  10.456  0.2585 -0.2179  0.2617
  727TMC3    C410797   0.112   2.097  10.418  0.2705  0.5086  0.5437
  727TMC3    C510798   0.135   2.197  10.327  0.5616 -0.4946 -0.6976
  727TMC3    C610799   0.237   2.287  10.348 -0.3748  1.1812  0.4501
  727TMC3     C10800   0.168   1.990  10.626 -0.4397 -0.0028 -0.1204
  727TMC3     O10801   0.262   1.956  10.694  0.0517 -0.3569  0.4499
  727TMC3     H10802   0.367   2.153  10.634 -0.9261 -2.4817 -0.1212
  727TMC3    H110803   0.051   2.010  10.395  1.4462  0.0424 -0.7460
  727TMC3    H210804   0.262   2.358  10.270  2.9188 -0.5549 -0.1159
  727TMC3    C710805   0.061   2.203  10.202 -0.3733  0.0733 -0.1184
  727TMC3    C810806   0.430   2.366  10.483 -0.4696  0.2971  0.3293
  727TMC3    O110807   0.011   2.099  10.164 -0.0648 -0.8481 -0.3434
  727TMC3    O210808   0.521   2.332  10.554  0.2158 -0.1063  0.2229
  728TMC3    C110809   3.827   4.144  15.149 -0.1321 -0.9728 -0.1016
  728TMC3    C210810   3.872   4.234  15.246 -0.2411  0.1606  0.2555
  728TMC3    C310811   3.992   4.297  15.226  0.2849  0.6262  0.6655
  728TMC3    C410812   3.898   4.121  15.037  0.4849  0.6967  0.6095
  728TMC3    C510813   4.014   4.194  15.018 -0.4068  0.7193 -0.0235
  728TMC3    C610814   4.061   4.286  15.113 -0.7470 -0.3536  0.4117
  728TMC3     C10815   3.685   4.131  15.148  0.0369  0.9138  0.4365
  728TMC3     O10816   3.620   4.143  15.042  0.2748  0.0352 -0.5723
  728TMC3     H10817   3.824   4.265  15.338 -1.4253 -0.6558 -0.0934
  728TMC3    H110818   3.842   4.076  14.956  0.6473 -0.8892  1.3771
  728TMC3    H210819   4.154   4.339  15.099  1.5620 -4.3531  0.7103
  728TMC3    C710820   4.018   4.254  14.885  0.1804 -0.0686  0.3604
  728TMC3    C810821   4.065   4.311  15.346  0.4049 -0.0056  0.5081
  728TMC3    O110822   4.002   4.173  14.793 -0.3070  0.2476  0.2230
  728TMC3    O210823   4.003   4.362  15.439 -0.1523  0.5140  0.4892
  729MPD2     C10824   1.630   0.464  16.395 -0.0445  0.0049 -0.1537
  729MPD2    C110825   1.692   0.475  16.516  0.5206 -0.4658 -0.2956
  729MPD2    C210826   1.615   0.439  16.622  0.0422 -0.1324 -0.2694
  729MPD2    C310827   1.481   0.408  16.618  0.2454  0.0709 -0.0703
  729MPD2    C410828   1.425   0.397  16.495  0.8152 -0.4474 -0.9453
  729MPD2    C510829   1.502   0.414  16.384  0.1217  0.0400 -0.0269
  729MPD2     H10830   1.652   0.447  16.723  0.0037 -1.2755 -0.1619
  729MPD2    H110831   1.323   0.368  16.474  0.1527 -0.1420  1.8686
  729MPD2    H210832   1.679   0.502  16.306  0.7647 -2.3639 -0.7169
  729MPD2    H310833   1.450   0.426  16.290 -0.5179  1.5028  0.5186
  729MPD2     N10834   1.420   0.395  16.745  0.1064  0.0912 -0.2079
  729MPD2    H510835   1.483   0.408  16.823  0.6806 -0.7057 -0.5309
  729MPD2    N110836   1.827   0.521  16.516 -0.1692 -0.5134 -0.4396
  729MPD2    H710837   1.875   0.535  16.428  0.6929 -3.3157 -0.4179
  730TMC3    C110838   1.254   0.394  16.902  0.1946 -0.8537 -0.1998
  730TMC3    C210839   1.344   0.357  16.997  0.4997 -0.3415 -0.6399
  730TMC3    C310840   1.381   0.444  17.098  0.1786  0.3794 -0.8731
  730TMC3    C410841   1.199   0.515  16.917 -0.0923 -0.2135  0.3509
  730TMC3    C510842   1.229   0.596  17.025 -0.1283  0.3646  0.1004
  730TMC3    C610843   1.321   0.560  17.117  0.2729  0.4872 -0.3024
  730TMC3     C10844   1.289   0.374  16.769 -0.6688  0.2141 -0.2877
  730TMC3     O10845   1.193   0.369  16.689 -0.0469 -0.0291  0.7113
  730TMC3     H10846   1.395   0.263  16.984 -0.9725 -1.0643 -1.1278
  730TMC3    H110847   1.138   0.564  16.842 -0.7737 -0.1622  0.9335
  730TMC3    H210848   1.350   0.622  17.201  0.0845  0.1529  0.0072
  730TMC3    C710849   1.221   0.736  17.002  0.1009 -0.4518 -0.3168
  730TMC3    C810850   1.486   0.396  17.182  0.6057  0.0971 -0.0601
  730TMC3    O110851   1.216   0.772  16.883 -0.3894 -0.4199 -0.4109
  730TMC3    O210852   1.500   0.277  17.195 -0.0211 -0.9772 -0.2240
  731MPD2     C10853   1.360   4.643  12.419  0.7709  0.5343 -0.3276
  731MPD2    C110854   1.476   4.578  12.400  0.4278 -0.5557 -0.0910
  731MPD2    C210855   1.537   4.498  12.494  0.2265 -0.1714 -0.1446
  731MPD2    C310856   1.457   4.461  12.602  0.7993  0.3001  0.0267
  731MPD2    C410857   1.329   4.508  12.615 -0.3502  0.7418 -0.6550
  731MPD2    C510858   1.278   4.604  12.526  0.6490 -0.4861 -0.3652
  731MPD2     H10859   1.633   4.452  12.474 -0.5800 -2.1031  0.3996
  731MPD2    H110860   1.263   4.470  12.692  1.3054 -0.3311  0.2460
  731MPD2    H210861   1.319   4.702  12.338 -0.1690  2.0111  1.2082
  731MPD2    H310862   1.181   4.650  12.535  0.6084  0.0137 -3.3140
  731MPD2     N10863   1.505   4.358  12.685  0.0074 -0.6155 -1.0704
  731MPD2    H510864   1.604   4.337  12.671 -0.0455 -2.5008  1.4803
  731MPD2    N110865   1.539   4.602  12.278  0.4997  0.0609  0.4492
  731MPD2    H710866   1.472   4.617  12.203 -0.2664  2.0522  1.5459
  732TMC3    C110867   1.685   4.562  12.100 -0.5373  0.6739 -0.3244
  732TMC3    C210868   1.619   4.450  12.054 -0.2536  0.7176  0.2436
  732TMC3    C310869   1.691   4.374  11.960  0.6529  0.3171 -0.2008
  732TMC3    C410870   1.811   4.594  12.062  0.6843  0.4285 -0.3731
  732TMC3    C510871   1.874   4.511  11.970  0.0468 -0.0977  0.1230
  732TMC3    C610872   1.816   4.402  11.916 -0.3208 -0.5736  0.2019
  732TMC3     C10873   1.668   4.583  12.242 -0.0162  0.5540  0.1424
  732TMC3     O10874   1.770   4.578  12.306  0.6758 -0.1028  0.1778
  732TMC3     H10875   1.518   4.428  12.084 -0.0828  0.4178  0.5920
  732TMC3    H110876   1.861   4.681  12.104  2.9357 -1.5765  1.0695
  732TMC3    H210877   1.873   4.345  11.844  0.7793  2.3176 -1.1856
  732TMC3    C710878   2.013   4.542  11.946  0.6018 -0.4328  0.6126
  732TMC3    C810879   1.652   4.236  11.944  0.4806 -0.5139  0.2451
  732TMC3    O110880   2.049   4.658  11.948  0.0711  0.9342 -0.4312
  732TMC3    O210881   1.741   4.174  11.887  0.0237  0.4391 -0.3739
  733TMC3    C110882   2.268   2.584  13.089  0.4321  0.0414  0.3020
  733TMC3    C210883   2.351   2.470  13.089  0.0924  0.4226 -0.4413
  733TMC3    C310884   2.429   2.445  12.977 -0.2765  0.3289  0.3573
  733TMC3    C410885   2.260   2.670  12.981  0.5685 -0.4440  0.3713
  733TMC3    C510886   2.326   2.629  12.872  0.2102 -0.7261  0.4392
  733TMC3    C610887   2.418   2.531  12.870  0.3443  0.0875  0.7238
  733TMC3     C10888   2.144   2.579  13.167 -0.1839 -0.0366 -0.1946
  733TMC3     O10889   2.053   2.652  13.123 -0.4963 -0.1516 -0.4253
  733TMC3     H10890   2.369   2.408  13.175  1.2885  1.4000  0.0138
  733TMC3    H110891   2.197   2.758  12.978  2.0887  0.7206  2.7263
  733TMC3    H210892   2.472   2.508  12.778 -2.2451 -1.8726 -0.2942
  733TMC3    C710893   2.341   2.731  12.774 -0.5654  0.7622  0.3348
  733TMC3    C810894   2.542   2.357  12.983 -0.6710  0.2275  0.1659
  733TMC3    O110895   2.241   2.787  12.728 -0.4242 -0.7006 -0.1316
  733TMC3    O210896   2.522   2.248  13.035  0.0664 -0.0658 -0.7287
  734MPD2     C10897   4.137   0.201  12.560  0.3765  0.6293  0.4014
  734MPD2    C110898   4.179   0.111  12.462  0.1182  0.2385 -0.0082
  734MPD2    C210899   4.258   0.159  12.364 -0.3490 -1.1382  0.0828
  734MPD2    C310900   4.302   0.291  12.353 -0.0485  0.3060 -0.3783
  734MPD2    C410901   4.267   0.381  12.448  0.3941 -0.9940 -0.0558
  734MPD2    C510902   4.186   0.334  12.549  0.1518  0.1427  0.2646
  734MPD2     H10903   4.276   0.094  12.280  2.4518 -1.3119  0.7884
  734MPD2    H110904   4.309   0.480  12.438 -1.1682 -0.2059  1.2921
  734MPD2    H210905   4.081   0.166  12.646 -0.8844  1.1365 -0.2168
  734MPD2    H310906   4.168   0.395  12.636 -3.9571 -2.1632  1.0382
  734MPD2     N10907   4.364   0.327  12.232  0.8040  1.2189 -0.1669
  734MPD2    H510908   4.371   0.253  12.164 -1.8603  0.3879  0.4718
  734MPD2    N110909   4.120   4.721  12.465 -0.0957  0.5292 -0.4249
  734MPD2    H710910   4.072   4.699  12.552 -0.5255  0.2054 -0.7473
  735TMC3    C110911   4.106   4.492  12.419  0.6374 -0.1720 -0.5026
  735TMC3    C210912   3.996   4.457  12.344  0.1286 -0.4073  0.5695
  735TMC3    C310913   4.000   4.344  12.263  0.0359  0.0014 -0.2868
  735TMC3    C410914   4.214   4.404  12.419 -0.9483  0.1779 -0.2354
  735TMC3    C510915   4.215   4.289  12.342 -0.4492 -0.2154 -0.5187
  735TMC3    C610916   4.106   4.263  12.260 -0.0087  0.0279  0.4494
  735TMC3     C10917   4.159   4.618  12.386  0.2169  0.6825  0.5492
  735TMC3     O10918   4.238   4.608  12.291 -0.1921 -0.1305  0.1377
  735TMC3     H10919   3.917   4.531  12.340 -0.3780 -1.0972 -2.2164
  735TMC3    H110920   4.307   4.420  12.473 -1.7485  2.0215  0.6276
  735TMC3    H210921   4.128   4.193  12.181  0.0184 -0.3916  0.8264
  735TMC3    C710922   4.349   4.271  12.285 -0.1860  0.7726  0.1596
  735TMC3    C810923   3.969   4.384  12.124  0.6268  0.7426 -0.3720
  735TMC3    O110924   4.425   4.368  12.280 -0.3535 -0.4251  0.0305
  735TMC3    O210925   3.954   4.294  12.045 -0.2561 -0.7577  0.5901
  736MPD2     C10926   4.542   3.954  12.244  0.6921  0.6940 -1.0615
  736MPD2    C110927   4.516   4.092  12.224 -0.0372  0.1663  0.1741
  736MPD2    C210928   4.617   4.164  12.163  0.5178  0.2625  0.6582
  736MPD2    C310929   4.738   4.101  12.120  0.3226  0.1965 -0.0844
  736MPD2    C410930   0.017   3.959  12.134 -0.4308  0.2956  0.5551
  736MPD2    C510931   4.664   3.895  12.201  1.0350  0.1955 -0.0316
  736MPD2     H10932   4.608   4.272  12.161 -0.8559  0.0779 -2.8784
  736MPD2    H110933   0.106   3.913  12.096 -0.0798  2.4534 -1.2350
  736MPD2    H210934   4.468   3.893  12.295  1.2458  1.2788  0.4199
  736MPD2    H310935   4.676   3.791  12.230  1.0882  0.1038 -0.3744
  736MPD2     N10936   0.101   4.172  12.049 -0.4735  0.3944  0.5015
  736MPD2    H510937   0.183   4.114  12.040  0.0079  1.1250  0.2342
  736MPD2    N110938   4.384   4.137  12.270 -0.2082 -0.3326  0.4102
  736MPD2    H710939   4.316   4.069  12.302  2.4535 -1.8873  2.7926
  737TMC3    C110940   0.213   4.341  11.929 -0.4114  0.5460 -0.3137
  737TMC3    C210941   0.219   4.477  11.919 -0.3244  0.4259 -0.1987
  737TMC3    C310942   0.335   4.529  11.877 -0.6723 -0.7605  0.2557
  737TMC3    C410943   0.319   4.259  11.902 -0.0319 -0.0113 -0.4590
  737TMC3    C510944   0.431   4.319  11.842  0.1442  0.0718  0.4898
  737TMC3    C610945   0.438   4.451  11.832 -0.0381  0.2082  0.0599
  737TMC3     C10946   0.096   4.298  11.999 -0.7239 -0.5845 -0.3166
  737TMC3     O10947   0.001   4.372  12.012  0.0892 -0.1023 -0.4210
  737TMC3     H10948   0.132   4.534  11.949 -1.3743  0.6857 -3.6899
  737TMC3    H110949   0.311   4.151  11.903 -4.1152  0.2867  0.9837
  737TMC3    H210950   0.528   4.505  11.803 -0.0492 -0.1193 -0.6018
  737TMC3    C710951   0.542   4.237  11.814 -0.3104 -1.0152  0.6063
  737TMC3    C810952   0.347   4.670  11.845  0.3226  0.3951 -0.4514
  737TMC3    O110953   0.543   4.128  11.871  0.1222  0.1610  0.5569
  737TMC3    O210954   0.457   4.724  11.852 -0.3943 -0.1065  0.3550
  738MPD2     C10955   0.211   2.901  14.863 -0.0666 -0.1482  0.3214
  738MPD2    C110956   0.267   2.861  14.979  0.4507 -0.7278  0.4966
  738MPD2    C210957   0.396   2.889  15.001  0.7437 -0.3732 -0.7550
  738MPD2    C310958   0.475   2.949  14.907 -0.1391  0.4122 -0.0958
  738MPD2    C410959   0.416   2.991  14.790 -0.1255  0.2175  0.0287
  738MPD2    C510960   0.284   2.967  14.772  0.4143 -0.0331 -0.1598
  738MPD2     H10961   0.439   2.845  15.089 -2.1493 -0.3351  0.6834
  738MPD2    H110962   0.474   3.046  14.717 -2.1600  2.1974 -0.0779
  738MPD2    H210963   0.105   2.883  14.848 -0.1184 -0.7078  1.3383
  738MPD2    H310964   0.254   3.012  14.678  0.0336 -1.5213 -0.7483
  738MPD2     N10965   0.609   2.984  14.923  0.6937  0.0856  0.3707
  738MPD2    H510966   0.654   3.013  14.837  2.2431 -1.7679  0.5472
  738MPD2    N110967   0.181   2.782  15.062 -0.0636 -0.0453 -0.6023
  738MPD2    H710968   0.089   2.764  15.024 -0.4796 -0.4476  0.5897
  739TMC3    C110969   0.800   3.063  15.027 -0.5101  0.6443 -0.3244
  739TMC3    C210970   0.857   3.061  14.904  0.1223 -0.4177 -0.3168
  739TMC3    C310971   0.931   3.178  14.876  0.1475 -0.6364  0.4394
  739TMC3    C410972   0.814   3.155  15.126  1.2907 -0.3690 -0.2450
  739TMC3    C510973   0.884   3.266  15.097 -0.1999  0.2142  0.7609
  739TMC3    C610974   0.946   3.274  14.972 -0.2590 -0.3216  0.1206
  739TMC3     C10975   0.676   2.991  15.045 -0.2014 -0.4450  0.5040
  739TMC3     O10976   0.631   2.974  15.157 -0.0707 -0.1101  0.3464
  739TMC3     H10977   0.856   2.975  14.837 -1.2629  0.6699 -1.6894
  739TMC3    H110978   0.753   3.139  15.214  2.4601  0.0352  0.6375
  739TMC3    H210979   1.011   3.358  14.951  1.8187 -1.4471  2.0328
  739TMC3    C710980   0.927   3.358  15.201 -0.1298 -0.6224  0.1477
  739TMC3    C810981   0.966   3.197  14.738 -0.0417  0.3839  0.7223
  739TMC3    O110982   1.014   3.441  15.179 -0.8676  0.1907 -0.4901
  739TMC3    O210983   0.903   3.128  14.661  0.1334 -0.7613  0.3490
  740TMC3    C110984   0.714   4.543  13.931  0.4468 -0.8735 -0.2242
  740TMC3    C210985   0.690   4.421  13.862 -0.0564 -0.1548  0.2846
  740TMC3    C310986   0.762   4.397  13.745  0.1900  1.0606  0.0649
  740TMC3    C410987   0.824   4.619  13.890  0.4259 -0.1671 -0.1069
  740TMC3    C510988   0.887   4.592  13.774  0.4262  0.5890 -0.2997
  740TMC3    C610989   0.865   4.472  13.707  0.3947  0.3718 -0.0967
  740TMC3     C10990   0.665   4.570  14.063 -0.3237 -0.2558 -0.3184
  740TMC3     O10991   0.714   4.671  14.107 -0.3927 -0.0625  0.1159
  740TMC3     H10992   0.608   4.357  13.893  0.7299 -1.4042 -0.2055
  740TMC3    H110993   0.852   4.709  13.943 -1.8733 -0.2660  1.2915
  740TMC3    H210994   0.937   4.448  13.630  1.0851  2.7967 -0.2268
  740TMC3    C710995   1.032   4.611  13.802  0.2176 -0.0816 -0.5003
  740TMC3    C810996   0.726   4.280  13.666  0.0808  0.1485 -0.0779
  740TMC3    O110997   1.063   4.613  13.919  0.4778  0.5429  0.7383
  740TMC3    O210998   0.646   4.206  13.730  0.8824 -0.5702  0.1841
  741TMC3    C110999   0.684   3.852  14.353 -0.2857 -0.3470  0.1179
  741TMC3    C211000   0.583   3.772  14.317  0.4779  0.1102 -0.3524
  741TMC3    C311001   0.538   3.691  14.420  0.5480  0.4265  0.2128
  741TMC3    C411002   0.727   3.866  14.483  0.1701  0.0854 -0.3440
  741TMC3    C511003   0.653   3.803  14.585  0.2969 -0.0823 -0.6857
  741TMC3    C611004   0.574   3.696  14.549 -0.2115  0.0996 -0.5245
  741TMC3     C11005   0.755   3.915  14.243 -0.0786  0.0634  0.1671
  741TMC3     O11006   0.754   3.859  14.135  0.3213 -0.4266 -0.0963
  741TMC3     H11007   0.552   3.756  14.214  1.1075 -1.3166 -0.3193
  741TMC3    H111008   0.796   3.948  14.498 -0.3362  0.4902 -0.1909
  741TMC3    H211009   0.501   3.649  14.615  1.1286  0.8531  1.5123
  741TMC3    C711010   0.649   3.858  14.715  0.3556  0.9478  0.0506
  741TMC3    C811011   0.433   3.600  14.382 -0.4940 -0.5392 -0.0301
  741TMC3    O111012   0.614   3.779  14.802 -0.3285 -0.0900  0.3200
  741TMC3    O211013   0.375   3.646  14.285  0.3094 -0.8180 -0.3419
  742TMC3    C111014   0.605   2.093  15.549  1.0557 -0.5556 -0.4614
  742TMC3    C211015   0.507   2.079  15.453 -0.5142 -0.0041 -0.8239
  742TMC3    C311016   0.562   2.068  15.329 -0.2817  0.4775 -0.7479
  742TMC3    C411017   0.739   2.099  15.527 -0.1164 -0.4023 -0.3986
  742TMC3    C511018   0.784   2.099  15.402  0.3103  0.0020  0.1854
  742TMC3    C611019   0.699   2.079  15.298  0.4941 -0.6751  0.2908
  742TMC3     C11020   0.572   2.092  15.692 -0.6733  0.1618  0.0369
  742TMC3     O11021   0.654   2.046  15.772 -0.2676 -0.0474  0.2710
  742TMC3     H11022   0.406   2.053  15.484  0.3552 -1.1419  1.0565
  742TMC3    H111023   0.814   2.103  15.605 -0.0188  1.7784 -0.5945
  742TMC3    H211024   0.728   2.037  15.202  2.5466  0.1189  0.5730
  742TMC3    C711025   0.909   2.032  15.384  0.0453  0.3575  0.0149
  742TMC3    C811026   0.485   2.008  15.224 -0.5803  0.1447 -0.6636
  742TMC3    O111027   0.917   1.938  15.302 -0.1515  0.1316 -0.9249
  742TMC3    O211028   0.538   2.009  15.115  0.0647  0.2782 -0.1365
  743MPD2     C11029   3.897   2.266   1.495 -0.2356 -0.2874  0.3530
  743MPD2    C111030   3.903   2.286   1.360 -0.3746  0.7739 -0.0728
  743MPD2    C211031   4.021   2.329   1.315  0.5568  0.1921 -0.4197
  743MPD2    C311032   4.123   2.353   1.401 -0.1135 -0.5678  0.5549
  743MPD2    C411033   4.116   2.331   1.536  0.5428 -0.4201  0.1095
  743MPD2    C511034   3.996   2.297   1.584  0.4163  0.1463 -0.4198
  743MPD2     H11035   4.034   2.350   1.209  3.1536 -0.6505 -0.2685
  743MPD2    H111036   4.199   2.340   1.604 -1.1351  1.5547  1.8849
  743MPD2    H211037   3.802   2.235   1.536 -0.2867  1.2937  1.4245
  743MPD2    H311038   3.973   2.280   1.688 -0.0994  0.7104 -0.4406
  743MPD2     N11039   4.253   2.383   1.342 -0.0400  0.2570 -0.0873
  743MPD2    H511040   4.246   2.390   1.240  1.0490 -0.0828 -0.1819
  743MPD2    N111041   3.788   2.260   1.286 -0.2667 -0.0343  0.2843
  743MPD2    H711042   3.699   2.253   1.334  0.4359 -0.4660  1.5174
  744TMC3    C111043   3.651   2.217   1.109 -0.3694 -0.1707 -0.2161
  744TMC3    C211044   3.573   2.151   1.201  0.2245 -0.2652 -0.1376
  744TMC3    C311045   3.482   2.059   1.155 -0.5376  0.3376 -0.1086
  744TMC3    C411046   3.630   2.191   0.978 -0.6963 -0.1205 -0.2130
  744TMC3    C511047   3.526   2.109   0.932 -1.3770 -0.0775 -0.4871
  744TMC3    C611048   3.458   2.042   1.024  0.4427  0.1806  0.4534
  744TMC3     C11049   3.781   2.265   1.149  0.6315  0.4660 -0.0867
  744TMC3     O11050   3.868   2.292   1.072 -0.2158 -0.5723  0.0434
  744TMC3     H11051   3.591   2.147   1.308  1.6104 -2.0077 -0.4425
  744TMC3    H111052   3.699   2.235   0.907  1.8110 -2.4675  0.7521
  744TMC3    H211053   3.370   1.988   0.992 -1.0796  2.3400  0.9698
  744TMC3    C711054   3.486   2.117   0.795  0.2414 -0.5086 -0.2856
  744TMC3    C811055   3.436   1.961   1.252 -0.9086 -0.1529 -0.2980
  744TMC3    O111056   3.546   2.195   0.719  0.0055 -0.1856  0.0867
  744TMC3    O211057   3.502   1.957   1.352 -0.1358  0.5330  0.2069
  745TMC3    C111058   1.121   1.885  13.743 -0.8122 -0.5676 -0.4975
  745TMC3    C211059   1.061   1.914  13.868  0.5592 -0.9203 -0.6899
  745TMC3    C311060   0.948   1.992  13.861  0.1620 -1.0266 -0.2477
  745TMC3    C411061   1.072   1.943  13.631  0.1170 -0.1271 -0.0470
  745TMC3    C511062   0.954   2.017  13.628 -0.3118  0.0908  0.2525
  745TMC3    C611063   0.884   2.034  13.747  0.0944 -0.7548 -0.3066
  745TMC3     C11064   1.267   1.871  13.739  0.2990  0.3535 -0.1777
  745TMC3     O11065   1.333   1.822  13.833  0.2092  0.7409  0.0620
  745TMC3     H11066   1.112   1.895  13.961  1.0983 -0.4170 -0.8857
  745TMC3    H111067   1.120   1.916  13.538  0.3510 -2.1830  0.6628
  745TMC3    H211068   0.795   2.095  13.756  0.0723 -1.0595  1.5101
  745TMC3    C711069   0.980   2.137  13.550 -0.2071 -0.2639 -0.4219
  745TMC3    C811070   0.881   2.037  13.985 -0.1125  0.1832 -0.4858
  745TMC3    O111071   1.095   2.166  13.538 -0.8771  0.0274  0.2112
  745TMC3    O211072   0.758   2.052  13.986  0.0543  1.1079  0.3698
  746TMC3    C111073   3.445   4.441  11.509 -0.1558  1.2089 -0.6398
  746TMC3    C211074   3.555   4.420  11.424 -0.3395 -0.1338 -0.3841
  746TMC3    C311075   3.527   4.370  11.298 -0.2036 -0.4512  0.8910
  746TMC3    C411076   3.320   4.409  11.469 -0.3787  0.1324 -0.5310
  746TMC3    C511077   3.302   4.345  11.353 -0.3319 -0.2287  0.0104
  746TMC3    C611078   3.397   4.345  11.255  0.6668 -0.1051  0.2344
  746TMC3     C11079   3.470   4.536  11.614  0.0886  0.0058  0.2379
  746TMC3     O11080   3.387   4.556  11.702  0.4948  0.6696  0.0774
  746TMC3     H11081   3.656   4.436  11.458 -0.5318  0.1488  0.0560
  746TMC3    H111082   3.234   4.437  11.528 -0.2800  0.0321 -0.3422
  746TMC3    H211083   3.370   4.304  11.159  0.2767  0.9979 -0.1287
  746TMC3    C711084   3.175   4.297  11.308  0.4308 -0.8442  0.4067
  746TMC3    C811085   3.648   4.330  11.221 -0.3909 -0.6024 -0.3651
  746TMC3    O111086   3.157   4.302  11.187  0.0748  0.3005 -0.0129
  746TMC3    O211087   3.750   4.290  11.272 -1.0047 -0.6497 -0.1081
  747TMC3    C111088   1.044   4.693  11.230  0.4770  0.6024 -0.9198
  747TMC3    C211089   1.054   4.566  11.279  0.5341 -0.0037  0.4817
  747TMC3    C311090   1.165   4.528  11.344 -0.6358  0.1077 -0.4517
  747TMC3    C411091   1.143   0.044  11.245 -0.2614  0.3363 -0.5846
  747TMC3    C511092   1.248   0.004  11.327 -0.9530 -0.1552 -0.2391
  747TMC3    C611093   1.268   4.617  11.373  0.7098 -0.4018 -0.1471
  747TMC3     C11094   0.943   4.726  11.131  0.3917 -0.0624  0.2178
  747TMC3     O11095   0.899   0.099  11.138  0.0663 -0.2941 -0.4197
  747TMC3     H11096   0.971   4.503  11.246  0.2415 -0.3318  1.8709
  747TMC3    H111097   1.147   0.143  11.200 -0.6757  0.7958  0.4030
  747TMC3    H211098   1.345   4.590  11.445  1.2932  0.4255 -0.4620
  747TMC3    C711099   1.325   0.106  11.390 -0.0400  0.4111  0.2928
  747TMC3    C811100   1.150   4.415  11.430  0.2825  0.1132  0.9549
  747TMC3    O111101   1.266   0.215  11.405 -0.3250  0.1253  0.1560
  747TMC3    O211102   1.242   4.339  11.465  0.2234 -0.1582  0.1832
  748MPD2     C11103   1.876   4.432   1.259  0.3638  0.2752  0.0347
  748MPD2    C111104   1.870   4.329   1.165  0.1237  0.3616  0.4127
  748MPD2    C211105   1.990   4.269   1.129 -1.0297  0.5075 -0.0602
  748MPD2    C311106   2.111   4.303   1.178 -0.1776  0.3958 -0.1629
  748MPD2    C411107   2.113   4.398   1.280  0.5312  0.3329  0.2136
  748MPD2    C511108   1.995   4.460   1.322 -0.7949 -0.5568 -0.2060
  748MPD2     H11109   1.983   4.186   1.059 -2.0201 -1.0763  1.9161
  748MPD2    H111110   2.197   4.437   1.336  0.4785 -0.6045  0.9497
  748MPD2    H211111   1.790   4.480   1.304  1.8100  0.9909  2.0249
  748MPD2    H311112   1.993   4.516   1.415  4.9077 -1.9409  0.7614
  748MPD2     N11113   2.229   4.243   1.125  0.9504  0.0002 -0.2337
  748MPD2    H511114   2.212   4.199   1.035 -0.7099 -0.9796  0.5650
  748MPD2    N111115   1.746   4.299   1.114  0.3967 -0.5369  0.5432
  748MPD2    H711116   1.667   4.330   1.171  0.2147  0.6181 -0.3518
  749TMC3    C111117   2.466   4.180   1.142  0.4796 -0.9703  0.4203
  749TMC3    C211118   2.445   4.052   1.093  0.5391 -0.2247  0.2984
  749TMC3    C311119   2.557   3.979   1.049 -1.3320  0.2940 -0.9891
  749TMC3    C411120   2.590   4.220   1.170 -0.2646  0.0855 -0.5734
  749TMC3    C511121   2.692   4.143   1.131 -0.3526  0.0259  0.1427
  749TMC3    C611122   2.689   4.020   1.067 -0.0843  0.4769 -0.2315
  749TMC3     C11123   2.348   4.251   1.198  0.1591 -0.2491 -0.0620
  749TMC3     O11124   2.378   4.298   1.308 -0.7197  1.0615 -0.2629
  749TMC3     H11125   2.344   4.013   1.079  0.9276 -1.1301  0.0127
  749TMC3    H111126   2.611   4.320   1.206 -2.7275  0.7586 -1.0099
  749TMC3    H211127   2.774   3.975   1.018  1.5596  1.7270  1.4410
  749TMC3    C711128   2.823   4.216   1.143 -0.5173 -0.3798 -0.0112
  749TMC3    C811129   2.537   3.841   1.005  0.2570 -0.0911  0.1300
  749TMC3    O111130   2.841   4.294   1.234 -0.0788  0.0152  0.1830
  749TMC3    O211131   2.421   3.823   0.983  0.1630  0.1961  0.6194
  750MPD2     C11132   3.630   1.405  11.607 -0.1876 -0.2773  0.0270
  750MPD2    C111133   3.577   1.304  11.680  0.7025  1.0953 -0.1500
  750MPD2    C211134   3.542   1.186  11.613  0.2043  0.5379 -0.0254
  750MPD2    C311135   3.561   1.181  11.468  0.3831 -0.3981  0.0988
  750MPD2    C411136   3.614   1.295  11.404  0.3877 -0.0357 -0.1774
  750MPD2    C511137   3.643   1.407  11.475 -0.0944  0.2553 -0.5970
  750MPD2     H11138   3.489   1.101  11.654  2.2565 -0.3271  0.8194
  750MPD2    H111139   3.637   1.296  11.298 -0.1625  0.5779 -0.2918
  750MPD2    H211140   3.640   1.504  11.650 -1.5860 -0.0917 -0.0568
  750MPD2    H311141   3.694   1.487  11.422  2.5260 -0.0549  1.4242
  750MPD2     N11142   3.528   1.072  11.385 -0.3755 -0.2083 -0.1796
  750MPD2    H511143   3.568   1.078  11.292  0.2474 -2.8979 -0.0976
  750MPD2    N111144   3.549   1.328  11.816  0.0272  0.5836 -0.4446
  750MPD2    H711145   3.553   1.423  11.850 -1.7866 -0.0473  1.5209
  751TMC3    C111146   3.414   0.881  11.285  0.8287  0.1872  0.4980
  751TMC3    C211147   3.306   0.794  11.292  0.1171  0.5214  0.6772
  751TMC3    C311148   3.257   0.728  11.185  0.1480  0.7852  0.0499
  751TMC3    C411149   3.466   0.912  11.156 -0.9720 -0.1014 -0.1872
  751TMC3    C511150   3.413   0.850  11.044 -0.0449  0.1416  0.0303
  751TMC3    C611151   3.317   0.753  11.065  0.4453  0.7932 -0.1303
  751TMC3     C11152   3.455   0.961  11.407  0.6134  0.7592  0.9818
  751TMC3     O11153   3.413   0.917  11.516 -0.4103 -0.4319 -0.2229
  751TMC3     H11154   3.278   0.766  11.393  0.3563  2.4200  1.2648
  751TMC3    H111155   3.557   0.969  11.143 -1.6343  0.7362 -1.1781
  751TMC3    H211156   3.283   0.693  10.982  1.3107  1.5609 -1.0397
  751TMC3    C711157   3.468   0.872  10.911  0.2734 -0.9824 -1.0158
  751TMC3    C811158   3.192   0.596  11.192  0.7048  0.3463  0.3640
  751TMC3    O111159   3.587   0.915  10.907 -0.0551 -0.1886  0.0383
  751TMC3    O211160   3.205   0.507  11.110  0.0622  0.3810  0.0745
  752TMC3    C111161   2.529   0.156  17.326  0.0417 -0.0710 -0.1350
  752TMC3    C211162   2.506   0.025  17.358 -0.1037  0.3186  0.0903
  752TMC3    C311163   2.455   4.724  17.483  0.2723  0.1212  0.2387
  752TMC3    C411164   2.483   0.254  17.411 -0.4049 -0.3702  0.2297
  752TMC3    C511165   2.456   0.213  17.541  0.7150 -0.4539  0.2294
  752TMC3    C611166   2.453   0.082  17.581  0.9192  0.1176 -0.3124
  752TMC3     C11167   2.574   0.187  17.194 -0.4994  0.0990  0.5865
  752TMC3     O11168   2.656   0.110  17.146  0.3811  0.1584 -0.3914
  752TMC3     H11169   2.531   4.684  17.288 -1.3089 -0.6546  0.7570
  752TMC3    H111170   2.507   0.360  17.403 -1.8373 -0.0781 -0.1742
  752TMC3    H211171   2.404   0.063  17.676 -1.0869  2.1785 -0.9358
  752TMC3    C711172   2.521   0.293  17.645 -0.3465 -0.5990  1.6042
  752TMC3    C811173   2.441   4.585  17.517  0.2141  0.0049  0.2724
  752TMC3    O111174   2.608   0.242  17.711 -0.0763 -0.2885  0.6187
  752TMC3    O211175   2.444   4.555  17.636 -0.1476 -0.2749  0.7190
  753TMC3    C111176   0.127   2.278  13.225  0.4619 -0.6049 -0.4524
  753TMC3    C211177   0.170   2.246  13.355  0.2436 -0.3973  0.6762
  753TMC3    C311178   0.226   2.121  13.366 -0.4460 -0.1249 -0.1948
  753TMC3    C411179   0.163   2.201  13.116  0.0710 -0.4638  0.9748
  753TMC3    C511180   0.233   2.084  13.133 -0.5944  0.0198  0.3033
  753TMC3    C611181   0.247   2.039  13.257 -0.4692  0.2314 -0.2048
  753TMC3     C11182   0.062   2.403  13.192 -0.6110 -0.3031  0.4965
  753TMC3     O11183   0.034   2.427  13.073  0.6954  0.2054 -0.2821
  753TMC3     H11184   0.167   2.317  13.436 -0.4751  0.0256  0.2805
  753TMC3    H111185   0.137   2.235  13.017 -0.6887 -1.0366  0.9875
  753TMC3    H211186   0.295   1.944  13.276  1.2443  1.1752  0.1498
  753TMC3    C711187   0.268   1.994  13.025 -0.0938 -0.3581 -0.8489
  753TMC3    C811188   0.276   2.074  13.494  0.2671  0.5584 -0.0834
  753TMC3    O111189   0.283   1.874  13.057 -0.0583  0.7225 -0.1831
  753TMC3    O211190   0.364   1.991  13.497 -0.1420 -0.1252 -0.3059
  754MPD2     C11191   3.236   0.763  13.053  0.9580  0.4058  0.1480
  754MPD2    C111192   3.253   0.628  13.060 -0.5385 -0.3567  0.7532
  754MPD2    C211193   3.144   0.557  13.116  0.8764 -0.2519 -0.1765
  754MPD2    C311194   3.025   0.623  13.151 -0.2344  0.0760  0.4908
  754MPD2    C411195   3.020   0.762  13.134  0.4537  0.1222  0.4570
  754MPD2    C511196   3.129   0.835  13.095 -0.7823 -0.0117 -0.5079
  754MPD2     H11197   3.145   0.448  13.118 -1.4432 -0.2791  0.0113
  754MPD2    H111198   2.930   0.819  13.153 -0.2435 -1.2508  1.2648
  754MPD2    H211199   3.307   0.825  12.999  0.2022  1.9679  0.9437
  754MPD2    H311200   3.116   0.941  13.080  0.6851  0.4429  1.3738
  754MPD2     N11201   2.915   0.554  13.211 -0.7170  0.0527 -0.2097
  754MPD2    H511202   2.840   0.617  13.239 -0.9520  0.2188 -1.2328
  754MPD2    N111203   3.380   0.576  13.018  0.0333 -0.0349 -0.0161
  754MPD2    H711204   3.432   0.649  12.970 -0.5924  1.0291  0.9462
  755MPD2     C11205   2.706   0.733  14.065 -0.5112  0.6637 -0.4111
  755MPD2    C111206   2.625   0.771  13.963 -0.2224 -1.0701  0.0155
  755MPD2    C211207   2.627   0.700  13.844  0.0756  0.1714  0.0151
  755MPD2    C311208   2.699   0.579  13.828 -0.1109  0.1750  0.1676
  755MPD2    C411209   2.766   0.538  13.937 -0.3127  0.1495 -0.7442
  755MPD2    C511210   2.779   0.622  14.047 -0.1062  0.1190 -0.1819
  755MPD2     H11211   2.566   0.738  13.763 -1.0880  0.2365  0.9325
  755MPD2    H111212   2.829   0.450  13.925  1.7088  1.2903  1.5530
  755MPD2    H211213   2.724   0.789  14.156  0.5575  0.3849 -0.4472
  755MPD2    H311214   2.859   0.597  14.115 -1.0226 -0.7925  0.5646
  755MPD2     N11215   2.712   0.515  13.706 -0.6252 -0.1715 -0.6626
  755MPD2    H511216   2.790   0.452  13.689  0.2654 -0.8602  6.0264
  755MPD2    N111217   2.553   0.893  13.960 -0.3188  0.5410  0.0432
  755MPD2    H711218   2.481   0.902  13.889  0.8689 -1.4029 -1.3893
  756MPD2     C11219   3.986   1.812  10.023  0.4611 -0.0494 -0.2739
  756MPD2    C111220   3.905   1.922  10.006  0.6561 -0.2105  0.1815
  756MPD2    C211221   3.843   1.942   9.887 -0.0584  0.3739 -0.2215
  756MPD2    C311222   3.855   1.855   9.781 -0.0093  0.6814  0.4096
  756MPD2    C411223   3.936   1.742   9.800  0.3045  0.4238  0.0123
  756MPD2    C511224   4.004   1.728   9.916  0.0028 -0.3306 -0.1714
  756MPD2     H11225   3.787   2.034   9.870 -0.9836 -0.2561 -0.5991
  756MPD2    H111226   3.959   1.679   9.715 -0.8473 -1.3530  1.0188
  756MPD2    H211227   4.032   1.789  10.118  0.1808 -0.0169 -0.1289
  756MPD2    H311228   4.090   1.662   9.920  1.1321  1.1202 -0.7191
  756MPD2     N11229   3.791   1.892   9.656  0.4739  0.4218  0.3817
  756MPD2    H511230   3.762   1.989   9.651 -1.0130 -0.0560 -0.1953
  756MPD2    N111231   3.886   2.025  10.108  0.1679 -0.1990  0.4385
  756MPD2    H711232   3.826   2.105  10.092 -0.0608 -0.7111 -1.2538
  757MPD2     C11233   2.958   1.612   9.409  0.4649  0.3392  0.0890
  757MPD2    C111234   3.026   1.633   9.522 -0.7042 -0.1995  0.3086
  757MPD2    C211235   3.151   1.687   9.514  0.2042  0.1551  0.7896
  757MPD2    C311236   3.211   1.722   9.393 -0.0778  0.1096 -0.0227
  757MPD2    C411237   3.138   1.696   9.278  0.5396 -0.5391  0.0367
  757MPD2    C511238   3.014   1.637   9.288 -0.2117 -0.0580 -0.4994
  757MPD2     H11239   3.210   1.706   9.603 -0.0558 -1.6172  1.3409
  757MPD2    H111240   3.184   1.704   9.180  0.8294  3.1496  0.4825
  757MPD2    H211241   2.854   1.585   9.424  0.1267  1.2303 -0.6590
  757MPD2    H311242   2.960   1.621   9.195 -0.8828 -1.5380  0.1557
  757MPD2     N11243   3.343   1.767   9.382 -0.1044  0.1139  0.4891
  757MPD2    H511244   3.398   1.769   9.467 -0.4078 -2.1315  0.7332
  757MPD2    N111245   2.961   1.598   9.647  0.5173  0.5245  0.4123
  757MPD2    H711246   2.862   1.592   9.626  0.5088  0.0287  0.6120
  758MPD2     C11247   3.109   0.012  15.670 -0.1841 -0.4213  0.3877
  758MPD2    C111248   3.155   4.635  15.736  0.3731  0.0441  0.0102
  758MPD2    C211249   3.108   4.605  15.864 -0.0040 -0.8019 -0.0353
  758MPD2    C311250   3.023   4.691  15.924  0.2187 -0.7003 -0.2039
  758MPD2    C411251   2.982   0.068  15.860  0.2532  0.5485 -0.3320
  758MPD2    C511252   3.011   0.089  15.726  0.2124  0.3756  0.1751
  758MPD2     H11253   3.147   4.519  15.918  0.9907  0.7343  1.7200
  758MPD2    H111254   2.915   0.132  15.917 -0.9210 -0.8909 -0.1024
  758MPD2    H211255   3.150   0.038  15.573  0.8652 -0.5271  0.8032
  758MPD2    H311256   2.973   0.178  15.676 -0.4451  1.1083  1.9746
  758MPD2     N11257   2.988   4.674  16.057 -0.0896 -0.1156  0.1430
  758MPD2    H511258   2.925   0.001  16.104  0.2899  1.4636 -1.5220
  758MPD2    N111259   3.254   4.561  15.674 -0.2092 -0.0907  0.2962
  758MPD2    H711260   3.267   4.584  15.575 -2.2416  1.3030  0.3490
  759MPD2     C11261   1.587   4.307  10.803 -0.1915  0.3144  0.2850
  759MPD2    C111262   1.643   4.209  10.718 -0.3317  0.1382 -0.4903
  759MPD2    C211263   1.744   4.250  10.640  0.0668  0.7752 -0.3324
  759MPD2    C311264   1.791   4.380  10.640 -0.0428 -0.7582 -0.7095
  759MPD2    C411265   1.742   4.475  10.723 -0.0761 -0.2022 -0.1765
  759MPD2    C511266   1.641   4.437  10.814 -0.2548  0.0085 -0.3852
  759MPD2     H11267   1.793   4.183  10.570 -0.9999 -1.1362  0.7353
  759MPD2    H111268   1.789   4.572  10.729  1.2679 -0.8280 -0.4035
  759MPD2    H211269   1.510   4.285  10.876  0.2514 -0.1638  0.6070
  759MPD2    H311270   1.606   4.499  10.895 -0.8647 -0.8309 -0.0061
  759MPD2     N11271   1.904   4.398  10.560 -0.6707 -0.0781  0.0501
  759MPD2    H511272   1.947   4.313  10.525  1.4475  1.2278 -0.4732
  759MPD2    N111273   1.607   4.073  10.713 -0.2189  0.1646  0.4278
  759MPD2    H711274   1.659   4.011  10.652 -0.5525 -0.8267  1.1319
  760MPD2     C11275   1.578   1.404  11.519 -0.4656  0.1615 -0.2110
  760MPD2    C111276   1.718   1.423  11.509  0.1850  0.4031  0.2393
  760MPD2    C211277   1.802   1.379  11.609  0.0060 -0.2436 -0.0139
  760MPD2    C311278   1.751   1.308  11.711  0.0516 -0.3843  0.0778
  760MPD2    C411279   1.611   1.298  11.723  0.3156 -0.0308 -0.0129
  760MPD2    C511280   1.525   1.348  11.629  0.0713 -0.0022 -0.9024
  760MPD2     H11281   1.909   1.392  11.601 -0.3286  2.0462 -1.0446
  760MPD2    H111282   1.573   1.250  11.812  0.2464  0.9694  0.4980
  760MPD2    H211283   1.507   1.440  11.445  0.8211 -0.9613 -1.9924
  760MPD2    H311284   1.418   1.331  11.638  0.4142 -1.8547 -0.4875
  760MPD2     N11285   1.824   1.246  11.818 -0.3776 -0.0663 -0.3852
  760MPD2    H511286   1.778   1.175  11.874  0.3630 -1.3903 -1.4530
  760MPD2    N111287   1.780   1.488  11.402  0.6345  0.2382 -0.0307
  760MPD2    H711288   1.877   1.512  11.420  0.4723  0.6251  0.3268
  761MPD2     C11289   2.797   0.323  11.372  0.1522  0.3765 -0.1675
  761MPD2    C111290   2.856   0.321  11.248  0.6121  0.2298 -0.0159
  761MPD2    C211291   2.958   0.414  11.221 -0.2533 -0.8418  0.5731
  761MPD2    C311292   3.002   0.508  11.318 -0.6045  0.5783  0.4407
  761MPD2    C411293   2.941   0.506  11.445  0.3398  0.2234 -0.3932
  761MPD2    C511294   2.840   0.416  11.462 -1.0843 -0.5235  0.1689
  761MPD2     H11295   3.001   0.421  11.122 -1.0053 -1.5890  0.1892
  761MPD2    H111296   2.962   0.582  11.519  1.0468 -0.4246  0.0668
  761MPD2    H211297   2.713   0.257  11.391 -0.3479  1.4838  1.4188
  761MPD2    H311298   2.797   0.411  11.561  1.1546  0.2471  1.1899
  761MPD2     N11299   3.107   0.602  11.295 -0.0748 -0.2940 -0.4581
  761MPD2    H511300   3.123   0.670  11.368 -0.4615 -0.5409 -0.1437
  761MPD2    N111301   2.797   0.230  11.154 -0.4790 -0.2532  0.0556
  761MPD2    H711302   2.721   0.174  11.190 -1.2335  1.3680  0.9666
  762MPD2     C11303   2.827   4.404  10.460 -0.1790 -0.2582 -0.1934
  762MPD2    C111304   2.855   4.539  10.479  0.4822 -0.9406 -0.0980
  762MPD2    C211305   2.980   4.592  10.447 -0.0998  0.0008  0.3643
  762MPD2    C311306   3.077   4.518  10.387 -1.9011  0.0685 -0.0141
  762MPD2    C411307   3.050   4.386  10.380 -0.5628 -0.4194 -0.4360
  762MPD2    C511308   2.926   4.332  10.399 -0.4351 -0.2474 -0.0138
  762MPD2     H11309   2.989   4.699  10.465  0.3279 -0.0546  0.4672
  762MPD2    H111310   3.130   4.317  10.356 -0.5038 -0.4354 -0.1983
  762MPD2    H211311   2.730   4.360  10.480 -0.7437  2.1761  2.4986
  762MPD2    H311312   2.897   4.228  10.386 -0.1975 -0.5720  2.1541
  762MPD2     N11313   3.207   4.559  10.352  0.3589 -0.5118 -0.6426
  762MPD2    H511314   3.268   4.479  10.336  0.2740 -0.2856 -2.1359
  762MPD2    N111315   2.757   4.607  10.560  0.5196 -1.1327 -0.9778
  762MPD2    H711316   2.689   4.548  10.607  0.4935 -0.3388 -0.0150
  763MPD2     C11317   4.693   4.629  16.226 -0.1697 -0.4013  0.3046
  763MPD2    C111318   4.721   4.717  16.116 -0.1742  0.0940  0.0785
  763MPD2    C211319   0.002   0.113  16.146  0.4075 -0.2872  0.3193
  763MPD2    C311320   0.003   0.161  16.280  0.2711 -0.9394  0.1827
  763MPD2    C411321   4.713   0.069  16.383 -0.6086 -0.3062 -0.1618
  763MPD2    C511322   4.690   4.676  16.359 -0.0815 -0.2235  0.7712
  763MPD2     H11323   0.019   0.179  16.061 -4.9749 -0.3587 -0.7812
  763MPD2    H111324   4.705   0.101  16.487 -0.2676 -0.6484 -0.0325
  763MPD2    H211325   4.672   4.523  16.210  0.0318 -0.3421 -0.3742
  763MPD2    H311326   4.658   4.618  16.445  0.8212 -0.8027  0.7155
  763MPD2     N11327   0.021   0.292  16.321 -0.2600  0.3920  0.2313
  763MPD2    H511328   0.040   0.312  16.419  0.3596 -1.8534  0.5856
  763MPD2    N111329   4.738   4.676  15.983  0.5056  0.3562  0.4001
  763MPD2    H711330   0.024   0.010  15.915 -1.5180  0.8361  0.1811
  764MPD2     C11331   3.133   1.725  17.614  0.2208  0.5480 -0.3539
  764MPD2    C111332   3.018   1.659  17.585  0.4037 -0.3989 -1.3437
  764MPD2    C211333   2.924   1.639  17.685 -0.7117  0.2525  0.0108
  764MPD2    C311334   2.942   1.684   0.057 -0.4890 -0.0439 -0.0077
  764MPD2    C411335   3.052   1.766   0.089  0.9553 -0.5253  0.3519
  764MPD2    C511336   3.147   1.774  17.740 -0.0198  0.2875 -0.6841
  764MPD2     H11337   2.837   1.584  17.652 -0.2361  0.1218 -1.0163
  764MPD2    H111338   3.080   1.791   0.190  1.1352 -1.2008  0.4731
  764MPD2    H211339   3.213   1.752  17.546 -2.1167 -0.2522 -3.3929
  764MPD2    H311340   3.240   1.820   0.022  1.9268 -1.6751 -3.4157
  764MPD2     N11341   2.842   1.646   0.155  0.2490  0.1856  1.0279
  764MPD2    H511342   2.775   1.579   0.118 -0.1420  1.4071 -0.4960
  764MPD2    N111343   2.980   1.615  17.459 -0.3330 -0.3282 -0.2912
  764MPD2    H711344   2.888   1.575  17.447 -1.1444  1.8064 -1.0163
  765MPD2     C11345   2.485   4.047  15.898  0.4799 -0.5408  0.7223
  765MPD2    C111346   2.575   4.144  15.866  0.1801 -0.1953 -0.3309
  765MPD2    C211347   2.708   4.116  15.896 -0.4075 -1.0802 -0.2948
  765MPD2    C311348   2.750   3.998  15.958  0.2668 -0.4716 -0.1365
  765MPD2    C411349   2.660   3.902  15.989  0.4759 -0.3334  0.1788
  765MPD2    C511350   2.526   3.936  15.962  0.5736  0.1437  0.6351
  765MPD2     H11351   2.768   4.204  15.877 -4.3353  1.5039 -0.5724
  765MPD2    H111352   2.689   3.803  16.020 -1.0125 -0.3461  1.5004
  765MPD2    H211353   2.377   4.040  15.892  0.5523 -0.7341 -0.3426
  765MPD2    H311354   2.453   3.867  16.002  1.5683 -0.0272  2.1456
  765MPD2     N11355   2.890   3.975  15.964 -0.5125 -0.5117  0.0951
  765MPD2    H511356   2.952   4.039  15.917 -1.1099 -0.1707 -0.2370
  765MPD2    N111357   2.523   4.264  15.807 -0.2727 -0.2609 -0.2007
  765MPD2    H711358   2.423   4.259  15.788 -0.2348 -0.4930 -0.3453
  766MPD2     C11359   2.042   4.396  15.340 -0.1304 -0.0576  0.3567
  766MPD2    C111360   2.170   4.356  15.357 -0.1605 -0.2093 -0.6720
  766MPD2    C211361   2.233   4.268  15.267  0.4687  0.4447  0.2017
  766MPD2    C311362   2.170   4.248  15.140  0.5169 -0.2196 -0.0912
  766MPD2    C411363   2.038   4.280  15.127  0.1250 -0.1213 -0.3647
  766MPD2    C511364   1.968   4.349  15.227  0.0881  0.3819 -0.0033
  766MPD2     H11365   2.332   4.230  15.288  0.6789  1.1718  0.5123
  766MPD2    H111366   1.979   4.249  15.041 -1.9933 -1.4144  1.5416
  766MPD2    H211367   1.999   4.462  15.414 -0.1280 -1.1780  1.3534
  766MPD2    H311368   1.863   4.375  15.218 -0.1693 -1.0531 -1.3325
  766MPD2     N11369   2.243   4.210  15.027  0.1529  0.3845  0.4201
  766MPD2    H511370   2.198   4.207  14.936  1.2760 -0.1167 -0.1112
  766MPD2    N111371   2.252   4.419  15.459  0.4474 -0.4461 -0.2818
  766MPD2    H711372   2.348   4.386  15.462  1.4725  2.6503  0.2215
  767MPD2     C11373   1.904   4.625  15.024 -0.3066  0.0495  0.3172
  767MPD2    C111374   2.030   4.595  14.976 -0.1955  0.6852 -0.2085
  767MPD2    C211375   2.038   4.516  14.868 -0.7089 -0.4716 -0.0505
  767MPD2    C311376   1.931   4.490  14.779 -0.1544 -0.3874  0.3564
  767MPD2    C411377   1.808   4.544  14.825 -0.2452  0.6159  0.4244
  767MPD2    C511378   1.795   4.612  14.942  0.0597 -0.3492 -0.6779
  767MPD2     H11379   2.134   4.477  14.839  0.3915  1.4032  1.0720
  767MPD2    H111380   1.714   4.517  14.777  0.4569 -0.8427 -0.1477
  767MPD2    H211381   1.890   4.691  15.109  1.0950  0.4007  0.2671
  767MPD2    H311382   1.701   4.662  14.958  0.7769  0.2847  1.4550
  767MPD2     N11383   1.958   4.435  14.647 -0.2746  0.0231 -0.2627
  767MPD2    H511384   2.053   4.407  14.628  0.1311  1.5050 -0.3974
  767MPD2    N111385   2.141   4.639  15.058  0.2972 -0.2230  0.2851
  767MPD2    H711386   2.113   4.698  15.136 -1.4458 -0.0853 -0.4474
  768MPD2     C11387   3.180   4.129  10.731 -0.1446  0.2392  0.0248
  768MPD2    C111388   3.135   4.014  10.794 -0.8814  0.1640  0.4066
  768MPD2    C211389   3.209   3.942  10.887  0.0743 -0.0331  0.0339
  768MPD2    C311390   3.335   3.991  10.911 -0.2989  0.0352 -0.5837
  768MPD2    C411391   3.377   4.098  10.845 -0.3319 -0.4531  0.3949
  768MPD2    C511392   3.309   4.165  10.751  0.1454 -0.1440  0.1688
  768MPD2     H11393   3.170   3.851  10.930  3.1181 -1.5182 -0.3247
  768MPD2    H111394   3.477   4.136  10.864 -0.1293 -0.5604 -0.4515
  768MPD2    H211395   3.118   4.185  10.663  0.7166  1.2977  0.1202
  768MPD2    H311396   3.356   4.253  10.706 -0.4689 -0.1525 -0.4970
  768MPD2     N11397   3.419   3.938  11.015  0.2352  0.2405  0.0035
  768MPD2    H511398   3.512   3.977  11.018 -0.2085  1.0174  2.9399
  768MPD2    N111399   2.998   3.971  10.778 -0.2016 -0.2593 -0.2197
  768MPD2    H711400   2.966   3.893  10.834  1.1895  0.8037  2.0689
  769MPD2     C11401   4.077   1.238  14.649  0.2019 -0.8989  0.2538
  769MPD2    C111402   3.963   1.214  14.729 -0.2305  0.1575 -0.2477
  769MPD2    C211403   3.983   1.172  14.860 -0.6461 -0.6924 -0.6863
  769MPD2    C311404   4.110   1.131  14.902 -1.0164 -1.2394  0.8557
  769MPD2    C411405   4.219   1.140  14.814 -0.2829  0.0856 -0.1235
  769MPD2    C511406   4.201   1.196  14.689  0.5933  0.7990 -0.4310
  769MPD2     H11407   3.896   1.171  14.924  2.0645 -1.0396  2.9722
  769MPD2    H111408   4.317   1.107  14.846  0.3604  0.7305 -1.4415
  769MPD2    H211409   4.069   1.279  14.549 -1.3178  0.7488  1.0521
  769MPD2    H311410   4.284   1.220  14.622  1.2762 -1.3824 -0.3626
  769MPD2     N11411   4.124   1.089  15.034  0.0321 -0.1314 -0.5131
  769MPD2    H511412   4.041   1.078  15.091  0.5264 -1.4453 -0.0437
  769MPD2    N111413   3.831   1.238  14.672  0.6077  0.4571  0.1066
  769MPD2    H711414   3.824   1.253  14.572  2.4058  0.2531 -0.0449
  770MPD2     C11415   3.261   0.678  15.034 -0.0747 -0.6263  0.0742
  770MPD2    C111416   3.347   0.656  14.929  0.2892  0.1075 -1.0262
  770MPD2    C211417   3.360   0.756  14.830 -0.1948  1.0634  0.3415
  770MPD2    C311418   3.293   0.879  14.848  0.0061  0.9732  0.6326
  770MPD2    C411419   3.212   0.900  14.956 -0.0435 -0.7069  0.6703
  770MPD2    C511420   3.193   0.799  15.045  0.3391  0.1799 -0.0362
  770MPD2     H11421   3.425   0.742  14.745  0.0336  1.3073  0.4780
  770MPD2    H111422   3.173   0.999  14.980 -0.8773 -0.5625 -1.2713
  770MPD2    H211423   3.237   0.600  15.106  3.2390 -0.5265  1.2836
  770MPD2    H311424   3.134   0.810  15.135 -0.1268  0.0387 -0.3210
  770MPD2     N11425   3.323   0.980  14.756  0.4030  0.1459  0.9288
  770MPD2    H511426   3.400   0.951  14.698 -1.4638 -0.8247 -1.0485
  770MPD2    N111427   3.412   0.534  14.920 -0.3154  0.4112  0.0728
  770MPD2    H711428   3.392   0.460  14.986  1.0264 -1.2161 -1.3322
  771MPD2     C11429   0.087   4.077  13.490  0.4828  0.2450 -0.1295
  771MPD2    C111430   0.043   4.168  13.396  0.1062 -0.1845  0.4469
  771MPD2    C211431   4.702   4.126  13.290 -0.1734 -0.1361  0.7842
  771MPD2    C311432   4.684   3.985  13.270 -0.0706 -0.6689  0.9523
  771MPD2    C411433   0.002   3.893  13.357  0.4201 -0.2834  0.1954
  771MPD2    C511434   0.073   3.941  13.464 -0.2855 -0.0461 -0.4869
  771MPD2     H11435   4.648   4.192  13.223 -1.5560 -0.3506  1.6810
  771MPD2    H111436   4.724   3.787  13.337 -1.9799  0.5641 -2.3122
  771MPD2    H211437   0.148   4.104  13.575 -0.6717 -0.4387  0.9146
  771MPD2    H311438   0.121   3.881  13.540  1.1530 -0.2135 -1.5275
  771MPD2     N11439   4.593   3.949  13.163  0.4472  0.0015 -0.9974
  771MPD2    H511440   4.547   4.022  13.110 -0.5905 -0.0603 -0.2005
  771MPD2    N111441   0.075   4.309  13.410 -0.0181  0.4281 -0.1728
  771MPD2    H711442   0.026   4.378  13.355 -0.2751  1.0238  0.7961
  772MPD2     C11443   4.731   0.086  13.946  0.5863 -0.0583  0.4987
  772MPD2    C111444   4.664   0.009  13.851  0.1891 -0.2662 -0.5426
  772MPD2    C211445   4.550   4.681  13.889  0.5802  0.2288 -0.0779
  772MPD2    C311446   4.493   4.691  14.013  0.6021 -0.3764  0.8392
  772MPD2    C411447   4.563   0.021  14.112 -0.6397  0.8191 -0.1971
  772MPD2    C511448   4.678   0.079  14.075  0.4551 -0.2876  0.6542
  772MPD2     H11449   4.499   4.623  13.813  0.4110 -0.7381  0.7761
  772MPD2    H111450   4.527   0.026  14.215 -0.2574 -1.0516  0.0229
  772MPD2    H211451   0.084   0.140  13.924  0.2126  0.1464 -0.5447
  772MPD2    H311452   4.718   0.136  14.158 -0.6650  1.1163  0.2263
  772MPD2     N11453   4.373   4.632  14.043 -1.1738 -0.1043 -0.0532
  772MPD2    H511454   4.348   4.622  14.141  0.7406  0.6684  0.5033
  772MPD2    N111455   4.713   4.726  13.720  0.4419 -0.1237  0.6933
  772MPD2    H711456   4.661   4.663  13.660  2.5579 -1.5961  0.3724
  773MPD2     C11457   3.549   4.460   0.428  0.2978 -0.3221  0.0992
  773MPD2    C111458   3.531   4.374   0.317  0.0463  0.9413 -0.2135
  773MPD2    C211459   3.572   4.236   0.327 -0.0157 -0.1266 -0.0490
  773MPD2    C311460   3.625   4.187   0.445 -0.4498  0.3634 -0.2157
  773MPD2    C411461   3.650   4.273   0.545 -0.1061 -0.4456  0.2301
  773MPD2    C511462   3.604   4.402   0.536  0.4099 -0.3349  0.4362
  773MPD2     H11463   3.535   4.170   0.249  2.0524 -0.9762 -0.3136
  773MPD2    H111464   3.686   4.233   0.639  0.8701  1.0007  0.4553
  773MPD2    H211465   3.507   4.559   0.442 -1.1072 -0.7699 -1.0225
  773MPD2    H311466   3.614   4.475   0.615 -0.9826  1.0782 -0.6767
  773MPD2     N11467   3.658   4.046   0.452 -0.4748 -0.2121  0.7195
  773MPD2    H511468   3.632   3.998   0.367  2.6618 -0.4420 -0.0987
  773MPD2    N111469   3.459   4.409   0.203 -0.3904  0.6077 -0.4856
  773MPD2    H711470   3.459   4.337   0.132 -4.5853  2.3163 -2.2058
  774MPD2     C11471   3.002   4.344  13.304  0.3500  0.1155 -0.1440
  774MPD2    C111472   3.077   4.384  13.412 -0.5310  0.1030 -0.9759
  774MPD2    C211473   3.150   4.502  13.404 -0.0953  0.1063  0.0230
  774MPD2    C311474   3.158   4.564  13.283  0.5806 -0.4195  0.1789
  774MPD2    C411475   3.090   4.514  13.174  0.7972 -0.2698  0.3954
  774MPD2    C511476   3.004   4.413  13.187  0.2552 -0.0583 -0.5318
  774MPD2     H11477   3.217   4.543  13.478 -1.1281 -0.5080  1.3161
  774MPD2    H111478   3.090   4.548  13.071 -0.9099  1.8265  1.1025
  774MPD2    H211479   2.942   4.254  13.302 -1.7065  1.5108 -0.4016
  774MPD2    H311480   2.966   4.361  13.099 -0.0575 -0.7995  0.0440
  774MPD2     N11481   3.227   4.692  13.273 -0.0143  0.5823 -0.3963
  774MPD2    H511482   3.271   4.723  13.359  0.9800 -0.7848 -0.4140
  774MPD2    N111483   3.061   4.307  13.528 -0.4130  0.2736 -0.1657
  774MPD2    H711484   3.014   4.217  13.528  0.8926 -0.3916 -1.8369
  775MPD2     C11485   4.428   0.731  15.560 -0.6014  0.4655 -0.2891
  775MPD2    C111486   4.387   0.832  15.646  0.1037  0.3935  0.2222
  775MPD2    C211487   4.454   0.951  15.638 -0.0108  0.1271 -0.1135
  775MPD2    C311488   4.559   0.971  15.545 -0.0533 -0.8146  0.1192
  775MPD2    C411489   4.602   0.867  15.469 -0.8416 -0.4755  0.3478
  775MPD2    C511490   4.536   0.752  15.479 -0.2643 -0.4893 -0.3175
  775MPD2     H11491   4.418   1.023  15.710  0.7802  2.4369 -2.0032
  775MPD2    H111492   4.688   0.886  15.405  0.8999 -1.1895  2.5003
  775MPD2    H211493   4.370   0.640  15.564 -1.6021  1.0062 -2.3051
  775MPD2    H311494   4.574   0.665  15.427  0.8077 -1.0319  1.3575
  775MPD2     N11495   4.622   1.096  15.527  0.6166 -0.5087 -0.2611
  775MPD2    H511496   4.703   1.100  15.466  0.5895 -0.7849 -0.3172
  775MPD2    N111497   4.271   0.802  15.729  0.0007 -0.0403 -0.3019
  775MPD2    H711498   4.222   0.718  15.701  1.6833 -1.2205  0.2685
  776MPD2     C11499   2.990   1.702  12.383 -0.0697  0.7061  0.1839
  776MPD2    C111500   3.042   1.685  12.256 -0.2577 -0.4276 -0.1372
  776MPD2    C211501   3.010   1.789  12.164 -0.0529 -0.0236 -0.6101
  776MPD2    C311502   2.932   1.894  12.199 -0.0722  0.2718 -0.3108
  776MPD2    C411503   2.875   1.896  12.324  0.2454 -0.5630  0.4499
  776MPD2    C511504   2.913   1.809  12.415  0.7538  0.5102  0.7978
  776MPD2     H11505   3.041   1.786  12.061  1.3904 -0.4946 -0.1596
  776MPD2    H111506   2.803   1.969  12.362  0.4702 -0.2926  0.3547
  776MPD2    H211507   3.009   1.626  12.458 -0.7635  1.9993  1.6528
  776MPD2    H311508   2.889   1.818  12.520 -0.5377  0.6446  0.4859
  776MPD2     N11509   2.902   2.005  12.120  0.0352 -0.0057 -0.0046
  776MPD2    H511510   2.842   2.074  12.164 -0.7320  1.8402 -3.9106
  776MPD2    N111511   3.133   1.580  12.226 -0.6595  0.2619  0.4868
  776MPD2    H711512   3.166   1.530  12.307  3.9397  1.3168 -0.7226
  777MPD2     C11513   3.467   3.220   0.400  0.4841  0.2521  0.1864
  777MPD2    C111514   3.392   3.140   0.478  0.0316  0.5683  0.6211
  777MPD2    C211515   3.334   3.018   0.435 -0.6587  0.3783 -0.1538
  777MPD2    C311516   3.359   2.979   0.310  0.0773 -0.4377  0.6207
  777MPD2    C411517   3.421   3.062   0.224  0.1135  0.2887 -0.4110
  777MPD2    C511518   3.469   3.186   0.265 -0.2839  0.3650 -0.5187
  777MPD2     H11519   3.290   2.948   0.505 -0.9347  1.6656  0.9647
  777MPD2    H111520   3.436   3.032   0.121 -0.8410  0.8295 -0.7102
  777MPD2    H211521   3.518   3.314   0.422  1.0405  0.2251 -0.9760
  777MPD2    H311522   3.506   3.262   0.197  0.4327  2.1939  1.8980
  777MPD2     N11523   3.327   2.844   0.279  0.2778 -0.5113  0.5948
  777MPD2    H511524   3.269   2.785   0.337 -0.1299  0.2424  0.9380
  777MPD2    N111525   3.366   3.194   0.605 -0.0085  0.3208 -0.0051
  777MPD2    H711526   3.409   3.282   0.633  0.8383  0.5850 -2.1699
  778MPD2     C11527   4.693   4.165  14.746 -1.5263  0.2363  0.3110
  778MPD2    C111528   4.686   4.077  14.643 -0.4115  0.2533  0.0001
  778MPD2    C211529   4.712   4.125  14.518  0.3533  0.8903  0.7145
  778MPD2    C311530   0.003   4.250  14.486  1.1168 -0.6867 -0.0298
  778MPD2    C411531   0.016   4.339  14.590 -0.3781 -0.0789 -0.4352
  778MPD2    C511532   4.730   4.291  14.720 -0.0509  0.2113 -0.1852
  778MPD2     H11533   4.714   4.052  14.438 -1.2295  3.3201 -1.5343
  778MPD2    H111534   0.038   4.444  14.583 -1.9374  0.1737 -1.5072
  778MPD2    H211535   4.674   4.141  14.850  1.7350 -0.7193  0.6741
  778MPD2    H311536   0.005   4.344  14.814 -1.2781 -0.3268  0.2884
  778MPD2     N11537   0.027   4.290  14.356  0.3593  0.3325 -0.3637
  778MPD2    H511538   0.018   4.218  14.285  0.8735  0.1589 -0.2514
  778MPD2    N111539   4.637   3.941  14.648  0.2243  1.1307  0.5052
  778MPD2    H711540   4.599   3.901  14.563 -0.1675 -0.1106  1.2599
  779MPD2     C11541   4.127   2.716  14.146  0.2457 -0.5789 -0.4502
  779MPD2    C111542   4.261   2.712  14.150  0.0995 -0.0174 -0.1531
  779MPD2    C211543   4.332   2.825  14.111 -0.1489  0.6727 -0.3213
  779MPD2    C311544   4.271   2.943  14.070  0.0462 -0.2777  0.2486
  779MPD2    C411545   4.135   2.946  14.071  0.0251 -0.0286 -0.0681
  779MPD2    C511546   4.070   2.832  14.109  0.0712 -0.6880 -0.0256
  779MPD2     H11547   4.440   2.820  14.112 -0.1108  0.9594 -2.6928
  779MPD2    H111548   4.087   3.038  14.042  0.0669  0.2050  0.5969
  779MPD2    H211549   4.062   2.629  14.151  0.1139 -0.4525  0.0285
  779MPD2    H311550   3.961   2.831  14.110  0.0688  1.4381  0.5621
  779MPD2     N11551   4.351   3.060  14.040  0.6015  0.8948 -0.0072
  779MPD2    H511552   4.436   3.067  14.096  1.0613 -3.4120 -0.1791
  779MPD2    N111553   4.334   2.598  14.194  0.0411 -0.0638  0.2492
  779MPD2    H711554   4.435   2.605  14.193  0.2306 -2.5505  0.1717
  780MPD2     C11555   4.257   2.086   0.772  0.1182 -0.0971  0.4894
  780MPD2    C111556   4.122   2.060   0.746 -0.1815  0.5100  0.0641
  780MPD2    C211557   4.079   2.103   0.624  0.0965 -0.4240 -0.0726
  780MPD2    C311558   4.167   2.159   0.531  0.8244 -0.0487  0.7801
  780MPD2    C411559   4.297   2.165   0.559 -0.6322 -0.8279  0.9728
  780MPD2    C511560   4.346   2.133   0.677 -0.5845 -0.5859 -0.4819
  780MPD2     H11561   3.973   2.106   0.604 -0.3723 -1.0734  2.3139
  780MPD2    H111562   4.368   2.189   0.481 -2.1704  1.9970  0.4528
  780MPD2    H211563   4.296   2.055   0.869  1.0358 -0.7783 -0.0917
  780MPD2    H311564   4.448   2.152   0.706 -1.1461  0.9094  0.5250
  780MPD2     N11565   4.112   2.207   0.412 -0.4980 -0.0177 -0.6325
  780MPD2    H511566   4.013   2.230   0.417 -0.4504 -0.0730  0.6029
  780MPD2    N111567   4.035   1.992   0.839 -0.2876 -0.4491  0.3724
  780MPD2    H711568   4.080   1.951   0.920  3.4844  0.6920 -1.1597
  781MPD2     C11569   0.837   0.656  12.095 -0.3388 -0.0990  0.0963
  781MPD2    C111570   0.932   0.569  12.141  0.0717 -0.4142 -0.0850
  781MPD2    C211571   1.063   0.575  12.094  0.4882 -0.6098 -0.6294
  781MPD2    C311572   1.100   0.675  12.009  0.1090  0.1746  0.7470
  781MPD2    C411573   1.005   0.768  11.981 -0.2112  0.1346 -0.5624
  781MPD2    C511574   0.874   0.762  12.021  0.2585  0.8652  0.0728
  781MPD2     H11575   1.139   0.510  12.136  0.1400 -1.0322 -0.6528
  781MPD2    H111576   1.026   0.849  11.912 -1.8216  0.3403 -0.8142
  781MPD2    H211577   0.733   0.650  12.123 -0.2552  0.1002  0.4442
  781MPD2    H311578   0.794   0.827  11.988  0.0440  1.2036  1.2437
  781MPD2     N11579   1.229   0.698  11.952  0.2522  0.2872 -0.2559
  781MPD2    H511580   1.231   0.769  11.880 -3.3381  2.1127  1.4401
  781MPD2    N111581   0.906   0.457  12.226  0.8754 -0.2290  0.2680
  781MPD2    H711582   0.985   0.394  12.239  0.5713 -0.4231  1.1485
  782MPD2     C11583   3.705   1.668  10.249  0.5758 -0.0694  0.5886
  782MPD2    C111584   3.819   1.606  10.299 -0.4457  0.4177  0.1866
  782MPD2    C211585   3.885   1.669  10.402  0.1878  0.2327  0.4366
  782MPD2    C311586   3.834   1.781  10.468  0.0415 -0.1075  0.5952
  782MPD2    C411587   3.720   1.840  10.418 -0.4282 -0.1241 -0.4000
  782MPD2    C511588   3.659   1.784  10.311 -0.6257 -0.4803 -0.3235
  782MPD2     H11589   3.975   1.624  10.442  2.0738  2.6792 -1.0783
  782MPD2    H111590   3.678   1.931  10.459  1.0913 -0.5026  1.9756
  782MPD2    H211591   3.643   1.615  10.178 -0.6199  1.5567  0.3987
  782MPD2    H311592   3.565   1.829  10.280  0.1892  0.1760 -1.8758
  782MPD2     N11593   3.895   1.829  10.580  0.1758  0.6309  0.0163
  782MPD2    H511594   3.984   1.786  10.603  0.4165  0.6487 -0.9044
  782MPD2    N111595   3.871   1.488  10.229 -0.2481 -0.4284 -0.3973
  782MPD2    H711596   3.808   1.446  10.162 -1.9217  0.6348  0.5121
  783MPD2     C11597   3.309   0.830  10.579  0.3136 -0.0229 -0.0805
  783MPD2    C111598   3.406   0.871  10.669 -0.4622  0.8758  0.4816
  783MPD2    C211599   3.522   0.925  10.617 -0.4521 -0.0816  0.7481
  783MPD2    C311600   3.537   0.953  10.479 -1.0161  0.5116  0.0648
  783MPD2    C411601   3.434   0.925  10.400  0.2977 -0.1014  0.1961
  783MPD2    C511602   3.324   0.861  10.446  0.3433 -0.5850 -0.3182
  783MPD2     H11603   3.598   0.953  10.689 -1.8432  3.0799  0.9945
  783MPD2    H111604   3.436   0.955  10.296  1.4654 -0.0795  0.2252
  783MPD2    H211605   3.217   0.787  10.618  0.8669 -2.4129 -1.4430
  783MPD2    H311606   3.251   0.831  10.372  0.4631  1.0646 -1.1082
  783MPD2     N11607   3.657   1.019  10.426  0.6956 -0.3989 -0.3648
  783MPD2    H511608   3.736   1.031  10.489  0.8545 -2.9508 -0.0690
  783MPD2    N111609   3.375   0.848  10.810  0.4258 -0.3163 -0.4660
  783MPD2    H711610   3.282   0.831  10.846  0.4102 -0.2143 -0.4587
  784MPD2     C11611   1.906   0.038   0.275 -0.2368 -0.3654 -0.5401
  784MPD2    C111612   1.864   0.159   0.321  0.5207 -0.6731 -0.1424
  784MPD2    C211613   1.781   0.244   0.252  0.9371 -0.0768  0.4725
  784MPD2    C311614   1.742   0.203   0.126 -0.3241 -0.4160  0.2837
  784MPD2    C411615   1.781   0.080   0.075  0.6063 -0.0298  0.4965
  784MPD2    C511616   1.866   0.003   0.149  0.4230  0.5765  0.2061
  784MPD2     H11617   1.752   0.339   0.294  0.6393 -0.3302  0.8456
  784MPD2    H111618   1.764   0.061  17.721 -0.2995 -0.6073  0.7488
  784MPD2    H211619   1.967   4.708   0.333  0.7370  1.7382  0.8834
  784MPD2    H311620   1.884   4.644   0.106  0.9759  1.0721 -0.6942
  784MPD2     N11621   1.666   0.293   0.050 -0.4732 -0.6730  0.3869
  784MPD2    H511622   1.641   0.380   0.094 -1.1610 -0.2940 -0.7562
  784MPD2    N111623   1.887   0.203   0.454  0.0421  0.1904 -0.7330
  784MPD2    H711624   1.856   0.297   0.474 -2.2132 -0.8534  0.6151
  785MPD2     C11625   1.798   0.195  10.966 -0.6411  0.2383  0.2338
  785MPD2    C111626   1.799   0.291  11.063 -0.0716 -0.4963  0.1903
  785MPD2    C211627   1.679   0.333  11.117  0.2048 -1.5273 -0.2184
  785MPD2    C311628   1.552   0.291  11.069 -0.2565 -0.4204 -0.4464
  785MPD2    C411629   1.553   0.197  10.964  0.1644  0.5178 -0.6922
  785MPD2    C511630   1.679   0.151  10.918  0.6539  0.1228 -1.1077
  785MPD2     H11631   1.683   0.402  11.201  1.7600 -2.0604  0.1514
  785MPD2    H111632   1.463   0.155  10.920  1.0145 -2.1769  0.0914
  785MPD2    H211633   1.889   0.162  10.917 -0.7856  0.7201 -0.3687
  785MPD2    H311634   1.681   0.076  10.840  0.9992 -1.0463  0.0186
  785MPD2     N11635   1.443   0.356  11.124 -0.3127 -0.3751  0.1693
  785MPD2    H511636   1.456   0.429  11.194 -0.8717 -0.1642  0.0566
  785MPD2    N111637   1.923   0.347  11.100  0.3477 -0.0184  0.2226
  785MPD2    H711638   2.003   0.302  11.058 -0.5214 -1.4872  0.1140
  786MPD2     C11639   0.110   1.712  15.022  0.3761  0.0922 -0.8032
  786MPD2    C111640   0.231   1.757  14.967  0.3888 -0.1597  0.2739
  786MPD2    C211641   0.322   1.836  15.038  0.1209 -0.4204 -0.7200
  786MPD2    C311642   0.299   1.852  15.176  0.8473 -0.1190 -0.5302
  786MPD2    C411643   0.183   1.798  15.232 -0.4178 -0.4319  0.3821
  786MPD2    C511644   0.090   1.732  15.156 -0.7200  0.0236  0.3378
  786MPD2     H11645   0.410   1.878  14.989  0.5814 -0.3938  0.1397
  786MPD2    H111646   0.165   1.811  15.338  1.0927  1.8704  0.3337
  786MPD2    H211647   0.033   1.658  14.968  2.7720  0.8390 -4.9765
  786MPD2    H311648   4.736   1.716  15.210 -1.3889 -3.4880 -1.8301
  786MPD2     N11649   0.373   1.937  15.264  0.1806 -0.4092  0.4443
  786MPD2    H511650   0.358   1.939  15.365  1.2474 -2.3597  0.6546
  786MPD2    N111651   0.269   1.710  14.842 -0.2631 -0.4148 -0.2773
  786MPD2    H711652   0.369   1.724  14.825 -0.1139  0.6389  1.3840
  787MPD2     C11653   0.770   1.411  14.894 -0.8802 -0.9504 -0.2725
  787MPD2    C111654   0.734   1.366  14.772 -0.2594  0.0346 -0.1649
  787MPD2    C211655   0.779   1.239  14.735  0.4370  0.0224  0.3665
  787MPD2    C311656   0.855   1.156  14.821  0.5319  0.1650  0.2112
  787MPD2    C411657   0.875   1.209  14.949  0.3244  0.3716 -0.5607
  787MPD2    C511658   0.837   1.335  14.980  0.7165 -0.2336  0.0293
  787MPD2     H11659   0.752   1.200  14.638 -1.7596 -0.0377  1.0085
  787MPD2    H111660   0.928   1.148  15.022 -1.8760 -2.4587 -1.3258
  787MPD2    H211661   0.739   1.509  14.929  1.9907  0.1274 -0.7739
  787MPD2    H311662   0.857   1.373  15.080  2.0479 -1.7361  0.3522
  787MPD2     N11663   0.886   1.023  14.789  0.0607  0.3733  0.5075
  787MPD2    H511664   0.858   0.989  14.697  1.7949  2.2248 -0.6982
  787MPD2    N111665   0.639   1.447  14.705 -0.2953  0.0084 -0.4414
  787MPD2    H711666   0.617   1.533  14.755 -1.8115  1.2488 -3.2573
  788MPD2     C11667   2.458   0.204   1.095 -0.5383 -0.7283 -0.6433
  788MPD2    C111668   2.502   0.176   0.964 -0.0327 -0.0847 -0.4353
  788MPD2    C211669   2.465   0.262   0.860 -0.2930 -0.5720  0.4792
  788MPD2    C311670   2.395   0.380   0.891  0.3323  0.2013 -0.5304
  788MPD2    C411671   2.355   0.413   1.018 -0.4753 -0.5396 -0.5721
  788MPD2    C511672   2.390   0.324   1.118  0.2568  0.2342 -0.0172
  788MPD2     H11673   2.490   0.244   0.757  0.3108 -0.7964  0.6639
  788MPD2    H111674   2.309   0.508   1.043  1.9530  0.0735  1.5048
  788MPD2    H211675   2.487   0.146   1.182 -0.3415 -1.8325 -1.4321
  788MPD2    H311676   2.362   0.348   1.219 -1.9926  0.8329 -0.7852
  788MPD2     N11677   2.346   0.462   0.796  0.2016  0.6484  0.2290
  788MPD2    H511678   2.298   0.542   0.834  1.2312  2.3259 -1.9797
  788MPD2    N111679   2.578   0.059   0.921  0.5846  0.1857  0.1681
  788MPD2    H711680   2.616   0.065   0.827 -2.9928  0.2852 -1.2761
  789MPD2     C11681   2.795   4.251  16.623 -0.0372  0.1084  0.2164
  789MPD2    C111682   2.702   4.296  16.533 -0.2541 -0.6671  0.3089
  789MPD2    C211683   2.652   4.422  16.553 -0.3777 -0.2577  0.1597
  789MPD2    C311684   2.693   4.511  16.654 -0.0071  0.4056 -0.1825
  789MPD2    C411685   2.792   4.465  16.740 -0.2328 -0.6202  0.4840
  789MPD2    C511686   2.838   4.334  16.728  0.2538  0.5339 -0.5121
  789MPD2     H11687   2.567   4.450  16.491 -0.8075  0.5049  1.0895
  789MPD2    H111688   2.816   4.519  16.831  0.6655 -2.7205  1.4807
  789MPD2    H211689   2.837   4.151  16.614 -0.4448  0.0726 -1.2072
  789MPD2    H311690   2.902   4.287  16.801 -0.0033  1.5358  0.3565
  789MPD2     N11691   2.625   4.627  16.691 -0.2502 -0.5471  0.6960
  789MPD2    H511692   2.651   4.669  16.780 -1.8627  2.3694 -0.2157
  789MPD2    N111693   2.637   4.214  16.438 -0.5033 -0.0391 -0.0892
  789MPD2    H711694   2.545   4.244  16.408 -0.4340  0.1134 -0.1455
  790MPD2     C11695   3.977   1.763  13.350  0.7600 -0.1266  0.1100
  790MPD2    C111696   3.855   1.707  13.377  0.6211  0.7024  0.4992
  790MPD2    C211697   3.753   1.705  13.282  0.4898 -0.3361  0.6625
  790MPD2    C311698   3.778   1.756  13.157 -0.7158  0.6708  1.0221
  790MPD2    C411699   3.904   1.812  13.130 -0.3359  0.4280  0.3267
  790MPD2    C511700   3.999   1.816  13.225 -0.1487  0.3894  0.2932
  790MPD2     H11701   3.660   1.655  13.308  0.1998  0.5671  1.3754
  790MPD2    H111702   3.933   1.845  13.031  1.3430 -0.7437  0.4176
  790MPD2    H211703   4.046   1.779  13.432  2.0111 -1.4801 -0.6768
  790MPD2    H311704   4.095   1.863  13.209  0.0961 -0.8105 -1.8022
  790MPD2     N11705   3.677   1.754  13.054  0.4051  0.0878 -0.1176
  790MPD2    H511706   3.584   1.720  13.078  0.0500  0.3615 -1.0975
  790MPD2    N111707   3.846   1.660  13.503 -0.4665  0.2365 -0.7430
  790MPD2    H711708   3.928   1.679  13.560 -0.2726  0.2829 -1.0389
  791MPD2     C11709   2.938   1.843  12.768 -0.1245  0.2062  0.2129
  791MPD2    C111710   3.012   1.730  12.799 -0.1240  0.0102 -0.2003
  791MPD2    C211711   2.945   1.617  12.850 -0.4056 -0.7036  0.7238
  791MPD2    C311712   2.806   1.612  12.862 -0.8641  0.2076  0.0640
  791MPD2    C411713   2.737   1.730  12.829  0.1751 -0.2583  0.0962
  791MPD2    C511714   2.804   1.839  12.788  0.0931  0.2371  0.2617
  791MPD2     H11715   3.008   1.530  12.863 -1.7621 -1.8327 -0.2503
  791MPD2    H111716   2.629   1.736  12.839 -0.1149  0.5123 -3.2236
  791MPD2    H211717   2.978   1.941  12.746 -0.8236 -0.1296 -2.5664
  791MPD2    H311718   2.755   1.935  12.781  0.6352  0.3674 -1.6267
  791MPD2     N11719   2.745   1.496  12.909  0.3855  0.0202  0.1061
  791MPD2    H511720   2.814   1.429  12.941  1.1677  0.3939 -0.7779
  791MPD2    N111721   3.152   1.735  12.777 -0.3653  0.4459  0.2243
  791MPD2    H711722   3.194   1.814  12.729  1.9897 -0.3133  1.0454
  792MPD2     C11723   4.132   2.364  11.445  0.2662  0.0488  0.2253
  792MPD2    C111724   4.049   2.442  11.365  0.0767  0.3573  0.2633
  792MPD2    C211725   3.912   2.406  11.375  0.3175  0.1093  0.1782
  792MPD2    C311726   3.860   2.297  11.434 -0.1027  0.7598  0.0195
  792MPD2    C411727   3.942   2.220  11.497  0.1695 -0.1444 -0.0571
  792MPD2    C511728   4.083   2.251  11.503 -0.2551  0.1217  0.6278
  792MPD2     H11729   3.837   2.467  11.326 -0.3290 -0.6100  0.2811
  792MPD2    H111730   3.907   2.128  11.543  2.5979 -0.7067  0.6222
  792MPD2    H211731   4.239   2.381  11.438  0.2269  0.2102  0.0224
  792MPD2    H311732   4.150   2.181  11.551  0.9911 -0.3929 -1.8452
  792MPD2     N11733   3.724   2.257  11.429  0.1907  0.1261  0.0766
  792MPD2    H511734   3.706   2.168  11.474 -1.3718  0.6566  0.5089
  792MPD2    N111735   4.105   2.534  11.272 -0.1809 -0.1791  0.1448
  792MPD2    H711736   4.207   2.535  11.274 -0.1924  0.5536  0.3599
  793MPD2     C11737   3.342   2.097  10.604 -0.4907  0.2672  0.1612
  793MPD2    C111738   3.438   2.184  10.653 -0.2350  0.8177  0.0622
  793MPD2    C211739   3.425   2.205  10.789  0.0597 -0.6149  0.4272
  793MPD2    C311740   3.326   2.148  10.876 -0.2872 -0.3005  0.6571
  793MPD2    C411741   3.229   2.064  10.819  0.6085  0.6256  0.8315
  793MPD2    C511742   3.241   2.034  10.687 -0.3206  0.6640 -0.3490
  793MPD2     H11743   3.496   2.275  10.830 -1.4745  1.2952 -0.2134
  793MPD2    H111744   3.146   2.022  10.874  1.8175 -0.6377  1.6899
  793MPD2    H211745   3.340   2.069  10.499 -4.4733  3.2759 -0.5613
  793MPD2    H311746   3.166   1.967  10.647  0.0825  0.2482 -0.4100
  793MPD2     N11747   3.319   2.186  11.011  0.0286  0.3184  0.2540
  793MPD2    H511748   3.370   2.268  11.041  2.4127 -0.9120 -0.4228
  793MPD2    N111749   3.540   2.241  10.574 -0.2303  0.0315  0.0861
  793MPD2    H711750   3.604   2.303  10.622 -1.0327  0.1911  0.9523
  794MPD2     C11751   3.235   0.398  17.533 -0.6973  0.2970  0.3996
  794MPD2    C111752   3.279   0.303  17.448 -0.0018 -0.6471  0.8737
  794MPD2    C211753   3.296   0.324  17.312  0.7071 -0.3907  0.0530
  794MPD2    C311754   3.275   0.449  17.258 -0.9986  0.1823 -0.2054
  794MPD2    C411755   3.231   0.548  17.340  0.0342  0.3375 -0.1121
  794MPD2    C511756   3.208   0.520  17.469  0.2942 -0.3624  0.1539
  794MPD2     H11757   3.322   0.242  17.247 -1.6297 -0.3408 -0.9422
  794MPD2    H111758   3.194   0.643  17.303  3.1698  1.8056  0.5797
  794MPD2    H211759   3.216   0.391  17.640  1.0209 -2.7528  0.4957
  794MPD2    H311760   3.172   0.605  17.527  1.1545  1.3847 -1.8603
  794MPD2     N11761   3.288   0.488  17.126  0.0515 -0.3031 -0.2463
  794MPD2    H511762   3.266   0.585  17.103  0.2342 -0.5741 -1.5609
  794MPD2    N111763   3.306   0.168  17.490 -0.2471 -0.3842  0.2723
  794MPD2    H711764   3.355   0.107  17.425 -1.8387 -1.4166  0.0518
  795MPD2     C11765   1.086   3.297  14.009  0.6966  0.4135  0.2207
  795MPD2    C111766   1.038   3.172  13.966 -0.8495  0.0471  0.1688
  795MPD2    C211767   1.126   3.062  13.982 -0.0485 -0.3558 -0.2532
  795MPD2    C311768   1.257   3.073  14.031 -0.8307 -0.2916 -0.3963
  795MPD2    C411769   1.293   3.196  14.077 -0.4447  0.3465 -0.0119
  795MPD2    C511770   1.209   3.301  14.070 -0.3439  0.0986  0.5519
  795MPD2     H11771   1.095   2.966  13.943 -0.6228  0.9822 -3.1131
  795MPD2    H111772   1.386   3.224  14.126  0.7858  0.5367 -2.4459
  795MPD2    H211773   1.024   3.386  14.013  2.1753  1.4102  0.7281
  795MPD2    H311774   1.242   3.400  14.100 -1.0795  0.1669  1.1267
  795MPD2     N11775   1.363   2.973  14.027  0.2373  0.4941  1.0200
  795MPD2    H511776   1.460   3.004  14.031  0.1824  0.8164 -0.2292
  795MPD2    N111777   0.914   3.148  13.893 -0.2485  0.1704 -0.5114
  795MPD2    H711778   0.903   3.048  13.880 -0.7910  0.1912 -0.2002
  796MPD2     C11779   0.556   4.273  15.755 -1.0989  0.4814  0.4868
  796MPD2    C111780   0.636   4.374  15.792 -0.2160 -0.3573 -0.2974
  796MPD2    C211781   0.630   4.495  15.732 -0.3432  0.0494 -0.0479
  796MPD2    C311782   0.540   4.528  15.639 -0.1757 -0.0208  0.6574
  796MPD2    C411783   0.477   4.422  15.582 -0.0227 -0.4272  0.2881
  796MPD2    C511784   0.473   4.291  15.645  0.0206  0.5780 -0.1853
  796MPD2     H11785   0.695   4.575  15.767  0.5768 -0.7770  0.1357
  796MPD2    H111786   0.407   4.440  15.501 -1.0625  1.7063  1.6611
  796MPD2    H211787   0.562   4.172  15.793 -0.3203  0.1914 -0.4210
  796MPD2    H311788   0.410   4.209  15.612 -0.4780  1.1025 -0.5385
  796MPD2     N11789   0.517   4.665  15.607 -0.0485  0.1490 -0.3711
  796MPD2    H511790   0.574   4.731  15.658 -0.8554  1.1476 -0.7643
  796MPD2    N111791   0.724   4.349  15.902  0.5058  0.0486  0.0882
  796MPD2    H711792   0.703   4.275  15.968  0.3985  1.5741  1.7883
  797MPD2     C11793   1.614   3.942  17.078  0.3621  0.3025 -0.1594
  797MPD2    C111794   1.744   3.971  17.082 -0.7354 -0.1702  0.9259
  797MPD2    C211795   1.783   4.103  17.067  0.3143  0.0581 -0.1928
  797MPD2    C311796   1.690   4.201  17.026  0.1558 -0.0804  0.3627
  797MPD2    C411797   1.549   4.167  17.027  0.2783  1.1528  0.2120
  797MPD2    C511798   1.511   4.036  17.062 -0.7931  0.6636  0.3608
  797MPD2     H11799   1.891   4.115  17.065  0.4558 -1.1925  0.1622
  797MPD2    H111800   1.475   4.245  17.012  0.1736  0.9758 -0.2111
  797MPD2    H211801   1.574   3.843  17.097 -1.8543  1.1964 -0.1399
  797MPD2    H311802   1.406   4.010  17.074 -0.0562 -1.5077  2.0942
  797MPD2     N11803   1.742   4.319  16.977 -0.3040 -0.0737 -0.2186
  797MPD2    H511804   1.844   4.324  16.978 -0.4200  2.3028 -0.2726
  797MPD2    N111805   1.846   3.873  17.079  0.9076 -0.0947  0.6751
  797MPD2    H711806   1.941   3.911  17.075  0.2868  1.3448 -0.5086
  798MPD2     C11807   2.392   4.206  16.705  0.4109 -0.0033 -0.6208
  798MPD2    C111808   2.271   4.211  16.774 -1.3909 -0.0842 -0.1205
  798MPD2    C211809   2.231   4.108  16.846 -1.1091 -0.3728 -0.2916
  798MPD2    C311810   2.300   3.988  16.850  0.4799 -0.7864 -0.2096
  798MPD2    C411811   2.421   3.977  16.784 -0.3247 -0.2693  0.1798
  798MPD2    C511812   2.466   4.091  16.716  0.1207 -0.3428  0.0429
  798MPD2     H11813   2.138   4.115  16.902 -1.4965 -0.2126 -0.9638
  798MPD2    H111814   2.496   3.899  16.789 -1.2976 -1.2466 -0.5228
  798MPD2    H211815   2.435   4.292  16.655 -2.1164  0.9075 -1.2269
  798MPD2    H311816   2.557   4.092  16.657  0.0733 -0.2659 -0.0294
  798MPD2     N11817   2.240   3.886  16.936 -0.0335  0.5061 -0.3524
  798MPD2    H511818   2.152   3.910  16.981 -1.1443  0.6492 -2.5700
  798MPD2    N111819   2.194   4.333  16.760 -0.3776  0.5236  0.0018
  798MPD2    H711820   2.224   4.406  16.696 -1.2061 -0.3373 -1.3962
  799MPD2     C11821   0.554   0.843  14.826 -0.0335  0.9420  0.2162
  799MPD2    C111822   0.497   0.772  14.724  0.5479 -0.2941 -0.2804
  799MPD2    C211823   0.445   0.833  14.615 -0.1326  0.3212 -0.1443
  799MPD2    C311824   0.468   0.971  14.604 -0.0729 -0.3247 -0.1293
  799MPD2    C411825   0.509   1.047  14.712  0.1285 -0.1154 -0.5053
  799MPD2    C511826   0.546   0.984  14.825  0.3593  0.3574 -0.2086
  799MPD2     H11827   0.406   0.774  14.533 -0.0629 -0.2194  0.2136
  799MPD2    H111828   0.528   1.151  14.689  4.2540 -0.7993 -0.2340
  799MPD2    H211829   0.604   0.787  14.904  1.2036  0.7492 -0.7323
  799MPD2    H311830   0.573   1.040  14.914 -0.5861  0.9940 -0.3302
  799MPD2     N11831   0.443   1.049  14.487 -0.1017 -0.3433 -0.1078
  799MPD2    H511832   0.454   1.149  14.487 -1.8491 -0.1493 -1.0344
  799MPD2    N111833   0.489   0.629  14.731 -0.6336  0.3845  0.0025
  799MPD2    H711834   0.442   0.590  14.650 -1.9051 -0.3308  1.1067
  800MPD2     C11835   0.905   2.285  14.428  0.5900 -0.0023 -0.4628
  800MPD2    C111836   1.024   2.300  14.360  0.1198  0.7681  0.2033
  800MPD2    C211837   1.053   2.223  14.253 -0.3378  0.3764 -0.2050
  800MPD2    C311838   0.956   2.143  14.197  0.1273 -0.4915  0.8907
  800MPD2    C411839   0.849   2.120  14.272  0.3617 -0.2810 -0.1732
  800MPD2    C511840   0.830   2.176  14.395 -0.3956 -0.3547  0.3820
  800MPD2     H11841   1.147   2.237  14.200 -0.1505  0.2727  0.0968
  800MPD2    H111842   0.768   2.059  14.232  1.0262 -1.0057 -0.4186
  800MPD2    H211843   0.880   2.338  14.520  0.7090  0.4958 -0.7187
  800MPD2    H311844   0.744   2.158  14.458  0.2405  0.5135  1.4998
  800MPD2     N11845   0.981   2.084  14.076  0.1714  0.1195  0.4143
  800MPD2    H511846   1.069   2.110  14.034  0.3519  0.1482  0.8066
  800MPD2    N111847   1.104   2.406  14.403  0.0312  0.2224 -0.5026
  800MPD2    H711848   1.067   2.460  14.480 -0.4848 -0.8201 -0.0277
  801MPD2     C11849   1.217   2.810  14.996  0.2929 -0.4817 -0.0151
  801MPD2    C111850   1.139   2.727  14.914  0.2676 -0.0722  0.6598
  801MPD2    C211851   1.013   2.686  14.955 -0.1495 -1.0003 -0.2545
  801MPD2    C311852   0.962   2.729  15.075 -0.0870 -0.4385 -0.6716
  801MPD2    C411853   1.038   2.813  15.153  0.0840  0.4915 -0.8652
  801MPD2    C511854   1.167   2.850  15.116  0.0290 -0.1956  0.5278
  801MPD2     H11855   0.961   2.610  14.899  2.3745 -1.3947 -2.0812
  801MPD2    H111856   0.989   2.838  15.246 -0.5548  0.9941 -1.3408
  801MPD2    H211857   1.316   2.846  14.972 -1.0489  2.3672 -1.3407
  801MPD2    H311858   1.234   2.922  15.162  1.1354 -0.4076 -0.7670
  801MPD2     N11859   0.839   2.687  15.136 -0.5466  0.4141 -0.2083
  801MPD2    H511860   0.821   2.714  15.233 -0.4385  0.9045 -0.3217
  801MPD2    N111861   1.178   2.700  14.782  0.2599  0.2338  0.0522
  801MPD2    H711862   1.116   2.639  14.729  0.0870  0.6837 -0.2619
  802MPD2     C11863   0.283   2.912   0.481  0.2290  0.0607 -0.2620
  802MPD2    C111864   0.240   2.960   0.354  0.5435 -0.1711 -0.4112
  802MPD2    C211865   0.312   2.916   0.242  0.3281  0.3695  0.3534
  802MPD2    C311866   0.430   2.843   0.257  0.1678  0.2186  0.8864
  802MPD2    C411867   0.474   2.798   0.383 -0.6269 -0.0082  0.7420
  802MPD2    C511868   0.392   2.825   0.492  0.1673 -0.2918  0.1435
  802MPD2     H11869   0.278   2.950   0.145  1.0168  0.2032  0.0568
  802MPD2    H111870   0.574   2.761   0.402 -0.7559 -1.0076 -0.5286
  802MPD2    H211871   0.221   2.929   0.568 -1.0355 -2.3927 -0.6968
  802MPD2    H311872   0.421   2.788   0.590  0.4578  1.1973  0.6203
  802MPD2     N11873   0.500   2.811   0.135  0.7196  0.4001  0.3356
  802MPD2    H511874   0.447   2.825   0.050 -1.7569  0.9148  1.9524
  802MPD2    N111875   0.123   3.035   0.332  0.9602 -1.1986  0.1188
  802MPD2    H711876   0.102   3.060   0.236  1.1680 -0.7673  0.1850
  803MPD2     C11877   1.619   1.355  12.079  1.1536  0.5919 -0.1114
  803MPD2    C111878   1.695   1.387  12.187 -0.0659 -0.6483  0.3859
  803MPD2    C211879   1.666   1.330  12.305 -0.9475  0.1709  0.5317
  803MPD2    C311880   1.551   1.255  12.319  0.5111 -1.0544  0.2716
  803MPD2    C411881   1.469   1.234  12.216 -0.4183  0.0566  0.4999
  803MPD2    C511882   1.496   1.288  12.096 -0.6398  0.0174 -0.1658
  803MPD2     H11883   1.733   1.344  12.389 -0.4232  1.8960 -0.1519
  803MPD2    H111884   1.378   1.177  12.231 -0.6170  0.2553  0.0633
  803MPD2    H211885   1.643   1.408  11.987 -1.3238 -1.2626 -1.8041
  803MPD2    H311886   1.440   1.265  12.006  1.9891 -0.2621 -1.7603
  803MPD2     N11887   1.504   1.208  12.447  0.0672  0.5790  0.7612
  803MPD2    H511888   1.416   1.159  12.456 -0.6878  1.9780  1.0883
  803MPD2    N111889   1.810   1.468  12.189  0.4982 -0.0829 -0.1357
  803MPD2    H711890   1.879   1.454  12.262  0.8905 -1.2139 -0.7106
  804MPD2     C11891   0.498   1.942  16.642 -0.2683  0.1958 -0.3611
  804MPD2    C111892   0.622   1.887  16.657  1.0335 -0.3124  0.5679
  804MPD2    C211893   0.731   1.972  16.632  0.3907 -0.5326  0.0122
  804MPD2    C311894   0.719   2.105  16.592 -0.0904 -0.3551 -0.5388
  804MPD2    C411895   0.591   2.154  16.569 -0.2677  0.3921  0.7670
  804MPD2    C511896   0.490   2.074  16.600  0.2079 -0.6796  0.4379
  804MPD2     H11897   0.829   1.925  16.630  0.0934 -1.1269 -0.8109
  804MPD2    H111898   0.573   2.258  16.541  1.6832  0.8934  1.4179
  804MPD2    H211899   0.403   1.891  16.656 -0.0259 -0.2549 -0.3338
  804MPD2    H311900   0.391   2.112  16.577  0.4281  0.7209  1.7860
  804MPD2     N11901   0.837   2.181  16.564  0.1586  0.0278  0.1554
  804MPD2    H511902   0.921   2.124  16.570  0.0876 -0.3269 -2.2711
  804MPD2    N111903   0.634   1.755  16.696  0.0866  0.0523 -0.1483
  804MPD2    H711904   0.550   1.713  16.733  0.4418 -0.3600  0.1805
  805MPD2     C11905   0.276   1.171  15.615 -0.7387  0.0505 -0.1224
  805MPD2    C111906   0.388   1.140  15.541  0.0764 -0.4888 -0.2990
  805MPD2    C211907   0.511   1.156  15.599  0.0578  0.2014  0.1995
  805MPD2    C311908   0.519   1.200  15.732  0.1865  0.0247  0.1707
  805MPD2    C411909   0.395   1.232  15.798  0.0806 -0.5184 -0.2442
  805MPD2    C511910   0.277   1.215  15.740  0.0358 -0.0134 -0.1341
  805MPD2     H11911   0.599   1.127  15.542 -1.6368 -0.0901 -2.2937
  805MPD2    H111912   0.387   1.264  15.901  0.7216 -1.0545 -0.0309
  805MPD2    H211913   0.179   1.152  15.573 -0.6149 -2.2922  0.6796
  805MPD2    H311914   0.186   1.237  15.795  0.8952  3.8196 -0.2232
  805MPD2     N11915   0.646   1.226  15.798  0.1351  1.0299 -0.0255
  805MPD2    H511916   0.734   1.191  15.762 -0.2618 -1.2696  1.2498
  805MPD2    N111917   0.380   1.085  15.406  0.0252 -0.1079  0.1145
  805MPD2    H711918   0.469   1.066  15.362 -0.4013 -2.3847  0.2258
  806MPD2     C11919   0.650   4.261   0.568  0.0913 -0.3427 -0.7536
  806MPD2    C111920   0.774   4.315   0.546 -0.3034 -0.4832 -0.5677
  806MPD2    C211921   0.846   4.287   0.427  0.0688 -0.2661  0.4881
  806MPD2    C311922   0.770   4.211   0.335  0.2240  0.5756 -0.4650
  806MPD2    C411923   0.640   4.156   0.358 -0.5939 -0.1121  0.3826
  806MPD2    C511924   0.586   4.185   0.480 -0.5728 -0.6676  0.5165
  806MPD2     H11925   0.944   4.322   0.397  1.0280 -2.8717  0.5547
  806MPD2    H111926   0.593   4.095   0.282 -0.2888  1.4589 -1.0748
  806MPD2    H211927   0.595   4.292   0.657  0.7383  1.0425 -0.8364
  806MPD2    H311928   0.487   4.143   0.499 -0.0436 -1.3275  1.8084
  806MPD2     N11929   0.828   4.195   0.202 -0.3684 -0.1435  0.4073
  806MPD2    H511930   0.902   4.262   0.184  0.3962 -1.0270  0.2681
  806MPD2    N111931   0.833   4.396   0.650  0.4688  0.5455 -0.5842
  806MPD2    H711932   0.780   4.408   0.736 -0.4095 -1.1500 -0.8915
  807MPD2     C11933   0.554   4.671   1.244 -0.1203 -0.9140  0.3544
  807MPD2    C111934   0.575   4.576   1.146  0.4520 -0.1560  0.1362
  807MPD2    C211935   0.474   4.485   1.132  0.4053 -0.1275 -0.0681
  807MPD2    C311936   0.363   4.479   1.215  0.8656 -0.1030 -0.3055
  807MPD2    C411937   0.342   4.581   1.307 -0.2150  0.8654 -0.3138
  807MPD2    C511938   0.440   4.680   1.322  0.7199 -0.0492 -0.6422
  807MPD2     H11939   0.494   4.395   1.076  0.6428 -0.1265  0.0159
  807MPD2    H111940   0.253   4.578   1.369  0.3205  0.9982  0.4649
  807MPD2    H211941   0.623   0.014   1.257  0.6335 -1.8143  2.0437
  807MPD2    H311942   0.428   0.024   1.391  0.4465 -0.3355 -0.3489
  807MPD2     N11943   0.261   4.376   1.193  0.6409 -0.0323 -0.7505
  807MPD2    H511944   0.273   4.320   1.110  1.1018 -0.0781 -0.6569
  807MPD2    N111945   0.691   4.559   1.061 -0.1838 -0.6403  0.2604
  807MPD2    H711946   0.692   4.490   0.987  1.6632 -2.1428  1.6917
  808MPD2     C11947   1.038   3.320   9.599  0.6100  0.2516  0.2799
  808MPD2    C111948   1.028   3.422   9.504 -0.0493 -0.1194 -0.2270
  808MPD2    C211949   1.126   3.522   9.508 -0.0889  0.0037  0.4136
  808MPD2    C311950   1.215   3.524   9.612 -0.0587 -0.7253 -0.6178
  808MPD2    C411951   1.218   3.425   9.705  0.1156  0.0152  0.7344
  808MPD2    C511952   1.135   3.315   9.697  0.5784 -0.4405  0.2285
  808MPD2     H11953   1.124   3.598   9.432 -0.4819  0.8208  1.2420
  808MPD2    H111954   1.280   3.433   9.793  0.2057 -0.3320  0.6997
  808MPD2    H211955   0.962   3.243   9.609 -0.8688  1.4139 -1.9619
  808MPD2    H311956   1.146   3.233   9.767  0.3207 -0.2804  0.4560
  808MPD2     N11957   1.301   3.635   9.627 -0.0105  0.2030 -0.6795
  808MPD2    H511958   1.352   3.642   9.715 -1.0641  1.7174 -0.1761
  808MPD2    N111959   0.923   3.436   9.410 -0.1502 -0.0023 -0.0648
  808MPD2    H711960   0.917   3.513   9.344 -2.6120 -0.2741 -0.1454
  809MPD2     C11961   1.994   4.444   9.608 -0.1507 -0.2449 -0.1605
  809MPD2    C111962   1.978   4.325   9.550  0.4036 -0.2606  0.1656
  809MPD2    C211963   1.858   4.250   9.564  0.3490 -0.3480 -0.1894
  809MPD2    C311964   1.751   4.312   9.628 -0.5868  0.5079  0.0681
  809MPD2    C411965   1.758   4.442   9.670 -0.0958 -0.1183 -0.5524
  809MPD2    C511966   1.878   4.506   9.665 -0.1510 -0.0495  0.4420
  809MPD2     H11967   1.853   4.154   9.514 -1.5017 -0.0690 -0.5701
  809MPD2    H111968   1.672   4.491   9.715  0.1018  0.9700 -1.3434
  809MPD2    H211969   2.085   4.503   9.606 -1.5164  1.8408 -0.5114
  809MPD2    H311970   1.892   4.604   9.708 -0.5596 -0.5210  1.6831
  809MPD2     N11971   1.632   4.239   9.640  0.2918  0.4071 -0.0574
  809MPD2    H511972   1.568   4.261   9.716  1.5461  0.3709  0.9990
  809MPD2    N111973   2.090   4.254   9.494 -1.2497  0.1657 -0.0508
  809MPD2    H711974   2.071   4.157   9.473 -0.5515 -0.0425  0.2754
  810MPD2     C11975   0.767   2.083  11.256  0.4486 -0.2969  0.2138
  810MPD2    C111976   0.768   2.121  11.128 -0.0088 -0.4057 -0.1039
  810MPD2    C211977   0.819   2.242  11.089 -0.1458 -0.2959  0.5489
  810MPD2    C311978   0.883   2.325  11.180  0.1983 -0.0967 -0.0826
  810MPD2    C411979   0.881   2.297  11.318 -0.4515  0.3054 -0.5620
  810MPD2    C511980   0.824   2.173  11.353  1.1222 -0.1633 -0.3312
  810MPD2     H11981   0.817   2.277  10.986  0.3593 -1.5284  0.1204
  810MPD2    H111982   0.915   2.364  11.396  1.0510  1.5247 -2.2918
  810MPD2    H211983   0.720   1.989  11.286  3.4633 -1.7953  0.2109
  810MPD2    H311984   0.822   2.149  11.459  2.2451  2.7927  0.3627
  810MPD2     N11985   0.943   2.453  11.145  0.5921 -0.1471 -0.0301
  810MPD2    H511986   0.952   2.513  11.226 -0.3643 -0.6171  0.4220
  810MPD2    N111987   0.692   2.038  11.042  0.3225 -0.3082  0.3251
  810MPD2    H711988   0.665   1.950  11.082 -0.7731 -0.2999 -0.4015
  811MPD2     C11989   0.355   1.847  10.216  0.2433  0.0943 -0.6079
  811MPD2    C111990   0.455   1.911  10.282 -0.2225 -0.2946  0.2468
  811MPD2    C211991   0.501   2.029  10.237  0.2607  0.2600 -0.1558
  811MPD2    C311992   0.445   2.093  10.124 -0.0049 -0.0925 -0.1200
  811MPD2    C411993   0.335   2.026  10.057  0.6544  0.1125 -0.2660
  811MPD2    C511994   0.303   1.901  10.099 -0.3760 -0.2081 -0.5008
  811MPD2     H11995   0.563   2.084  10.307 -0.2362 -1.2852  1.5116
  811MPD2    H111996   0.280   2.072   9.976  3.4591  1.0171 -1.6403
  811MPD2    H211997   0.310   1.757  10.256 -1.8606  1.2749 -0.3568
  811MPD2    H311998   0.217   1.851  10.055 -1.3633  0.8463  0.2038
  811MPD2     N11999   0.493   2.218  10.092 -0.1294 -0.5009 -0.1581
  811MPD2    H512000   0.570   2.245  10.153 -0.7297  0.6518  0.0849
  811MPD2    N112001   0.489   1.867  10.412  0.1172 -0.2626  0.2551
  811MPD2    H712002   0.427   1.798  10.455 -0.9500 -0.7248 -2.0417
  812MPD2     C12003   3.664   1.585  12.304  0.2138 -0.6728 -0.8347
  812MPD2    C112004   3.791   1.637  12.305  0.0833  0.1938  0.2509
  812MPD2    C212005   3.854   1.638  12.428 -0.1332  0.5970  0.0917
  812MPD2    C312006   3.795   1.591  12.545  0.1872  0.0098 -0.8703
  812MPD2    C412007   3.667   1.543  12.540 -0.2063  0.7684 -0.3905
  812MPD2    C512008   3.607   1.541  12.415 -0.0239 -0.4421  1.0065
  812MPD2     H12009   3.956   1.673  12.442 -0.7422  2.2050  0.5619
  812MPD2    H112010   3.609   1.503  12.623  0.2526 -2.6132 -1.7286
  812MPD2    H212011   3.601   1.566  12.218 -0.5386  0.0300 -0.4437
  812MPD2    H312012   3.510   1.496  12.400 -0.2213  0.3803 -0.1822
  812MPD2     N12013   3.871   1.585  12.661 -0.0849  0.2179 -0.4492
  812MPD2    H512014   3.957   1.639  12.665  0.2249 -0.1510 -2.0978
  812MPD2    N112015   3.844   1.674  12.181 -0.1114  0.4545  0.7184
  812MPD2    H712016   3.778   1.666  12.104  3.0323 -0.9219 -1.8298
  813MPD2     C12017   3.027   3.158  12.655 -0.5124 -0.5913 -0.0656
  813MPD2    C112018   3.052   3.285  12.697 -0.5146 -0.1623  0.1003
  813MPD2    C212019   3.097   3.312  12.824  0.2801  0.4307  0.2369
  813MPD2    C312020   3.121   3.205  12.909  0.1154 -0.1009  0.1109
  813MPD2    C412021   3.086   3.077  12.874 -0.3668 -0.3444 -0.3659
  813MPD2    C512022   3.040   3.052  12.746  0.3578  0.6026  0.1175
  813MPD2     H12023   3.135   3.409  12.855  1.4183  0.5046 -1.4115
  813MPD2    H112024   3.094   2.989  12.938 -1.3291 -0.3447 -0.2533
  813MPD2    H212025   2.998   3.132  12.554 -1.6495 -1.5105  0.4933
  813MPD2    H312026   3.001   2.953  12.726  2.0852 -0.0178 -0.1363
  813MPD2     N12027   3.192   3.233  13.029 -0.0201 -0.2491 -0.6068
  813MPD2    H512028   3.227   3.323  13.059  0.1365 -0.2115 -0.8975
  813MPD2    N112029   3.041   3.378  12.590  0.0578  0.3362 -0.3231
  813MPD2    H712030   3.040   3.335  12.498 -1.0359  1.0658 -0.6603
  814MPD2     C12031   3.661   0.067  13.261 -0.1717 -0.4924 -0.2381
  814MPD2    C112032   3.681   0.117  13.129  0.4882 -0.4395 -0.0497
  814MPD2    C212033   3.729   0.245  13.116 -0.1868  0.4809  0.6846
  814MPD2    C312034   3.748   0.335  13.220  0.8354 -0.2537 -0.3070
  814MPD2    C412035   3.727   0.285  13.347 -0.1729  0.5942 -0.7519
  814MPD2    C512036   3.687   0.152  13.371 -0.5654  0.1067 -0.3975
  814MPD2     H12037   3.743   0.271  13.011  1.1862  2.1637  1.2859
  814MPD2    H112038   3.755   0.351  13.428  0.0052 -3.0019  2.1223
  814MPD2    H212039   3.620   4.706  13.278  1.1133 -1.3878 -2.2699
  814MPD2    H312040   3.676   0.115  13.473 -0.5332 -0.4917 -0.6122
  814MPD2     N12041   3.795   0.467  13.202  0.1314  0.1465 -0.1571
  814MPD2    H512042   3.831   0.498  13.292 -0.6528  0.6503 -0.0215
  814MPD2    N112043   3.651   0.050  13.007  0.1574  0.1463  0.0813
  814MPD2    H712044   3.658   0.104  12.922  2.7282 -0.3953 -0.0379
  815MPD2     C12045   4.485   3.686  12.038 -0.3688 -0.0513  0.0583
  815MPD2    C112046   4.494   3.546  12.021 -0.0114  0.4624 -0.3588
  815MPD2    C212047   4.399   3.464  12.072  0.0831  0.3213  0.3689
  815MPD2    C312048   4.282   3.514  12.123  0.4821 -0.6760  0.2132
  815MPD2    C412049   4.262   3.654  12.132 -0.3961 -0.2815  0.0039
  815MPD2    C512050   4.366   3.736  12.093  0.2025 -0.5582 -0.0939
  815MPD2     H12051   4.409   3.356  12.076  1.8534  0.5013  0.4242
  815MPD2    H112052   4.173   3.700  12.173  0.6224  2.0698 -0.4579
  815MPD2    H212053   4.567   3.752  12.010 -1.1293  0.6120 -0.6009
  815MPD2    H312054   4.361   3.844  12.087  0.1647 -0.6318 -1.5625
  815MPD2     N12055   4.183   3.420  12.160 -0.1740 -0.0278  0.2607
  815MPD2    H512056   4.207   3.323  12.139  0.0015  0.0129  0.2719
  815MPD2    N112057   4.618   3.499  11.970  1.0491 -0.4890  0.2924
  815MPD2    H712058   4.690   3.565  11.943  1.8334 -1.1824  0.6912
  816MPD2     C12059   4.529   1.767  17.132  0.4130 -0.3526  0.1149
  816MPD2    C112060   4.444   1.791  17.030 -0.3149  0.1516  0.1727
  816MPD2    C212061   4.471   1.726  16.911 -0.2455 -1.0760  0.6428
  816MPD2    C312062   4.592   1.656  16.886  0.0394  0.3747  0.1165
  816MPD2    C412063   4.677   1.639  16.994 -0.1116  0.3170  1.0378
  816MPD2    C512064   4.640   1.695  17.116 -0.0858  0.1407  0.4918
  816MPD2     H12065   4.406   1.750  16.827 -0.9173 -1.2603  1.1154
  816MPD2    H112066   0.030   1.582  16.985 -1.0967 -1.0501 -0.3520
  816MPD2    H212067   4.505   1.801  17.233  1.0874 -2.2829  0.9113
  816MPD2    H312068   4.709   1.684  17.199  1.6896 -0.3516 -1.0332
  816MPD2     N12069   4.622   1.606  16.755 -0.3073 -0.4506  0.3896
  816MPD2    H512070   4.575   1.648  16.676  2.4396  0.8960 -0.5503
  816MPD2    N112071   4.335   1.876  17.063  0.7346  0.2044 -0.4862
  816MPD2    H712072   4.331   1.919  17.155  2.3697  0.2361 -0.4348
  817MPD2     C12073   4.195   3.990   9.524  0.7508  0.4072 -0.7306
  817MPD2    C112074   4.209   4.007   9.661 -0.0522  0.3362 -0.0835
  817MPD2    C212075   4.186   4.126   9.724 -0.6350 -0.6613 -0.4418
  817MPD2    C312076   4.169   4.238   9.650 -0.5407  0.2442  0.5571
  817MPD2    C412077   4.150   4.220   9.515  0.2057 -0.1790 -0.4657
  817MPD2    C512078   4.154   4.101   9.449 -0.3909  0.1932  0.8543
  817MPD2     H12079   4.200   4.133   9.831  1.0208 -0.1488 -0.6921
  817MPD2    H112080   4.125   4.306   9.453 -0.8631 -0.6086 -0.6175
  817MPD2    H212081   4.216   3.894   9.478  1.1677  0.3779 -0.4753
  817MPD2    H312082   4.133   4.091   9.343  0.2048  0.9225  0.6760
  817MPD2     N12083   4.150   4.363   9.715 -0.2727  0.6401 -0.6696
  817MPD2    H512084   4.169   4.360   9.815  1.2209  1.0561 -0.9435
  817MPD2    N112085   4.237   3.896   9.743  0.3128 -0.5934  0.4611
  817MPD2    H712086   4.246   3.920   9.841 -0.5375  0.8242  0.2035
  818MPD2     C12087   2.858   0.285  10.156  0.4243  0.5708  1.0153
  818MPD2    C112088   2.787   0.176  10.220  0.2631  0.2468  0.5472
  818MPD2    C212089   2.824   0.047  10.185 -0.1671  0.3965 -0.0656
  818MPD2    C312090   2.940   0.015  10.121  0.0678  0.2449  0.3345
  818MPD2    C412091   3.017   0.124  10.080 -0.1714 -0.2439 -0.0893
  818MPD2    C512092   2.974   0.253  10.083 -0.2434 -0.0967  0.0224
  818MPD2     H12093   2.760   4.702  10.212 -0.9780  0.9827 -0.1721
  818MPD2    H112094   3.103   0.106  10.018 -0.0731  0.2433 -0.1006
  818MPD2    H212095   2.813   0.384  10.151 -0.6358  0.1551  2.3530
  818MPD2    H312096   3.029   0.330  10.031  0.6654 -0.0282  1.0895
  818MPD2     N12097   2.953   4.615  10.071  0.0841 -0.3599  0.0418
  818MPD2    H512098   2.870   4.559  10.090 -1.2809  1.1746 -1.4352
  818MPD2    N112099   2.679   0.186  10.306  0.6564  0.1124  0.0010
  818MPD2    H712100   2.646   0.099  10.345  1.8292 -1.1804 -1.8956
  819MPD2     C12101   1.077   0.357  15.992  0.1025 -0.1377 -0.1949
  819MPD2    C112102   1.137   0.362  15.864 -0.1760  0.0950 -0.7088
  819MPD2    C212103   1.266   0.416  15.856  0.2099 -0.5838 -0.4803
  819MPD2    C312104   1.321   0.481  15.964  0.7947  0.2929 -0.5166
  819MPD2    C412105   1.259   0.489  16.091 -0.2918  0.1413  0.3766
  819MPD2    C512106   1.135   0.427  16.100 -0.1486  0.2111  0.2184
  819MPD2     H12107   1.322   0.401  15.764  0.4836  0.1977 -0.4375
  819MPD2    H112108   1.299   0.540  16.178  2.0115  0.6602 -0.9591
  819MPD2    H212109   0.977   0.316  16.006 -0.9382  1.8490 -1.7198
  819MPD2    H312110   1.089   0.430  16.198 -0.4166 -3.4011  0.2049
  819MPD2     N12111   1.449   0.547  15.941  0.4604 -0.0178  0.1257
  819MPD2    H512112   1.507   0.508  15.867  0.4286  0.2668 -0.0461
  819MPD2    N112113   1.073   0.294  15.751 -0.2049 -0.5541 -0.3880
  819MPD2    H712114   0.983   0.252  15.769 -1.1744  0.5497 -2.8185
  820MPD2     C12115   0.306   0.386  15.090 -0.0320 -0.1879 -0.1885
  820MPD2    C112116   0.402   0.475  15.113  0.1251 -0.0137 -0.2369
  820MPD2    C212117   0.523   0.430  15.151  0.3300 -0.0664  0.2711
  820MPD2    C312118   0.557   0.298  15.180 -0.5727 -0.3134 -0.4014
  820MPD2    C412119   0.456   0.201  15.145  0.0968  0.0214 -0.0790
  820MPD2    C512120   0.332   0.252  15.107  0.4069 -0.8609  0.4375
  820MPD2     H12121   0.603   0.503  15.145  0.5379 -0.4188 -1.1881
  820MPD2    H112122   0.476   0.097  15.165 -0.6241 -0.3488 -1.3348
  820MPD2    H212123   0.211   0.427  15.059  0.1567  0.2133 -0.2369
  820MPD2    H312124   0.262   0.176  15.075 -0.3856  0.7255 -1.5935
  820MPD2     N12125   0.678   0.246  15.222 -0.6203  0.1759 -0.1024
  820MPD2    H512126   0.678   0.145  15.232 -0.1184  0.0001 -1.9573
  820MPD2    N112127   0.367   0.608  15.094  1.2914 -0.2146 -0.0054
  820MPD2    H712128   0.270   0.625  15.070  1.1605  1.6276  1.8031
  821MPD2     C12129   0.756   2.260  13.280  0.2465 -0.0181 -0.4223
  821MPD2    C112130   0.868   2.257  13.358 -0.0992 -0.8577  0.0997
  821MPD2    C212131   0.968   2.338  13.321  1.3536  0.2513  0.1162
  821MPD2    C312132   0.972   2.433  13.217 -1.1913  0.0671  0.7460
  821MPD2    C412133   0.863   2.423  13.134 -0.4093  0.3036 -0.2264
  821MPD2    C512134   0.756   2.341  13.164 -0.2384 -0.6666  0.1559
  821MPD2     H12135   1.060   2.327  13.378  1.0381  0.3437  0.6403
  821MPD2    H112136   0.857   2.482  13.043  1.0063  0.6701 -0.0933
  821MPD2    H212137   0.669   2.200  13.305  0.7643 -1.3338 -1.7497
  821MPD2    H312138   0.665   2.347  13.105 -1.4659 -1.6782  1.9392
  821MPD2     N12139   1.088   2.509  13.186  0.2523  0.6249 -0.4320
  821MPD2    H512140   1.097   2.546  13.092  0.2477  2.6207  0.3391
  821MPD2    N112141   0.873   2.166  13.468  0.3213  0.1666 -1.0649
  821MPD2    H712142   0.791   2.107  13.477 -0.6148  1.4512 -1.1714
  822MPD2     C12143   1.677   1.433  15.562  0.4124  0.1285 -0.4530
  822MPD2    C112144   1.719   1.539  15.639 -0.0165  0.1062 -0.4272
  822MPD2    C212145   1.624   1.640  15.667 -0.4223 -0.4181 -0.3686
  822MPD2    C312146   1.489   1.636  15.630  0.6065 -0.2875  0.3498
  822MPD2    C412147   1.448   1.521  15.553  0.1273  0.1387 -0.1498
  822MPD2    C512148   1.546   1.425  15.518 -0.5479  0.2742 -0.0250
  822MPD2     H12149   1.655   1.722  15.730  0.1463 -0.3883 -0.6839
  822MPD2    H112150   1.351   1.509  15.508  0.0171  2.7434 -0.6289
  822MPD2    H212151   1.754   1.360  15.537  1.2103  0.6145  0.6336
  822MPD2    H312152   1.507   1.348  15.452 -0.2287  0.7783 -0.8093
  822MPD2     N12153   1.400   1.744  15.671 -0.3594  0.6486  0.5514
  822MPD2    H512154   1.444   1.826  15.711 -0.4713  0.6399  0.6918
  822MPD2    N112155   1.839   1.538  15.715  0.3846 -0.6703  0.3633
  822MPD2    H712156   1.841   1.612  15.784 -2.1995  0.0725 -0.3486
  823MPD2     C12157   0.835   1.560  16.101  0.0324  0.0715 -0.1095
  823MPD2    C112158   0.918   1.668  16.123  0.0481  0.4106 -0.0741
  823MPD2    C212159   0.985   1.678  16.242 -0.2266 -0.0327  0.1614
  823MPD2    C312160   0.974   1.583  16.341 -0.7482 -0.5865  0.0326
  823MPD2    C412161   0.863   1.494  16.328  0.4798  0.8046 -0.3390
  823MPD2    C512162   0.799   1.474  16.205  0.5541  0.3415 -0.2211
  823MPD2     H12163   1.063   1.747  16.269 -1.2013  0.4169  1.7993
  823MPD2    H112164   0.843   1.413  16.397 -0.1051  0.6296 -0.7169
  823MPD2    H212165   0.790   1.543  16.004  2.0110  2.0898 -1.3803
  823MPD2    H312166   0.718   1.402  16.196  0.9235 -0.1730  0.5019
  823MPD2     N12167   1.068   1.562  16.443  0.0363  0.0254 -0.0708
  823MPD2    H512168   1.045   1.499  16.519  1.9537  1.3575  1.6462
  823MPD2    N112169   0.947   1.752  16.016 -0.0375  0.4013  0.6818
  823MPD2    H712170   0.907   1.720  15.928 -0.0161 -0.6073  1.0404
  824MPD2     C12171   2.664   1.214  15.827  0.0075  1.0019 -0.1086
  824MPD2    C112172   2.558   1.200  15.739  0.9850 -0.1619 -0.3416
  824MPD2    C212173   2.565   1.135  15.622  0.1914  0.3879  0.0543
  824MPD2    C312174   2.684   1.082  15.576  0.0001  0.0737 -0.4410
  824MPD2    C412175   2.791   1.085  15.662  0.3239 -0.2334 -0.3495
  824MPD2    C512176   2.777   1.153  15.784 -0.1318 -0.9788 -0.5488
  824MPD2     H12177   2.479   1.125  15.557  1.2328 -1.9268 -0.9798
  824MPD2    H112178   2.893   1.052  15.643  0.0020 -1.3122 -0.1718
  824MPD2    H212179   2.675   1.252  15.928  1.4815  3.3915 -1.1819
  824MPD2    H312180   2.870   1.158  15.840 -0.5186 -0.3037  0.0240
  824MPD2     N12181   2.686   1.017  15.454 -0.1475 -0.1434  0.3230
  824MPD2    H512182   2.609   1.037  15.391  0.4156  0.8462 -0.0690
  824MPD2    N112183   2.425   1.253  15.771 -0.0612 -0.0466  0.2257
  824MPD2    H712184   2.351   1.245  15.702  1.2161  2.0920 -1.3861
  825MPD2     C12185   2.927   1.100  14.683  0.4752  0.0454  0.0842
  825MPD2    C112186   2.882   1.153  14.804  0.2419 -0.3561  0.4728
  825MPD2    C212187   2.869   1.293  14.813  0.1457 -0.4071 -0.5105
  825MPD2    C312188   2.905   1.382  14.709  0.1920 -0.0235  0.0941
  825MPD2    C412189   2.956   1.316  14.589  0.7434 -0.7292  0.5116
  825MPD2    C512190   2.972   1.178  14.586 -0.0338 -0.2614 -0.8617
  825MPD2     H12191   2.838   1.332  14.910  1.6200  1.5409 -0.8293
  825MPD2    H112192   2.982   1.378  14.505 -1.1961  1.2008  1.3530
  825MPD2    H212193   2.941   0.994  14.668 -0.4891  0.0141 -0.5917
  825MPD2    H312194   3.007   1.129  14.496  4.4636 -1.8291  1.7273
  825MPD2     N12195   2.877   1.520  14.710 -0.2388 -0.1169  0.0922
  825MPD2    H512196   2.913   1.569  14.628  0.5118  0.4648  0.7768
  825MPD2    N112197   2.851   1.073  14.916  0.2114  0.2297  0.4179
  825MPD2    H712198   2.839   1.120  15.005  1.3014  0.0270  0.6709
  826MPD2     C12199   2.666   1.354  13.692 -0.3575 -0.0978  0.4956
  826MPD2    C112200   2.700   1.421  13.578  1.2266  0.3877 -0.6229
  826MPD2    C212201   2.651   1.549  13.552  0.7601 -0.0496 -0.1153
  826MPD2    C312202   2.543   1.602  13.628 -0.3127  0.0483 -0.3149
  826MPD2    C412203   2.490   1.518  13.723  0.5289  0.1957 -0.0887
  826MPD2    C512204   2.552   1.398  13.752  0.2408  0.3307  0.9070
  826MPD2     H12205   2.686   1.607  13.468  2.7980  0.4959  1.1209
  826MPD2    H112206   2.406   1.541  13.787  0.0338 -0.7231 -0.3957
  826MPD2    H212207   2.702   1.254  13.714 -1.6445 -0.5104  0.7218
  826MPD2    H312208   2.514   1.339  13.835 -0.6507 -0.9123 -0.3876
  826MPD2     N12209   2.480   1.728  13.624 -0.5559 -0.0453 -0.8928
  826MPD2    H512210   2.412   1.733  13.699  0.7939 -2.5910  0.4940
  826MPD2    N112211   2.796   1.356  13.497 -0.2169 -0.6218 -0.5561
  826MPD2    H712212   2.833   1.265  13.522  1.1795  0.0497 -0.2335
  827MPD2     C12213   3.510   3.603  10.333 -0.5457  0.0069 -0.1889
  827MPD2    C112214   3.520   3.472  10.373  1.1107 -0.6530 -0.2456
  827MPD2    C212215   3.444   3.381  10.301  0.1314 -0.0415  0.1384
  827MPD2    C312216   3.376   3.421  10.187  0.2648  0.0561  0.0031
  827MPD2    C412217   3.387   3.551  10.139 -0.1897  0.0230 -0.0921
  827MPD2    C512218   3.457   3.643  10.213 -0.3467 -0.0284 -0.6802
  827MPD2     H12219   3.455   3.273  10.306 -0.9389 -0.0096  2.8729
  827MPD2    H112220   3.348   3.584  10.043 -0.9806  0.1498  0.2667
  827MPD2    H212221   3.574   3.670  10.390  0.6260  1.2053 -2.8769
  827MPD2    H312222   3.477   3.744  10.178  0.4429  0.2300  0.5365
  827MPD2     N12223   3.315   3.314  10.115 -0.6724  0.4160  0.4637
  827MPD2    H512224   3.327   3.222  10.155  1.3003  0.6198  0.3164
  827MPD2    N112225   3.610   3.442  10.481  0.4941  0.6541  0.4642
  827MPD2    H712226   3.683   3.511  10.498  0.9806  0.6362 -1.4825
  828MPD2     C12227   1.952   2.378  12.973  0.3939  0.4089 -0.1460
  828MPD2    C112228   1.941   2.406  12.838  0.1354  0.3667 -0.3679
  828MPD2    C212229   2.043   2.350  12.759  0.5591  0.7170 -0.3815
  828MPD2    C312230   2.138   2.261  12.794 -0.4302 -0.3163 -0.6884
  828MPD2    C412231   2.145   2.233  12.927 -0.0050  0.0563  0.3133
  828MPD2    C512232   2.046   2.284  13.007  0.5803 -1.0183 -0.1527
  828MPD2     H12233   2.051   2.382  12.656 -0.8197  0.1326 -0.6786
  828MPD2    H112234   2.208   2.156  12.968  0.9832  1.7085  1.8788
  828MPD2    H212235   1.893   2.420  13.054 -0.3813  1.8298 -1.4505
  828MPD2    H312236   2.038   2.256  13.111 -1.0900  0.0122  0.0102
  828MPD2     N12237   2.229   2.198  12.703 -0.6184 -0.2563 -0.2494
  828MPD2    H512238   2.298   2.137  12.745 -1.3219  0.5586  2.0875
  828MPD2    N112239   1.843   2.490  12.781 -0.1149  0.8069  0.6482
  828MPD2    H712240   1.856   2.506  12.682  2.1421  0.3296  0.8674
  829MPD2     C12241   2.054   3.090  12.216 -0.8410 -0.0102  0.0376
  829MPD2    C112242   1.928   3.047  12.185  0.7188 -0.2625  0.3231
  829MPD2    C212243   1.852   2.977  12.273 -0.0359  0.2261 -0.0279
  829MPD2    C312244   1.888   2.969  12.407  0.8780  0.2582 -0.1741
  829MPD2    C412245   2.010   3.029  12.445  0.1521 -0.3670 -0.2132
  829MPD2    C512246   2.092   3.087  12.349 -0.2829  0.4964  0.4954
  829MPD2     H12247   1.762   2.924  12.247 -0.0106  0.3034 -0.2662
  829MPD2    H112248   2.043   3.020  12.548 -0.3628 -0.7675 -0.0816
  829MPD2    H212249   2.112   3.150  12.146  2.8167 -0.8442  2.3642
  829MPD2    H312250   2.181   3.136  12.386 -0.9369  1.6688  0.5112
  829MPD2     N12251   1.820   2.891  12.500  0.2688  0.6963 -0.2759
  829MPD2    H512252   1.866   2.858  12.584 -1.2729  1.2061  0.7775
  829MPD2    N112253   1.880   3.068  12.055  0.3283 -0.1813  0.0568
  829MPD2    H712254   1.934   3.128  11.993 -0.7448  0.3105 -0.4113
  830MPD2     C12255   2.083   0.330  15.623 -0.9267 -0.1697 -0.2536
  830MPD2    C112256   2.017   0.449  15.594 -0.5984  0.3689  0.6488
  830MPD2    C212257   2.020   0.505  15.467 -0.0201  0.1955 -0.0168
  830MPD2    C312258   2.084   0.429  15.368  0.2016  0.2744 -0.3075
  830MPD2    C412259   2.145   0.307  15.394 -0.3968 -0.9511 -0.8627
  830MPD2    C512260   2.138   0.250  15.524  0.1037 -0.1459 -0.1082
  830MPD2     H12261   1.966   0.593  15.436  2.3170  0.4770 -3.2410
  830MPD2    H112262   2.211   0.260  15.322 -1.1616 -0.3663 -1.9451
  830MPD2    H212263   2.077   0.293  15.725 -1.2091 -1.9666 -0.9260
  830MPD2    H312264   2.185   0.153  15.539  1.9274  0.4588 -1.8225
  830MPD2     N12265   2.097   0.469  15.228  0.3917  0.4614 -0.4518
  830MPD2    H512266   2.121   0.398  15.159 -0.1134  0.9981 -1.1761
  830MPD2    N112267   1.955   0.502  15.709 -0.0552 -0.2801  0.1025
  830MPD2    H712268   1.961   0.466  15.804  1.0496  0.3607  0.2771
  831MPD2     C12269   1.521   1.976  16.050 -0.4698  0.0294 -0.3896
  831MPD2    C112270   1.615   1.902  15.986  1.0077 -0.3668 -0.0045
  831MPD2    C212271   1.597   1.764  15.980  0.1843 -0.7891  0.6603
  831MPD2    C312272   1.474   1.710  16.025 -0.2563  0.3652  0.7753
  831MPD2    C412273   1.379   1.790  16.072 -0.1933  0.1495 -1.4038
  831MPD2    C512274   1.400   1.926  16.091  0.2178  0.7677  0.3894
  831MPD2     H12275   1.680   1.704  15.943  1.7688  1.0005  1.3091
  831MPD2    H112276   1.293   1.744  16.120 -0.3550  0.0768 -1.7608
  831MPD2    H212277   1.534   2.084  16.057  1.1507 -0.1568 -0.4159
  831MPD2    H312278   1.314   1.989  16.108  0.0353  0.2826  1.2708
  831MPD2     N12279   1.460   1.574  16.040 -0.2588  0.7569 -0.6678
  831MPD2    H512280   1.366   1.539  16.057  1.3048 -2.0013  2.2347
  831MPD2    N112281   1.731   1.973  15.938  1.0600  0.5103 -0.5311
  831MPD2    H712282   1.728   2.072  15.962  2.7834  0.5878 -0.6002
  832MPD2     C12283   4.700   2.795  17.205  0.0994 -0.1524 -0.6111
  832MPD2    C112284   4.691   2.928  17.194  0.0847  0.2214  0.7189
  832MPD2    C212285   4.575   2.978  17.139  0.1796 -0.4822  0.6157
  832MPD2    C312286   4.471   2.900  17.087 -0.6976  0.5666  0.2060
  832MPD2    C412287   4.481   2.767  17.093 -0.5641 -0.0188  0.1923
  832MPD2    C512288   4.590   2.718  17.159  0.1137  0.1542 -1.0478
  832MPD2     H12289   4.556   3.084  17.145  1.3077 -0.0590 -3.1418
  832MPD2    H112290   4.406   2.701  17.049 -0.5244 -0.0229  0.1299
  832MPD2    H212291   0.048   2.747  17.250  0.3809  1.7671  0.8913
  832MPD2    H312292   4.589   2.610  17.164  0.5676  0.1368 -1.3825
  832MPD2     N12293   4.349   2.947  17.026 -0.6936  0.1597 -0.0834
  832MPD2    H512294   4.292   2.872  16.988  2.3761 -1.8356 -0.7081
  832MPD2    N112295   0.055   3.009  17.256 -0.1595  0.3913  0.3774
  832MPD2    H712296   0.139   2.961  17.288  0.4088  1.9965  1.3457
  833MPD2     C12297   2.296   0.585  12.692  0.0581  0.0588 -0.3320
  833MPD2    C112298   2.314   0.720  12.664 -0.1719  0.9625  0.2071
  833MPD2    C212299   2.436   0.761  12.609 -0.8592 -0.2511  0.5392
  833MPD2    C312300   2.534   0.669  12.564 -0.3130 -0.1331 -0.2911
  833MPD2    C412301   2.518   0.533  12.594  1.0097  0.4773  0.4464
  833MPD2    C512302   2.400   0.495  12.659 -0.2088  0.2324 -0.1667
  833MPD2     H12303   2.462   0.866  12.598  0.0787 -0.5584 -0.1394
  833MPD2    H112304   2.582   0.451  12.563 -0.8803 -0.1486 -1.8227
  833MPD2    H212305   2.211   0.548  12.746 -0.2144  0.4104 -0.5210
  833MPD2    H312306   2.387   0.393  12.693 -1.9080  0.4497 -0.1529
  833MPD2     N12307   2.647   0.707  12.478 -0.7338  0.8882 -0.0772
  833MPD2    H512308   2.690   0.627  12.434 -0.8985  1.9719 -2.1813
  833MPD2    N112309   2.219   0.816  12.700 -0.2042  0.1350 -0.1345
  833MPD2    H712310   2.142   0.788  12.761 -0.8100  2.5375  0.2157
  834MPD2     C12311   2.775   0.265  11.803  0.2073 -0.6586 -0.3045
  834MPD2    C112312   2.654   0.313  11.853  0.7990  0.0147  0.1543
  834MPD2    C212313   2.641   0.434  11.923  0.2293  0.2519  0.0537
  834MPD2    C312314   2.757   0.505  11.937  0.0989 -0.2266  0.1564
  834MPD2    C412315   2.882   0.467  11.879 -0.5822  0.5567 -0.4811
  834MPD2    C512316   2.889   0.344  11.811  0.6525 -0.2357  0.2297
  834MPD2     H12317   2.550   0.473  11.968  0.8489 -0.2038  1.7132
  834MPD2    H112318   2.968   0.526  11.906 -0.5793 -0.5299  1.8990
  834MPD2    H212319   2.784   0.179  11.737  0.5741  0.7006 -2.0273
  834MPD2    H312320   2.981   0.314  11.761  0.3740 -0.7024 -0.0092
  834MPD2     N12321   2.751   0.624  12.011  0.2147 -0.2910 -0.2031
  834MPD2    H512322   2.670   0.642  12.069  0.9791  3.8324 -0.3928
  834MPD2    N112323   2.547   0.240  11.809 -0.4547 -0.1510  0.2438
  834MPD2    H712324   2.568   0.173  11.735 -0.2179  0.6401 -0.4094
  835MPD2     C12325   2.333   3.791  11.164 -0.6654 -0.3951 -0.1763
  835MPD2    C112326   2.237   3.696  11.184  0.5704 -0.1543 -0.1993
  835MPD2    C212327   2.183   3.668  11.306 -0.0499  0.4085  0.4039
  835MPD2    C312328   2.226   3.739  11.417  0.3959  0.4198 -0.4180
  835MPD2    C412329   2.318   3.843  11.396  0.3990  0.6742  0.1281
  835MPD2    C512330   2.366   3.869  11.272 -0.2865  1.2384 -0.0449
  835MPD2     H12331   2.116   3.586  11.326  2.4139 -1.7483 -0.2473
  835MPD2    H112332   2.351   3.906  11.479  0.1904 -0.9831  1.4810
  835MPD2    H212333   2.392   3.811  11.075  1.2707  1.6210  1.5349
  835MPD2    H312334   2.433   3.954  11.262  0.4111  0.7934  0.9062
  835MPD2     N12335   2.190   3.699  11.549 -1.0389  0.5879 -0.9565
  835MPD2    H512336   2.120   3.627  11.560 -0.7338  0.1123 -2.1277
  835MPD2    N112337   2.202   3.605  11.083  0.0243  0.1443  0.4832
  835MPD2    H712338   2.116   3.552  11.097 -0.2515  0.5956  0.5243
  836MPD2     C12339   1.653   3.486  11.668 -0.7649 -0.2112 -0.0835
  836MPD2    C112340   1.717   3.450  11.785  0.0205  0.2412  0.5592
  836MPD2    C212341   1.646   3.418  11.896  0.2223 -0.1708  0.0047
  836MPD2    C312342   1.509   3.421  11.883  1.0040 -0.6537  0.4818
  836MPD2    C412343   1.449   3.452  11.765  1.2186  0.1056  0.1146
  836MPD2    C512344   1.519   3.492  11.658  0.0200  0.7317 -0.1073
  836MPD2     H12345   1.693   3.404  11.992  1.9724  3.7977 -0.2641
  836MPD2    H112346   1.341   3.453  11.754  1.1885  0.4913  0.4085
  836MPD2    H212347   1.721   3.513  11.588 -0.2001 -1.0662  0.1123
  836MPD2    H312348   1.466   3.517  11.567  1.6197 -0.5242 -1.3883
  836MPD2     N12349   1.425   3.379  11.989  0.7249 -0.1890 -0.2409
  836MPD2    H512350   1.325   3.388  11.970  0.2547 -2.1394  1.3531
  836MPD2    N112351   1.857   3.463  11.778 -0.1861  0.0492  0.0072
  836MPD2    H712352   1.898   3.499  11.693 -0.2521  0.2987  0.0805
  837MPD2     C12353   0.870   2.873  10.305  0.8559 -0.1971  0.6281
  837MPD2    C112354   0.840   2.882  10.179 -0.4330 -0.1613  0.5142
  837MPD2    C212355   0.837   3.013  10.121  0.5281  0.0384  0.0764
  837MPD2    C312356   0.870   3.122  10.191  0.2153  0.1256 -0.4102
  837MPD2    C412357   0.893   3.106  10.321 -0.8280 -0.3398 -0.2454
  837MPD2    C512358   0.902   2.981  10.376 -0.6132  0.2731 -0.6533
  837MPD2     H12359   0.814   3.027  10.017  1.1163  1.3253  0.1283
  837MPD2    H112360   0.930   3.186  10.384 -1.9251 -0.9081  1.1309
  837MPD2    H212361   0.874   2.777  10.355 -1.6230 -0.6893 -0.1237
  837MPD2    H312362   0.927   2.968  10.481  1.6701  0.9599 -1.1039
  837MPD2     N12363   0.860   3.251  10.131  0.3012 -0.0936  0.0514
  837MPD2    H512364   0.834   3.257  10.033  1.0130 -0.2471 -0.1504
  837MPD2    N112365   0.780   2.782  10.098  0.2508  0.2912 -0.2676
  837MPD2    H712366   0.739   2.816  10.012 -0.3899 -0.3382 -0.2131
  838MPD2     C12367   3.682   0.679  11.162  0.4237 -0.1640 -0.2734
  838MPD2    C112368   3.697   0.711  11.291 -0.4567 -0.2864 -0.8993
  838MPD2    C212369   3.641   0.634  11.390  0.5486 -0.4992 -0.2888
  838MPD2    C312370   3.541   0.541  11.359 -0.2801 -0.0881 -0.5700
  838MPD2    C412371   3.521   0.506  11.222  0.9018 -0.2910 -0.5789
  838MPD2    C512372   3.594   0.577  11.128 -0.0869  0.5244  0.5374
  838MPD2     H12373   3.660   0.655  11.495  1.6277 -0.6392 -0.4598
  838MPD2    H112374   3.449   0.441  11.172  0.2715 -0.2300  0.2468
  838MPD2    H212375   3.735   0.730  11.083  0.3228 -0.4892 -0.5517
  838MPD2    H312376   3.590   0.554  11.022 -0.3855  0.7043  0.5117
  838MPD2     N12377   3.460   0.489  11.462 -0.1725  0.7693  0.3614
  838MPD2    H512378   3.488   0.518  11.556  0.2877 -1.1606  0.8030
  838MPD2    N112379   3.790   0.809  11.336 -0.2823 -0.1759 -0.5103
  838MPD2    H712380   3.816   0.811  11.434 -1.6092 -2.8305 -0.1004
  839MPD2     C12381   3.892   0.922  12.193  0.3650 -0.4518  0.1214
  839MPD2    C112382   3.809   0.890  12.090 -0.2947  0.8672 -0.3244
  839MPD2    C212383   3.828   0.934  11.959 -0.7974  0.4971  0.3230
  839MPD2    C312384   3.942   1.003  11.932  0.3343 -0.2009  0.1032
  839MPD2    C412385   4.017   1.044  12.033  0.3646 -1.1644  0.1803
  839MPD2    C512386   3.988   1.011  12.166  0.1594 -0.0004 -0.1175
  839MPD2     H12387   3.754   0.905  11.885  0.4663 -1.1625 -0.3011
  839MPD2    H112388   4.106   1.103  12.022 -0.2572 -0.2078  0.2705
  839MPD2    H212389   3.868   0.900  12.296  0.3159 -0.7605  0.0460
  839MPD2    H312390   4.058   1.040  12.243  0.9977  0.0161 -0.8824
  839MPD2     N12391   3.981   1.041  11.800  0.6450 -0.9683  0.2591
  839MPD2    H512392   4.058   1.107  11.789 -1.3559  1.0930 -1.3635
  839MPD2    N112393   3.707   0.797  12.108 -0.5745 -0.4475  0.8730
  839MPD2    H712394   3.651   0.773  12.028  1.6887  0.3371 -0.9643
  840MPD2     C12395   4.219   3.669  10.553 -0.2550 -0.7076 -0.3013
  840MPD2    C112396   4.181   3.601  10.666  0.3721  0.1869  0.4289
  840MPD2    C212397   4.243   3.638  10.788  0.2846 -0.3703 -0.4902
  840MPD2    C312398   4.347   3.730  10.798  0.4720 -0.0140  0.2588
  840MPD2    C412399   4.390   3.797  10.682 -0.9589  0.5657  0.8307
  840MPD2    C512400   4.322   3.767  10.563 -0.3825 -0.2582  0.5307
  840MPD2     H12401   4.220   3.587  10.882  2.4230  0.1953  0.3441
  840MPD2    H112402   4.465   3.875  10.688 -0.9241  0.4369  1.9967
  840MPD2    H212403   4.180   3.643  10.456 -1.2776  0.0933 -0.1081
  840MPD2    H312404   4.355   3.815  10.472 -0.9745 -0.4255  0.2260
  840MPD2     N12405   4.423   3.759  10.909 -0.0258 -0.5484 -0.2287
  840MPD2    H512406   4.513   3.802  10.889 -1.2552  2.5543  0.9406
  840MPD2    N112407   4.073   3.507  10.650  0.1013 -0.3461  0.0089
  840MPD2    H712408   4.006   3.513  10.574 -0.1962  1.3424  0.4034
  841MPD2     C12409   3.356   2.422  14.526  0.7563 -0.5771 -0.1128
  841MPD2    C112410   3.449   2.339  14.464 -0.3356  0.5050  0.3669
  841MPD2    C212411   3.574   2.377  14.447  0.7146 -0.4040 -1.1919
  841MPD2    C312412   3.618   2.502  14.498  0.3846 -0.6101 -0.5054
  841MPD2    C412413   3.527   2.587  14.557 -0.2719  0.2621 -0.0861
  841MPD2    C512414   3.397   2.543  14.580 -0.4182 -1.0748  0.0018
  841MPD2     H12415   3.644   2.310  14.398  3.1808  0.1970  1.4587
  841MPD2    H112416   3.566   2.681  14.595 -2.5104  1.6883 -1.3139
  841MPD2    H212417   3.248   2.408  14.529  0.8199 -0.8253  1.1610
  841MPD2    H312418   3.332   2.606  14.638  0.0123  1.0737 -1.8342
  841MPD2     N12419   3.757   2.530  14.487  0.0483 -0.4498 -0.5121
  841MPD2    H512420   3.808   2.452  14.445 -0.9562 -0.5055 -1.6392
  841MPD2    N112421   3.410   2.215  14.394  0.5199 -0.2292  0.0141
  841MPD2    H712422   3.482   2.172  14.338  0.1771 -1.4868  0.5459
  842MPD2     C12423   4.072   3.447  16.920  0.4445  0.1470  0.4886
  842MPD2    C112424   3.972   3.357  16.908 -0.0296  0.1260  0.0130
  842MPD2    C212425   3.939   3.275  17.007 -0.0718  0.3517  0.1499
  842MPD2    C312426   3.994   3.290  17.130 -0.6313 -0.1500  0.7369
  842MPD2    C412427   4.095   3.388  17.143 -0.1704 -0.4933  0.4295
  842MPD2    C512428   4.130   3.465  17.038  0.2450 -0.0188  1.1525
  842MPD2     H12429   3.884   3.185  16.981 -1.2553  1.2763 -0.5564
  842MPD2    H112430   4.146   3.410  17.237  1.8781 -0.6995 -0.6354
  842MPD2    H212431   4.101   3.521  16.847  0.1868  2.3425  2.6034
  842MPD2    H312432   4.202   3.544  17.046  1.1218 -0.7002  0.0531
  842MPD2     N12433   3.977   3.210  17.242 -0.1066 -0.2760 -0.8207
  842MPD2    H512434   4.047   3.220  17.315 -0.0216 -2.7981 -0.5815
  842MPD2    N112435   3.888   3.354  16.791  0.2861 -0.1275 -0.2893
  842MPD2    H712436   3.925   3.422  16.724 -0.2084  1.5135  1.1006
  843MPD2     C12437   1.697   3.938  17.463 -0.8748  0.2068  0.1904
  843MPD2    C112438   1.755   3.867  17.564  0.0238 -0.1678 -0.3644
  843MPD2    C212439   1.846   3.930  17.641 -0.4322  0.2877  0.9596
  843MPD2    C312440   1.892   4.060  17.611  0.8016  0.3927  0.2503
  843MPD2    C412441   1.835   4.120  17.502 -0.3965 -0.6862 -0.0247
  843MPD2    C512442   1.737   4.063  17.431 -0.4029 -0.7721  0.1804
  843MPD2     H12443   1.883   3.879  17.730 -1.5081 -0.7648  0.8052
  843MPD2    H112444   1.876   4.212  17.462  2.6219 -2.0470 -0.0190
  843MPD2    H212445   1.629   3.890  17.393 -0.0660 -0.8504  0.1376
  843MPD2    H312446   1.693   4.100  17.339 -1.2730 -1.3020  0.3778
  843MPD2     N12447   1.985   4.134  17.683 -0.2676 -0.2297 -0.8849
  843MPD2    H512448   2.008   4.219  17.632 -1.1314 -0.7809 -2.1881
  843MPD2    N112449   1.721   3.728  17.573 -0.1756 -0.5769  0.6114
  843MPD2    H712450   1.658   3.685  17.506 -0.4316 -1.7187  1.5698
  844MPD2     C12451   4.581   2.392  16.662 -0.8576  0.1746  0.3001
  844MPD2    C112452   4.534   2.510  16.598  0.3777 -0.3371  0.0525
  844MPD2    C212453   4.565   2.632  16.661  0.7059  0.7791  0.4228
  844MPD2    C312454   4.657   2.635  16.764  0.8281  0.2586  0.7536
  844MPD2    C412455   4.697   2.516  16.818  0.5762 -0.0473  0.1726
  844MPD2    C512456   4.675   2.391  16.763  0.0072  0.1720  0.4365
  844MPD2     H12457   4.536   2.725  16.613  1.1666  1.7523  2.0289
  844MPD2    H112458   0.030   2.512  16.899  1.1766 -1.6113 -0.4386
  844MPD2    H212459   4.554   2.290  16.636 -0.0350  0.0917 -0.2017
  844MPD2    H312460   4.717   2.303  16.811  0.6214 -0.7078 -1.6968
  844MPD2     N12461   4.713   2.756  16.820  0.7526 -0.4488  0.0830
  844MPD2    H512462   0.054   2.731  16.877 -1.2541 -0.3361  2.9422
  844MPD2    N112463   4.452   2.506  16.485  0.0473 -0.8708 -0.4338
  844MPD2    H712464   4.406   2.594  16.462 -0.5733 -1.0854 -0.0214
  845MPD2     C12465   0.243   3.826  16.881  0.5039  0.5434  0.2963
  845MPD2    C112466   0.145   3.769  16.956 -0.1959  0.4890  0.3735
  845MPD2    C212467   0.126   3.631  16.951  0.1386  0.3896  0.1529
  845MPD2    C312468   0.203   3.552  16.860 -0.2380 -0.0393  0.4277
  845MPD2    C412469   0.298   3.615  16.782 -0.2510 -0.0864  0.9620
  845MPD2    C512470   0.324   3.750  16.803  0.1501 -0.3670  0.0769
  845MPD2     H12471   0.054   3.586  17.018 -0.6656  1.0842 -0.2503
  845MPD2    H112472   0.365   3.559  16.719 -0.3315 -1.8147  2.4001
  845MPD2    H212473   0.264   3.932  16.885 -0.9510  0.8302  0.3012
  845MPD2    H312474   0.411   3.799  16.762  0.2558  0.8088  1.6922
  845MPD2     N12475   0.199   3.412  16.847 -0.5067 -0.4743 -0.0587
  845MPD2    H512476   0.282   3.364  16.814 -0.5108 -0.2116 -0.4602
  845MPD2    N112477   0.075   3.863  17.045  0.2285 -0.3022 -0.0813
  845MPD2    H712478   0.100   3.961  17.049  1.2422 -0.4846 -1.9044
  846MPD2     C12479   1.527   4.593  13.661  0.6848 -0.6622 -0.5690
  846MPD2    C112480   1.449   4.649  13.564 -0.4191  0.1341 -0.3210
  846MPD2    C212481   1.313   4.651  13.572 -0.4535  0.6634 -0.0032
  846MPD2    C312482   1.249   4.601  13.681  0.0873 -0.7720  0.4999
  846MPD2    C412483   1.325   4.539  13.776  0.7269  0.3792  0.4410
  846MPD2    C512484   1.462   4.536  13.767 -0.2346  0.2005  0.2305
  846MPD2     H12485   1.255   4.709  13.501  1.1089  1.4013 -0.6775
  846MPD2    H112486   1.287   4.523  13.877  2.1202  1.2535  1.1051
  846MPD2    H212487   1.636   4.594  13.657  0.8030 -0.9141  2.4016
  846MPD2    H312488   1.514   4.488  13.850  1.8247  1.8325 -0.1333
  846MPD2     N12489   1.104   4.616  13.691 -0.3497  0.2006  0.4635
  846MPD2    H512490   1.057   4.651  13.608  0.2213 -1.1507 -0.4170
  846MPD2    N112491   1.523   4.711  13.457  0.0910 -0.0363  0.2545
  846MPD2    H712492   1.624   4.701  13.464  0.2514  0.9141 -0.5997
  847MPD2     C12493   1.784   0.252  14.180 -0.2454 -0.2105  0.0104
  847MPD2    C112494   1.885   0.342  14.194 -0.0140  0.0082  0.1087
  847MPD2    C212495   1.997   0.304  14.257  0.7085 -0.4065 -0.4031
  847MPD2    C312496   2.005   0.177  14.316  0.3273 -0.3234  0.0546
  847MPD2    C412497   1.908   0.089  14.299 -0.0741 -0.7704 -0.1616
  847MPD2    C512498   1.797   0.127  14.227 -0.1152  0.1215 -0.3475
  847MPD2     H12499   2.073   0.377  14.283  0.1761 -0.1571  0.4619
  847MPD2    H112500   1.905   4.728  14.343 -1.0321 -0.6816 -0.0153
  847MPD2    H212501   1.698   0.282  14.122  1.2287 -0.5057 -2.3490
  847MPD2    H312502   1.722   0.050  14.214 -1.1139  0.4852  3.1467
  847MPD2     N12503   2.117   0.156  14.403 -0.0297  0.2685  0.0640
  847MPD2    H512504   2.189   0.225  14.419  0.8491 -0.5075 -0.5852
  847MPD2    N112505   1.875   0.477  14.159 -0.6083 -0.0551 -0.3244
  847MPD2    H712506   1.959   0.533  14.167 -0.6388 -0.0026 -0.3699
  848MPD2     C12507   4.061   3.204  16.323 -0.1417  0.6371 -0.2331
  848MPD2    C112508   4.132   3.257  16.428 -0.2635  0.4060 -0.0277
  848MPD2    C212509   4.204   3.374  16.405 -0.4360 -0.1217 -0.2338
  848MPD2    C312510   4.209   3.437  16.282 -0.4852 -0.1401  0.4180
  848MPD2    C412511   4.137   3.379  16.183  0.4884 -0.0874 -0.5327
  848MPD2    C512512   4.065   3.270  16.202  0.1357 -0.1098  0.7486
  848MPD2     H12513   4.255   3.423  16.488  0.5774 -0.1012 -0.8618
  848MPD2    H112514   4.135   3.421  16.084 -0.5974  1.0558 -0.0287
  848MPD2    H212515   4.008   3.109  16.320  4.3846 -1.8910 -0.4085
  848MPD2    H312516   4.009   3.235  16.116  0.5103  0.2257  0.3670
  848MPD2     N12517   4.273   3.560  16.258  0.2674  0.2364 -0.2289
  848MPD2    H512518   4.272   3.599  16.164 -1.4053 -1.6464 -0.9767
  848MPD2    N112519   4.148   3.198  16.549 -0.2980  1.2868  0.0342
  848MPD2    H712520   4.219   3.231  16.615 -3.9882  4.6996  2.2750
  849MPD2     C12521   3.473   3.552  13.726 -0.1838 -0.6627 -0.8529
  849MPD2    C112522   3.561   3.446  13.730 -0.3709 -0.2506 -0.3847
  849MPD2    C212523   3.547   3.343  13.822 -0.3368  0.1501 -0.3681
  849MPD2    C312524   3.442   3.343  13.916 -0.0251 -0.4566  0.0880
  849MPD2    C412525   3.361   3.451  13.909  0.0533  0.7999 -0.0845
  849MPD2    C512526   3.371   3.562  13.820 -0.5157 -0.3705  0.2574
  849MPD2     H12527   3.622   3.265  13.818  0.7409  1.1693 -0.0048
  849MPD2    H112528   3.278   3.460  13.978  1.8053  1.1783  1.9810
  849MPD2    H212529   3.493   3.639  13.664  0.6759 -0.5886 -0.4605
  849MPD2    H312530   3.309   3.650  13.817  2.3360  1.6332 -0.4628
  849MPD2     N12531   3.424   3.245  14.013  0.3572 -0.1159  0.0405
  849MPD2    H512532   3.366   3.264  14.095  1.1119 -1.9385  1.0094
  849MPD2    N112533   3.654   3.433  13.635 -0.2429 -0.4242 -0.2819
  849MPD2    H712534   3.718   3.354  13.639  0.4887  0.1359 -0.9778
  850MPD2     C12535   1.583   1.558  14.591 -0.5376 -0.1320  0.0255
  850MPD2    C112536   1.640   1.514  14.707  0.6885 -0.6402 -0.3330
  850MPD2    C212537   1.762   1.470  14.712 -0.0723 -0.2278  0.0813
  850MPD2    C312538   1.842   1.487  14.601  0.2884  1.0135 -0.2173
  850MPD2    C412539   1.793   1.540  14.487  0.2614  0.5437 -0.2830
  850MPD2    C512540   1.662   1.572  14.478  0.5907 -0.2900  0.1939
  850MPD2     H12541   1.807   1.456  14.809 -0.1883 -1.9308 -0.1125
  850MPD2    H112542   1.859   1.547  14.401  1.6463 -1.2147  0.6367
  850MPD2    H212543   1.481   1.594  14.585  0.4315  2.6329  0.0795
  850MPD2    H312544   1.633   1.618  14.384 -0.3230  1.6053  1.3874
  850MPD2     N12545   1.985   1.463  14.610  0.4942 -0.6890  0.3830
  850MPD2    H512546   2.038   1.509  14.536  0.4632  0.8530  1.3308
  850MPD2    N112547   1.575   1.518  14.826 -0.1438 -0.1476 -0.1249
  850MPD2    H712548   1.624   1.473  14.902  0.8726  1.1683  0.0066
  851MPD2     C12549   2.042   1.425  15.213 -0.4224  0.4743 -0.1619
  851MPD2    C112550   1.932   1.359  15.167 -0.4816  0.1289 -0.2785
  851MPD2    C212551   1.953   1.239  15.101 -0.2861 -0.0074 -0.2168
  851MPD2    C312552   2.069   1.185  15.075 -1.0934 -0.3067  0.3537
  851MPD2    C412553   2.181   1.257  15.106  0.1105  0.3103 -0.3181
  851MPD2    C512554   2.162   1.376  15.184  0.4260 -0.0653  0.3074
  851MPD2     H12555   1.867   1.192  15.056 -1.4900  0.0456  2.0375
  851MPD2    H112556   2.283   1.226  15.087  0.0489  0.3064 -0.6314
  851MPD2    H212557   2.036   1.513  15.276 -2.2019  1.5004 -1.7942
  851MPD2    H312558   2.250   1.422  15.227  0.9325 -0.5675 -0.1949
  851MPD2     N12559   2.059   1.060  15.010 -0.6103  0.2124 -0.7242
  851MPD2    H512560   1.965   1.030  14.987 -1.0221  0.2353  0.9577
  851MPD2    N112561   1.810   1.423  15.194 -0.3789 -0.2270 -0.1093
  851MPD2    H712562   1.805   1.517  15.233 -1.1189 -0.4008  0.1954
  852MPD2     C12563   1.238   0.926  10.673  0.7885 -0.4645 -0.7097
  852MPD2    C112564   1.340   0.899  10.756  0.5776  0.1254  0.3736
  852MPD2    C212565   1.457   0.973  10.741 -0.2275 -0.0236 -1.0673
  852MPD2    C312566   1.482   1.061  10.636 -0.2673  0.6497 -0.8442
  852MPD2    C412567   1.374   1.091  10.562  0.5663  0.2036 -0.0234
  852MPD2    C512568   1.253   1.028  10.578  0.0117 -0.5023  0.4534
  852MPD2     H12569   1.541   0.951  10.806 -0.6580  1.8244  0.1133
  852MPD2    H112570   1.382   1.164  10.482  0.3410 -1.1377 -1.2589
  852MPD2    H212571   1.142   0.875  10.669  0.3448  0.3918 -0.8270
  852MPD2    H312572   1.176   1.052  10.506  1.5102 -0.3214 -1.0961
  852MPD2     N12573   1.615   1.108  10.619 -0.5768 -0.3541  0.2433
  852MPD2    H512574   1.693   1.073  10.673  0.8883  2.3558 -0.1063
  852MPD2    N112575   1.326   0.815  10.866 -0.2421 -0.0474 -0.1461
  852MPD2    H712576   1.405   0.825  10.929  0.0752 -0.2682 -0.5083
  853MPD2     C12577   2.789   3.689  12.353  0.4110  0.0761 -0.4232
  853MPD2    C112578   2.807   3.820  12.395 -0.0736  0.0233 -0.2815
  853MPD2    C212579   2.847   3.917  12.306  0.5594  0.4950  0.0260
  853MPD2    C312580   2.844   3.896  12.171 -0.0579  0.2773  0.0197
  853MPD2    C412581   2.807   3.773  12.125 -0.4464  0.0931  0.5182
  853MPD2    C512582   2.776   3.673  12.215 -0.1548  0.6118  0.4702
  853MPD2     H12583   2.881   4.013  12.343 -0.2842  0.6462  0.4048
  853MPD2    H112584   2.809   3.755  12.018 -0.5982 -2.8573  1.0088
  853MPD2    H212585   2.757   3.608  12.418  0.6020 -1.9456 -2.8435
  853MPD2    H312586   2.743   3.576  12.180  0.1326  1.2096 -1.4557
  853MPD2     N12587   2.865   4.013  12.091 -0.2686 -0.5080  0.0471
  853MPD2    H512588   2.908   4.093  12.136  0.1315 -0.7117  0.0272
  853MPD2    N112589   2.790   3.841  12.530 -0.7789  0.0074  0.0948
  853MPD2    H712590   2.785   3.763  12.595  0.0688 -1.6993 -1.8653
  854MPD2     C12591   4.708   4.012  12.637  0.0168  0.4409  0.0450
  854MPD2    C112592   4.716   4.085  12.759  0.9101 -0.6079 -0.0947
  854MPD2    C212593   0.046   4.029  12.868 -0.2027 -0.3257 -0.1460
  854MPD2    C312594   0.121   3.914  12.838 -0.4952 -0.7671 -0.2010
  854MPD2    C412595   0.113   3.850  12.716 -0.2825  0.6758 -0.3803
  854MPD2    C512596   0.035   3.895  12.616  0.2257  0.1227 -0.6224
  854MPD2     H12597   0.056   4.093  12.955  0.5742  0.8969 -1.1323
  854MPD2    H112598   0.169   3.758  12.700 -1.1662 -0.2541  1.8496
  854MPD2    H212599   4.658   4.053  12.550 -1.0479 -0.4487  0.2372
  854MPD2    H312600   0.023   3.853  12.517  1.9555  0.2880 -0.9007
  854MPD2     N12601   0.193   3.845  12.942 -0.4338  0.0845  0.9060
  854MPD2    H512602   0.230   3.754  12.915  2.2967  2.6103 -3.7374
  854MPD2    N112603   4.634   4.198  12.770  0.0604  0.4474  1.0618
  854MPD2    H712604   4.596   4.239  12.686  0.5490 -1.7149 -0.2268
  855MPD2     C12605   0.308   3.877  13.868  0.2255 -0.3890  0.2308
  855MPD2    C112606   0.404   3.780  13.839  0.2548  0.4350 -0.4831
  855MPD2    C212607   0.467   3.777  13.712  0.7746  0.1996 -0.5644
  855MPD2    C312608   0.427   3.878  13.623  0.4531 -0.4450 -0.1513
  855MPD2    C412609   0.354   3.987  13.659 -0.4784 -0.0638  0.7307
  855MPD2    C512610   0.289   3.986  13.784  0.7733 -0.2156  0.4463
  855MPD2     H12611   0.545   3.705  13.691 -0.0533 -0.9459  0.2997
  855MPD2    H112612   0.339   4.068  13.588  0.8622 -0.0056  0.5151
  855MPD2    H212613   0.241   3.873  13.953 -0.2029 -0.0029 -0.0918
  855MPD2    H312614   0.215   4.062  13.804  0.2038 -0.9305  1.0670
  855MPD2     N12615   0.462   3.866  13.484  0.5929 -0.3570  0.7021
  855MPD2    H512616   0.427   3.939  13.423  0.4063 -1.0822 -0.0619
  855MPD2    N112617   0.421   3.676  13.930  0.6980  0.2752  0.5556
  855MPD2    H712618   0.340   3.645  13.981 -1.3490  3.0697 -0.9761
  856MPD2     C12619   3.006   4.151  14.061 -0.0928 -0.7693  0.0628
  856MPD2    C112620   3.045   4.285  14.068  0.1205 -0.9464  0.0477
  856MPD2    C212621   2.949   4.380  14.056 -0.2780 -0.1078  0.6415
  856MPD2    C312622   2.817   4.353  14.030  0.7256  0.0438  0.8395
  856MPD2    C412623   2.780   4.218  14.031 -0.5603 -0.4102 -0.2069
  856MPD2    C512624   2.873   4.122  14.055 -0.1798  0.0922 -1.0552
  856MPD2     H12625   2.979   4.484  14.060 -0.1639 -0.1710  1.4160
  856MPD2    H112626   2.674   4.195  14.024 -0.2373 -1.0337 -2.8043
  856MPD2    H212627   3.071   4.072  14.099  0.4511  0.5048  1.7816
  856MPD2    H312628   2.840   4.019  14.068  1.2735 -0.2561 -0.1364
  856MPD2     N12629   2.722   4.448  13.993  0.8918 -0.0123 -0.0301
  856MPD2    H512630   2.631   4.416  13.964  0.6151 -1.2421  2.1964
  856MPD2    N112631   3.171   4.331  14.101  0.7420 -0.5991 -0.6030
  856MPD2    H712632   3.171   4.432  14.098  0.2169 -0.5960 -0.5068
  857MPD2     C12633   0.106   2.428  12.066  0.4492  0.8157 -0.2982
  857MPD2    C112634   4.727   2.433  12.143  0.3025  0.4753  0.1217
  857MPD2    C212635   4.733   2.516  12.251 -0.2885 -0.3468  0.3217
  857MPD2    C312636   0.103   2.595  12.280 -0.4661 -0.1068 -0.5356
  857MPD2    C412637   0.220   2.585  12.206 -0.0473  0.7412  1.2615
  857MPD2    C512638   0.215   2.505  12.095 -0.3064  0.0477 -0.0060
  857MPD2     H12639   4.651   2.520  12.322 -0.7484 -2.5897 -0.0748
  857MPD2    H112640   0.313   2.632  12.236  1.2609 -0.6569 -0.6159
  857MPD2    H212641   0.100   2.380  11.969  1.4950 -1.8722  0.9905
  857MPD2    H312642   0.305   2.494  12.036  0.2311 -1.0175  1.0058
  857MPD2     N12643   0.106   2.662  12.402  0.2105 -0.1345  0.0105
  857MPD2    H512644   0.017   2.679  12.447  0.6273  1.0546  0.3764
  857MPD2    N112645   4.620   2.346  12.107  0.5293  0.6117 -0.6017
  857MPD2    H712646   4.642   2.265  12.050  1.6542 -0.3806  1.2329
  858MPD2     C12647   0.115   1.020  16.593  0.3678  0.4408 -0.7145
  858MPD2    C112648   0.184   0.907  16.627  0.8891  0.2777 -0.0835
  858MPD2    C212649   0.242   0.893  16.752 -0.0923 -0.0447  0.2551
  858MPD2    C312650   0.211   0.993  16.853 -0.2587  0.1377 -0.7086
  858MPD2    C412651   0.141   1.110  16.809  0.0656  0.0310  0.0965
  858MPD2    C512652   0.102   1.125  16.682 -0.0289 -1.1610 -0.6914
  858MPD2     H12653   0.301   0.806  16.780 -0.2308 -0.0410  0.5557
  858MPD2    H112654   0.112   1.196  16.868 -0.2277  0.1554 -0.2286
  858MPD2    H212655   0.072   1.027  16.493 -0.0580 -2.3538 -0.7225
  858MPD2    H312656   0.069   1.220  16.641  0.2490  0.6961  3.4394
  858MPD2     N12657   0.263   0.985  16.987  0.1191 -0.2556 -0.5147
  858MPD2    H512658   0.249   1.065  17.048  0.6486 -0.3737 -0.2364
  858MPD2    N112659   0.210   0.813  16.522 -0.1730 -0.1118  0.4145
  858MPD2    H712660   0.168   0.832  16.432  0.9568 -1.4463 -0.3974
  859MPD2     C12661   3.235   2.865  15.476 -0.0881 -0.1681  0.4917
  859MPD2    C112662   3.362   2.877  15.430 -0.1580 -0.2652 -0.5954
  859MPD2    C212663   3.454   2.773  15.450 -0.2406  0.2747  0.9526
  859MPD2    C312664   3.415   2.658  15.501 -0.5130 -0.3479  0.1401
  859MPD2    C412665   3.293   2.645  15.565 -0.1857  0.0947  0.3058
  859MPD2    C512666   3.199   2.750  15.544 -0.4284 -1.3331  0.5113
  859MPD2     H12667   3.554   2.792  15.411 -1.5467  1.0855 -2.0102
  859MPD2    H112668   3.273   2.547  15.608  3.8208  0.1569  2.3312
  859MPD2    H212669   3.158   2.941  15.463 -0.0282 -0.0100  1.0244
  859MPD2    H312670   3.101   2.743  15.590 -1.0925 -0.4696 -0.7682
  859MPD2     N12671   3.500   2.544  15.505 -0.2874  0.0161 -0.2801
  859MPD2    H512672   3.462   2.470  15.564 -1.7740  0.3566 -0.8198
  859MPD2    N112673   3.414   3.006  15.396 -0.4369 -0.1512 -0.3258
  859MPD2    H712674   3.515   3.015  15.390 -0.3753  0.0208  1.0307
  860MPD2     C12675   1.526   3.957  11.958 -0.6935  0.3901  0.1389
  860MPD2    C112676   1.459   4.082  11.973  0.2401 -0.1787 -0.6670
  860MPD2    C212677   1.322   4.077  11.999 -0.1016  0.3906  0.7212
  860MPD2    C312678   1.253   3.959  11.992  0.5270  1.2244  0.4494
  860MPD2    C412679   1.321   3.838  11.964 -0.3210  0.2415  0.4741
  860MPD2    C512680   1.456   3.843  11.942 -0.1499  0.2355  0.2300
  860MPD2     H12681   1.276   4.173  12.022  0.0834  0.8243 -0.7216
  860MPD2    H112682   1.266   3.745  11.956  0.7530 -0.1779 -2.0256
  860MPD2    H212683   1.633   3.944  11.953 -0.4123  1.4698  3.1674
  860MPD2    H312684   1.508   3.748  11.941  0.6680  0.6770  0.8907
  860MPD2     N12685   1.118   3.961  12.032  0.4181  0.1248  0.0934
  860MPD2    H512686   1.089   4.058  12.042 -2.4191 -0.6046 -0.9871
  860MPD2    N112687   1.527   4.209  11.989  0.0120 -0.5771  0.2305
  860MPD2    H712688   1.476   4.288  12.026  1.1379  0.3514 -0.1904
  861MPD2     C12689   0.465   2.203  11.378 -0.8908 -0.0502  0.4600
  861MPD2    C112690   0.543   2.311  11.413  0.9883 -0.1108  0.6195
  861MPD2    C212691   0.561   2.409  11.313 -0.0516 -0.2812 -0.0630
  861MPD2    C312692   0.502   2.405  11.190 -0.1759  0.5838 -0.8162
  861MPD2    C412693   0.441   2.290  11.157 -0.2997 -0.0740  0.3318
  861MPD2    C512694   0.425   2.192  11.248 -1.1715 -0.4816  0.1163
  861MPD2     H12695   0.623   2.494  11.338 -0.3389 -0.4128  1.1081
  861MPD2    H112696   0.407   2.282  11.054  0.9085  1.0052 -0.1562
  861MPD2    H212697   0.439   2.132  11.455 -1.0902  1.7427  2.0445
  861MPD2    H312698   0.368   2.105  11.216 -0.2821 -2.0066  2.7133
  861MPD2     N12699   0.512   2.497  11.089 -0.4572  0.3755 -0.3485
  861MPD2    H512700   0.483   2.474  10.995 -0.2385  1.2207 -0.6275
  861MPD2    N112701   0.598   2.340  11.544 -0.7278 -0.1522 -0.5529
  861MPD2    H712702   0.652   2.425  11.556 -0.8058 -0.4851  2.1086
  862MPD2     C12703   0.070   2.530  10.628 -0.1941 -0.1559  0.3101
  862MPD2    C112704   0.166   2.485  10.724  0.1665 -0.6899 -0.6369
  862MPD2    C212705   0.140   2.362  10.802  0.7926 -0.5158  0.4650
  862MPD2    C312706   0.009   2.310  10.790  0.2789  0.7042  0.0257
  862MPD2    C412707   4.666   2.354  10.692 -0.9528  0.2875  0.3187
  862MPD2    C512708   4.695   2.455  10.609 -0.0321  0.9784 -0.0833
  862MPD2     H12709   0.209   2.337  10.883  1.3724  0.5255  0.2931
  862MPD2    H112710   4.581   2.298  10.654 -0.7098 -1.3848  2.2653
  862MPD2    H212711   0.086   2.611  10.558  1.1606 -1.6384 -1.0746
  862MPD2    H312712   4.638   2.478  10.519 -0.2142  2.8501  0.5043
  862MPD2     N12713   4.704   2.209  10.878  0.7195 -0.3305  0.4193
  862MPD2    H512714   4.611   2.171  10.863  2.0932 -3.1415 -1.0583
  862MPD2    N112715   0.278   2.558  10.767 -0.4413  0.0808 -0.0137
  862MPD2    H712716   0.341   2.510  10.830  2.1702  1.7343 -1.3698
  863MPD2     C12717   3.202   4.110  16.540 -0.3671  0.1349 -0.7396
  863MPD2    C112718   3.190   4.220  16.616 -0.1548 -0.2082  0.1668
  863MPD2    C212719   3.245   4.224  16.749  0.0849  0.0563 -0.4390
  863MPD2    C312720   3.289   4.109  16.811  0.4358  0.3653  0.1497
  863MPD2    C412721   3.286   3.995  16.738  0.2052  0.3389 -0.2685
  863MPD2    C512722   3.255   3.997  16.606  0.4855 -0.4137 -0.0702
  863MPD2     H12723   3.251   4.319  16.800 -1.0652 -0.0859 -0.0279
  863MPD2    H112724   3.317   3.902  16.785  0.4154  0.3874 -0.3126
  863MPD2    H212725   3.156   4.093  16.443  0.0145  0.1054 -0.9120
  863MPD2    H312726   3.262   3.900  16.557 -0.6791 -0.0142 -1.0246
  863MPD2     N12727   3.342   4.102  16.941  0.3143 -0.2681  0.0736
  863MPD2    H512728   3.345   4.009  16.982 -0.1513 -1.0688 -1.7079
  863MPD2    N112729   3.144   4.336  16.547  0.3382  0.4432 -0.4260
  863MPD2    H712730   3.107   4.325  16.453 -2.6793 -0.5237  0.8534
  864MPD2     C12731   3.691   1.132  17.053 -0.5911  0.1762 -0.1494
  864MPD2    C112732   3.802   1.059  17.020 -0.2932  0.7842  0.2156
  864MPD2    C212733   3.901   1.122  16.944 -0.4553 -0.1958  0.3112
  864MPD2    C312734   3.899   1.256  16.916  0.1395  0.1944 -0.1699
  864MPD2    C412735   3.800   1.331  16.960 -0.0922 -0.1392 -0.6830
  864MPD2    C512736   3.690   1.270  17.009  0.7407 -0.5506  0.5439
  864MPD2     H12737   3.994   1.073  16.918 -0.3608 -0.7299  1.6392
  864MPD2    H112738   3.788   1.437  16.940  1.1647 -0.0696 -1.0527
  864MPD2    H212739   3.606   1.095  17.109 -1.0952  0.0098 -1.0121
  864MPD2    H312740   3.605   1.325  17.049  0.1524 -0.9364 -0.1661
  864MPD2     N12741   4.019   1.313  16.855  0.3662  0.0971 -0.1883
  864MPD2    H512742   4.094   1.252  16.823 -2.6264 -3.0903 -1.0445
  864MPD2    N112743   3.816   0.924  17.061 -0.4472 -0.0863  0.0428
  864MPD2    H712744   3.734   0.878  17.100  0.4380 -3.1088 -1.6118
  865MPD2     C12745   3.719   1.340  16.036  0.2160 -0.3006  0.4943
  865MPD2    C112746   3.807   1.244  16.085 -0.6138  0.1815 -0.2342
  865MPD2    C212747   3.901   1.284  16.181 -0.1292  0.2936 -0.4474
  865MPD2    C312748   3.907   1.412  16.233  0.4464 -0.1940  0.9896
  865MPD2    C412749   3.809   1.500  16.191  0.3409  0.0917 -0.4909
  865MPD2    C512750   3.718   1.462  16.094 -0.6357  0.8305  1.2087
  865MPD2     H12751   3.982   1.220  16.214 -1.8489  0.2679  3.8149
  865MPD2    H112752   3.803   1.605  16.217  1.1187  0.1392 -0.5069
  865MPD2    H212753   3.651   1.317  15.956  1.2674  1.1571 -0.8075
  865MPD2    H312754   3.662   1.542  16.047 -0.7926 -0.7010 -1.2205
  865MPD2     N12755   3.999   1.453  16.337 -0.6783  0.1679  0.0157
  865MPD2    H512756   3.991   1.543  16.383 -1.8292  0.8868 -1.5960
  865MPD2    N112757   3.812   1.112  16.033 -0.7347 -0.0682 -0.0646
  865MPD2    H712758   3.754   1.089  15.953 -2.4862  0.9285  0.9247
  866MPD2     C12759   1.044   2.604  11.984 -0.1924 -0.1936  0.4949
  866MPD2    C112760   1.011   2.538  11.867 -0.5672 -0.8068 -0.1946
  866MPD2    C212761   0.920   2.609  11.783  0.4171 -0.3802  0.7428
  866MPD2    C312762   0.870   2.737  11.816  0.4219  0.6850 -0.4341
  866MPD2    C412763   0.926   2.804  11.924 -0.2187  1.1770 -0.3082
  866MPD2    C512764   1.013   2.741  12.008  0.6395  0.8611 -0.1084
  866MPD2     H12765   0.873   2.553  11.704  1.5613  1.7624 -1.4710
  866MPD2    H112766   0.913   2.910  11.943 -0.9168  1.2681 -1.2857
  866MPD2    H212767   1.111   2.550  12.050  0.4503  0.9828  0.8035
  866MPD2    H312768   1.045   2.795  12.096 -1.4124  0.6249  0.7807
  866MPD2     N12769   0.774   2.800  11.725  0.5881 -0.1197  0.3580
  866MPD2    H512770   0.742   2.892  11.753  1.3131  0.5202 -0.8971
  866MPD2    N112771   1.079   2.418  11.843 -0.0172 -0.0720  0.2630
  866MPD2    H712772   1.137   2.384  11.918 -1.1723  0.5937  1.4683
  867MPD2     C12773   3.507   1.153  16.734 -0.1172  0.6061 -0.4999
  867MPD2    C112774   3.405   1.078  16.788 -0.3875  0.6310  1.0042
  867MPD2    C212775   3.305   1.139  16.866 -0.2175 -0.1543 -0.1397
  867MPD2    C312776   3.310   1.277  16.879  0.5777 -0.4029 -0.4190
  867MPD2    C412777   3.408   1.347  16.823  0.3749  0.6853 -0.9061
  867MPD2    C512778   3.511   1.286  16.751 -0.4215 -0.2444  0.0416
  867MPD2     H12779   3.229   1.078  16.914 -1.2391  1.3870  0.1883
  867MPD2    H112780   3.422   1.454  16.837 -2.1223  0.7621  1.0176
  867MPD2    H212781   3.587   1.100  16.684 -1.8449 -1.7903 -0.7268
  867MPD2    H312782   3.591   1.351  16.719 -1.7460  0.4587 -1.8203
  867MPD2     N12783   3.212   1.341  16.951  0.3134 -0.4640 -0.5377
  867MPD2    H512784   3.221   1.441  16.941 -0.7235 -0.1219  1.9025
  867MPD2    N112785   3.414   0.935  16.778 -0.1073  0.2377 -0.8878
  867MPD2    H712786   3.473   0.899  16.703  2.0648  0.9247  0.4996
  868MPD2     C12787   4.502   1.256  13.282  0.0441  0.0983 -0.2124
  868MPD2    C112788   4.495   1.121  13.306  0.4566 -0.1232 -0.3393
  868MPD2    C212789   4.433   1.076  13.420  0.0866  0.6236  0.2795
  868MPD2    C312790   4.367   1.169  13.500 -0.0273 -0.1923 -0.4237
  868MPD2    C412791   4.367   1.305  13.463  0.3284 -0.1987 -0.6925
  868MPD2    C512792   4.434   1.352  13.352 -0.6358  0.3554 -0.6732
  868MPD2     H12793   4.433   0.972  13.449 -0.9071  0.9371  1.3984
  868MPD2    H112794   4.316   1.379  13.524  0.7509  0.7107 -1.4661
  868MPD2    H212795   4.560   1.304  13.205 -0.8976  0.8788 -0.4321
  868MPD2    H312796   4.442   1.457  13.327 -0.9380  0.9426  1.6783
  868MPD2     N12797   4.310   1.118  13.621 -0.1245 -0.0041 -0.2815
  868MPD2    H512798   4.339   1.025  13.649  1.7208  1.2753  2.0631
  868MPD2    N112799   4.554   1.035  13.212  0.4008  0.2921  0.0740
  868MPD2    H712800   4.590   1.078  13.127  1.4718  0.3352  0.5616
  869MPD2     C12801   0.856   2.421  17.413  0.0666 -0.4010 -0.5151
  869MPD2    C112802   0.774   2.463  17.518 -0.3441  0.5883 -1.0114
  869MPD2    C212803   0.822   2.488  17.645 -0.5568  0.2499  0.0950
  869MPD2    C312804   0.956   2.489  17.668  0.5762  0.3166  0.6536
  869MPD2    C412805   1.039   2.455  17.565  0.4303  0.4992  0.6007
  869MPD2    C512806   0.988   2.422  17.437  0.4748 -0.2203  0.7885
  869MPD2     H12807   0.764   2.526  17.728  0.8937  2.8418 -0.0894
  869MPD2    H112808   1.147   2.461  17.572  0.3232 -0.2971  2.7819
  869MPD2    H212809   0.806   2.395  17.320 -1.0819 -0.0291 -0.0079
  869MPD2    H312810   1.055   2.393  17.357 -1.4277 -0.2686 -0.7711
  869MPD2     N12811   1.007   2.526   0.050  0.1092  0.3210 -0.1311
  869MPD2    H512812   1.107   2.525   0.069  0.2597  3.3485 -0.6484
  869MPD2    N112813   0.637   2.488  17.484  0.1742 -0.0949 -0.4875
  869MPD2    H712814   0.619   2.472  17.385 -0.1468  0.6364 -0.5460
  870MPD2     C12815   1.019   0.998   1.455  0.0513 -0.0415  0.5280
  870MPD2    C112816   1.106   1.072   1.374  0.2150 -0.1767 -0.1745
  870MPD2    C212817   1.054   1.184   1.305  0.6586 -0.7942 -0.0063
  870MPD2    C312818   0.928   1.234   1.339  0.0552  0.1330 -0.0361
  870MPD2    C412819   0.844   1.163   1.419 -0.6633 -0.5099 -0.4113
  870MPD2    C512820   0.897   1.049   1.480 -0.3696  0.2856 -0.1086
  870MPD2     H12821   1.119   1.256   1.257 -2.1866  0.0103 -2.6831
  870MPD2    H112822   0.737   1.185   1.421 -0.5612 -0.0121 -0.2689
  870MPD2    H212823   1.055   0.909   1.504  2.3824  0.0029 -1.1196
  870MPD2    H312824   0.833   0.983   1.537  1.1036 -1.5506 -0.5700
  870MPD2     N12825   0.879   1.352   1.273 -0.4990  0.2204 -0.0600
  870MPD2    H512826   0.929   1.383   1.191  2.5938  1.3732  2.2669
  870MPD2    N112827   1.240   1.031   1.367 -0.0711  0.3116  0.8253
  870MPD2    H712828   1.261   0.945   1.417  2.0720  0.5293  0.3062
  871MPD2     C12829   1.795   1.326  16.250  0.1799  0.4184  0.3280
  871MPD2    C112830   1.756   1.284  16.377 -0.7090 -0.3825 -0.6834
  871MPD2    C212831   1.821   1.176  16.428 -1.1956  0.2007 -0.1651
  871MPD2    C312832   1.924   1.104  16.372 -0.5904 -0.5318 -0.2164
  871MPD2    C412833   1.967   1.145  16.247  0.6347 -0.3733  0.1515
  871MPD2    C512834   1.896   1.248  16.193 -0.7151 -0.8839 -0.1216
  871MPD2     H12835   1.803   1.153  16.533  0.9195  3.3338  0.8890
  871MPD2    H112836   2.031   1.082  16.186  0.8035  1.2910 -1.3688
  871MPD2    H212837   1.756   1.411  16.195 -3.1702 -0.7622  0.9350
  871MPD2    H312838   1.911   1.267  16.087  0.9764  0.2939  0.3320
  871MPD2     N12839   1.977   0.989  16.438  0.3715 -0.4206  0.6407
  871MPD2    H512840   1.933   0.955  16.524 -0.3731 -1.3127 -0.0922
  871MPD2    N112841   1.650   1.368  16.442  0.3453 -0.6865 -0.1632
  871MPD2    H712842   1.611   1.440  16.382 -1.7283 -0.3194  1.6198
  872MPD2     C12843   2.823   3.693  13.807 -0.2478 -0.0297  0.5871
  872MPD2    C112844   2.805   3.826  13.834  0.5161 -0.5060  0.4484
  872MPD2    C212845   2.679   3.862  13.874  0.1739  0.2639  0.0251
  872MPD2    C312846   2.586   3.761  13.894 -0.0171  0.0610 -0.8150
  872MPD2    C412847   2.608   3.626  13.863  0.4673  0.0053  0.2767
  872MPD2    C512848   2.728   3.598  13.821  0.0966  0.6175  0.0402
  872MPD2     H12849   2.649   3.964  13.895  1.4399  0.6031  0.1509
  872MPD2    H112850   2.530   3.552  13.874  2.4624 -1.6618  3.1438
  872MPD2    H212851   2.917   3.651  13.773 -0.7715  0.4538 -1.4707
  872MPD2    H312852   2.748   3.493  13.803  2.3365  0.9639  0.4109
  872MPD2     N12853   2.456   3.781  13.942  0.5277  0.0876 -0.1429
  872MPD2    H512854   2.409   3.698  13.974  0.7006 -1.2551 -3.4106
  872MPD2    N112855   2.908   3.922  13.825  0.0034 -0.0178  0.5924
  872MPD2    H712856   2.881   4.015  13.856 -2.2113  0.2367 -2.0764
  873MPD2     C12857   3.996   3.430   0.266 -0.0632  0.5177  0.0209
  873MPD2    C112858   3.961   3.399   0.393 -0.0521  0.1479  0.7517
  873MPD2    C212859   3.880   3.282   0.414 -0.5976 -0.0818  0.1192
  873MPD2    C312860   3.853   3.198   0.312  0.3454 -0.2510  0.2416
  873MPD2    C412861   3.879   3.235   0.178 -0.9764 -0.0832 -0.5275
  873MPD2    C512862   3.954   3.351   0.158  0.0661  0.6395  0.6896
  873MPD2     H12863   3.835   3.271   0.512  0.8141  0.9937  0.8841
  873MPD2    H112864   3.848   3.177   0.091  0.6036 -1.3883 -0.1963
  873MPD2    H212865   4.046   3.522   0.238  3.4986 -1.8308 -1.3505
  873MPD2    H312866   3.968   3.385   0.056 -0.9227  1.6612  0.8972
  873MPD2     N12867   3.792   3.068   0.328  0.0000  0.0167 -0.3128
  873MPD2    H512868   3.777   3.016   0.242  2.2543 -2.2592  0.6732
  873MPD2    N112869   3.994   3.494   0.494 -0.3815  0.1434  0.5907
  873MPD2    H712870   4.061   3.568   0.478 -0.3257  0.2043  1.1213
  874MPD2     C12871   3.683   3.693  16.051 -0.1147  0.4549  0.3152
  874MPD2    C112872   3.761   3.643  16.149 -0.4779  0.4562 -0.5751
  874MPD2    C212873   3.891   3.693  16.156  0.1682 -0.1277  0.2010
  874MPD2    C312874   3.945   3.792  16.073 -0.1509  0.1476  0.3416
  874MPD2    C412875   3.864   3.842  15.980 -0.0299  0.3049  0.5602
  874MPD2    C512876   3.739   3.790  15.971  0.2424 -0.8439 -0.5778
  874MPD2     H12877   3.965   3.663  16.230  0.2065 -0.9869 -0.1929
  874MPD2    H112878   3.895   3.917  15.909  1.8205  0.6102  1.6706
  874MPD2    H212879   3.580   3.663  16.038  0.7394 -2.4300  0.2122
  874MPD2    H312880   3.672   3.839  15.901  2.9297  0.5810 -2.1740
  874MPD2     N12881   4.080   3.829  16.106  0.5779 -0.0734 -0.7733
  874MPD2    H512882   4.109   3.784  16.193  0.7436  0.2476 -0.6623
  874MPD2    N112883   3.719   3.542  16.239  0.6612 -0.2695  0.1766
  874MPD2    H712884   3.632   3.494  16.221  0.3875  0.6979 -1.0661
  875MPD2     C12885   4.502   1.975  14.726 -0.3735  0.1645 -0.1445
  875MPD2    C112886   4.529   2.104  14.696 -0.1366  0.8338  0.2965
  875MPD2    C212887   4.565   2.192  14.793  0.2654 -0.9915 -0.2271
  875MPD2    C312888   4.594   2.143  14.923  0.1554 -0.5872  0.2395
  875MPD2    C412889   4.576   2.008  14.952 -0.0799 -0.0920 -0.4174
  875MPD2    C512890   4.509   1.931  14.862 -0.0793 -0.0817  0.3008
  875MPD2     H12891   4.583   2.294  14.763 -2.0867  0.2109  2.4986
  875MPD2    H112892   4.573   1.970  15.054  0.0243  2.9570  0.7185
  875MPD2    H212893   4.461   1.909  14.651 -0.1101  0.3179 -0.4218
  875MPD2    H312894   4.478   1.831  14.892  0.1433 -0.3323 -0.3143
  875MPD2     N12895   4.643   2.222  15.031  0.0739 -0.2667 -0.4163
  875MPD2    H512896   4.669   2.170  15.114 -2.3405  1.0866  1.2077
  875MPD2    N112897   4.511   2.160  14.564  0.2095  0.0458 -0.5474
  875MPD2    H712898   4.508   2.261  14.549  1.8007  0.3971  1.4591
  876MPD2     C12899   3.442   3.316  16.038 -0.5480  0.1827 -0.0693
  876MPD2    C112900   3.571   3.302  16.007 -0.2754  0.4486  0.0525
  876MPD2    C212901   3.652   3.204  16.068  0.1683 -0.0544  0.1868
  876MPD2    C312902   3.587   3.112  16.152 -0.3471 -0.4595 -0.5763
  876MPD2    C412903   3.446   3.118  16.166  0.7762  0.2454 -0.3026
  876MPD2    C512904   3.376   3.224  16.111 -0.3595  0.2771 -0.2198
  876MPD2     H12905   3.760   3.201  16.060  0.0635  0.3688 -1.3046
  876MPD2    H112906   3.399   3.038  16.223 -2.1840  1.1161 -1.5115
  876MPD2    H212907   3.383   3.383  15.976 -0.3697  1.2580  0.9238
  876MPD2    H312908   3.269   3.239  16.120 -0.0805  1.8930  0.4612
  876MPD2     N12909   3.672   3.013  16.211  0.0170 -0.7527 -0.0244
  876MPD2    H512910   3.764   3.008  16.169  0.1884  0.3493  0.2191
  876MPD2    N112911   3.624   3.389  15.910  0.8534  0.1094 -0.1670
  876MPD2    H712912   3.573   3.475  15.893 -1.4017 -1.2050  0.0000
  877MPD2     C12913   3.595   3.756  15.239  0.0913  1.2442  0.4410
  877MPD2    C112914   3.727   3.757  15.269 -0.2098  0.2615  0.0408
  877MPD2    C212915   3.828   3.771  15.178 -0.0454  0.5191 -0.9913
  877MPD2    C312916   3.793   3.781  15.045 -0.9275 -0.2368  0.0100
  877MPD2    C412917   3.663   3.786  15.002  0.1191  1.2268  0.7827
  877MPD2    C512918   3.566   3.773  15.103  0.3391 -0.4122  0.1673
  877MPD2     H12919   3.933   3.764  15.204 -0.2728 -0.3458 -0.3075
  877MPD2    H112920   3.628   3.809  14.902  1.6466  3.0806  0.6858
  877MPD2    H212921   3.514   3.743  15.310 -0.1757 -1.9103 -0.4529
  877MPD2    H312922   3.464   3.776  15.068  0.2566  0.1819  0.4653
  877MPD2     N12923   3.891   3.794  14.946  0.1899  0.7189  0.3792
  877MPD2    H512924   3.863   3.789  14.849 -0.0761 -3.6439  0.6632
  877MPD2    N112925   3.767   3.732  15.401  0.9456 -0.2023 -0.2388
  877MPD2    H712926   3.864   3.715  15.427  1.0124  0.6007  0.0306
  878MPD2     C12927   3.455   3.183  12.748 -0.2805  0.4788  0.4856
  878MPD2    C112928   3.493   3.319  12.754  0.2019  0.4393  1.3254
  878MPD2    C212929   3.562   3.368  12.861  0.0821 -0.8443 -0.2888
  878MPD2    C312930   3.597   3.270  12.957 -0.1891 -0.5990  0.2993
  878MPD2    C412931   3.574   3.133  12.935 -1.0030  0.3674  0.4925
  878MPD2    C512932   3.493   3.096  12.837  0.2479  0.3924 -0.6755
  878MPD2     H12933   3.596   3.471  12.862 -1.3477 -0.3730  2.1880
  878MPD2    H112934   3.597   3.052  13.003  0.0890  0.5059  0.2814
  878MPD2    H212935   3.407   3.153  12.655  0.9350  0.1509 -0.0337
  878MPD2    H312936   3.470   2.996  12.802  0.0828  0.3592 -0.4706
  878MPD2     N12937   3.661   3.312  13.076  0.0889 -0.4624 -0.4371
  878MPD2    H512938   3.678   3.412  13.087  3.0125 -1.1682  1.6283
  878MPD2    N112939   3.447   3.393  12.641  0.2278  0.1047  0.4150
  878MPD2    H712940   3.415   3.341  12.560 -0.6879 -0.6100  1.2371
  879MPD2     C12941   3.970   4.584  16.977  0.4822 -0.1630 -0.3714
  879MPD2    C112942   3.968   4.456  17.017  0.2311 -0.1473  0.8825
  879MPD2    C212943   3.946   4.361  16.920  0.9071 -0.5341 -0.1093
  879MPD2    C312944   3.916   4.394  16.787  0.8471  0.1943  0.4950
  879MPD2    C412945   3.915   4.529  16.753  0.7082  0.1221 -0.5747
  879MPD2    C512946   3.943   4.625  16.842 -0.4646  0.1568  0.6552
  879MPD2     H12947   3.968   4.258  16.944 -1.2613 -0.9315  0.2081
  879MPD2    H112948   3.884   4.560  16.654  0.0479 -2.2135 -1.1175
  879MPD2    H212949   4.000   4.662  17.046  2.6255 -0.0169 -1.4769
  879MPD2    H312950   3.950   4.727  16.804  0.7961 -0.5342 -0.9950
  879MPD2     N12951   3.901   4.293  16.687 -0.1229 -0.1514  0.2588
  879MPD2    H512952   3.888   4.339  16.597 -1.2418 -2.9666 -1.0465
  879MPD2    N112953   3.991   4.433  17.154 -0.0544  0.2559 -0.3619
  879MPD2    H712954   4.007   4.515  17.213  0.3254 -1.0766  1.3910
  880MPD2     C12955   0.704   0.672  17.657 -0.7009 -0.0365  0.2524
  880MPD2    C112956   0.772   0.740   0.004 -0.8912  0.6261 -0.8336
  880MPD2    C212957   0.903   0.703   0.039 -0.1172  0.1545 -0.3951
  880MPD2    C312958   0.970   0.599  17.725  0.5906 -0.3695 -0.3023
  880MPD2    C412959   0.891   0.529  17.629  0.5278  0.2307 -0.0235
  880MPD2    C512960   0.764   0.566  17.598  0.0403  0.5259  0.1599
  880MPD2     H12961   0.950   0.761   0.118 -0.6966  0.1607 -0.0477
  880MPD2    H112962   0.933   0.453  17.564  1.7035 -0.1233  1.1682
  880MPD2    H212963   0.605   0.700  17.622 -0.2529  2.3822  0.9430
  880MPD2    H312964   0.712   0.504  17.525  2.8655 -0.1680 -1.2538
  880MPD2     N12965   1.107   0.573  17.747 -0.3083  0.1920 -0.3597
  880MPD2    H512966   1.151   0.641   0.056  0.5981 -0.0416 -0.7642
  880MPD2    N112967   0.703   0.849   0.064  0.2759 -0.4739  0.3461
  880MPD2    H712968   0.602   0.858   0.055  0.2584 -0.3574  0.6570
  881MPD2     C12969   0.436   1.705  17.321 -0.0043  0.2668 -0.8499
  881MPD2    C112970   0.485   1.582  17.304 -0.0207 -0.3893 -0.0125
  881MPD2    C212971   0.518   1.497  17.410  0.2529 -0.2449 -0.4007
  881MPD2    C312972   0.479   1.534  17.538 -0.0992  1.1061 -0.1053
  881MPD2    C412973   0.421   1.654  17.562 -0.4452 -0.9751  0.4672
  881MPD2    C512974   0.388   1.736  17.451  0.2888  0.7189  0.3729
  881MPD2     H12975   0.568   1.404  17.385 -0.6351 -1.5363  2.6074
  881MPD2    H112976   0.405   1.691  17.662  1.4807  0.5482  0.2153
  881MPD2    H212977   0.409   1.776  17.243  0.1693  1.9231  0.5798
  881MPD2    H312978   0.341   1.829  17.478 -0.7034  0.7683 -1.5344
  881MPD2     N12979   0.512   1.457  17.656 -0.4919  0.1573 -0.8921
  881MPD2    H512980   0.491   1.495  17.749  1.1477  1.4374 -1.0411
  881MPD2    N112981   0.536   1.567  17.170 -0.2072  0.3594  0.1318
  881MPD2    H712982   0.520   1.645  17.107 -0.9956  0.9138  1.0078
  882MPD2     C12983   3.794   3.641  14.211  0.7992  0.1906 -0.9001
  882MPD2    C112984   3.788   3.644  14.351 -0.2859  0.3736  0.3537
  882MPD2    C212985   3.681   3.579  14.410  0.0286  0.8284  0.3732
  882MPD2    C312986   3.571   3.530  14.338  0.4763  0.6023 -0.5655
  882MPD2    C412987   3.586   3.523  14.197 -0.3306  0.4690 -0.1505
  882MPD2    C512988   3.699   3.569  14.136 -0.1470  0.2855  0.1411
  882MPD2     H12989   3.686   3.584  14.518 -0.7859  1.6551  0.3810
  882MPD2    H112990   3.517   3.475  14.129 -0.1675 -1.2624  0.8913
  882MPD2    H212991   3.880   3.685  14.163  0.3497  0.8949 -1.0627
  882MPD2    H312992   3.710   3.560  14.029 -1.3568 -1.2500  0.1470
  882MPD2     N12993   3.459   3.467  14.396 -0.0280 -0.0429  0.2385
  882MPD2    H512994   3.395   3.419  14.333 -0.1350 -0.0552  0.3568
  882MPD2    N112995   3.888   3.716  14.422  0.4114 -0.4053 -0.3029
  882MPD2    H712996   3.978   3.727  14.376  0.8118  0.5705  0.7290
  883MPD2     C12997   0.723   3.844  15.873 -0.6613  0.1715 -0.3408
  883MPD2    C112998   0.817   3.909  15.799  0.1287  0.6432 -0.1376
  883MPD2    C212999   0.931   3.972  15.853  0.2080  0.3158  0.9827
  883MPD2    C313000   0.939   3.977  15.990 -0.1545  0.2060  0.5191
  883MPD2    C413001   0.848   3.906  16.063  0.4045  0.8536  0.0159
  883MPD2    C513002   0.742   3.839  16.007  0.0378 -0.3389  0.1371
  883MPD2     H13003   1.020   4.013  15.808 -0.2563 -0.5069 -0.6860
  883MPD2    H113004   0.839   3.916  16.171 -0.1616  0.7700 -0.0224
  883MPD2    H213005   0.639   3.791  15.830 -2.2538  0.9052  1.8441
  883MPD2    H313006   0.667   3.791  16.069 -1.0192 -0.4170 -1.2138
  883MPD2     N13007   1.057   4.025  16.054  0.1417 -0.6249 -0.1059
  883MPD2    H513008   1.128   4.069  15.996  2.2643 -0.3244  2.7277
  883MPD2    N113009   0.823   3.902  15.654 -0.5401  0.1065 -0.9599
  883MPD2    H713010   0.916   3.908  15.616 -0.2154 -1.6761 -0.4684
  884MPD2     C13011   3.246   4.554  15.013  0.0220  0.5784 -0.5836
  884MPD2    C113012   3.207   4.686  14.978  0.6797 -0.0346  0.5511
  884MPD2    C213013   3.070   4.718  14.997 -0.6662 -0.0942 -0.6620
  884MPD2    C313014   2.980   4.627  15.051  0.1083 -0.2414  0.7210
  884MPD2    C413015   3.025   4.505  15.085  0.2852 -0.2710 -0.1957
  884MPD2    C513016   3.154   4.468  15.068  0.2707 -0.2188  0.7067
  884MPD2     H13017   3.032   0.078  14.970  0.2929  0.1547 -1.1076
  884MPD2    H113018   2.960   4.432  15.133  0.1095 -2.4395 -3.7257
  884MPD2    H213019   3.344   4.513  14.995 -0.7433 -1.8295  0.7058
  884MPD2    H313020   3.183   4.366  15.091  0.9429 -0.0036  0.8424
  884MPD2     N13021   2.844   4.667  15.061  0.2188  0.4634  0.0883
  884MPD2    H513022   2.829   0.023  15.028 -1.3529  0.4616  0.7515
  884MPD2    N113023   3.284   0.051  14.910 -0.4515  0.6043  0.3454
  884MPD2    H713024   3.238   0.128  14.863 -1.3493  1.6249  2.9128
  885MPD2     C13025   1.509   4.101  17.695 -0.4557  0.3424  0.3687
  885MPD2    C113026   1.566   4.224  17.692 -0.5614 -0.4091 -0.0649
  885MPD2    C213027   1.546   4.304  17.583  0.3249 -0.6340 -0.4566
  885MPD2    C313028   1.455   4.274  17.487  0.1831 -0.1043  0.4877
  885MPD2    C413029   1.384   4.163  17.502  0.0786 -0.8078 -0.3591
  885MPD2    C513030   1.417   4.074  17.602 -0.5587  0.1554  0.1197
  885MPD2     H13031   1.587   4.405  17.581  1.3617 -1.0506 -0.2310
  885MPD2    H113032   1.301   4.140  17.436 -2.7879  3.2309  1.8508
  885MPD2    H213033   1.526   4.036   0.029 -0.2142  0.9146  0.7511
  885MPD2    H313034   1.369   3.977  17.602  1.8965 -1.0358  0.5705
  885MPD2     N13035   1.434   4.369  17.385  0.0332  0.4619  0.3501
  885MPD2    H513036   1.504   4.442  17.378  2.2937 -1.6530  0.9040
  885MPD2    N113037   1.646   4.259   0.047  0.3635  0.2142 -0.8608
  885MPD2    H713038   1.681   4.180   0.100  1.0663  1.5158  0.6203
  886MPD2     C13039   2.218   3.308  15.645  0.0938  0.3848 -0.6703
  886MPD2    C113040   2.342   3.277  15.601 -0.5121 -0.0347  0.1315
  886MPD2    C213041   2.394   3.347  15.490 -0.1352 -0.3835 -0.9470
  886MPD2    C313042   2.317   3.434  15.420  0.4125 -0.0393 -0.4856
  886MPD2    C413043   2.189   3.452  15.464  0.0886 -0.2258 -0.0844
  886MPD2    C513044   2.142   3.398  15.575  0.1678  1.0669  0.4874
  886MPD2     H13045   2.498   3.333  15.461 -0.2591 -1.7151 -0.7145
  886MPD2    H113046   2.121   3.522  15.417  1.0841 -0.1580 -1.4392
  886MPD2    H213047   2.170   3.256  15.727  2.5943  1.6693  1.5897
  886MPD2    H313048   2.038   3.418  15.600 -0.7226 -3.7764  0.6476
  886MPD2     N13049   2.374   3.510  15.312  0.0984 -0.2416 -0.6296
  886MPD2    H513050   2.475   3.511  15.305  0.0718  0.3321 -0.8624
  886MPD2    N113051   2.423   3.182  15.659  0.1416 -0.4301 -0.3227
  886MPD2    H713052   2.510   3.169  15.609  1.1008  2.7836  0.5216
  887MPD2     C13053   3.127   3.103  15.725 -0.5563 -0.6500  0.2451
  887MPD2    C113054   3.024   3.167  15.790  0.2711 -0.1362  0.0492
  887MPD2    C213055   3.030   3.306  15.815 -0.3077 -0.1879 -0.2343
  887MPD2    C313056   3.148   3.369  15.795 -0.0485  0.6831  1.6492
  887MPD2    C413057   3.258   3.303  15.735  0.6782 -0.2285  0.0877
  887MPD2    C513058   3.240   3.174  15.691 -0.0754 -0.6643  0.0839
  887MPD2     H13059   2.955   3.360  15.871  0.7619  0.6977  0.3297
  887MPD2    H113060   3.354   3.343  15.706  0.5157  1.1204  1.3981
  887MPD2    H213061   3.124   2.995  15.715  0.5487 -0.6803  0.2697
  887MPD2    H313062   3.316   3.123  15.633  0.3617 -0.3549  0.3873
  887MPD2     N13063   3.156   3.500  15.833  0.1318 -0.0713  0.1876
  887MPD2    H513064   3.075   3.543  15.876 -0.3283  0.6990 -1.4763
  887MPD2    N113065   2.899   3.106  15.822 -0.5431  0.2458 -0.0915
  887MPD2    H713066   2.828   3.165  15.864 -0.9648  1.1563 -2.1070
  888MPD2     C13067   0.092   3.226  14.786  0.2944  0.7743  0.6514
  888MPD2    C113068   0.132   3.300  14.893 -0.0762  0.7759 -0.9677
  888MPD2    C213069   0.175   3.429  14.882  0.2349 -0.3436  0.4865
  888MPD2    C313070   0.170   3.494  14.758 -0.8820  0.2106 -0.1199
  888MPD2    C413071   0.120   3.425  14.651  0.8839  0.1153 -0.0459
  888MPD2    C513072   0.089   3.295  14.667  0.1086 -0.5139  0.4791
  888MPD2     H13073   0.211   3.487  14.967  1.2918 -2.7446  1.6691
  888MPD2    H113074   0.093   3.471  14.557  0.9664 -0.2420 -0.2427
  888MPD2    H213075   0.059   3.122  14.785 -0.7746  1.0997  1.8369
  888MPD2    H313076   0.063   3.251  14.572 -1.3139 -1.5887  1.3544
  888MPD2     N13077   0.202   3.628  14.753  0.6560 -0.0042 -0.5967
  888MPD2    H513078   0.240   3.660  14.842 -0.9413 -1.7152  0.7055
  888MPD2    N113079   0.121   3.241  15.019  0.0765  0.2042  0.2669
  888MPD2    H713080   0.097   3.143  15.029  0.9099  0.0464  0.7115
  889MPD2     C13081   0.027   3.311  12.415  0.5144 -0.6996 -0.4018
  889MPD2    C113082   0.031   3.279  12.549  0.5463 -0.4583  0.5788
  889MPD2    C213083   4.719   3.372  12.636  0.5857 -0.5170  0.0945
  889MPD2    C313084   4.646   3.486  12.600  0.9560 -0.2459 -0.6479
  889MPD2    C413085   4.650   3.516  12.463  0.0614  0.1997  0.6655
  889MPD2    C513086   4.709   3.429  12.371 -0.3233 -0.3056 -0.6850
  889MPD2     H13087   4.712   3.353  12.742 -1.0664  3.2118  0.6540
  889MPD2    H113088   4.612   3.605  12.414 -0.3868 -1.5199 -2.1456
  889MPD2    H213089   0.048   3.232  12.344 -1.4693 -2.3450  0.8701
  889MPD2    H313090   4.715   3.459  12.267  0.6422  0.5793 -0.3750
  889MPD2     N13091   4.602   3.580  12.703 -0.2596 -0.2817 -1.1047
  889MPD2    H513092   4.628   3.564  12.800  1.0666  1.2075 -1.1965
  889MPD2    N113093   0.064   3.145  12.591 -0.5689 -0.1764 -1.4866
  889MPD2    H713094   0.079   3.095  12.505  1.0977  0.3617 -1.5119
  890MPD2     C13095   3.931   4.615  14.556 -0.1891 -0.5918  0.1005
  890MPD2    C113096   4.018   4.668  14.650  0.5941  0.0554  0.3193
  890MPD2    C213097   4.041   4.593  14.763  0.4179  0.1044 -0.2253
  890MPD2    C313098   3.991   4.471  14.773  0.3076 -0.5215  0.2012
  890MPD2    C413099   3.905   4.419  14.673  0.5963 -0.2558  0.6412
  890MPD2    C513100   3.880   4.491  14.565 -0.0237 -0.5956  0.7713
  890MPD2     H13101   4.119   4.626  14.831  1.1851 -2.0471 -0.0624
  890MPD2    H113102   3.864   4.319  14.679 -0.8902  0.3979  1.1618
  890MPD2    H213103   3.896   4.675  14.472 -1.0615 -0.2776  0.6866
  890MPD2    H313104   3.811   4.462  14.487 -0.4068 -1.1319  1.3015
  890MPD2     N13105   4.031   4.393  14.884  0.0862 -1.1279  0.4221
  890MPD2    H513106   4.066   4.436  14.969 -0.1487 -1.1364  0.5256
  890MPD2    N113107   4.071   0.061  14.638 -0.4390 -0.1298 -0.0046
  890MPD2    H713108   4.023   0.128  14.578  2.5535  0.4113 -1.7494
  891MPD2     C13109   2.171   2.700  16.423  0.0856 -0.0387  0.1893
  891MPD2    C113110   2.103   2.685  16.536 -0.5691 -0.3271 -0.6048
  891MPD2    C213111   2.103   2.562  16.588 -0.2426 -0.1578 -0.0101
  891MPD2    C313112   2.173   2.455  16.525  0.1564 -0.4208 -0.3040
  891MPD2    C413113   2.247   2.480  16.410  0.2482 -0.6424  0.3961
  891MPD2    C513114   2.255   2.608  16.372  0.8449 -0.2639  0.4257
  891MPD2     H13115   2.031   2.545  16.667 -1.8286 -2.0118 -1.8443
  891MPD2    H113116   2.297   2.407  16.347  0.4703 -2.9011  3.1769
  891MPD2    H213117   2.176   2.798  16.375  0.3107 -0.4789 -0.6775
  891MPD2    H313118   2.316   2.629  16.285 -0.1437 -1.2846 -0.5261
  891MPD2     N13119   2.151   2.324  16.577 -0.3552 -0.4141  0.2511
  891MPD2    H513120   2.083   2.321  16.653  1.8534  2.0556  2.2769
  891MPD2    N113121   2.041   2.807  16.582 -0.8986 -0.1053 -0.9227
  891MPD2    H713122   2.051   2.888  16.523 -0.5853 -0.2382 -1.0508
  892MPD2     C13123   3.007   4.146  14.472 -1.1424  0.6585  0.2967
  892MPD2    C113124   2.931   4.064  14.557 -0.1609  0.6711 -0.2212
  892MPD2    C213125   2.947   3.928  14.557  1.0746  0.0109  0.3817
  892MPD2    C313126   3.048   3.870  14.489 -0.3545  0.2528  0.1071
  892MPD2    C413127   3.111   3.946  14.395  0.4197 -0.6768 -0.1020
  892MPD2    C513128   3.095   4.079  14.390 -0.4000  0.3067 -0.4531
  892MPD2     H13129   2.869   3.871  14.606  0.8376 -1.6753 -1.9400
  892MPD2    H113130   3.191   3.913  14.330 -0.1565  0.3996 -1.3490
  892MPD2    H213131   3.005   4.253  14.461 -1.0120  0.4446 -1.7576
  892MPD2    H313132   3.154   4.149  14.331 -0.7710  0.3329 -0.7957
  892MPD2     N13133   3.069   3.735  14.486 -0.1253 -0.4677 -0.4874
  892MPD2    H513134   3.148   3.714  14.427  0.2503 -1.1640  0.2592
  892MPD2    N113135   2.822   4.127  14.619 -0.4877  0.2689  0.4690
  892MPD2    H713136   2.815   4.228  14.609 -1.1741 -0.0955 -2.9403
  893MPD2     C13137   4.211   3.070   0.632 -1.2903 -0.0788  0.6853
  893MPD2    C113138   4.259   3.008   0.746 -0.1774 -0.3145  0.7623
  893MPD2    C213139   4.177   3.003   0.856  0.1030  1.0289 -0.6103
  893MPD2    C313140   4.051   3.063   0.855 -0.6539 -0.0526  0.4123
  893MPD2    C413141   4.009   3.120   0.733 -0.1340  0.0117  0.0546
  893MPD2    C513142   4.087   3.111   0.625  0.0360 -0.1310  0.4154
  893MPD2     H13143   4.208   2.942   0.939 -2.6799 -0.0248 -0.3259
  893MPD2    H113144   3.909   3.162   0.730  0.5766  1.6701 -0.2575
  893MPD2    H213145   4.250   3.069   0.531 -2.4975 -4.5772  0.2730
  893MPD2    H313146   4.046   3.133   0.526  0.2619  2.2688  0.8662
  893MPD2     N13147   3.952   3.068   0.958  0.3354  0.0371  0.5094
  893MPD2    H513148   3.853   3.087   0.948  0.5646  0.0438 -1.7551
  893MPD2    N113149   4.388   2.952   0.742  0.6011  0.2651  0.0617
  893MPD2    H713150   4.437   2.970   0.655 -0.3883  1.6769 -0.1967
  894MPD2     C13151   3.012   0.036   1.096 -0.5498  0.9125  0.2210
  894MPD2    C113152   2.921   0.098   1.184 -0.4400 -0.3152  0.3023
  894MPD2    C213153   2.880   0.224   1.170 -0.4562 -0.8040  0.1978
  894MPD2    C313154   2.945   0.303   1.087  0.0793  0.0444  0.1624
  894MPD2    C413155   3.038   0.252   1.007  0.5980 -0.6676  0.0593
  894MPD2    C513156   3.068   0.114   0.997  0.2525 -0.4020 -0.0567
  894MPD2     H13157   2.812   0.260   1.246  1.3039 -2.1381  2.4053
  894MPD2    H113158   3.100   0.319   0.949  0.4232 -0.4323  0.1425
  894MPD2    H213159   3.048   4.673   1.106  0.3783  1.1944 -0.3020
  894MPD2    H313160   3.149   0.074   0.936  0.7997 -0.3637  0.6485
  894MPD2     N13161   2.921   0.441   1.102 -0.2941  0.5048  0.6180
  894MPD2    H513162   2.896   0.472   1.195 -0.6450  3.7737 -0.5620
  894MPD2    N113163   2.857   0.014   1.275 -0.4314 -0.6446  0.7025
  894MPD2    H713164   2.770   0.047   1.313 -1.5992 -0.1344 -2.4342
  895MPD2     C13165   2.568   3.609  13.447 -0.1575 -0.4049 -0.4379
  895MPD2    C113166   2.445   3.642  13.415  0.2285  0.8160 -0.4097
  895MPD2    C213167   2.363   3.548  13.357  0.1139 -0.4183  0.1608
  895MPD2    C313168   2.411   3.428  13.310  0.2431 -0.5283  0.1398
  895MPD2    C413169   2.543   3.398  13.339 -0.3214  0.3034 -0.3248
  895MPD2    C513170   2.619   3.484  13.413  0.1196 -0.0163  0.0124
  895MPD2     H13171   2.259   3.577  13.341  0.6118  0.6870 -1.0827
  895MPD2    H113172   2.585   3.300  13.321 -0.1637  0.1324  0.9336
  895MPD2    H213173   2.631   3.674  13.507 -1.9802  0.6120  0.3552
  895MPD2    H313174   2.721   3.457  13.436 -0.1956  0.0290  1.5147
  895MPD2     N13175   2.327   3.332  13.255 -0.3841  0.1736 -0.1411
  895MPD2    H513176   2.368   3.239  13.253  1.5587  1.0322  0.1952
  895MPD2    N113177   2.383   3.770  13.443 -0.0561 -0.1040  0.2336
  895MPD2    H713178   2.286   3.788  13.422  0.2342 -1.6428 -2.4103
  896MPD2     C13179   0.435   0.415   1.618 -0.1052  0.0329 -0.3853
  896MPD2    C113180   0.384   0.400   1.495 -0.1481  0.9344  1.0639
  896MPD2    C213181   0.252   0.427   1.475  0.4000  0.1968  0.0306
  896MPD2    C313182   0.172   0.472   1.582  0.7739  0.3357 -0.7261
  896MPD2    C413183   0.220   0.483   1.706  0.0767  0.4158  1.0898
  896MPD2    C513184   0.359   0.454   1.722  0.2500  0.2116 -0.3365
  896MPD2     H13185   0.210   0.424   1.375  0.3057 -1.7523  0.1412
  896MPD2    H113186   0.154   0.510   1.787 -0.8683  1.2564  0.0360
  896MPD2    H213187   0.540   0.391   1.630 -0.2432  0.4922  1.7528
  896MPD2    H313188   0.407   0.465   1.819  1.6477  1.2308 -1.1623
  896MPD2     N13189   0.036   0.484   1.563  0.0469  0.7862  0.0474
  896MPD2    H513190   4.732   0.445   1.479 -0.0280  0.3560  0.2823
  896MPD2    N113191   0.480   0.366   1.395  0.5627  0.3655 -0.9649
  896MPD2    H713192   0.570   0.334   1.430 -0.0189  0.0497  0.2459
  897MPD2     C13193   0.995   3.624  10.494  0.1619 -0.3336  0.1593
  897MPD2    C113194   0.981   3.753  10.552 -0.2693  0.1294  0.6867
  897MPD2    C213195   0.988   3.762  10.692  0.4430 -0.3231  0.3834
  897MPD2    C313196   1.015   3.652  10.775 -0.0757 -0.2240 -0.2461
  897MPD2    C413197   1.022   3.527  10.711  0.8339  0.4228 -0.1898
  897MPD2    C513198   1.010   3.512  10.576  0.4173 -0.1961  0.1691
  897MPD2     H13199   0.991   3.858  10.742  2.3879 -1.2416  2.0514
  897MPD2    H113200   1.041   3.436  10.768 -1.1029  0.5670  0.6774
  897MPD2    H213201   0.985   3.617  10.386 -1.2099  1.5725  0.1613
  897MPD2    H313202   1.007   3.415  10.528  0.5032  1.0711 -2.4233
  897MPD2     N13203   1.013   3.674  10.916  0.4026  0.3472  0.1068
  897MPD2    H513204   0.995   3.761  10.965  0.6966  0.5115 -0.0719
  897MPD2    N113205   0.979   3.866  10.461 -0.3224 -0.1028  0.2258
  897MPD2    H713206   0.952   3.838  10.367  1.2398 -0.8415 -0.0121
  898MPD2     C13207   2.534   3.455   0.229 -0.5183  0.4747 -0.2281
  898MPD2    C113208   2.608   3.444   0.113  0.7623 -0.1711 -0.3897
  898MPD2    C213209   2.612   3.549   0.021 -0.3872 -0.3765  0.1603
  898MPD2    C313210   2.553   3.670   0.038 -0.1785  0.1885 -0.0064
  898MPD2    C413211   2.488   3.683   0.158 -0.5252  0.0799 -0.5391
  898MPD2    C513212   2.470   3.581   0.247  0.0772 -0.7686 -0.2464
  898MPD2     H13213   2.657   3.528  17.676  1.8101 -3.1660  1.7874
  898MPD2    H113214   2.436   3.774   0.183 -0.4427  0.0289 -0.1850
  898MPD2    H213215   2.522   3.380   0.307 -2.1973  0.4353 -0.5186
  898MPD2    H313216   2.403   3.592   0.331  1.4257  0.8739  0.6048
  898MPD2     N13217   2.553   3.760  17.681  0.2900  0.3278  0.3735
  898MPD2    H513218   2.607   3.745  17.597 -1.1980 -0.2361 -0.4790
  898MPD2    N113219   2.686   3.330   0.079 -0.1590  0.8529  0.0705
  898MPD2    H713220   2.760   3.346   0.012 -0.6516  1.8526 -0.2348
  899MPD2     C13221   3.431   3.578  17.256 -0.3373  0.0065 -0.5228
  899MPD2    C113222   3.427   3.679  17.355 -0.3932  0.6810 -0.4352
  899MPD2    C213223   3.365   3.650  17.479 -0.8564  0.0922 -0.4503
  899MPD2    C313224   3.294   3.538  17.491  0.5178 -0.1761 -0.2344
  899MPD2    C413225   3.279   3.456  17.386 -0.5793  0.2439  0.7802
  899MPD2    C513226   3.353   3.469  17.273 -0.3311  1.0514  0.3589
  899MPD2     H13227   3.356   3.732  17.550  1.0752  1.3463 -1.6541
  899MPD2    H113228   3.216   3.369  17.394  0.9355 -1.0613 -1.3868
  899MPD2    H213229   3.471   3.598  17.158  1.1954 -1.4912 -0.1923
  899MPD2    H313230   3.355   3.399  17.191 -1.4131  1.8318 -0.3380
  899MPD2     N13231   3.213   3.504  17.599 -0.5693  0.1425 -0.0588
  899MPD2    H513232   3.163   3.417  17.588 -0.4742  0.1543 -0.6071
  899MPD2    N113233   3.479   3.809  17.319  0.4237 -0.0091 -0.5254
  899MPD2    H713234   3.505   3.817  17.221  1.5394  2.2308 -0.0459
  900MPD2     C13235   2.566   1.411  12.565 -0.4695 -0.0427 -0.3654
  900MPD2    C113236   2.695   1.380  12.523  0.6906  0.2596 -0.0227
  900MPD2    C213237   2.742   1.431  12.402 -0.1687 -0.9020 -0.5372
  900MPD2    C313238   2.658   1.510  12.323  0.5056  0.2985  0.5872
  900MPD2    C413239   2.529   1.524  12.360 -0.4029  1.2593  0.1757
  900MPD2    C513240   2.482   1.472  12.477  0.5251  0.4557  0.7624
  900MPD2     H13241   2.843   1.413  12.368  0.0844  0.5454 -0.5436
  900MPD2    H113242   2.459   1.583  12.303 -0.8087  0.4486 -0.1636
  900MPD2    H213243   2.519   1.367  12.652  1.7754 -1.9924 -0.1236
  900MPD2    H313244   2.380   1.492  12.505  0.0854  0.8986 -1.1352
  900MPD2     N13245   2.710   1.560  12.202 -0.6209 -0.2901  0.2232
  900MPD2    H513246   2.790   1.523  12.153 -1.4901 -0.8557 -0.7711
  900MPD2    N113247   2.770   1.301  12.607 -0.7187 -0.0772  0.6858
  900MPD2    H713248   2.715   1.236  12.662 -0.8881 -0.7912 -0.3093
  901MPD2     C13249   2.671   0.365  12.896  0.3464 -0.0725  0.7984
  901MPD2    C113250   2.766   0.368  12.800 -0.1566 -0.2550 -0.1817
  901MPD2    C213251   2.819   0.490  12.758 -0.0094 -0.3908 -0.4011
  901MPD2    C313252   2.783   0.606  12.818 -0.2049 -0.2779  0.0048
  901MPD2    C413253   2.695   0.599  12.925 -0.6062 -0.7978 -1.0296
  901MPD2    C513254   2.638   0.481  12.958 -0.3118  0.3940  0.0385
  901MPD2     H13255   2.879   0.491  12.668 -0.9543  0.4199 -1.0048
  901MPD2    H113256   2.670   0.688  12.981  0.7027 -0.6726 -0.6436
  901MPD2    H213257   2.625   0.271  12.925 -1.3225  1.3127  2.6333
  901MPD2    H313258   2.555   0.480  13.028  0.9474 -2.4130  1.5131
  901MPD2     N13259   2.844   0.723  12.763  0.1567 -0.7715  0.1352
  901MPD2    H513260   2.932   0.711  12.713 -1.0874 -2.3700 -1.7036
  901MPD2    N113261   2.794   0.243  12.748 -0.3063 -0.1946 -0.0944
  901MPD2    H713262   2.740   0.168  12.790 -1.5614  1.5763  1.4448
  902MPD2     C13263   1.927   4.313  12.285  0.2047  0.1743  0.3293
  902MPD2    C113264   2.027   4.363  12.362 -0.5258 -0.8983 -0.2669
  902MPD2    C213265   2.130   4.282  12.410  1.1087 -0.4660 -0.3923
  902MPD2    C313266   2.132   4.154  12.376 -0.1918  0.7321 -1.0817
  902MPD2    C413267   2.028   4.100  12.298  0.1553 -0.1080  0.4008
  902MPD2    C513268   1.930   4.182  12.254 -0.2820 -0.6879  0.1723
  902MPD2     H13269   2.216   4.322  12.464  0.4164 -0.8026  0.9558
  902MPD2    H113270   2.032   3.998  12.261  2.3106 -0.4231  1.4940
  902MPD2    H213271   1.839   4.369  12.257  1.0259  0.2456 -2.0393
  902MPD2    H313272   1.852   4.146  12.186 -1.8369  1.4032  0.8411
  902MPD2     N13273   2.247   4.064  12.401  0.4026  0.1332 -0.3821
  902MPD2    H513274   2.237   3.964  12.386 -0.1625  0.3896 -1.6523
  902MPD2    N113275   2.015   4.503  12.400  0.4849 -0.4125 -0.7501
  902MPD2    H713276   1.936   4.549  12.357 -1.0281 -0.6493  1.7458
  903MPD2     C13277   2.514   4.417  11.935 -0.4423 -0.5700  0.0289
  903MPD2    C113278   2.443   4.297  11.959 -0.0800  0.1670  0.7341
  903MPD2    C213279   2.302   4.309  11.968 -0.8623 -0.3288  0.0437
  903MPD2    C313280   2.235   4.426  11.947  0.6847 -0.8682 -0.5486
  903MPD2    C413281   2.308   4.543  11.925  0.3893 -0.1913  0.2485
  903MPD2    C513282   2.446   4.539  11.913 -0.5546 -0.2752 -0.1643
  903MPD2     H13283   2.243   4.223  11.997  2.1969 -2.2545  0.6602
  903MPD2    H113284   2.267   4.644  11.923 -0.9585 -0.7578 -0.5713
  903MPD2    H213285   2.621   4.410  11.923 -0.3219  3.1868 -1.1545
  903MPD2    H313286   2.496   4.632  11.890 -0.6546  0.6183  3.2089
  903MPD2     N13287   2.090   4.426  11.949  1.0769  0.0426 -0.4135
  903MPD2    H513288   2.041   4.337  11.945  0.1780  0.4870  0.6390
  903MPD2    N113289   2.513   4.181  12.012  0.2492 -0.0019 -0.0600
  903MPD2    H713290   2.602   4.188  12.060 -0.2284 -1.8118  1.0911
  904MPD2     C13291   2.372   2.817  14.468  0.3136 -0.2280 -0.2294
  904MPD2    C113292   2.405   2.873  14.347  0.5498  0.3017  0.4340
  904MPD2    C213293   2.528   2.846  14.285  0.3792 -0.0238 -0.1224
  904MPD2    C313294   2.625   2.776  14.350 -1.0006 -0.3855  0.2354
  904MPD2    C413295   2.598   2.738  14.482 -0.0780 -0.0495 -0.1993
  904MPD2    C513296   2.470   2.749  14.540 -0.3740 -0.3816  0.0005
  904MPD2     H13297   2.547   2.886  14.186  1.7151 -1.4259 -0.4209
  904MPD2    H113298   2.669   2.676  14.536 -0.3153  0.1917  0.3978
  904MPD2    H213299   2.278   2.827  14.520 -0.1493  0.2186 -1.1600
  904MPD2    H313300   2.451   2.719  14.642  1.1872 -0.3869  0.2947
  904MPD2     N13301   2.753   2.754  14.294 -0.1634 -1.1538  0.3591
  904MPD2    H513302   2.765   2.779  14.196 -2.0909  0.3234  0.4884
  904MPD2    N113303   2.305   2.953  14.287  0.3175 -0.6614  0.2277
  904MPD2    H713304   2.218   2.967  14.338 -0.4291 -1.7236 -0.7374
  905MPD2     C13305   1.635   3.120  13.748  0.0787 -0.0472 -0.3018
  905MPD2    C113306   1.769   3.153  13.739 -0.1545  0.4997  0.5709
  905MPD2    C213307   1.820   3.173  13.616  0.2939 -0.5265 -0.5981
  905MPD2    C313308   1.744   3.161  13.498 -0.0859  1.0076 -0.8800
  905MPD2    C413309   1.609   3.128  13.501  1.1288  0.3829  0.5312
  905MPD2    C513310   1.565   3.103  13.630  0.9567  0.2254  0.7011
  905MPD2     H13311   1.921   3.210  13.602  0.4598 -0.4638  0.7653
  905MPD2    H113312   1.544   3.112  13.416  1.0995  1.5876  0.3262
  905MPD2    H213313   1.588   3.085  13.839 -1.1517 -2.5320 -1.8998
  905MPD2    H313314   1.465   3.063  13.646  0.7512  0.5873  0.3431
  905MPD2     N13315   1.815   3.176  13.378  0.2531 -0.5470 -0.0642
  905MPD2    H513316   1.916   3.186  13.380  0.0847  1.4140 -0.6050
  905MPD2    N113317   1.848   3.154  13.858 -0.1288 -0.2521 -0.4832
  905MPD2    H713318   1.805   3.131  13.947 -1.1661  3.7471  0.0578
  906MPD2     C13319   4.282   3.571  11.709 -0.7560  0.1499  0.3517
  906MPD2    C113320   4.390   3.524  11.655 -0.2306  0.3609 -0.0554
  906MPD2    C213321   4.422   3.391  11.658 -0.3398 -0.2030  0.7199
  906MPD2    C313322   4.332   3.311  11.729  0.3821  0.2843 -0.7205
  906MPD2    C413323   4.225   3.363  11.799 -0.4823 -0.4067 -0.6320
  906MPD2    C513324   4.196   3.493  11.788  0.1650 -0.6404 -0.0977
  906MPD2     H13325   4.501   3.354  11.592  0.6177  0.6800  1.3647
  906MPD2    H113326   4.153   3.304  11.854 -1.2691 -1.2107 -2.5536
  906MPD2    H213327   4.268   3.679  11.708  0.7919  0.3504 -0.0243
  906MPD2    H313328   4.120   3.540  11.848 -0.5722 -1.1758 -0.6184
  906MPD2     N13329   4.336   3.169  11.724 -0.1798  0.0828 -0.1813
  906MPD2    H513330   4.250   3.128  11.758  0.8897 -0.1377  2.2411
  906MPD2    N113331   4.475   3.599  11.567  0.2397 -0.1027  0.3983
  906MPD2    H713332   4.552   3.543  11.533  0.6148 -0.0898  1.2167
  907MPD2     C13333   2.755   2.099  15.277 -0.2485  0.6877 -0.3086
  907MPD2    C113334   2.828   2.003  15.213 -0.2802  0.0125 -0.7101
  907MPD2    C213335   2.939   1.944  15.280 -0.2744  0.5202 -0.0906
  907MPD2    C313336   2.977   1.985  15.404 -0.2619  0.0954  0.4148
  907MPD2    C413337   2.895   2.077  15.470 -0.6267  0.2947  0.0572
  907MPD2    C513338   2.783   2.125  15.404 -0.3116  0.3548 -0.2221
  907MPD2     H13339   3.004   1.878  15.225 -2.1284 -1.3838  0.0196
  907MPD2    H113340   2.919   2.112  15.570  0.5496  1.1225 -0.5200
  907MPD2    H213341   2.666   2.140  15.230 -0.5131  0.7586  0.2597
  907MPD2    H313342   2.719   2.194  15.459 -3.3048 -1.4482 -1.4373
  907MPD2     N13343   3.095   1.932  15.457 -0.5252 -0.1691 -0.0800
  907MPD2    H513344   3.135   1.861  15.396 -1.8496 -1.3787  0.4599
  907MPD2    N113345   2.801   1.956  15.084  0.1109 -0.6292  0.2538
  907MPD2    H713346   2.863   1.893  15.036 -0.7972 -0.3109 -1.3272
  908MPD2     C13347   0.995   3.969   9.576  0.5126  0.5702 -0.3664
  908MPD2    C113348   0.920   3.902   9.667  0.1586  0.2442  0.8922
  908MPD2    C213349   0.928   3.937   9.804  0.6278  0.3374 -0.0174
  908MPD2    C313350   1.004   4.039   9.855 -0.7427 -0.5709 -0.1255
  908MPD2    C413351   1.081   4.105   9.762  0.0962  0.4182 -0.2956
  908MPD2    C513352   1.075   4.070   9.627  0.0955  0.9354 -0.4962
  908MPD2     H13353   0.854   3.895   9.871  2.0972  1.1852  2.0975
  908MPD2    H113354   1.150   4.184   9.787 -0.4680  0.4918  1.0789
  908MPD2    H213355   0.991   3.953   9.469 -0.7608  2.2402 -0.5593
  908MPD2    H313356   1.141   4.126   9.561  2.7542  0.2079  1.5779
  908MPD2     N13357   0.991   4.085   9.990 -0.1853 -0.3428  0.1644
  908MPD2    H513358   0.935   4.033  10.058 -1.7812  0.1259 -0.7743
  908MPD2    N113359   0.832   3.801   9.618  0.4636  0.1116 -0.3566
  908MPD2    H713360   0.832   3.782   9.518  0.9009 -0.6758 -0.2056
  909MPD2     C13361   1.113   1.322  11.530  0.1484  0.1925  0.3484
  909MPD2    C113362   1.180   1.434  11.574  0.4943  0.1640  0.2219
  909MPD2    C213363   1.187   1.455  11.717 -0.1984  0.0496 -0.3153
  909MPD2    C313364   1.124   1.362  11.796 -0.0048 -0.5181  0.2092
  909MPD2    C413365   1.058   1.255  11.746 -0.0838 -0.3872 -0.6710
  909MPD2    C513366   1.052   1.235  11.611  0.1183  1.1043 -0.0355
  909MPD2     H13367   1.245   1.539  11.754  0.7856 -1.2394  1.0344
  909MPD2    H113368   1.005   1.183  11.809 -1.1743  0.6415 -0.4192
  909MPD2    H213369   1.108   1.298  11.424  1.1431  3.3062 -0.3959
  909MPD2    H313370   1.008   1.149  11.563  1.8505  0.2675 -0.1257
  909MPD2     N13371   1.137   1.372  11.939  0.1791 -0.1790  0.7153
  909MPD2    H513372   1.170   1.462  11.974  0.2716  0.4201 -0.9293
  909MPD2    N113373   1.240   1.529  11.483 -0.1781 -0.1662 -0.1410
  909MPD2    H713374   1.283   1.612  11.524  0.2925 -0.2750 -0.4192
  910MPD2     C13375   2.194   1.835  16.304  0.1477 -0.6377  0.2855
  910MPD2    C113376   2.271   1.902  16.210 -0.8868 -0.2754  0.1832
  910MPD2    C213377   2.233   2.019  16.158  0.4359  0.5184 -0.6759
  910MPD2    C313378   2.123   2.081  16.220  0.3871 -0.2772  0.0041
  910MPD2    C413379   2.048   2.019  16.318  0.0056  0.0734 -0.3174
  910MPD2    C513380   2.091   1.898  16.365  0.0052  0.2968  0.3169
  910MPD2     H13381   2.280   2.066  16.072  0.8451 -0.4645 -0.9843
  910MPD2    H113382   1.954   2.060  16.354 -0.5136 -1.6069  0.2783
  910MPD2    H213383   2.215   1.738  16.346 -0.0337  0.1491  2.2094
  910MPD2    H313384   2.039   1.848  16.445  0.3996  0.8788  0.9337
  910MPD2     N13385   2.063   2.200  16.172 -0.2951  0.1458  0.1352
  910MPD2    H513386   1.991   2.235  16.234  0.4297 -0.2058  1.1748
  910MPD2    N113387   2.383   1.833  16.149  0.3769 -0.0343 -0.6735
  910MPD2    H713388   2.420   1.864  16.060  1.6703  0.5641  0.0658
  911MPD2     C13389   0.254   2.704  16.472  0.0052 -0.0407 -0.7129
  911MPD2    C113390   0.323   2.817  16.503  0.6416  0.5104  0.3095
  911MPD2    C213391   0.264   2.939  16.511  0.4567 -1.3901 -0.3269
  911MPD2    C313392   0.132   2.958  16.488 -0.0940  0.4685  0.0460
  911MPD2    C413393   0.062   2.844  16.467  0.5270  0.3045  0.1286
  911MPD2    C513394   0.117   2.720  16.450 -0.1685 -0.0827  0.2310
  911MPD2     H13395   0.315   3.028  16.545 -0.2915 -1.8220  1.8827
  911MPD2    H113396   4.693   2.856  16.457  0.5593  0.2411 -0.2916
  911MPD2    H213397   0.302   2.607  16.476 -0.0110 -0.0028  0.2190
  911MPD2    H313398   0.058   2.631  16.433  0.7765  0.0000 -3.3674
  911MPD2     N13399   0.062   3.087  16.502 -0.2854  0.1351 -0.3873
  911MPD2    H513400   4.700   3.096  16.488 -0.0905  1.2081 -1.1656
  911MPD2    N113401   0.463   2.791  16.526 -0.5257 -0.0644 -0.5131
  911MPD2    H713402   0.495   2.695  16.518 -1.1474 -0.2632 -0.6535
  912MPD2     C13403   4.309   3.161  15.974 -0.3952  0.4858  0.2034
  912MPD2    C113404   4.358   3.123  16.100 -0.4739 -0.0744 -0.3368
  912MPD2    C213405   4.337   2.997  16.147 -0.0698  0.7596 -0.1386
  912MPD2    C313406   4.282   2.901  16.062 -0.2735 -0.4533 -0.0130
  912MPD2    C413407   4.239   2.935  15.936 -0.6143  0.0134  0.3578
  912MPD2    C513408   4.247   3.065  15.893  0.2602 -0.7548 -0.0872
  912MPD2     H13409   4.346   2.973  16.252  1.4985  0.8998 -0.2407
  912MPD2    H113410   4.207   2.852  15.874 -1.3302  0.8121 -0.3459
  912MPD2    H213411   4.339   3.254  15.927 -1.1923  0.3527 -0.5761
  912MPD2    H313412   4.217   3.089  15.792 -0.0311 -1.4384 -0.1576
  912MPD2     N13413   4.279   2.770  16.110 -0.7996 -0.2521  0.4567
  912MPD2    H513414   4.293   2.759  16.210  0.5904  0.3271  0.3258
  912MPD2    N113415   4.435   3.213  16.175 -0.0801 -0.8711 -0.1557
  912MPD2    H713416   4.435   3.304  16.129  2.3198 -0.4386  0.6930
  913MPD2     C13417   4.652   0.094  11.171  0.9620  0.5952  0.2610
  913MPD2    C113418   0.034   0.152  11.170 -0.2273  0.7740  0.0777
  913MPD2    C213419   0.067   0.232  11.061 -0.8059  0.1166  0.0544
  913MPD2    C313420   4.729   0.226  10.948  0.1580  0.2466  0.1516
  913MPD2    C413421   4.601   0.164  10.954 -0.0713  0.0708  0.2865
  913MPD2    C513422   4.569   0.100  11.068  0.8322 -0.2815 -0.9822
  913MPD2     H13423   0.169   0.262  11.044 -0.6268 -0.8372 -0.5821
  913MPD2    H113424   4.534   0.164  10.869 -1.4210 -2.6657  1.3607
  913MPD2    H213425   4.609   0.045  11.258 -1.7745 -0.6055 -1.7683
  913MPD2    H313426   4.471   0.055  11.080  1.2898 -2.1026 -4.0873
  913MPD2     N13427   0.036   0.289  10.831 -0.3417  0.0217 -0.1591
  913MPD2    H513428   0.129   0.329  10.838 -0.2508 -0.0858 -0.7561
  913MPD2    N113429   0.116   0.121  11.280  0.0796 -0.0594 -0.5422
  913MPD2    H713430   0.095   0.050  11.350 -1.7766 -1.1440 -2.2308
  914MPD2     C13431   2.896   4.694  11.810  0.3990 -0.3367  0.1447
  914MPD2    C113432   3.014   0.002  11.866 -0.3580  0.7000 -0.8146
  914MPD2    C213433   3.016   4.736  12.004  0.4665 -0.4998  0.6480
  914MPD2    C313434   2.918   4.674  12.078 -0.3870 -0.1269 -0.2124
  914MPD2    C413435   2.807   4.624  12.017 -0.1812 -0.5863  0.2332
  914MPD2    C513436   2.806   4.628  11.879  0.4856 -0.4306  0.8331
  914MPD2     H13437   3.089   0.054  12.061 -0.5608  2.4155 -0.9215
  914MPD2    H113438   2.724   4.574  12.064  1.1107  0.0808  3.2104
  914MPD2    H213439   2.880   4.694  11.703  2.0532  3.1844 -0.1280
  914MPD2    H313440   2.721   4.584  11.828  1.6124 -0.1440 -1.2947
  914MPD2     N13441   2.931   4.683  12.217  0.2707  0.3851  0.2791
  914MPD2    H513442   3.017   4.720  12.255  0.6530  1.0515 -1.2427
  914MPD2    N113443   3.100   0.080  11.787 -0.4664 -0.5445 -1.1942
  914MPD2    H713444   3.073   0.099  11.691 -1.7636  3.9780  0.0513
  915MPD2     C13445   1.584   0.131  15.875  1.4796  0.1412 -0.1744
  915MPD2    C113446   1.465   0.108  15.804  0.1811  0.3165  0.4099
  915MPD2    C213447   1.347   0.079  15.872 -0.2884 -0.5430  0.2215
  915MPD2    C313448   1.346   0.083  16.013  0.0002 -0.5369 -0.7328
  915MPD2    C413449   1.463   0.109  16.080 -0.7795 -0.4004  0.3410
  915MPD2    C513450   1.581   0.116  16.015  0.1785 -0.4791 -0.0067
  915MPD2     H13451   1.257   0.063  15.814  0.9633  1.4688 -2.2716
  915MPD2    H113452   1.466   0.109  16.189  1.4549  1.2670  0.2730
  915MPD2    H213453   1.679   0.158  15.831  0.8707  1.2341 -0.8168
  915MPD2    H313454   1.671   0.134  16.073  0.1940  0.6694 -0.3824
  915MPD2     N13455   1.217   0.072  16.083 -0.5261 -0.2707 -0.1317
  915MPD2    H513456   1.133   0.054  16.030  0.7591 -1.0623 -1.9190
  915MPD2    N113457   1.481   0.110  15.664  0.0142  0.9925  0.2937
  915MPD2    H713458   1.570   0.143  15.629  0.1246 -0.6554 -1.0321
  916MPD2     C13459   3.828   2.713  15.760  1.0073  0.1522  0.8697
  916MPD2    C113460   3.890   2.639  15.855  0.0215  0.0865 -0.2338
  916MPD2    C213461   3.951   2.513  15.822  0.3482 -0.4042  0.9057
  916MPD2    C313462   3.966   2.478  15.687 -0.0346 -0.0386  0.5771
  916MPD2    C413463   3.914   2.564  15.594  0.5822 -0.7518  0.2643
  916MPD2    C513464   3.842   2.676  15.627 -0.4566  0.1025  1.3805
  916MPD2     H13465   3.993   2.452  15.901  1.6924  0.0044  0.4973
  916MPD2    H113466   3.922   2.550  15.486 -0.3179  1.0028 -0.0363
  916MPD2    H213467   3.772   2.803  15.783  0.7362 -0.7226  3.7322
  916MPD2    H313468   3.808   2.737  15.545  1.8575 -2.2860 -1.3553
  916MPD2     N13469   4.029   2.354  15.662  0.2183 -0.1555 -1.1498
  916MPD2    H513470   4.047   2.295  15.743 -2.5629  1.2145  0.4550
  916MPD2    N113471   3.889   2.688  15.988  0.2169 -0.1737 -0.3242
  916MPD2    H713472   3.849   2.779  16.010  1.8868 -0.4956  3.8719
  917MPD2     C13473   4.180   0.760  11.865 -0.4745 -0.3125 -0.5225
  917MPD2    C113474   4.250   0.805  11.972 -0.1172  0.0576  0.3236
  917MPD2    C213475   4.357   0.889  11.952  0.0276  0.2299 -0.7351
  917MPD2    C313476   4.397   0.936  11.830 -0.2516  0.3210  0.0275
  917MPD2    C413477   4.328   0.884  11.721  0.5594 -0.4652  0.4177
  917MPD2    C513478   4.225   0.795  11.735  0.1438 -0.0867 -0.0076
  917MPD2     H13479   4.396   0.933  12.043 -1.4084  0.4034 -0.2092
  917MPD2    H113480   4.361   0.908  11.620 -2.0271 -0.8385 -0.5032
  917MPD2    H213481   4.092   0.702  11.888 -1.2055  1.7723  1.8613
  917MPD2    H313482   4.169   0.760  11.649 -0.2877 -0.2346  0.3374
  917MPD2     N13483   4.511   1.021  11.812  0.4021  0.6624 -0.6994
  917MPD2    H513484   4.527   1.044  11.715  0.9230  0.2887 -0.6997
  917MPD2    N113485   4.205   0.768  12.099 -0.6431 -0.1412 -0.5375
  917MPD2    H713486   4.142   0.688  12.097 -2.4164  1.2448 -0.6183
  918MPD2     C13487   4.073   1.374  12.265 -0.8396 -1.1527  0.6626
  918MPD2    C113488   4.197   1.335  12.316 -0.1891 -0.8898 -0.4881
  918MPD2    C213489   4.203   1.238  12.414  0.4390 -0.2355  0.0180
  918MPD2    C313490   4.092   1.177  12.464 -0.6084 -0.1219 -0.3469
  918MPD2    C413491   3.969   1.232  12.420 -0.2812 -0.3045 -0.5628
  918MPD2    C513492   3.957   1.330  12.323  0.4258 -0.2586  0.4521
  918MPD2     H13493   4.303   1.205  12.440  0.4925 -0.6854 -0.7680
  918MPD2    H113494   3.876   1.199  12.465  0.3838 -0.4808  0.6890
  918MPD2    H213495   4.061   1.443  12.182  1.4358 -0.9374  0.5008
  918MPD2    H313496   3.860   1.354  12.282 -0.0373  0.5349  2.0105
  918MPD2     N13497   4.118   1.061  12.544  0.2730  0.7006 -0.2342
  918MPD2    H513498   4.214   1.044  12.573  0.2988  1.4123  0.0943
  918MPD2    N113499   4.323   1.364  12.256 -0.0307  0.1180 -0.1205
  918MPD2    H713500   4.396   1.309  12.300 -0.5421 -0.3599  0.1394
  919MPD2     C13501   0.281   0.226  11.818  0.1652  0.1118 -0.2192
  919MPD2    C113502   0.204   0.128  11.760 -0.7614 -0.3792  0.6081
  919MPD2    C213503   0.095   0.159  11.681  0.6448 -0.1060  0.2207
  919MPD2    C313504   0.065   0.293  11.670  0.1179 -0.0287  0.9941
  919MPD2    C413505   0.156   0.388  11.716  0.1490  0.1318 -0.4831
  919MPD2    C513506   0.268   0.353  11.779  0.1906  0.5502 -0.3645
  919MPD2     H13507   0.037   0.083  11.629  1.1963 -1.2920  1.3486
  919MPD2    H113508   0.140   0.494  11.700 -3.5511 -0.6672 -2.1324
  919MPD2    H213509   0.353   0.197  11.893 -0.6469  3.0515  1.6883
  919MPD2    H313510   0.327   0.429  11.830 -1.5474 -0.0020  2.5042
  919MPD2     N13511   4.703   0.340  11.590  0.5100  0.6107 -0.1047
  919MPD2    H513512   4.713   0.435  11.557  0.9545  0.5558 -0.1255
  919MPD2    N113513   0.226   4.730  11.796 -0.1342 -0.1966 -0.3891
  919MPD2    H713514   0.152   4.666  11.768 -1.1431  0.0025  1.8174
  920MPD2     C13515   4.719   0.723  10.665  0.5543 -0.3325 -0.0041
  920MPD2    C113516   4.610   0.637  10.656  0.1625 -0.2079 -0.6348
  920MPD2    C213517   4.575   0.568  10.771 -0.2935  0.0777  0.0727
  920MPD2    C313518   4.631   0.599  10.888 -0.5595 -0.0179  0.1252
  920MPD2    C413519   0.004   0.678  10.892 -0.6009 -0.0095  0.0389
  920MPD2    C513520   0.037   0.750  10.783 -0.1792 -0.2117  1.0077
  920MPD2     H13521   4.497   0.493  10.777  1.5798 -2.0986 -2.4831
  920MPD2    H113522   0.054   0.697  10.987 -0.2319 -1.9230  0.2289
  920MPD2    H213523   0.020   0.772  10.577  1.3849  2.8511  2.1309
  920MPD2    H313524   0.124   0.815  10.784 -0.5037  0.2156  1.2853
  920MPD2     N13525   4.582   0.532  11.002 -0.2292 -0.0580 -0.6895
  920MPD2    H513526   4.511   0.463  10.981 -0.9934  0.0998  1.3636
  920MPD2    N113527   4.527   0.621  10.543  0.0686  0.4051 -0.3209
  920MPD2    H713528   4.450   0.556  10.553  0.5052  0.0209  0.5386
  921MPD2     C13529   1.359   3.306  16.783 -0.5402  0.0210  0.0439
  921MPD2    C113530   1.404   3.179  16.773  0.1423 -0.0511  0.3326
  921MPD2    C213531   1.323   3.088  16.707 -0.3759  0.4828 -0.5887
  921MPD2    C313532   1.190   3.122  16.674  0.0696 -0.0289 -0.9090
  921MPD2    C413533   1.146   3.250  16.690  0.0533 -0.3281  0.1182
  921MPD2    C513534   1.240   3.343  16.740 -0.2178  0.8440 -0.2434
  921MPD2     H13535   1.366   2.990  16.689  0.9254  0.8881  0.2378
  921MPD2    H113536   1.045   3.286  16.675 -0.5762 -1.4027  1.7036
  921MPD2    H213537   1.424   3.378  16.833  0.9399 -0.2144 -1.5601
  921MPD2    H313538   1.218   3.447  16.762  2.1461  0.6553  2.9509
  921MPD2     N13539   1.111   3.022  16.618 -0.4173  0.4791  0.6689
  921MPD2    H513540   1.148   2.928  16.620  1.4187  1.1819 -1.1172
  921MPD2    N113541   1.535   3.156  16.822  0.2294 -0.0429  0.7407
  921MPD2    H713542   1.589   3.235  16.854  1.2228  1.0350 -3.6692
  922MPD2     C13543   1.918   0.491  17.447  0.1989 -0.0340  0.1191
  922MPD2    C113544   1.888   0.602  17.371 -0.0735 -0.0483 -0.4285
  922MPD2    C213545   1.775   0.597  17.293 -0.4826  0.6929  1.1598
  922MPD2    C313546   1.691   0.491  17.293 -0.8839 -0.8417  0.0593
  922MPD2    C413547   1.728   0.379  17.360 -0.7438  0.0491 -0.3518
  922MPD2    C513548   1.839   0.377  17.440  0.8604 -0.0748 -0.1361
  922MPD2     H13549   1.747   0.691  17.247  0.6689  1.1104  1.3063
  922MPD2    H113550   1.673   0.286  17.352 -0.2041 -0.0779 -2.5979
  922MPD2    H213551   2.008   0.487  17.507  1.8982  0.6400 -2.4051
  922MPD2    H313552   1.870   0.280  17.477 -1.7765 -0.2506  1.6078
  922MPD2     N13553   1.574   0.502  17.217 -0.9796 -0.3897  0.0853
  922MPD2    H513554   1.553   0.593  17.176 -0.1969  0.5000  1.6531
  922MPD2    N113555   1.961   0.724  17.370 -0.5178 -0.3258  0.1530
  922MPD2    H713556   1.925   0.793  17.304  0.1760 -0.6899 -0.6060
  923MPD2     C13557   3.099   4.385   9.283 -0.1719  0.1554 -0.1651
  923MPD2    C113558   3.167   4.432   9.392  0.2242  0.2193  0.2148
  923MPD2    C213559   3.298   4.384   9.405 -0.1564  0.0696 -0.7787
  923MPD2    C313560   3.348   4.289   9.322 -0.3732  0.3414  0.1139
  923MPD2    C413561   3.284   4.256   9.208 -0.6190 -0.4145 -0.5624
  923MPD2    C513562   3.156   4.302   9.192 -0.4125  0.3063 -1.1314
  923MPD2     H13563   3.363   4.418   9.484  1.9344 -2.8330 -1.2514
  923MPD2    H113564   3.317   4.179   9.139  0.9480  2.1698 -2.6897
  923MPD2    H213565   2.998   4.420   9.264 -0.2777 -0.8697 -1.5073
  923MPD2    H313566   3.090   4.262   9.116  0.6291 -2.5249 -0.5498
  923MPD2     N13567   3.472   4.227   9.332  0.3047 -0.2791  0.1353
  923MPD2    H513568   3.486   4.149   9.269 -1.5688 -1.5738  1.2996
  923MPD2    N113569   3.102   4.528   9.478  0.1399 -0.5500  0.7801
  923MPD2    H713570   3.006   4.544   9.450  0.8912 -1.3336 -2.3213
  924MPD2     C13571   3.280   1.594  14.892 -0.7550 -0.1848  0.2070
  924MPD2    C113572   3.337   1.527  15.000 -0.1434  0.5757 -0.2502
  924MPD2    C213573   3.404   1.598  15.102 -0.4946 -0.7095  0.7614
  924MPD2    C313574   3.410   1.732  15.107 -0.7792  0.7135 -0.2127
  924MPD2    C413575   3.358   1.798  14.996  0.3698  0.1156 -0.0027
  924MPD2    C513576   3.294   1.731  14.897 -0.3508  0.1437  0.2236
  924MPD2     H13577   3.462   1.543  15.176  0.0136 -0.2305  0.7168
  924MPD2    H113578   3.369   1.906  14.992 -3.3375  0.4446 -0.7889
  924MPD2    H213579   3.233   1.537  14.813  2.0622 -0.3999 -1.3021
  924MPD2    H313580   3.256   1.785  14.811 -1.0827  1.9733  1.6998
  924MPD2     N13581   3.445   1.814  15.217 -0.7357  0.2261  0.1733
  924MPD2    H513582   3.403   1.906  15.208  1.4284  1.0888 -1.1848
  924MPD2    N113583   3.309   1.387  15.009 -0.1076 -0.3124  0.4237
  924MPD2    H713584   3.227   1.344  14.965 -0.2962 -0.6430  1.0913
  925MPD2     C13585   2.219   3.562  14.627  0.3805  0.1369  0.6079
  925MPD2    C113586   2.139   3.672  14.595 -0.2092  0.1320  0.3187
  925MPD2    C213587   2.055   3.726  14.691  0.3221 -0.0623  0.5715
  925MPD2    C313588   2.052   3.682  14.822 -0.1429 -0.5818 -0.0677
  925MPD2    C413589   2.124   3.567  14.850 -0.0476  0.0071  0.3212
  925MPD2    C513590   2.205   3.508  14.753 -0.5785  0.1822  0.5822
  925MPD2     H13591   1.994   3.808  14.653 -0.7758 -1.7726 -1.3301
  925MPD2    H113592   2.129   3.526  14.951 -0.0291  0.5055  0.5209
  925MPD2    H213593   2.284   3.514  14.556 -0.2095 -1.0145  0.8541
  925MPD2    H313594   2.266   3.420  14.767 -0.5393 -0.0168 -0.8155
  925MPD2     N13595   1.977   3.744  14.929  0.1698 -0.1056 -0.3779
  925MPD2    H513596   1.987   3.699  15.019  1.7750 -0.3065 -0.6486
  925MPD2    N113597   2.131   3.715  14.461 -0.7496  0.3474  0.7697
  925MPD2    H713598   2.080   3.802  14.452  0.3081  0.8573 -0.2671
  926MPD2     C13599   0.786   2.466  14.074  0.1841  0.4160  0.0622
  926MPD2    C113600   0.680   2.470  13.979 -0.3011  0.0105  0.0444
  926MPD2    C213601   0.717   2.473  13.845 -0.8775 -0.2414  0.8279
  926MPD2    C313602   0.850   2.472  13.811  0.3483  0.7814 -1.5110
  926MPD2    C413603   0.947   2.449  13.904 -0.2220 -0.4364  0.3045
  926MPD2    C513604   0.918   2.466  14.036 -0.1960  0.0726  0.0544
  926MPD2     H13605   0.631   2.477  13.779  1.1169  0.3402 -1.7047
  926MPD2    H113606   1.053   2.449  13.877  0.0929  0.6578  1.5384
  926MPD2    H213607   0.764   2.470  14.180  2.4838 -1.4339  0.5940
  926MPD2    H313608   0.997   2.458  14.109  0.0530  1.5396 -0.0442
  926MPD2     N13609   0.895   2.491  13.679 -0.8133  0.0708  0.0231
  926MPD2    H513610   0.993   2.514  13.669 -0.3848 -1.5101  0.6756
  926MPD2    N113611   0.542   2.466  14.011 -0.2776  0.1690  0.0903
  926MPD2    H713612   0.480   2.448  13.932  0.1458 -0.6525 -0.0525
  927MPD2     C13613   0.084   4.379   0.032  0.0629  0.5487 -0.3207
  927MPD2    C113614   0.086   4.275  17.695 -0.1699 -0.2060 -0.0943
  927MPD2    C213615   0.152   4.287  17.572 -0.0755  0.8666 -0.4343
  927MPD2    C313616   0.217   4.404  17.533 -0.6508  0.3635 -0.5484
  927MPD2    C413617   0.205   4.514  17.620 -0.5206 -0.2785  0.0867
  927MPD2    C513618   0.142   4.499  17.743  0.4043  0.0556 -0.4217
  927MPD2     H13619   0.136   4.206  17.502  2.7075  1.0447 -1.2738
  927MPD2    H113620   0.255   4.604  17.586  2.4175 -1.2014  1.9243
  927MPD2    H213621   0.041   4.373   0.131 -0.1156  2.0297 -0.3052
  927MPD2    H313622   0.149   4.582   0.061 -0.3245  0.9255 -1.3993
  927MPD2     N13623   0.296   4.404  17.413  0.9747  0.7707  0.3149
  927MPD2    H513624   0.324   4.496  17.381  0.0702  0.5233 -1.1858
  927MPD2    N113625   0.024   4.159  17.741  0.6237  0.4014 -0.4198
  927MPD2    H713626   4.720   4.164   0.081  1.1911 -0.2794 -0.1207
  928MPD2     C13627   3.270   1.905   0.600 -0.8046  0.3103 -0.3413
  928MPD2    C113628   3.336   2.021   0.631  0.5887  0.3330 -0.2202
  928MPD2    C213629   3.337   2.121   0.531 -0.0873 -0.0380 -0.1011
  928MPD2    C313630   3.268   2.111   0.412  0.1369  0.7625 -0.0332
  928MPD2    C413631   3.210   1.990   0.383 -0.1773 -0.1174 -0.3356
  928MPD2    C513632   3.216   1.890   0.476 -0.0197  0.1466  0.0983
  928MPD2     H13633   3.398   2.208   0.550  2.9879 -2.2936  0.5197
  928MPD2    H113634   3.180   1.969   0.281 -0.4060 -2.2366  0.1611
  928MPD2    H213635   3.263   1.820   0.668 -2.6052  0.0542 -0.8310
  928MPD2    H313636   3.173   1.792   0.455 -0.1518  0.1881  0.1722
  928MPD2     N13637   3.271   2.207   0.312  0.6246  0.3865 -0.0241
  928MPD2    H513638   3.224   2.183   0.225  1.1606  0.8270 -0.4363
  928MPD2    N113639   3.392   2.025   0.760  0.2998 -0.0244 -0.0805
  928MPD2    H713640   3.368   1.950   0.824  1.4838  1.3969  2.0240
  929MPD2     C13641   3.582   4.084  10.478  0.0143 -0.1590 -0.9496
  929MPD2    C113642   3.465   4.014  10.453 -0.4407  0.2983 -0.1243
  929MPD2    C213643   3.381   4.050  10.352  0.5165 -0.6133 -0.4320
  929MPD2    C313644   3.408   4.168  10.286  0.5779  0.1572 -0.4512
  929MPD2    C413645   3.530   4.235  10.302  0.2676  0.0629 -0.1323
  929MPD2    C513646   3.614   4.192  10.400 -0.6302 -0.2677  0.3780
  929MPD2     H13647   3.283   4.002  10.350 -0.1666  0.7320  0.6661
  929MPD2    H113648   3.560   4.326  10.250  2.0440 -0.5623 -0.1606
  929MPD2    H213649   3.650   4.055  10.556 -1.4084 -1.1994 -0.0954
  929MPD2    H313650   3.709   4.241  10.414 -1.0352  0.2339  1.3289
  929MPD2     N13651   3.330   4.210  10.176 -1.0156  0.1822 -0.1752
  929MPD2    H513652   3.353   4.298  10.132  0.2923 -1.2322 -2.2713
  929MPD2    N113653   3.426   3.907  10.531  0.0497 -0.0461  0.0306
  929MPD2    H713654   3.331   3.873  10.516 -0.2190  1.9523 -2.7505
  930MPD2     C13655   0.014   0.642  13.929 -0.1171  0.6153 -0.1432
  930MPD2    C113656   0.124   0.644  13.835 -0.5699 -0.0065 -0.0350
  930MPD2    C213657   0.134   0.563  13.730 -0.1470  0.7382  0.2001
  930MPD2    C313658   0.026   0.490  13.691  0.2663 -0.0044 -0.3967
  930MPD2    C413659   4.650   0.496  13.768  0.5547 -0.3487  0.2948
  930MPD2    C513660   4.646   0.566  13.887  0.4965  0.9845 -0.1481
  930MPD2     H13661   0.229   0.547  13.680 -0.2165  0.9306  0.0072
  930MPD2    H113662   4.569   0.427  13.747  1.6677 -1.4668 -0.3344
  930MPD2    H213663   0.011   0.707  14.016 -1.3165  0.1129  0.1897
  930MPD2    H313664   4.555   0.563  13.945 -0.7122 -0.4282 -2.1273
  930MPD2     N13665   0.010   0.415  13.573 -0.3443  0.0893 -0.1901
  930MPD2    H513666   4.681   0.339  13.580  1.7799 -1.8136 -0.6566
  930MPD2    N113667   0.227   0.737  13.862  0.2202  0.1365  0.6271
  930MPD2    H713668   0.200   0.800  13.938  0.1235  1.2394 -0.3251
  931MPD2     C13669   0.357   3.516  17.743 -0.1147 -0.2807  0.5360
  931MPD2    C113670   0.243   3.520   0.074 -0.3177  0.4061 -0.4102
  931MPD2    C213671   0.253   3.490   0.214 -0.0791 -0.2776 -0.3756
  931MPD2    C313672   0.375   3.443   0.263  0.0773  0.1432  0.8273
  931MPD2    C413673   0.485   3.442   0.179  0.5646  0.1675  0.4053
  931MPD2    C513674   0.476   3.473   0.047 -0.4234  0.4197 -0.1431
  931MPD2     H13675   0.166   3.467   0.274  0.0991 -0.0220 -0.0199
  931MPD2    H113676   0.576   3.395   0.215 -0.3176 -0.6858  1.5376
  931MPD2    H213677   0.359   3.558  17.643  0.7093 -0.0266  0.6626
  931MPD2    H313678   0.565   3.461  17.738 -1.5260 -2.1955 -1.2446
  931MPD2     N13679   0.392   3.392   0.392 -0.4703  0.3180  0.3255
  931MPD2    H513680   0.482   3.350   0.411 -0.8834 -0.8804 -0.3725
  931MPD2    N113681   0.126   3.558   0.010  0.4605 -0.6598 -0.7833
  931MPD2    H713682   0.132   3.590  17.666  0.2737 -0.6666 -0.7971
  932MPD2     C13683   1.713   0.016  11.714  0.7724  0.9069 -0.6751
  932MPD2    C113684   1.810   4.699  11.642 -0.0016  0.2243  0.0828
  932MPD2    C213685   1.791   4.576  11.588  0.1564 -0.3819  0.0901
  932MPD2    C313686   1.673   4.509  11.612 -0.0847 -0.5038  0.6608
  932MPD2    C413687   1.573   4.568  11.677 -0.1539  0.5863  0.7560
  932MPD2    C513688   1.586   4.693  11.719 -0.2944 -0.4246  0.2119
  932MPD2     H13689   1.871   4.530  11.530  0.0420  2.0984 -2.0202
  932MPD2    H113690   1.478   4.519  11.698  0.7856 -0.6780  2.0043
  932MPD2    H213691   1.708   0.111  11.765  0.1233  0.0621  0.8224
  932MPD2    H313692   1.506   0.004  11.772 -0.1776  0.9444 -0.8831
  932MPD2     N13693   1.652   4.377  11.576  0.2569 -0.0496 -0.0780
  932MPD2    H513694   1.567   4.334  11.612  1.4317 -0.5104  2.1809
  932MPD2    N113695   1.935   0.025  11.626 -0.0559 -0.1237 -0.5958
  932MPD2    H713696   2.016   4.716  11.587  0.5024  1.0191 -0.8113
  933MPD2     C13697   3.427   1.677   1.356  0.2052 -0.1504 -0.0197
  933MPD2    C113698   3.338   1.732   1.269  0.2869  0.0453 -0.3740
  933MPD2    C213699   3.233   1.652   1.227 -0.3495 -0.2839  0.3475
  933MPD2    C313700   3.202   1.529   1.281 -0.1500  0.5026  0.3100
  933MPD2    C413701   3.293   1.481   1.379 -0.0994 -0.0113 -0.5208
  933MPD2    C513702   3.404   1.553   1.413  0.1920 -0.9494 -0.0459
  933MPD2     H13703   3.171   1.687   1.146 -0.2633 -0.1715  0.3306
  933MPD2    H113704   3.278   1.384   1.425  2.0162 -1.3594 -2.7078
  933MPD2    H213705   3.510   1.738   1.389  0.8605 -1.0549 -0.0113
  933MPD2    H313706   3.473   1.511   1.486  0.9527 -1.2412 -0.9378
  933MPD2     N13707   3.091   1.467   1.227 -0.6341 -0.4320  0.6454
  933MPD2    H513708   3.026   1.515   1.166  0.9658  0.8698  0.0016
  933MPD2    N113709   3.346   1.867   1.216 -0.1879 -0.2667  0.2550
  933MPD2    H713710   3.294   1.879   1.129 -0.4454  0.2695  0.4826
  934MPD2     C13711   4.338   0.496   1.953  0.2491  0.2471 -0.7662
  934MPD2    C113712   4.339   0.367   1.898  1.1248 -0.3747  0.2498
  934MPD2    C213713   4.225   0.312   1.853  0.9032  0.0612 -0.6006
  934MPD2    C313714   4.101   0.377   1.877 -0.7420 -0.2818  0.6254
  934MPD2    C413715   4.103   0.510   1.920  0.4835  0.5114 -0.7224
  934MPD2    C513716   4.222   0.569   1.957  0.0583  0.0507 -0.3898
  934MPD2     H13717   4.225   0.220   1.796  0.0099 -1.4326  1.7961
  934MPD2    H113718   4.011   0.566   1.930  1.3760  1.8354  0.0399
  934MPD2    H213719   4.426   0.547   1.990  1.4755 -1.8749 -0.7944
  934MPD2    H313720   4.213   0.664   2.010  0.4056  0.1402 -0.4930
  934MPD2     N13721   3.975   0.328   1.831 -0.2892 -0.0975 -0.0916
  934MPD2    H513722   3.902   0.392   1.802 -0.0478  0.4894  0.5960
  934MPD2    N113723   4.461   0.298   1.872 -0.4690 -0.2796  0.3280
  934MPD2    H713724   4.459   0.203   1.837  4.2928 -1.4484  3.1570
  935MPD2     C13725   3.794   4.294   1.241 -0.3191 -0.7736  0.2463
  935MPD2    C113726   3.663   4.342   1.263  0.2895 -0.4866 -0.2987
  935MPD2    C213727   3.647   4.438   1.363  0.1567  0.6767  0.2759
  935MPD2    C313728   3.755   4.472   1.446  0.5196  0.6708  0.0232
  935MPD2    C413729   3.876   4.415   1.426  0.6516  0.0092  0.0435
  935MPD2    C513730   3.901   4.324   1.328 -0.0106  0.6303  0.1611
  935MPD2     H13731   3.551   4.487   1.364 -1.3729 -2.3521  2.0835
  935MPD2    H113732   3.959   4.433   1.493  0.5647  0.5388  0.0129
  935MPD2    H213733   3.817   4.222   1.163 -1.0392 -0.7000 -0.0328
  935MPD2    H313734   3.995   4.270   1.324  0.8493  1.9236  3.5641
  935MPD2     N13735   3.746   4.576   1.547  0.3612  0.0165  0.3135
  935MPD2    H513736   3.831   4.596   1.598  1.1046  1.9791 -1.7338
  935MPD2    N113737   3.549   4.298   1.194  0.4548 -0.2191 -0.0661
  935MPD2    H713738   3.459   4.337   1.218  1.2684  1.5761  0.1397
  936MPD2     C13739   2.456   2.922  12.558 -0.0226  0.1568 -0.4445
  936MPD2    C113740   2.522   2.827  12.637  0.3928 -0.4854 -0.3089
  936MPD2    C213741   2.658   2.806  12.616  0.1836 -1.2765  0.2357
  936MPD2    C313742   2.733   2.891  12.530 -0.5521  1.1017  0.3212
  936MPD2    C413743   2.664   2.988  12.457 -0.2494 -0.1580  0.0988
  936MPD2    C513744   2.524   3.001  12.471  0.2850 -0.6059 -0.4322
  936MPD2     H13745   2.700   2.736  12.687  0.2121  2.5913  4.0662
  936MPD2    H113746   2.708   3.050  12.380 -0.5188 -0.7152 -0.5017
  936MPD2    H213747   2.350   2.941  12.563 -0.2764 -1.2902 -0.2208
  936MPD2    H313748   2.481   3.077  12.406  2.4765  2.1899  1.3733
  936MPD2     N13749   2.871   2.873  12.501  0.2565 -0.8035  0.7117
  936MPD2    H513750   2.911   2.930  12.427 -0.3483 -0.2041  0.8526
  936MPD2    N113751   2.470   2.742  12.733 -0.6772 -0.0145  0.1894
  936MPD2    H713752   2.532   2.682  12.787  0.4160  1.6247  0.7633
  937MPD2     C13753   0.830   4.163  11.767  0.0144 -0.0681 -0.0939
  937MPD2    C113754   0.758   4.255  11.692  0.2285  0.0962 -0.2264
  937MPD2    C213755   0.827   4.329  11.599 -0.1678 -0.1355  0.0977
  937MPD2    C313756   0.963   4.319  11.566 -0.9725  0.5206  0.9972
  937MPD2    C413757   1.034   4.219  11.625 -0.0649  0.7538 -0.3094
  937MPD2    C513758   0.963   4.144  11.724 -0.3483  0.8769 -0.8759
  937MPD2     H13759   0.778   4.410  11.548 -0.0769 -0.0138  0.2046
  937MPD2    H113760   1.140   4.200  11.612 -0.0869 -0.9462  1.9098
  937MPD2    H213761   0.795   4.097  11.845 -1.9340  1.5824  0.4225
  937MPD2    H313762   1.017   4.059  11.765 -0.7969  0.1141 -1.8519
  937MPD2     N13763   1.019   4.411  11.472  1.0974 -0.0689  0.3060
  937MPD2    H513764   0.960   4.490  11.449  0.8046 -0.8649 -1.6715
  937MPD2    N113765   0.631   4.289  11.727  0.3195 -0.3893  0.2929
  937MPD2    H713766   0.595   4.365  11.670 -1.4458  0.1715  2.1700
  938MPD2     C13767   3.252   4.427   0.918 -0.1834 -0.0099  0.2750
  938MPD2    C113768   3.197   4.434   1.042 -0.3986  0.2945 -0.1087
  938MPD2    C213769   3.081   4.363   1.077 -0.6255  0.9106  0.7507
  938MPD2    C313770   3.013   4.288   0.987 -0.8817  0.1409 -0.4738
  938MPD2    C413771   3.062   4.291   0.857 -0.3485 -0.0507  0.7411
  938MPD2    C513772   3.175   4.362   0.825  0.3060 -0.4396 -0.5974
  938MPD2     H13773   3.047   4.356   1.180  0.3976 -0.2363  1.0170
  938MPD2    H113774   3.020   4.231   0.777  2.3675  0.5012 -1.1251
  938MPD2    H213775   3.340   4.483   0.887 -0.5101 -0.3056 -1.1689
  938MPD2    H313776   3.203   4.365   0.720 -0.9075  2.4706 -0.8215
  938MPD2     N13777   2.897   4.210   1.025  0.1259 -0.2007  0.0823
  938MPD2    H513778   2.867   4.156   0.945  0.8171 -0.1209 -0.2351
  938MPD2    N113779   3.251   4.518   1.134 -0.4698 -0.7932  0.4874
  938MPD2    H713780   3.194   4.517   1.217 -2.6264 -2.4590 -1.0103
  939MPD2     C13781   0.406   1.372   1.361 -0.5287 -0.5215 -0.0278
  939MPD2    C113782   0.327   1.464   1.289  0.1642 -1.3937 -0.4784
  939MPD2    C213783   0.308   1.445   1.154  0.0099 -0.2800 -0.7014
  939MPD2    C313784   0.377   1.352   1.085 -0.3122  0.0712  0.1055
  939MPD2    C413785   0.454   1.264   1.151 -0.0133  0.0067  0.2954
  939MPD2    C513786   0.467   1.271   1.288  0.0109 -0.1667 -0.3891
  939MPD2     H13787   0.253   1.518   1.096 -1.8393 -2.3382 -1.5324
  939MPD2    H113788   0.491   1.172   1.107 -0.1813  0.7475 -1.4050
  939MPD2    H213789   0.409   1.364   1.469 -0.3224  1.7197  0.1329
  939MPD2    H313790   0.509   1.177   1.322 -3.2632 -1.8601 -1.0505
  939MPD2     N13791   0.350   1.347   0.947 -0.6582 -0.9601  0.6996
  939MPD2    H513792   0.282   1.417   0.919 -0.8557 -1.6521 -0.5778
  939MPD2    N113793   0.244   1.556   1.368  0.7245 -0.4495  0.3561
  939MPD2    H713794   0.254   1.544   1.468  0.9108 -0.5914  0.3195
  940MPD2     C13795   4.007   2.239  12.764  0.4162 -0.2655  0.6660
  940MPD2    C113796   3.876   2.243  12.808 -0.2299 -0.1150 -0.9436
  940MPD2    C213797   3.770   2.263  12.718  0.2230  0.3374 -0.3682
  940MPD2    C313798   3.804   2.290  12.584  0.1879  0.1109 -0.4735
  940MPD2    C413799   3.936   2.304  12.545  0.7006 -0.0514 -0.3450
  940MPD2    C513800   4.036   2.270  12.636  0.2284 -0.6304  0.0977
  940MPD2     H13801   3.669   2.259  12.756  2.0067  2.7220  4.7794
  940MPD2    H113802   3.963   2.341  12.447  0.6703  0.4602 -0.1586
  940MPD2    H213803   4.094   2.217  12.824  0.8154 -1.1122 -0.2200
  940MPD2    H313804   4.136   2.284  12.598  0.3863  0.7352  0.9806
  940MPD2     N13805   3.716   2.338  12.489  0.9095  0.0409  0.3590
  940MPD2    H513806   3.760   2.363  12.400  0.6165 -1.5102 -0.2255
  940MPD2    N113807   3.841   2.217  12.943 -0.5295 -0.3077  0.3192
  940MPD2    H713808   3.747   2.217  12.982 -0.4903  1.3020  0.4211
  941MPD2     C13809   3.048   2.055   9.440  0.2064  0.1198  0.1643
  941MPD2    C113810   3.081   2.043   9.574 -0.2261 -0.1621  0.7052
  941MPD2    C213811   2.993   1.989   9.664  0.5141  0.2979  0.1187
  941MPD2    C313812   2.868   1.946   9.616  0.3551  0.0917  0.1396
  941MPD2    C413813   2.836   1.962   9.481 -0.5215  0.6791 -0.7656
  941MPD2    C513814   2.929   2.006   9.395  0.4273 -0.1727  0.2119
  941MPD2     H13815   3.014   1.990   9.770  1.2524  0.9502 -0.0298
  941MPD2    H113816   2.741   1.929   9.442  0.3268 -0.2932 -2.0343
  941MPD2    H213817   3.115   2.090   9.363 -2.1188  2.5938 -0.7234
  941MPD2    H313818   2.900   2.013   9.291  1.1494 -0.4186 -0.0089
  941MPD2     N13819   2.763   1.901   9.696  0.5016  0.5781 -0.6040
  941MPD2    H513820   2.684   1.860   9.646 -0.8091  1.1819  0.9650
  941MPD2    N113821   3.187   2.111   9.638 -0.1807  0.4582  0.6206
  941MPD2    H713822   3.211   2.084   9.732  0.5941 -1.2941 -0.0898
  942MPD2     C13823   2.434   4.213   9.812 -0.0699 -0.5060 -0.2403
  942MPD2    C113824   2.502   4.323   9.758  0.2760 -0.1807 -0.5244
  942MPD2    C213825   2.626   4.302   9.704  0.7910 -0.2297 -0.4146
  942MPD2    C313826   2.684   4.174   9.695  0.0492  0.4611 -0.0910
  942MPD2    C413827   2.607   4.069   9.742 -1.1394  0.1178  0.4132
  942MPD2    C513828   2.484   4.089   9.801 -0.3416  0.5581 -0.9135
  942MPD2     H13829   2.675   4.389   9.663 -0.5818  0.6812 -0.1180
  942MPD2    H113830   2.644   3.969   9.729  0.8925  1.0760 -1.1486
  942MPD2    H213831   2.331   4.217   9.847  1.0335  0.3144  2.8827
  942MPD2    H313832   2.429   4.013   9.857 -1.8017  2.3233  0.0494
  942MPD2     N13833   2.815   4.147   9.645 -0.2872  0.0609  1.2203
  942MPD2    H513834   2.833   4.047   9.642  0.1332  0.1527  0.6478
  942MPD2    N113835   2.462   4.459   9.757 -0.3522 -0.3368 -0.1110
  942MPD2    H713836   2.522   4.521   9.704 -1.0574  1.0207  0.6852
  943MPD2     C13837   4.636   1.728   9.694  0.1616  0.1642  0.6430
  943MPD2    C113838   0.003   1.650   9.724  1.1515  0.4900 -0.1836
  943MPD2    C213839   0.129   1.713   9.735  0.5523 -0.1375 -0.3933
  943MPD2    C313840   0.143   1.847   9.717 -0.0110  0.2346 -0.0857
  943MPD2    C413841   0.032   1.924   9.691  0.4614  0.2509  0.1314
  943MPD2    C513842   4.652   1.865   9.669  0.2140 -0.4871 -0.7633
  943MPD2     H13843   0.221   1.665   9.767  0.9802  0.5730 -0.5438
  943MPD2    H113844   0.032   2.032   9.679 -1.3476  0.2919  0.5454
  943MPD2    H213845   4.534   1.691   9.682  0.4524 -0.0360 -1.2650
  943MPD2    H313846   4.562   1.924   9.657 -0.8432 -2.0389 -0.5590
  943MPD2     N13847   0.269   1.920   9.733 -0.7944  0.4784 -0.6174
  943MPD2    H513848   0.261   2.020   9.717  0.8927  0.0843 -3.8750
  943MPD2    N113849   4.725   1.506   9.735  0.1796 -0.3623 -0.4727
  943MPD2    H713850   4.634   1.465   9.717 -0.1865 -0.4394  1.5712
  944MPD2     C13851   0.688   1.296  11.099  0.1015 -0.0471  0.5424
  944MPD2    C113852   0.722   1.250  11.227 -0.1912 -0.1518  0.3129
  944MPD2    C213853   0.728   1.339  11.331 -1.3170 -0.2712  0.1381
  944MPD2    C313854   0.718   1.480  11.313 -0.0677  0.3450  0.8389
  944MPD2    C413855   0.687   1.517  11.187 -0.6678  0.1621  0.1672
  944MPD2    C513856   0.679   1.433  11.082  0.5106 -0.1767  0.3339
  944MPD2     H13857   0.741   1.307  11.434  1.0118  0.2521 -0.0101
  944MPD2    H113858   0.686   1.623  11.164  1.5611  0.6526  2.3808
  944MPD2    H213859   0.677   1.223  11.020 -0.2697 -0.0600  0.6080
  944MPD2    H313860   0.651   1.472  10.985 -0.7503 -2.5008 -0.2531
  944MPD2     N13861   0.737   1.575  11.421  0.4691 -1.0288  0.1230
  944MPD2    H513862   0.759   1.531  11.509  2.0697 -0.8578 -0.1994
  944MPD2    N113863   0.758   1.111  11.235  0.2865 -0.3327  0.5998
  944MPD2    H713864   0.743   1.058  11.150 -1.1976 -0.5662  0.9924
    1TMC1    C113865   4.353   1.430  14.892 -0.5567  0.6256  0.4978
    1TMC1    C213866   4.419   1.382  15.000 -0.5936 -0.2254 -0.1915
    1TMC1    C313867   4.351   1.396  15.120  0.3443 -0.4552 -0.6410
    1TMC1    C413868   4.222   1.471  14.895 -0.1896 -0.3384 -0.0786
    1TMC1    C513869   4.164   1.484  15.019 -0.0541  0.4805 -0.4875
    1TMC1    C613870   4.226   1.450  15.137  0.5147  0.5706  0.3218
    1TMC1     C13871   4.434   1.454  14.777 -0.3429  0.1295 -0.7610
    1TMC1     O13872   4.541   1.396  14.760 -0.3782  0.0658  0.4209
    1TMC1     H13873   4.519   1.344  14.985  0.1009  0.6504  2.3591
    1TMC1    H113874   4.164   1.480  14.804 -0.7598  2.6443  0.5628
    1TMC1    H213875   4.180   1.451  15.235  1.2060  0.3150  0.6394
    1TMC1    C713876   4.021   1.482  15.029 -0.4972 -0.2011 -1.0574
    1TMC1    C813877   4.448   1.436  15.221 -0.0777  0.1437  0.5287
    1TMC1    O113878   3.960   1.400  15.101 -0.2142  0.5737  0.1695
    1TMC1    O213879   4.566   1.464  15.187  0.2621 -0.2172  0.0559
    1TMC1    O313880   3.979   1.600  14.975  0.1468 -0.2004 -0.4560
    1TMC1    H313881   4.042   1.647  14.917 -1.8206  3.2906  0.2304
    1TMC1    O513882   4.384   1.498  15.325  0.5210 -0.0013  0.0024
    1TMC1    H513883   4.294   1.459  15.332 -0.5260  2.5702  0.9108
    2MPD2     C13884   4.436   1.646  14.320  0.5933 -0.0241 -0.1823
    2MPD2    C113885   4.330   1.704  14.393  0.5677 -0.0071  0.1715
    2MPD2    C213886   4.328   1.678  14.528 -0.7806  0.3196 -0.4517
    2MPD2    C313887   4.423   1.600  14.587 -0.2412 -0.2974  0.6998
    2MPD2    C413888   4.536   1.550  14.523  0.2537  0.4745  0.6750
    2MPD2    C513889   4.539   1.573  14.386 -0.2545 -0.6058  0.5861
    2MPD2     H13890   4.252   1.718  14.594  0.0581  0.3772  0.4721
    2MPD2    H113891   4.613   1.491  14.571  0.4456 -0.1187 -0.3523
    2MPD2    H213892   4.438   1.652  14.212  0.1311 -0.6875 -0.2320
    2MPD2    H313893   4.619   1.539  14.320 -0.3164  0.1517  0.1269
    2MPD2     N13894   4.386   1.567  14.716 -0.2597  1.0945  0.2765
    2MPD2    H513895   4.298   1.603  14.752  0.2964  2.0882  0.6359
    2MPD2    N113896   4.231   1.777  14.324 -0.0373  0.1984 -0.6678
    2MPD2    H713897   4.261   1.810  14.233  2.2220  1.5133  0.5398
    3TMC2    C113898   4.029   1.905  14.302  0.7590 -0.2931  0.0105
    3TMC2    C213899   3.900   1.905  14.337 -0.4871 -0.4963 -0.2714
    3TMC2    C313900   3.822   1.986  14.266  0.0453  0.5842 -0.2972
    3TMC2    C413901   4.088   1.990  14.212 -0.2716 -0.5567 -0.3437
    3TMC2    C513902   4.012   2.077  14.147  0.4822  0.6404 -0.1695
    3TMC2    C613903   3.873   2.084  14.173 -0.6506 -0.4801  0.0675
    3TMC2     C13904   4.109   1.808  14.373 -0.3633  0.8375 -0.5896
    3TMC2     O13905   4.066   1.762  14.477  0.5521 -0.1473 -0.0792
    3TMC2     H13906   3.860   1.843  14.417  0.4076  0.5957  1.0286
    3TMC2    H113907   4.192   1.979  14.182 -0.7221  0.5188 -2.2580
    3TMC2    H213908   3.799   2.142  14.120 -1.2973 -2.8556 -1.6383
    3TMC2    C713909   4.058   2.118  14.012  0.6564  0.7967  0.1540
    3TMC2    C813910   3.686   2.015  14.317 -0.8967 -0.8483  0.6292
    3TMC2    O113911   4.168   2.082  13.979  0.2094 -0.9171  0.1199
    3TMC2    O213912   3.602   2.061  14.239 -0.1709  0.6727 -0.2756
    3TMC2    O513913   3.720   2.073  14.434 -0.2346  0.6085  0.1677
    3TMC2    H513914   3.782   2.028  14.495  1.5076 -0.9198 -2.6980
    4TMC2    C113915   3.353   2.736  13.727  0.6080  0.4927 -0.1712
    4TMC2    C213916   3.410   2.848  13.694 -0.2786  0.2142 -0.5299
    4TMC2    C313917   3.537   2.853  13.646 -0.3964  0.9949 -0.2742
    4TMC2    C413918   3.422   2.620  13.741 -0.0983  0.0891  0.1021
    4TMC2    C513919   3.544   2.619  13.685 -0.4925 -0.6657  1.0749
    4TMC2    C613920   3.607   2.731  13.639 -0.5491  0.4454  0.1014
    4TMC2     C13921   3.208   2.728  13.721  0.4698  0.3682  0.1334
    4TMC2     O13922   3.151   2.622  13.742 -0.3259 -0.3539  0.6099
    4TMC2     H13923   3.353   2.940  13.703 -1.4759 -0.7673  1.8071
    4TMC2    H113924   3.378   2.533  13.790  0.3395 -0.1426  0.0761
    4TMC2    H213925   3.703   2.726  13.590 -0.2677  1.1559  0.5839
    4TMC2    C713926   3.625   2.498  13.712  0.6588  0.1656 -0.1450
    4TMC2    C813927   3.571   2.958  13.557  0.1052 -0.2106 -0.5258
    4TMC2    O113928   3.570   2.405  13.769 -0.1793 -0.0485  0.4108
    4TMC2    O213929   3.609   2.950  13.440 -0.0474  0.3239 -0.6718
    4TMC2    O513930   3.559   3.069  13.625  0.0474 -0.1103  0.4872
    4TMC2    H513931   3.527   3.056  13.717  3.1087  0.0900  1.5627
    5MPD2     C13932   2.762   2.832  13.524  0.7336 -0.2151  0.0130
    5MPD2    C113933   2.851   2.930  13.471 -0.1495 -0.7603 -0.0971
    5MPD2    C213934   2.981   2.936  13.518  0.4545 -0.6592 -0.2122
    5MPD2    C313935   3.015   2.837  13.611 -0.0857  0.4444  0.1180
    5MPD2    C413936   2.922   2.749  13.666 -0.2081  0.5810  0.1694
    5MPD2    C513937   2.799   2.745  13.620 -0.2617  0.1314  0.3134
    5MPD2     H13938   3.058   3.004  13.483 -0.2663  0.1073 -0.3138
    5MPD2    H113939   2.942   2.676  13.744 -0.0507 -1.1459 -1.4804
    5MPD2    H213940   2.658   2.840  13.494  1.1566  0.4768 -1.2741
    5MPD2    H313941   2.724   2.678  13.661 -0.7800  0.3689 -0.2283
    5MPD2     N13942   3.152   2.834  13.651 -0.1107  0.2662 -1.0628
    5MPD2    H513943   3.204   2.916  13.621 -0.9772  0.2844 -2.5529
    5MPD2    N113944   2.803   3.020  13.383  0.0057  0.1166 -0.1643
    5MPD2    H713945   2.713   3.004  13.339 -0.2935 -0.0245  0.4882
    6MPD1     C13946   1.451   3.928  12.286 -0.3311  0.2963 -0.7912
    6MPD1    C113947   1.533   4.024  12.347 -0.4662  0.8800 -0.6185
    6MPD1    C213948   1.640   3.990  12.424  0.7074  0.7196 -0.3390
    6MPD1    C313949   1.693   3.860  12.409 -0.0674 -0.2109 -0.3451
    6MPD1    C413950   1.624   3.769  12.326 -0.7225  0.1749  0.3706
    6MPD1    C513951   1.500   3.798  12.277  0.2497  0.4295  0.9317
    6MPD1     H13952   1.692   4.070  12.473  0.3037  1.4839 -1.1634
    6MPD1    H113953   1.647   3.664  12.317  2.4241  0.8290  0.9356
    6MPD1    H213954   1.349   3.949  12.257 -0.5948 -2.2781 -1.7528
    6MPD1    H313955   1.441   3.714  12.245 -0.0128  0.9697  0.0098
    6MPD1     N13956   1.818   3.821  12.466  0.0630  0.3466  0.5172
    6MPD1    H513957   1.844   3.724  12.450 -0.2620  0.2857  0.3432
    6MPD1    N113958   1.474   4.146  12.370 -0.1766  0.0763 -0.0802
    6MPD1    H613959   1.424   4.184  12.290  0.6782  1.0287 -0.1650
    6MPD1    H713960   1.549   4.209  12.397  0.9263 -0.6726 -1.3894
    7MPD2     C13961   2.159   3.209  12.759 -0.5133  0.7215 -0.2877
    7MPD2    C113962   2.249   3.310  12.746  0.0143  0.4008 -0.3210
    7MPD2    C213963   2.388   3.288  12.764  0.3448 -0.7594  0.3897
    7MPD2    C313964   2.427   3.169  12.820 -0.5994  0.0846  0.0035
    7MPD2    C413965   2.332   3.067  12.848  0.0941 -0.2204 -0.6091
    7MPD2    C513966   2.203   3.086  12.807  0.4672  0.4660 -0.0477
    7MPD2     H13967   2.465   3.363  12.751  0.5769 -1.3357 -1.6724
    7MPD2    H113968   2.354   2.975  12.902  0.2637  0.0509 -0.2201
    7MPD2    H213969   2.053   3.219  12.742 -0.6149 -0.0786 -0.1448
    7MPD2    H313970   2.121   3.017  12.827  0.5292  0.5819  0.6253
    7MPD2     N13971   2.553   3.162  12.872  0.2092 -0.1616 -0.0863
    7MPD2    H513972   2.601   3.251  12.871  0.2568 -0.1558  2.3096
    7MPD2    N113973   2.207   3.438  12.708 -0.3141 -0.0394 -0.7722
    7MPD2    H713974   2.275   3.503  12.672 -0.1970  0.2135 -0.0791
    8TMC3    C113975   2.740   3.113  12.999  0.8335 -1.0062  0.0633
    8TMC3    C213976   2.756   3.075  13.131 -1.1450  0.6808  0.5063
    8TMC3    C313977   2.804   3.177  13.212  0.1163 -0.3012  0.0589
    8TMC3    C413978   2.774   3.240  12.954 -0.4344 -0.0516  0.6116
    8TMC3    C513979   2.817   3.340  13.037  0.3145  0.2519  0.1820
    8TMC3    C613980   2.827   3.307  13.171  0.1154  0.1308  0.3491
    8TMC3     C13981   2.613   3.057  12.940  0.4791  0.2722 -0.4890
    8TMC3     O13982   2.572   2.946  12.970  0.4431  0.2882 -0.1368
    8TMC3     H13983   2.738   2.976  13.170  2.8088 -0.4068 -0.3599
    8TMC3    H113984   2.794   3.260  12.850 -0.6839 -0.3573  0.5031
    8TMC3    H213985   2.872   3.371  13.246  1.8191 -1.0979  0.3692
    8TMC3    C713986   2.739   3.456  12.998 -0.8168  0.1015  0.0718
    8TMC3    C813987   2.871   3.127  13.335  0.5181  0.7254 -0.2712
    8TMC3    O113988   2.670   3.434  12.901  0.1764  0.2289 -0.1498
    8TMC3    O213989   2.947   3.211  13.386 -0.5656 -0.1656 -0.3613
    9TMC3    C113990   2.005   3.827  12.615  0.4659  0.7822 -0.9534
    9TMC3    C213991   2.100   3.898  12.686 -0.5049 -0.2065 -0.8601
    9TMC3    C313992   2.173   3.823  12.773 -0.6313 -0.4288 -0.6581
    9TMC3    C413993   1.988   3.695  12.624 -0.8641 -0.0229  0.1419
    9TMC3    C513994   2.072   3.620  12.706  1.0885  0.6529 -0.7426
    9TMC3    C613995   2.168   3.686  12.777  0.6012  0.0566 -0.7295
    9TMC3     C13996   1.894   3.901  12.552  0.2627  0.3783 -0.3208
    9TMC3     O13997   1.884   4.017  12.584 -0.0712  0.6749 -0.3833
    9TMC3     H13998   2.107   4.006  12.682  2.4071 -0.3873 -0.2871
    9TMC3    H113999   1.919   3.641  12.560 -2.6805  1.6326  0.7049
    9TMC3    H214000   2.221   3.624  12.849 -0.3768  1.2429  1.0097
    9TMC3    C714001   2.074   3.478  12.704  0.0240 -0.1423  0.0008
    9TMC3    C814002   2.279   3.883  12.852  0.3275 -0.1923 -0.1995
    9TMC3    O114003   1.969   3.433  12.747  0.1123 -0.3104  0.8645
    9TMC3    O214004   2.260   3.993  12.895 -0.4212  0.0170  0.4573
   10MPD2     C14005   2.686   3.787  13.153 -0.3272  0.1404 -0.0873
   10MPD2    C114006   2.672   3.685  13.061  0.5132 -0.1933  0.1100
   10MPD2    C214007   2.570   3.705  12.967  0.5845 -0.0827  0.1827
   10MPD2    C314008   2.485   3.810  12.969  0.2880 -0.1018  0.2657
   10MPD2    C414009   2.509   3.915  13.054  0.7507  0.2731 -0.5473
   10MPD2    C514010   2.607   3.904  13.148  0.0280 -0.0476 -0.5024
   10MPD2     H14011   2.537   3.625  12.902 -0.7334 -0.7402  1.6855
   10MPD2    H114012   2.444   4.001  13.042 -2.3100 -2.0058 -0.3409
   10MPD2    H214013   2.756   3.781  13.236  0.2731  0.4930 -0.5599
   10MPD2    H314014   2.624   3.984  13.219 -0.9021  0.2695 -0.6378
   10MPD2     N14015   2.387   3.801  12.864 -0.0862  0.0747 -0.9142
   10MPD2    H514016   2.394   3.720  12.804 -1.6238 -0.1571 -0.7886
   10MPD2    N114017   2.758   3.573  13.069 -0.6393 -0.0380  0.0666
   10MPD2    H714018   2.832   3.572  13.139 -0.2556  0.5335 -0.3302
   11MPD2     C14019   4.070   2.238  13.746  0.1369  0.5439 -0.2430
   11MPD2    C114020   3.969   2.260  13.832 -0.5098  0.1039 -0.7328
   11MPD2    C214021   3.855   2.339  13.802 -0.4215  1.2757  0.8735
   11MPD2    C314022   3.854   2.409  13.682  0.3273  0.3369  0.0118
   11MPD2    C414023   3.956   2.400  13.591 -0.3732  0.1529 -0.3345
   11MPD2    C514024   4.060   2.316  13.627 -0.3316 -0.0154  0.4155
   11MPD2     H14025   3.769   2.339  13.867 -1.1669 -0.9811 -0.1051
   11MPD2    H114026   3.963   2.454  13.497 -1.6483  0.1333 -0.4405
   11MPD2    H214027   4.159   2.180  13.768  0.1715  0.5795 -0.2868
   11MPD2    H314028   4.139   2.286  13.559  0.0607  0.9044  0.4659
   11MPD2     N14029   3.746   2.495  13.650 -0.1508 -0.9636  0.0649
   11MPD2    H514030   3.766   2.570  13.585 -0.1456 -1.4948 -0.5371
   11MPD2    N114031   3.962   2.192  13.951 -0.3627  0.7521  0.1932
   11MPD2    H714032   3.875   2.205  14.003  1.0134  2.2125  2.1307
    1MPD1     C14033   2.132   2.466  17.024  0.1361 -0.0463 -0.6222
    1MPD1    C114034   2.165   2.333  16.995 -0.6449 -0.2438 -1.0893
    1MPD1    C214035   2.267   2.310  16.905  0.3463  0.1865  0.5270
    1MPD1    C314036   2.354   2.411  16.863 -0.4337 -0.0016  0.8545
    1MPD1    C414037   2.323   2.542  16.898 -0.1484 -0.2444  0.3968
    1MPD1    C514038   2.208   2.569  16.977  0.3131  0.4474  0.7401
    1MPD1     H14039   2.287   2.209  16.872 -0.2831  0.4802 -0.7642
    1MPD1    H114040   2.380   2.626  16.859  1.2785 -2.5829 -2.5448
    1MPD1    H214041   2.047   2.490  17.088  0.2704 -1.7204  0.1707
    1MPD1    H314042   2.179   2.672  16.992  0.1754  0.2638  1.7110
    1MPD1     N14043   2.459   2.403  16.770  0.6880 -0.0497  0.2156
    1MPD1    H514044   2.511   2.487  16.743 -0.3759  0.2726 -0.8090
    1MPD1    N114045   2.084   2.228  17.036  0.4058 -0.0273 -0.6373
    1MPD1    H614046   2.043   2.240  17.129 -1.1827  3.4470 -1.7889
    1MPD1    H714047   2.135   2.140  17.045  0.4965 -0.1115 -2.0868
    2MPD1     C14048   3.051   2.860  16.121 -0.2521  0.2958 -0.4153
    2MPD1    C114049   3.116   2.754  16.177 -0.4750  0.1417 -0.2007
    2MPD1    C214050   3.041   2.662  16.249 -0.0132  0.1481 -0.0257
    2MPD1    C314051   2.904   2.677  16.272  0.7707  0.1090 -0.0671
    2MPD1    C414052   2.838   2.777  16.204 -0.4791  0.1509 -0.7999
    2MPD1    C514053   2.914   2.866  16.134 -0.0666 -0.2122 -0.3477
    2MPD1     H14054   3.092   2.577  16.293  1.0414  1.0249  0.4431
    2MPD1    H114055   2.731   2.789  16.215 -0.5272  1.4298 -2.7675
    2MPD1    H214056   3.102   2.934  16.061 -0.0478  0.5635  0.0897
    2MPD1    H314057   2.870   2.957  16.095 -2.4629 -0.5235  1.5943
    2MPD1     N14058   2.838   2.574  16.345 -0.1175  0.6778 -0.5625
    2MPD1    H514059   2.901   2.502  16.380 -1.6073 -0.9921 -1.2716
    2MPD1    N114060   3.255   2.751  16.181  0.0445 -0.0161  0.2350
    2MPD1    H614061   3.280   2.658  16.146 -0.7237 -0.5349  1.0804
    2MPD1    H714062   3.285   2.823  16.116 -2.4927  2.0915  1.4420
    3TMC3    C114063   2.686   2.425  16.438 -0.5004  0.9832 -0.1183
    3TMC3    C214064   2.767   2.319  16.410 -0.3024 -0.3479 -0.5879
    3TMC3    C314065   2.757   2.207  16.483  0.4385  0.2966  0.0439
    3TMC3    C414066   2.592   2.423  16.540 -0.9736  0.0242  0.1655
    3TMC3    C514067   2.584   2.301  16.605 -0.4743 -0.6518 -0.0641
    3TMC3    C614068   2.665   2.196  16.578  0.0496 -0.1745  0.3613
    3TMC3     C14069   2.700   2.551  16.368  0.3084  0.0501 -0.2448
    3TMC3     O14070   2.607   2.633  16.362  0.3507  0.0968  0.6359
    3TMC3     H14071   2.837   2.327  16.327  0.0270  1.9993 -0.0673
    3TMC3    H114072   2.514   2.498  16.543  0.0014  1.0294  0.2764
    3TMC3    H214073   2.638   2.100  16.620 -1.2524  0.6490  1.3905
    3TMC3    C714074   2.502   2.281  16.721 -0.5148  0.8102 -0.8111
    3TMC3    C814075   2.893   2.161  16.520 -0.0287  0.0680  0.2174
    3TMC3    O114076   2.479   2.163  16.752  0.8826 -0.5328 -0.2103
    3TMC3    O214077   2.987   2.195  16.449  0.3044 -0.0159  0.5355
    4MPD1     C14078   3.240   2.003  16.858  0.2281 -0.5896  0.1418
    4MPD1    C114079   3.117   1.969  16.895  0.2904  0.1487 -0.2860
    4MPD1    C214080   3.003   2.000  16.825 -0.4526 -0.0451 -0.3657
    4MPD1    C314081   3.022   2.056  16.704 -0.6117 -1.0549 -0.2323
    4MPD1    C414082   3.149   2.097  16.659 -0.6297 -0.2661 -0.5005
    4MPD1    C514083   3.260   2.064  16.738 -0.3392  0.0869  0.2474
    4MPD1     H14084   2.902   1.968  16.850 -0.8792  2.0978  0.6787
    4MPD1    H114085   3.174   2.152  16.568 -1.2503  0.1570 -0.4112
    4MPD1    H214086   3.325   1.987  16.923 -0.9137 -0.9437  1.5341
    4MPD1    H314087   3.359   2.105  16.720 -0.0945  0.6156  2.8059
    4MPD1     N14088   2.900   2.094  16.639  0.3602 -0.5039 -0.5416
    4MPD1    H514089   2.817   2.064  16.691  1.1120 -1.7312 -0.0549
    4MPD1    N114090   3.095   1.886  17.005  0.5172 -0.0211 -0.3442
    4MPD1    H614091   3.001   1.901  17.040  0.1936 -1.3535 -0.6579
    4MPD1    H714092   3.160   1.909  17.080  1.6292 -2.6035 -0.5116
    1TCq1    O114093   2.738   3.568   9.111  0.4129 -0.1514 -0.3903
    1TCq1    C114094   2.721   3.466   9.193 -0.4000  0.0785  0.0324
    1TCq1    O214095   2.654   3.368   9.169 -0.0193 -0.1416  0.4379
    1TCq1    C214096   2.749   3.514   9.332  0.5726  0.8333 -0.5727
    1TCq1    C314097   2.774   3.649   9.355 -0.4183 -0.4168 -0.3759
    1TCq1    C414098   2.817   3.687   9.481  0.6255  0.0076  0.8158
    1TCq1    C514099   2.820   3.602   9.588  0.2339  0.3273 -0.1746
    1TCq1    C614100   2.806   3.465   9.559  0.6853 -0.0316 -0.6229
    1TCq1    C714101   2.764   3.423   9.437  1.1250 -0.1638 -0.7130
    1TCq1    C814102   2.797   3.365   9.662 -0.5826 -0.0332  0.6029
    1TCq1    O414103   2.768   3.247   9.630 -0.3239 -0.5154 -0.2474
    1TCq1    C914104   2.793   3.824   9.527 -0.3062  0.1359  0.9886
    1TCq1    O514105   2.755   3.902   9.439  0.0958  0.1781  0.3779
    1TCq1    O614106   2.858   3.858   9.631 -0.5181 -0.0274  0.3967
    1TCq1    H114107   2.814   3.623   9.137 -0.7213  0.4076  1.7597
    1TCq1    H214108   2.741   3.726   9.286  0.2449 -1.8982 -2.3693
    1TCq1    H314109   2.857   3.646   9.681 -1.9440  1.4262  0.1711
    1TCq1    H414110   2.734   3.323   9.409 -1.6943  0.2560  0.8302
    2MPD1     C14111   2.698   3.256  10.145  0.1344 -0.3674 -0.1150
    2MPD1    C114112   2.724   3.390  10.132  0.2384 -0.0293 -0.0143
    2MPD1    C214113   2.745   3.445  10.012  0.3707  0.4204 -0.1508
    2MPD1    C314114   2.763   3.362   9.904  0.1869  0.2802 -0.0815
    2MPD1    C414115   2.740   3.224   9.919 -0.5620  0.6103 -0.6033
    2MPD1    C514116   2.703   3.175  10.041 -0.2634 -0.2651 -0.3670
    2MPD1     H14117   2.757   3.552  10.009  0.1956  0.5246  2.5614
    2MPD1    H114118   2.730   3.148   9.842 -2.0337  1.1675 -0.9613
    2MPD1    H214119   2.665   3.207  10.236 -0.4482  0.1634 -0.0415
    2MPD1    H314120   2.671   3.072  10.044  2.3111 -0.9913  1.5383
    2MPD1     N14121   2.797   3.426   9.785  0.6517 -0.1221 -0.2705
    2MPD1    H514122   2.800   3.527   9.793  4.4115 -0.4342  2.6554
    2MPD1    N114123   2.703   3.474  10.242  0.6318  0.3075 -1.0623
    2MPD1    H614124   2.730   3.426  10.328  1.5904  1.6201 -0.6225
    2MPD1    H714125   2.758   3.560  10.245  0.3459  0.4917 -1.1225
    1TMC1    C114126   1.483   3.848   0.544  0.0898  0.6933 -0.0843
    1TMC1    C214127   1.361   3.847   0.608 -0.1910 -0.2070 -0.2712
    1TMC1    C314128   1.359   3.837   0.744 -0.3398  0.7064  0.2057
    1TMC1    C414129   1.607   3.846   0.608  0.4991 -0.3591 -0.2143
    1TMC1    C514130   1.601   3.842   0.745  0.3330 -0.3733 -0.2670
    1TMC1    C614131   1.482   3.846   0.819  0.4098  0.3197  0.2103
    1TMC1     C14132   1.482   3.795   0.408 -0.0298 -0.3645  0.1743
    1TMC1     O14133   1.587   3.795   0.346  0.3318 -0.2800 -0.6884
    1TMC1     H14134   1.264   3.858   0.562  0.6469  2.2865 -1.4221
    1TMC1    H114135   1.695   3.819   0.550  0.0218  1.5850 -1.8557
    1TMC1    H214136   1.484   3.856   0.926 -2.6478  0.5401  0.2311
    1TMC1    C714137   1.719   3.839   0.825  0.1376 -0.2303 -0.2132
    1TMC1    C814138   1.234   3.885   0.806 -0.3353 -0.2470 -0.2888
    1TMC1    O114139   1.736   3.912   0.921 -0.4064  0.6007  0.1778
    1TMC1    O214140   1.176   3.976   0.746 -0.0593 -0.4918 -0.2516
    1TMC1    O314141   1.766   3.711   0.809  0.4311  0.2866 -0.2223
    1TMC1    H314142   1.724   3.657   0.739 -1.3652 -0.3073  1.3024
    1TMC1    O514143   1.263   3.900   0.937  0.9224 -0.2244  0.0413
    1TMC1    H514144   1.304   3.817   0.970 -0.1933 -1.2760 -1.2382
    2MPD1     C14145   1.314   3.529   0.025 -0.4575  0.4003  0.1215
    2MPD1    C114146   1.224   3.504   0.131  0.1476 -0.5756  0.1570
    2MPD1    C214147   1.235   3.583   0.246 -0.1378  0.3092  0.7243
    2MPD1    C314148   1.333   3.679   0.258 -0.6220 -0.6368  0.3506
    2MPD1    C414149   1.412   3.698   0.149 -0.3004 -0.5011 -0.6625
    2MPD1    C514150   1.402   3.628   0.034  0.1611  0.4322 -0.5179
    2MPD1     H14151   1.166   3.553   0.324  0.9892 -0.2358  1.5062
    2MPD1    H114152   1.491   3.773   0.153 -1.9570  1.2740 -1.4339
    2MPD1    H214153   1.312   3.463  17.690  0.7458  0.2064  0.2527
    2MPD1    H314154   1.462   3.662  17.702  0.4313  0.5625 -0.2681
    2MPD1     N14155   1.363   3.740   0.380  0.6591  0.4276  0.5667
    2MPD1    H514156   1.295   3.727   0.455  1.2350 -0.6483  0.9125
    2MPD1    N114157   1.128   3.404   0.119 -0.9658 -0.0953  0.0882
    2MPD1    H614158   1.177   3.327   0.072  3.5702  1.3532  2.4497
    2MPD1    H714159   1.114   3.357   0.208  0.0951  0.7453  0.6951
    1MPD1     C14160   3.784   3.752  11.948 -0.9591 -0.0032  0.4252
    1MPD1    C114161   3.750   3.875  11.996 -0.0781 -0.6285  0.3428
    1MPD1    C214162   3.843   3.981  11.985  0.4204 -0.5885  0.1682
    1MPD1    C314163   3.969   3.956  11.942 -0.1635  0.2050 -0.3867
    1MPD1    C414164   4.011   3.827  11.909  0.0271  0.5323 -0.1494
    1MPD1    C514165   3.913   3.730  11.909 -0.1617  0.4413 -0.0339
    1MPD1     H14166   3.826   4.080  12.027  0.0302 -1.6665  2.5621
    1MPD1    H114167   4.108   3.801  11.869  0.0864 -0.9030  0.9386
    1MPD1    H214168   3.715   3.670  11.935 -1.5412  0.5645 -0.0810
    1MPD1    H314169   3.933   3.632  11.865  2.1673  0.9689 -0.1374
    1MPD1     N14170   4.049   4.071  11.918 -0.7460 -0.6967 -0.5435
    1MPD1    H514171   4.013   4.160  11.950 -0.3820 -0.1658 -1.6172
    1MPD1    N114172   3.622   3.902  12.040 -0.4519  0.2403 -0.1609
    1MPD1    H614173   3.572   3.828  12.089  0.4190  1.1248  2.1008
    1MPD1    H714174   3.626   3.971  12.116 -0.3722 -1.0667  1.0151
    2MPD1     C14175   4.032   4.263  10.174 -0.8751 -0.1509 -0.5643
    2MPD1    C114176   4.011   4.127  10.180  0.2553  0.4786  1.1271
    2MPD1    C214177   4.005   4.065  10.306 -0.3733 -0.1124 -0.0452
    2MPD1    C314178   4.032   4.147  10.410  0.1941  0.2628  0.2776
    2MPD1    C414179   4.064   4.281  10.402 -0.6880 -0.9083  0.4850
    2MPD1    C514180   4.059   4.338  10.280 -0.5831  0.0965  0.3596
    2MPD1     H14181   3.990   3.958  10.318  1.3581 -0.2016  1.2815
    2MPD1    H114182   4.090   4.341  10.488 -0.2522 -1.1573  0.5232
    2MPD1    H214183   4.038   4.317  10.081  1.7571  1.6088  0.6087
    2MPD1    H314184   4.079   4.444  10.265  2.3820 -0.5035  0.1633
    2MPD1     N14185   4.034   4.091  10.542 -0.2080  0.2081  0.0957
    2MPD1    H514186   4.044   4.159  10.617 -0.2961  2.8531 -2.2932
    2MPD1    N114187   4.006   4.050  10.061  0.0697  1.1681  1.2125
    2MPD1    H614188   3.960   3.961  10.074  1.8023  0.0744 -0.2164
    2MPD1    H714189   3.963   4.101   9.984  0.8690 -0.8487 -0.5562
    3MPD1     C14190   3.968   3.339  11.337  0.0095  0.2605 -0.8465
    3MPD1    C114191   4.073   3.427  11.339 -0.0913  1.1732  0.4384
    3MPD1    C214192   4.087   3.521  11.235  0.3475  0.9062 -0.6354
    3MPD1    C314193   3.986   3.544  11.152  0.3879 -0.9027 -0.1546
    3MPD1    C414194   3.876   3.467  11.154  0.5027  0.3593 -0.4446
    3MPD1    C514195   3.871   3.358  11.235 -0.1224  0.1221 -0.2220
    3MPD1     H14196   4.164   3.597  11.239  0.8284  0.2492  2.6941
    3MPD1    H114197   3.796   3.478  11.082 -0.7664 -2.2986  0.5744
    3MPD1    H214198   3.959   3.261  11.412 -1.2853  1.0689 -0.1626
    3MPD1    H314199   3.776   3.308  11.250  0.2744 -0.1576  1.3887
    3MPD1     N14200   4.001   3.653  11.071  0.8231  0.3348  0.0563
    3MPD1    H514201   4.089   3.703  11.073  1.9207 -1.6395  1.4730
    3MPD1    N114202   4.181   3.395  11.433 -0.4463  0.2014  0.5150
    3MPD1    H614203   4.233   3.468  11.481  1.2510 -0.5382 -0.2262
    3MPD1    H714204   4.140   3.349  11.515 -0.4141  2.3205  1.7223
    4MPD2     C14205   4.235   4.401  11.278  0.3864  0.0086  0.4437
    4MPD2    C114206   4.325   4.447  11.370 -0.4191  0.4405  0.0183
    4MPD2    C214207   4.450   4.475  11.327  0.5752  0.2233  0.1361
    4MPD2    C314208   4.489   4.463  11.199 -0.3959 -0.2356  1.2881
    4MPD2    C414209   4.393   4.447  11.106  0.6031  0.5994  0.5097
    4MPD2    C514210   4.268   4.422  11.148  0.3289  0.1277 -0.7548
    4MPD2     H14211   4.523   4.493  11.405 -0.1753 -0.2160  0.9358
    4MPD2    H114212   4.409   4.442  10.999 -0.2167 -0.8416  0.4437
    4MPD2    H214213   4.131   4.376  11.292  0.0316  0.3051 -1.7167
    4MPD2    H314214   4.182   4.399  11.087  1.9611 -1.7050 -2.3790
    4MPD2     N14215   4.626   4.477  11.153  0.0029 -0.0791  0.0215
    4MPD2    H514216   4.640   4.460  11.054 -2.1743  1.3599 -0.5391
    4MPD2    N114217   4.312   4.450  11.509  0.3749 -0.1371  0.2759
    4MPD2    H714218   4.393   4.483  11.561 -0.6496  0.2698  1.6115
    5TMC3    C114219   4.241   4.399  11.730  0.6813  0.7181 -0.1063
    5TMC3    C214220   4.168   4.299  11.784 -0.6239  0.1315 -0.8158
    5TMC3    C314221   4.230   4.205  11.869  0.5543  0.3389  1.0124
    5TMC3    C414222   4.372   4.403  11.742 -0.0467  0.4844  1.0291
    5TMC3    C514223   4.433   4.309  11.825 -0.7374 -0.2235  0.2828
    5TMC3    C614224   4.368   4.205  11.884 -0.1736  0.0123  0.7198
    5TMC3     C14225   4.204   4.409  11.585 -0.0717  0.2535  0.2980
    5TMC3     O14226   4.112   4.338  11.542  0.1682  0.1923 -0.5285
    5TMC3     H14227   4.061   4.289  11.774 -0.6396 -0.1125 -0.4002
    5TMC3    H114228   4.433   4.487  11.711 -0.1735 -0.5837 -2.1130
    5TMC3    H214229   4.407   4.130  11.951 -1.0778  1.8957  3.3748
    5TMC3    C714230   4.558   4.267  11.765 -0.4408  0.1266  0.6049
    5TMC3    C814231   4.179   4.070  11.880  0.1062 -0.2380 -0.1046
    5TMC3    O114232   4.605   4.344  11.685  0.2666  0.7696 -0.2337
    5TMC3    O214233   4.265   3.983  11.850 -0.0264 -0.2939  0.4285
    6TMC3    C114234   4.017   3.943  10.713 -0.5426  0.5921 -0.2014
    6TMC3    C214235   3.945   3.846  10.779 -0.2245  0.1685 -0.8317
    6TMC3    C314236   3.966   3.829  10.918 -0.4525  0.1055  0.5030
    6TMC3    C414237   4.105   4.023  10.783  0.0313 -0.3905  0.5859
    6TMC3    C514238   4.130   3.999  10.916  0.6979  0.3626 -0.8505
    6TMC3    C614239   4.063   3.899  10.983  0.1325 -0.7229  0.7240
    6TMC3     C14240   4.000   3.964  10.573 -0.2548 -0.0798  0.0042
    6TMC3     O14241   3.951   3.863  10.519 -0.0321 -0.0968 -0.3705
    6TMC3     H14242   3.870   3.783  10.733  0.1820 -1.2050  0.3732
    6TMC3    H114243   4.187   4.079  10.740 -0.6181  0.6323  0.6717
    6TMC3    H214244   4.088   3.882  11.087 -0.1909 -0.5331  0.8319
    6TMC3    C714245   4.246   4.055  10.981 -0.1575 -0.0467 -0.2659
    6TMC3    C814246   3.915   3.706  10.980  0.3180 -0.8391 -0.0187
    6TMC3    O114247   4.344   4.083  10.914 -0.9878 -0.3906  0.4721
    6TMC3    O214248   3.808   3.659  10.933  0.0755  0.1566  0.2817
    7MPD2     C14249   0.157   3.921  11.601 -0.0356  0.2229  0.0761
    7MPD2    C114250   0.150   4.063  11.589 -0.3467 -0.2489 -0.0565
    7MPD2    C214251   0.048   4.132  11.657  0.2082 -0.7259 -0.1058
    7MPD2    C314252   4.687   4.066  11.731 -0.0253  0.0197  0.5081
    7MPD2    C414253   4.700   3.926  11.740 -0.4727  0.1103 -0.1931
    7MPD2    C514254   0.058   3.855  11.670  0.1857 -0.7522 -0.8560
    7MPD2     H14255   0.054   4.240  11.659  0.6541 -0.7924  1.8477
    7MPD2    H114256   4.622   3.867  11.789 -0.5791  2.0155  1.9300
    7MPD2    H214257   0.236   3.860  11.559  0.3750  1.0516 -0.3325
    7MPD2    H314258   0.055   3.747  11.665  1.0522 -0.9246  2.4581
    7MPD2     N14259   4.584   4.136  11.796 -0.3979 -0.9620 -0.3380
    7MPD2    H514260   4.522   4.086  11.859 -0.7144 -0.4948 -0.2795
    7MPD2    N114261   0.230   4.115  11.496  0.5797 -0.1223 -0.2974
    7MPD2    H714262   0.297   4.056  11.449  1.8849  0.6526  0.6157
    8TMC3    C114263   0.244   4.285  11.340 -0.1786  0.6698 -0.2398
    8TMC3    C214264   0.200   4.186  11.251 -0.2989 -0.8253  0.3356
    8TMC3    C314265   0.133   4.228  11.136  0.1610 -0.0318 -0.2792
    8TMC3    C414266   0.198   4.415  11.314 -0.4796  0.3184  0.4691
    8TMC3    C514267   0.112   4.446  11.204  0.7250 -0.7148  0.2795
    8TMC3    C614268   0.108   4.360  11.103  0.6418  0.3694  0.1532
    8TMC3     C14269   0.238   4.251  11.482  0.0608 -0.0730  0.1812
    8TMC3     O14270   0.210   4.340  11.563  0.2890  0.3185 -0.3785
    8TMC3     H14271   0.226   4.081  11.255  0.3670 -0.5369  3.1267
    8TMC3    H114272   0.191   4.486  11.396 -1.4026 -0.7454  1.2962
    8TMC3    H214273   0.067   4.386  11.006 -0.8765  1.6152  1.1280
    8TMC3    C714274   4.728   4.505  11.243  0.2528 -0.7489 -0.7978
    8TMC3    C814275   0.010   4.167  11.129  1.1344  0.8618  0.2493
    8TMC3    O114276   4.719   4.560  11.352  0.1182 -0.2930 -0.2045
    8TMC3    O214277   4.716   4.139  11.014 -0.4433 -0.1047  0.0167
    9MPD2     C14278   4.503   4.114  11.412  0.2872  0.5577 -0.4198
    9MPD2    C114279   4.551   4.123  11.283 -0.0044 -0.4919 -0.2372
    9MPD2    C214280   4.463   4.114  11.179 -0.5636 -0.7733 -0.1349
    9MPD2    C314281   4.326   4.091  11.209  0.3281  0.1301 -0.5596
    9MPD2    C414282   4.279   4.099  11.340  0.4342 -0.1982 -0.1018
    9MPD2    C514283   4.372   4.096  11.439 -0.2988  0.4294 -0.4105
    9MPD2     H14284   4.494   4.124  11.076 -2.9062  0.0342 -0.7460
    9MPD2    H114285   4.176   4.072  11.361  0.7764 -0.4974  1.2063
    9MPD2    H214286   4.563   4.114  11.502 -0.6613  0.9600  0.2073
    9MPD2    H314287   4.347   4.096  11.544 -1.2384 -1.3826 -0.6193
    9MPD2     N14288   4.227   4.068  11.117  0.2542  0.2661 -0.6295
    9MPD2    H514289   4.134   4.066  11.157  0.6026 -1.4373  0.0920
    9MPD2    N114290   4.692   4.152  11.257 -0.5904  0.0712 -0.7937
    9MPD2    H714291   0.004   4.178  11.341  0.4872 -3.4429 -0.3560
    1MPD1     C14292   4.623   2.214  17.380 -0.3614  0.6482  0.4882
    1MPD1    C114293   4.633   2.138  17.265 -0.2882 -0.5307  0.0004
    1MPD1    C214294   4.556   2.176  17.163  0.2334 -0.2866 -0.2416
    1MPD1    C314295   4.469   2.280  17.164  0.0267  0.9533  0.5774
    1MPD1    C414296   4.467   2.359  17.270 -0.4332  0.0950 -0.1534
    1MPD1    C514297   4.545   2.331  17.380 -0.4677  0.0057 -0.5955
    1MPD1     H14298   4.585   2.125  17.072 -2.0935  0.6931 -1.5401
    1MPD1    H114299   4.392   2.437  17.280  0.3754  1.0086 -1.2132
    1MPD1    H214300   4.685   2.207  17.469  1.4818  1.2727 -0.7529
    1MPD1    H314301   4.539   2.393  17.468 -0.6154 -1.8478  0.6945
    1MPD1     N14302   4.378   2.316  17.057  0.3346 -0.3495  0.0173
    1MPD1    H514303   4.329   2.404  17.073 -0.3509 -0.3824 -2.0059
    1MPD1    N114304   0.001   2.044  17.244  0.0329 -1.0462 -0.3649
    1MPD1    H614305   4.710   1.973  17.177 -0.0725 -0.1259 -1.2943
    1MPD1    H714306   0.031   1.999  17.330 -0.2871 -2.1795 -0.8482
    2TMC2    C114307   4.173   2.249  16.630  0.6039 -0.1101  0.5814
    2TMC2    C214308   4.141   2.379  16.611 -0.4044  0.5195  0.1286
    2TMC2    C314309   4.196   2.465  16.706 -0.1829  0.9152 -0.2520
    2TMC2    C414310   4.241   2.201  16.738  0.3973  0.2946  0.6272
    2TMC2    C514311   4.285   2.288  16.833  0.9190  0.1291  0.6537
    2TMC2    C614312   4.269   2.421  16.817  0.5589  0.5043 -0.4218
    2TMC2     C14313   4.145   2.157  16.517 -0.0248  0.2212  0.5000
    2TMC2     O14314   4.218   2.055  16.521  0.5982 -0.0763 -0.0466
    2TMC2     H14315   4.108   2.413  16.514 -2.3961  0.4565  0.7667
    2TMC2    H114316   4.259   2.097  16.764  0.9030  0.3677  0.5710
    2TMC2    H214317   4.327   2.481  16.886 -0.0812  1.7678 -0.9937
    2TMC2    C714318   4.368   2.235  16.944 -0.5389  0.0163  0.3166
    2TMC2    C814319   4.175   2.610  16.695  0.2446 -1.0557 -0.1420
    2TMC2    O114320   4.430   2.131  16.917  0.1023  0.0492 -0.3407
    2TMC2    O214321   4.233   2.699  16.754 -0.2105 -0.4910 -0.3115
    2TMC2    O514322   4.050   2.633  16.643  0.1694  0.0897 -0.0758
    2TMC2    H514323   4.002   2.550  16.624  2.0235 -1.0740  0.3179
    3MPD1     C14324   3.938   1.923  16.125  0.5687  0.0238 -0.1027
    3MPD1    C114325   3.835   1.994  16.185 -0.1945  0.5119 -0.0684
    3MPD1    C214326   3.864   2.081  16.292  0.3119 -0.3713 -0.0103
    3MPD1    C314327   4.000   2.094  16.329  0.2233 -0.0361  0.0331
    3MPD1    C414328   4.100   2.029  16.258 -0.2963  0.3533 -0.7596
    3MPD1    C514329   4.068   1.944  16.156 -0.2944  0.5101  0.0211
    3MPD1     H14330   3.785   2.127  16.351  1.3016  2.5669 -0.9788
    3MPD1    H114331   4.206   2.049  16.270 -0.4432 -0.5615  2.0966
    3MPD1    H214332   3.911   1.859  16.042  0.1996 -0.6446  0.5405
    3MPD1    H314333   4.139   1.900  16.087 -0.8545  1.3499 -1.0942
    3MPD1     N14334   4.033   2.183  16.437 -0.1106  0.4314  0.0121
    3MPD1    H514335   3.971   2.249  16.484  0.4757  1.3188 -0.4587
    3MPD1    N114336   3.702   1.954  16.171 -0.2071  0.4149 -0.6879
    3MPD1    H614337   3.685   1.914  16.079  0.7309 -2.5703  0.4152
    3MPD1    H714338   3.647   2.038  16.185 -2.2608 -0.7813 -1.3993
    1TMC1    C114339   2.632   1.837  13.180  0.1060 -0.2599 -0.7365
    1TMC1    C214340   2.591   1.704  13.185  0.6662 -0.8915 -0.1988
    1TMC1    C314341   2.461   1.679  13.200  0.4029 -0.2765  0.0579
    1TMC1    C414342   2.548   1.945  13.185  0.3654 -0.4867 -0.0358
    1TMC1    C514343   2.414   1.921  13.213  0.4393  0.1306 -0.3586
    1TMC1    C614344   2.376   1.786  13.220 -0.0440  0.2454  0.4091
    1TMC1     C14345   2.776   1.863  13.176 -0.0762 -0.0165  0.4975
    1TMC1     O14346   2.800   1.974  13.134 -0.1838 -0.3568 -0.1209
    1TMC1     H14347   2.661   1.623  13.165 -0.3146 -1.3449 -1.8005
    1TMC1    H114348   2.587   2.045  13.194 -4.3908  1.3898 -0.2817
    1TMC1    H214349   2.270   1.772  13.231  0.1184 -0.7534  0.6933
    1TMC1    C714350   2.328   2.020  13.270  0.0285 -0.4811 -1.0607
    1TMC1    C814351   2.423   1.541  13.233  0.2007 -0.4415 -0.7793
    1TMC1    O114352   2.252   2.010  13.366 -0.4152 -0.6047  0.1076
    1TMC1    O214353   2.508   1.473  13.292 -0.0065  0.3028 -0.3890
    1TMC1    O314354   2.364   2.140  13.217 -0.3706 -0.2137  0.0234
    1TMC1    H314355   2.434   2.153  13.150 -0.0220 -0.8299  0.2677
    1TMC1    O514356   2.292   1.517  13.242  0.4853  0.0171  0.1874
    1TMC1    H514357   2.231   1.579  13.195 -0.6587 -0.3887  1.1419
    2MPD2     C14358   3.068   1.853  13.119 -0.5088  0.5914  0.0887
    2MPD2    C114359   3.001   1.758  13.197 -0.1686 -0.1163  0.7444
    2MPD2    C214360   3.075   1.663  13.258  0.2524 -0.1274  0.4673
    2MPD2    C314361   3.213   1.660  13.244  0.2512 -0.4862  0.3470
    2MPD2    C414362   3.278   1.757  13.173  0.3145  0.1209 -0.3012
    2MPD2    C514363   3.210   1.854  13.113  0.5234  0.3262  0.4894
    2MPD2     H14364   3.017   1.597  13.322  0.5517  0.0939  0.9728
    2MPD2    H114365   3.386   1.762  13.176  0.2950 -1.3846  2.8084
    2MPD2    H214366   3.013   1.926  13.061 -2.2711 -0.4960  0.3807
    2MPD2    H314367   3.255   1.930  13.049 -4.0163  0.5786 -2.3953
    2MPD2     N14368   3.286   1.559  13.315  0.1177 -0.9104 -0.4548
    2MPD2    H514369   3.238   1.503  13.384  2.2751 -2.5092 -0.2673
    2MPD2    N114370   2.862   1.760  13.211 -0.3529  1.1046 -0.1836
    2MPD2    H714371   2.827   1.681  13.265  0.9754  0.7069  0.1041
    3TCq1    O114372   3.758   1.065  13.351 -0.3865 -0.4874 -0.2130
    3TCq1    C114373   3.680   1.134  13.267  0.5453  0.2335 -0.3250
    3TCq1    O214374   3.632   1.103  13.159  0.2267  0.3531 -0.1905
    3TCq1    C214375   3.606   1.224  13.353 -0.2174 -0.4537  0.7008
    3TCq1    C314376   3.572   1.188  13.481 -0.1472  0.2819  0.2456
    3TCq1    C414377   3.497   1.279  13.553  0.6505  0.2518  0.5354
    3TCq1    C514378   3.436   1.384  13.490 -0.1756  0.1156  0.3509
    3TCq1    C614379   3.470   1.411  13.357  0.6460  0.3244  0.0312
    3TCq1    C714380   3.563   1.335  13.291  0.5793  0.2506  0.1543
    3TCq1    C814381   3.416   1.520  13.278 -0.3996 -1.1954  0.4282
    3TCq1    O414382   3.486   1.551  13.182 -0.3304  0.1823  0.0363
    3TCq1    C914383   3.465   1.251  13.689  0.6120  0.0180  0.3932
    3TCq1    O514384   3.406   1.339  13.761 -0.4691  0.0443  0.1210
    3TCq1    O614385   3.478   1.129  13.730 -0.3423  0.5381  0.0244
    3TCq1    H114386   3.788   1.123  13.424  0.2816 -0.0547 -0.8201
    3TCq1    H214387   3.603   1.091  13.517  0.7101  1.5996  3.1529
    3TCq1    H314388   3.373   1.453  13.544  0.5765 -1.1329  2.8166
    3TCq1    H414389   3.581   1.347  13.185  0.9173  1.7327  0.3935
    1MPD2     C14390   2.280   2.249  15.069 -0.0233 -0.7048 -0.2680
    1MPD2    C114391   2.141   2.224  15.074  0.6728  0.2293  0.1347
    1MPD2    C214392   2.082   2.139  14.981 -0.3154  0.4499 -0.3621
    1MPD2    C314393   2.168   2.073  14.897 -0.4719 -0.5823 -0.0026
    1MPD2    C414394   2.312   2.077  14.906  0.7341  0.3687 -0.0304
    1MPD2    C514395   2.358   2.180  14.986  0.8369 -0.4947  0.2493
    1MPD2     H14396   1.974   2.131  14.974 -0.1172 -1.0554 -1.5914
    1MPD2    H114397   2.371   2.022  14.833 -0.6724 -0.1587 -0.7788
    1MPD2    H214398   2.321   2.315  15.145  0.0848 -0.1828 -0.7791
    1MPD2    H314399   2.464   2.205  14.986  1.0300 -1.2750 -1.1888
    1MPD2     N14400   2.096   1.981  14.814  0.6630 -0.0343  0.2888
    1MPD2    H514401   1.998   1.966  14.837  1.0834  0.3913  2.3119
    1MPD2    N114402   2.062   2.290  15.171 -0.2989 -0.4441  0.0427
    1MPD2    H714403   2.118   2.357  15.223 -0.7642 -1.2326  1.5614
    2TMC3    C114404   1.866   2.361  15.286 -0.0915  0.7746  0.3572
    2TMC3    C214405   1.745   2.315  15.321  0.2515  0.1852 -0.0707
    2TMC3    C314406   1.637   2.395  15.292  0.0016 -0.1337 -0.7806
    2TMC3    C414407   1.897   2.488  15.240  0.0043  0.5459  0.5603
    2TMC3    C514408   1.787   2.567  15.218 -0.8193  0.2079 -0.2048
    2TMC3    C614409   1.657   2.525  15.255 -0.5470  0.4347 -1.2573
    2TMC3     C14410   1.930   2.259  15.200  0.0887  0.2587  0.5120
    2TMC3     O14411   1.863   2.162  15.170 -0.0311 -0.3157 -0.5622
    2TMC3     H14412   1.734   2.210  15.343  0.3465  0.7750  2.7305
    2TMC3    H114413   1.999   2.521  15.225 -0.3500  2.1295  1.6712
    2TMC3    H214414   1.568   2.584  15.241 -0.5434  0.5438 -0.8086
    2TMC3    C714415   1.804   2.679  15.127  0.3961  0.5531  0.0382
    2TMC3    C814416   1.530   2.331  15.219  0.1916  0.4624  0.1370
    2TMC3    O114417   1.707   2.726  15.068 -0.0184 -0.1944 -0.0200
    2TMC3    O214418   1.421   2.386  15.208 -0.0593 -0.5769 -0.4841
    3TCq1    O114419   2.809   3.166  14.600  0.0145  0.3803  0.0207
    3TCq1    C114420   2.850   3.038  14.631  0.1301 -0.0892  0.2501
    3TCq1    O214421   2.957   2.987  14.594  0.3662  0.7736  0.5036
    3TCq1    C214422   2.761   2.982  14.729  0.2064 -0.0139  0.1246
    3TCq1    C314423   2.812   2.875  14.797 -0.6540 -0.4260  0.3822
    3TCq1    C414424   2.730   2.804  14.877  0.5011  1.0130 -0.0230
    3TCq1    C514425   2.597   2.817  14.866 -0.4101 -0.1324 -0.1885
    3TCq1    C614426   2.543   2.917  14.790  0.6267  0.2324 -0.6028
    3TCq1    C714427   2.619   3.003  14.715 -0.2131  0.4053 -0.3482
    3TCq1    C814428   2.405   2.958  14.802  0.1221 -0.4320 -0.3971
    3TCq1    O414429   2.379   3.071  14.762  0.0310  0.0918 -0.0249
    3TCq1    C914430   2.787   2.714  14.976 -0.1934 -0.2638 -0.3551
    3TCq1    O514431   2.704   2.662  15.054 -0.2448 -0.2849  0.5052
    3TCq1    O614432   2.907   2.670  14.965  0.4612  0.1394  0.2834
    3TCq1    H114433   2.734   3.200  14.654 -0.5446  1.3119 -1.3568
    3TCq1    H214434   2.918   2.857  14.813 -0.8477 -0.6330  1.4262
    3TCq1    H314435   2.536   2.769  14.942  1.1388 -0.9019  0.5789
    3TCq1    H414436   2.573   3.086  14.663 -1.1740  0.8145  1.1803
    4MPD2     C14437   2.113   2.965  14.809  0.2762 -0.0125 -0.8536
    4MPD2    C114438   2.187   2.882  14.887  0.0426  0.3180 -0.2688
    4MPD2    C214439   2.129   2.789  14.973 -0.2979  0.0684  0.0928
    4MPD2    C314440   1.986   2.781  14.991 -0.6939 -0.3572  0.0774
    4MPD2    C414441   1.914   2.866  14.912  0.7366 -0.1397  0.3854
    4MPD2    C514442   1.978   2.940  14.818 -0.8964  0.3089  0.3214
    4MPD2     H14443   2.199   2.735  15.035  0.1946 -0.9003 -1.3020
    4MPD2    H114444   1.806   2.869  14.907  0.8012  2.7613  0.2191
    4MPD2    H214445   2.153   3.039  14.741  2.4723  0.3815  0.8921
    4MPD2    H314446   1.921   3.002  14.750 -1.5890  1.2078  1.7276
    4MPD2     N14447   1.934   2.690  15.088  0.0156  0.5801  1.1530
    4MPD2    H514448   2.003   2.636  15.140 -0.4722 -0.6544  0.5271
    4MPD2    N114449   2.326   2.875  14.875  0.5888  0.0543  0.7839
    4MPD2    H714450   2.364   2.789  14.914 -0.9965 -0.9328  0.1775
    5TMC2    C114451   1.820   1.827  14.719 -0.1805  0.4671 -0.9940
    5TMC2    C214452   1.780   1.889  14.601 -0.0502 -0.1978 -0.0693
    5TMC2    C314453   1.871   1.897  14.497  0.2056 -0.6309  0.4206
    5TMC2    C414454   1.946   1.796  14.740  1.0087 -0.2201 -0.0471
    5TMC2    C514455   2.039   1.823  14.648 -0.1989  0.1614 -0.7928
    5TMC2    C614456   2.000   1.855  14.522 -0.0387  0.0157  0.7962
    5TMC2     C14457   1.754   1.874  14.835 -0.6146 -0.8010  0.6017
    5TMC2     O14458   1.829   1.897  14.931  0.2261 -0.4737 -0.3674
    5TMC2     H14459   1.684   1.939  14.586  0.9895  0.8422 -3.3722
    5TMC2    H114460   1.975   1.758  14.837  1.4005 -0.2248 -0.1621
    5TMC2    H214461   2.082   1.881  14.456 -0.0340 -0.6188  0.5490
    5TMC2    C714462   2.140   1.919  14.695 -0.7859 -0.8211  0.7824
    5TMC2    C814463   1.837   1.937  14.356  0.0151  0.5397 -0.2458
    5TMC2    O114464   2.233   1.964  14.622 -0.6151  0.1803  0.0836
    5TMC2    O214465   1.920   1.926  14.264  0.0624 -0.3956 -0.5923
    5TMC2    O514466   1.702   1.911  14.344  0.4756 -0.6225  0.0823
    5TMC2    H514467   1.648   1.903  14.426  0.1253 -2.4772 -0.3385
    6MPD2     C14468   1.370   2.132  15.051  0.2324 -0.2895  0.6396
    6MPD2    C114469   1.507   2.120  15.086  0.1373 -1.1208 -0.5205
    6MPD2    C214470   1.587   2.031  15.017  0.4497 -0.2589  0.8213
    6MPD2    C314471   1.540   1.956  14.905  0.3890  0.2796  0.6135
    6MPD2    C414472   1.409   1.967  14.875 -1.2216  0.3470 -0.1775
    6MPD2    C514473   1.331   2.056  14.950 -0.1615 -0.4228  0.7688
    6MPD2     H14474   1.693   2.038  15.039  0.0767 -0.1914  2.5890
    6MPD2    H114475   1.363   1.909  14.796  0.6524 -1.1374 -0.1752
    6MPD2    H214476   1.305   2.197  15.108 -0.1507  0.3055 -0.4954
    6MPD2    H314477   1.227   2.064  14.919  1.0089 -1.0677 -3.2771
    6MPD2     N14478   1.620   1.883  14.814  0.6032  0.4616  0.1200
    6MPD2    H514479   1.586   1.842  14.727 -0.4206  3.4326 -0.9098
    6MPD2    N114480   1.575   2.215  15.166  0.3388  0.0701  0.1095
    6MPD2    H714481   1.671   2.190  15.188  0.3331  0.3418  0.4351
  945NH3     N114482   4.214   0.642  16.688  0.5008 -0.2856 -0.1811
  945NH3     H214483   4.129   0.697  16.683 -0.8342 -2.1833  1.6920
  945NH3     H314484   4.188   0.546  16.666 -0.8721  0.0666 -0.1052
  945NH3     H414485   4.254   0.681  16.604  2.3004 -2.3984 -0.3298
  946SOD     NA14486   2.951   2.465  14.873  0.1653 -0.0262 -0.5274
  947SOD     NA14487   4.300   1.952   2.883  0.1131  0.4677 -0.0050
  948SOD     NA14488   0.855   3.574  13.837  0.6643 -0.2025  0.4440
  949SOD     NA14489   1.763   1.990  10.009 -0.2211 -0.0033 -0.0456
  950SOD     NA14490   4.229   1.554  10.454 -0.0471 -0.3331  0.0172
  951SOD     NA14491   1.404   0.489  10.569  0.0286  0.0332 -0.0587
  952SOD     NA14492   3.426   4.554  16.939 -0.0355  0.2371 -0.0343
  953SOD     NA14493   3.726   1.318   2.449 -0.4104  0.5316  0.4471
  954SOL     OW14494   1.992   0.959   1.273  0.9342  0.0987  0.8364
  954SOL    HW114495   1.980   1.029   1.209  0.7021  0.6030  1.4307
  954SOL    HW214496   1.944   0.987   1.351  1.0998  1.4220  0.4756
  955SOL     OW14497   1.788   0.484  10.681 -0.1664 -0.6755  0.6663
  955SOL    HW114498   1.856   0.429  10.721 -0.2381 -2.0896 -1.1464
  955SOL    HW214499   1.782   0.549  10.750  2.4406  0.7353 -0.4224
  956SOL     OW14500   0.925   1.713   2.001  0.5076  0.4574 -0.7403
  956SOL    HW114501   0.945   1.806   2.010  0.1949  0.4577 -0.1000
  956SOL    HW214502   0.991   1.671   2.056 -0.1909  2.3336  1.5432
  957SOL     OW14503   4.397   0.798  17.669  0.1440 -0.0478 -0.3165
  957SOL    HW114504   4.434   0.875  17.713  0.9258 -0.9754  0.6564
  957SOL    HW214505   4.315   0.827  17.628 -0.3525  0.0688  0.7481
  958SOL     OW14506   2.506   2.227   7.942 -0.6184 -0.4486  0.1123
  958SOL    HW114507   2.513   2.187   7.855 -1.9070 -0.7749  0.1683
  958SOL    HW214508   2.455   2.164   7.994  0.5340 -0.7939  0.8350
  959SOL     OW14509   4.023   2.665   5.666 -1.0037 -0.1548  0.3959
  959SOL    HW114510   4.092   2.689   5.604 -0.3467 -1.0063  0.7911
  959SOL    HW214511   4.040   2.573   5.686  1.3096  0.8839  3.2236
  960SOL     OW14512   3.912   0.159   3.944 -0.1035  0.3231 -1.0158
  960SOL    HW114513   3.892   0.149   4.037 -1.5814  0.4974 -1.3108
  960SOL    HW214514   3.914   0.064   3.929 -1.1675 -0.1778  1.8874
  961SOL     OW14515   3.104   1.638   0.726  0.1644  0.2207  0.6218
  961SOL    HW114516   3.047   1.607   0.797  0.3297  0.8659  1.0375
  961SOL    HW214517   3.050   1.707   0.689 -0.0255 -1.2543 -1.8684
  962SOL     OW14518   3.292   0.186   9.063  0.9436  0.3033 -0.5607
  962SOL    HW114519   3.382   0.184   9.094  0.2875  2.2482  1.3960
  962SOL    HW214520   3.257   0.127   9.129 -0.2980  2.5452  0.7733
  963SOL     OW14521   2.226   2.978   5.901 -0.5497  0.0866 -0.1015
  963SOL    HW114522   2.227   2.934   5.816  0.7865  0.9444 -0.5311
  963SOL    HW214523   2.156   3.040   5.881 -1.1033 -1.1981 -2.1266
  964SOL     OW14524   4.300   0.277   7.704 -0.3531 -0.0570  0.0015
  964SOL    HW114525   4.365   0.322   7.650 -1.5170  0.9840 -0.5319
  964SOL    HW214526   4.279   0.198   7.654  2.8057 -2.9159  3.2064
  965SOL     OW14527   4.203   2.390   2.784  0.6181  0.0965 -0.2663
  965SOL    HW114528   4.222   2.424   2.696 -0.3661  0.6239 -0.2657
  965SOL    HW214529   4.199   2.297   2.760  0.6607 -0.2692  1.1634
  966SOL     OW14530   2.330   3.889   2.848  0.1245  0.3140  0.1915
  966SOL    HW114531   2.419   3.857   2.862  0.6012  1.7508  0.3681
  966SOL    HW214532   2.295   3.809   2.808  1.1124 -0.5518  1.0651
  967SOL     OW14533   0.202   2.160   2.091 -0.2643  0.7482 -0.5591
  967SOL    HW114534   0.258   2.136   2.017  1.2813  0.9904  0.5488
  967SOL    HW214535   0.264   2.198   2.153  2.5785 -1.1818 -2.2234
  968SOL     OW14536   4.650   4.477   7.002 -0.4641 -0.5292 -0.0470
  968SOL    HW114537   4.627   4.436   7.085 -0.3873 -0.4792 -0.0011
  968SOL    HW214538   4.683   4.399   6.957 -1.6465 -1.4972  0.7439
  969SOL     OW14539   2.878   1.573   6.900 -0.3357  0.3837 -0.0367
  969SOL    HW114540   2.934   1.515   6.849 -2.0907 -2.4147  1.2230
  969SOL    HW214541   2.796   1.527   6.917 -1.5136  2.4363 -0.1592
  970SOL     OW14542   0.949   3.891   4.921  0.1207 -0.1088 -0.3814
  970SOL    HW114543   1.038   3.870   4.893  1.1613  3.7193  0.1152
  970SOL    HW214544   0.928   3.930   4.836  0.4131 -0.9474 -0.8430
  971SOL     OW14545   1.113   4.079  17.145 -0.4227 -0.2533  0.4770
  971SOL    HW114546   1.099   4.136  17.069 -0.7228  0.1650  0.8461
  971SOL    HW214547   1.160   4.140  17.202  2.1501 -0.6041 -1.2181
  972SOL     OW14548   2.062   0.328   8.919 -0.6281 -0.4319  0.0038
  972SOL    HW114549   1.992   0.372   8.966 -0.7244 -1.4076  0.7734
  972SOL    HW214550   2.049   0.339   8.825 -0.9292 -0.3952  0.0508
  973SOL     OW14551   4.126   2.086   9.553  0.4137 -0.1346 -0.3045
  973SOL    HW114552   4.182   2.010   9.565  2.3082  1.3487  0.3164
  973SOL    HW214553   4.083   2.067   9.470  0.4436  1.3012 -0.6500
  974SOL     OW14554   4.412   1.402   5.007 -0.1387 -0.2574  0.6569
  974SOL    HW114555   4.441   1.348   4.933  0.9890  1.9787 -0.5342
  974SOL    HW214556   4.317   1.404   4.993 -0.1259 -1.1424  0.4248
  975SOL     OW14557   0.013   0.054   2.368  0.0931 -0.3494 -0.2534
  975SOL    HW114558   0.104   0.052   2.400  0.2257  0.5189 -0.5590
  975SOL    HW214559   0.009   4.709   2.321  0.5292 -1.3523  1.4885
  976SOL     OW14560   2.555   4.076   6.070 -0.6196  0.5014  0.3590
  976SOL    HW114561   2.516   4.103   6.154  0.2820 -0.8477  1.2203
  976SOL    HW214562   2.488   4.066   6.003  0.5023 -1.8209 -0.3988
  977SOL     OW14563   3.743   2.992   3.242 -0.3364  0.1278  0.0782
  977SOL    HW114564   3.721   2.972   3.333  1.3337 -0.0818  0.4474
  977SOL    HW214565   3.654   3.000   3.209 -0.3455 -0.0818  0.0521
  978SOL     OW14566   1.666   0.216   9.937 -0.1769 -0.5277 -0.3517
  978SOL    HW114567   1.731   0.232   9.869 -0.3525 -1.7954 -0.8241
  978SOL    HW214568   1.638   0.305   9.958  1.5952 -0.0008 -0.2464
  979SOL     OW14569   1.581   0.137  12.107  0.4277 -0.1822 -0.3586
  979SOL    HW114570   1.636   0.160  12.182  1.1230  0.8113 -1.1857
  979SOL    HW214571   1.639   0.154  12.033 -1.1845  0.4582 -1.4715
  980SOL     OW14572   2.443   1.291   7.766 -0.0075 -0.2975  0.0655
  980SOL    HW114573   2.417   1.381   7.744 -2.2184 -0.8540  0.3858
  980SOL    HW214574   2.538   1.297   7.755 -0.1872  3.8597  0.8537
  981SOL     OW14575   2.061   1.267   4.920  0.2598 -0.7496  0.6527
  981SOL    HW114576   2.021   1.354   4.919  1.2927 -0.2670  1.4561
  981SOL    HW214577   2.003   1.218   4.978  0.2773 -0.0700  1.2498
  982SOL     OW14578   1.235   1.633   2.818 -0.4070 -0.0779  0.0951
  982SOL    HW114579   1.202   1.602   2.903 -0.2939 -1.3988 -0.3470
  982SOL    HW214580   1.195   1.567   2.762  2.5827 -0.6529 -1.3699
  983SOL     OW14581   0.129   2.377   0.741  0.0144  0.4591 -0.2891
  983SOL    HW114582   0.138   2.282   0.745 -1.0576  0.4419  1.9577
  983SOL    HW214583   0.053   2.392   0.797  0.3980  0.3805  0.2561
  984SOL     OW14584   1.091   4.280  16.955 -0.3455  0.5472 -0.0053
  984SOL    HW114585   1.137   4.284  16.870 -0.2389  3.4984  0.1770
  984SOL    HW214586   1.069   4.372  16.969  2.3775  1.5777 -2.4055
  985SOL     OW14587   2.080   4.268   3.185  0.1346  0.5020  0.6923
  985SOL    HW114588   2.128   4.223   3.116 -1.3678 -0.1002  0.0685
  985SOL    HW214589   1.988   4.256   3.162  0.5236 -2.2535  0.6356
  986SOL     OW14590   3.422   3.144   2.489 -0.2841 -0.3005  0.3566
  986SOL    HW114591   3.476   3.144   2.410  0.2748  0.8978  0.7440
  986SOL    HW214592   3.412   3.051   2.512  1.2437 -0.3474  0.8575
  987SOL     OW14593   1.210   1.284   7.404 -0.2562 -0.4476 -0.5543
  987SOL    HW114594   1.201   1.225   7.479  0.8912  0.8371  0.6041
  987SOL    HW214595   1.265   1.356   7.438 -1.6353  0.6667 -0.6958
  988SOL     OW14596   3.911   1.230  13.499  0.0630  0.2011 -0.5871
  988SOL    HW114597   3.913   1.279  13.417 -2.1634 -0.3257 -0.9597
  988SOL    HW214598   3.997   1.231  13.540  0.3504 -0.9998 -1.1629
  989SOL     OW14599   0.121   4.604   9.223  0.2459  0.5056  0.2814
  989SOL    HW114600   0.052   4.667   9.240 -0.9036  0.2259 -3.2634
  989SOL    HW214601   0.184   4.627   9.292 -2.3541 -0.7272  3.0294
  990SOL     OW14602   2.531   2.556  17.344  0.3975 -0.3306  0.5559
  990SOL    HW114603   2.593   2.555  17.417 -0.1375 -0.7783  1.0083
  990SOL    HW214604   2.587   2.592  17.276 -1.1959 -0.9611 -1.0852
  991SOL     OW14605   1.520   3.853   7.818  0.2498 -0.4660  0.2339
  991SOL    HW114606   1.534   3.798   7.740  2.0728 -1.3670  1.2056
  991SOL    HW214607   1.565   3.934   7.797  0.5488 -0.7940 -0.4150
  992SOL     OW14608   0.659   2.071   4.833 -0.2036  0.2148 -0.4517
  992SOL    HW114609   0.625   2.133   4.769  0.7100 -0.5406 -1.6790
  992SOL    HW214610   0.751   2.058   4.810 -0.9424 -1.7335 -2.2380
  993SOL     OW14611   0.209   2.739  13.674  0.0358 -0.3153 -0.0155
  993SOL    HW114612   0.277   2.753  13.740 -0.4839  0.5918  0.3318
  993SOL    HW214613   0.208   2.643  13.668 -2.3913 -0.4091  1.8309
  994SOL     OW14614   2.891   0.424   7.153 -0.6192  0.5680 -0.8795
  994SOL    HW114615   2.896   0.447   7.246  2.0852  0.0470 -0.9101
  994SOL    HW214616   2.799   0.395   7.154 -0.3028 -0.4018 -0.4024
  995SOL     OW14617   3.226   3.708   2.030 -0.1093  0.7214  0.3388
  995SOL    HW114618   3.283   3.634   2.050 -0.7167  0.7718  2.3294
  995SOL    HW214619   3.250   3.779   2.090  0.3409  1.1204 -0.3151
  996SOL     OW14620   2.285   4.013  10.937  0.2426 -0.6210  0.2220
  996SOL    HW114621   2.324   3.951  10.876  0.4794  0.2920 -0.5563
  996SOL    HW214622   2.233   3.956  10.994 -0.3970  1.9158  2.1368
  997SOL     OW14623   2.021   1.062  13.621  0.4803  0.2884 -0.6388
  997SOL    HW114624   2.008   1.076  13.715  0.3271  1.1322 -0.7911
  997SOL    HW214625   2.024   0.967  13.611  0.4197  0.2551 -0.3508
  998SOL     OW14626   1.425   2.973  11.307 -0.1735 -0.6138 -0.4282
  998SOL    HW114627   1.372   2.926  11.370  2.0028 -1.0024  1.0978
  998SOL    HW214628   1.425   3.053  11.360 -3.2876 -0.6207 -0.4431
  999SOL     OW14629   3.524   3.051   9.005  0.4393  0.0258  0.2655
  999SOL    HW114630   3.450   3.049   9.066 -0.8631  0.8677 -1.2798
  999SOL    HW214631   3.463   3.092   8.944  0.4443  1.6422  1.3399
 1000SOL     OW14632   2.084   0.493   6.051  0.4762 -0.2947  0.1752
 1000SOL    HW114633   2.148   0.421   6.052 -1.0212 -1.6311  0.7785
 1000SOL    HW214634   2.142   0.566   6.071 -0.7635  0.2368  1.8577
 1001SOL     OW14635   1.089   0.175  14.656 -0.3341  0.5699  0.1820
 1001SOL    HW114636   1.094   0.100  14.715  1.7302 -0.7489 -1.6685
 1001SOL    HW214637   1.087   0.239  14.728 -0.2223  0.2464  0.4737
 1002SOL     OW14638   4.391   0.325   9.095 -0.7647 -0.2132 -0.5989
 1002SOL    HW114639   4.298   0.303   9.093 -0.9980  0.7573 -0.9764
 1002SOL    HW214640   4.406   0.312   9.001  0.0535  1.7844 -0.7586
 1003SOL     OW14641   3.107   4.255   8.137  0.4661  0.1159 -0.4983
 1003SOL    HW114642   3.180   4.317   8.143 -0.4538  1.3831 -2.1911
 1003SOL    HW214643   3.038   4.289   8.194  1.1692  1.0336 -0.1845
 1004SOL     OW14644   3.014   0.188   4.645  0.4750 -0.1921  0.6098
 1004SOL    HW114645   2.938   0.166   4.591 -0.6339  0.0846  2.0566
 1004SOL    HW214646   3.011   0.121   4.713  2.9419 -3.3694 -2.4302
 1005SOL     OW14647   0.398   4.533   2.361  0.2916  0.0411 -0.0737
 1005SOL    HW114648   0.328   4.533   2.295  2.0620 -0.6215 -1.9449
 1005SOL    HW214649   0.353   4.592   2.421 -1.2927 -1.1948 -0.0480
 1006SOL     OW14650   3.692   2.496   5.971 -0.5480 -0.7198 -0.7441
 1006SOL    HW114651   3.610   2.447   5.979 -1.1041  0.0819 -1.4714
 1006SOL    HW214652   3.761   2.430   5.972  0.9374  0.8688  1.1491
 1007SOL     OW14653   4.400   2.923  16.557  0.6104  0.0173  0.2379
 1007SOL    HW114654   4.431   2.976  16.483 -1.2512 -1.9037 -1.8915
 1007SOL    HW214655   4.462   2.935  16.629  0.6853 -2.1011  0.5361
 1008SOL     OW14656   2.881   1.746   8.554 -0.2701 -0.8347 -0.1312
 1008SOL    HW114657   2.922   1.684   8.614  0.7048  0.5447  0.6328
 1008SOL    HW214658   2.951   1.789   8.506 -1.1668  1.3958  0.5627
 1009SOL     OW14659   0.375   2.143   4.590 -0.2993  0.4552  0.1996
 1009SOL    HW114660   0.463   2.124   4.560 -0.4114  3.0483 -1.7601
 1009SOL    HW214661   0.351   2.050   4.583  0.0593  0.1790  2.6417
 1010SOL     OW14662   3.605   4.473  14.764  0.1085 -0.0539 -0.6770
 1010SOL    HW114663   3.556   4.486  14.845 -0.4973  0.3702 -1.1043
 1010SOL    HW214664   3.658   4.394  14.769  1.1987  0.7290 -0.0433
 1011SOL     OW14665   3.596   2.420   0.539 -0.6593 -1.0973  0.1037
 1011SOL    HW114666   3.503   2.403   0.525 -1.3057  1.9369  0.7295
 1011SOL    HW214667   3.611   2.382   0.625  0.0780  0.0303  0.4644
 1012SOL     OW14668   2.514   4.381   5.678  0.1269  0.1199 -0.1591
 1012SOL    HW114669   2.503   4.286   5.670 -1.2887  0.1689  1.2733
 1012SOL    HW214670   2.479   4.402   5.764  0.0890 -1.5225  0.2294
 1013SOL     OW14671   0.153   2.756  15.825  0.2682 -0.0655 -0.2111
 1013SOL    HW114672   0.223   2.822  15.825  1.1222 -0.9867  0.4351
 1013SOL    HW214673   0.183   2.700  15.754  2.0408  1.4679 -0.6607
 1014SOL     OW14674   4.448   1.437   0.244  0.7315  1.0688  0.5745
 1014SOL    HW114675   4.413   1.372   0.305  3.6853 -1.4263 -0.4360
 1014SOL    HW214676   4.407   1.518   0.275 -1.4304  0.1737  0.1010
 1015SOL     OW14677   3.970   0.702   4.625 -0.6204  0.4220 -0.4601
 1015SOL    HW114678   3.976   0.635   4.557  0.0743  1.2907 -1.2717
 1015SOL    HW214679   4.055   0.682   4.663 -1.6469 -1.3140  0.8812
 1016SOL     OW14680   1.996   2.273   1.571  0.4442 -0.2636  0.1217
 1016SOL    HW114681   2.068   2.336   1.575 -0.5262  0.9238 -1.3338
 1016SOL    HW214682   1.980   2.269   1.476  0.5792 -0.7902  0.1157
 1017SOL     OW14683   4.589   2.690  12.529 -0.1101 -0.2081  0.1881
 1017SOL    HW114684   4.551   2.777  12.523 -1.5255 -0.6284  3.0458
 1017SOL    HW214685   4.517   2.630  12.508 -0.9711 -0.0675  2.7953
 1018SOL     OW14686   1.239   3.091   1.826  0.1064 -0.0393  0.5249
 1018SOL    HW114687   1.268   3.129   1.909  1.3764 -1.9565  0.9821
 1018SOL    HW214688   1.158   3.057   1.863 -0.4621  1.2849  0.4907
 1019SOL     OW14689   2.437   2.619  10.715 -0.1460  0.3474 -0.1093
 1019SOL    HW114690   2.487   2.604  10.795  1.4129  2.8018 -0.6137
 1019SOL    HW214691   2.370   2.683  10.738 -1.7726 -3.1898  4.9758
 1020SOL     OW14692   1.594   0.193   5.746  0.2039  0.6197 -0.3938
 1020SOL    HW114693   1.580   0.194   5.841 -1.2633 -4.0792 -0.5878
 1020SOL    HW214694   1.667   0.255   5.744  0.0358  0.8294 -0.1056
 1021SOL     OW14695   1.449   2.860   4.461 -0.6905 -0.2086  0.6554
 1021SOL    HW114696   1.482   2.945   4.489  1.7095 -0.5073 -1.2543
 1021SOL    HW214697   1.389   2.879   4.389 -2.8187 -0.3006  2.4029
 1022SOL     OW14698   0.672   4.216   9.647  0.4362  1.1315  0.0135
 1022SOL    HW114699   0.758   4.258   9.648  1.2720 -0.6965  2.7022
 1022SOL    HW214700   0.615   4.290   9.627  0.3759  0.8097 -1.0061
 1023SOL     OW14701   0.548   1.146   2.638 -0.1744  0.1718 -0.5352
 1023SOL    HW114702   0.578   1.069   2.590 -0.9161 -1.2062  1.2139
 1023SOL    HW214703   0.624   1.204   2.632  1.3960 -1.7508  0.5411
 1024SOL     OW14704   1.684   0.026   4.774  0.4643  0.1423 -0.0604
 1024SOL    HW114705   1.661   4.679   4.809  0.1270 -0.0268 -0.6929
 1024SOL    HW214706   1.600   0.051   4.735 -0.5242 -0.5678  1.6092
 1025SOL     OW14707   1.914   2.777  14.569  0.0695 -0.4767 -0.6353
 1025SOL    HW114708   1.835   2.816  14.533 -1.2469 -2.4411  0.0895
 1025SOL    HW214709   1.885   2.742  14.654 -0.2900  0.3885 -0.4048
 1026SOL     OW14710   0.560   0.877   9.019 -0.3515 -0.7583 -0.0884
 1026SOL    HW114711   0.535   0.965   8.991 -0.8747 -1.0687 -0.6085
 1026SOL    HW214712   0.480   0.825   9.031  0.2021 -1.0867  2.0950
 1027SOL     OW14713   4.471   0.239   3.678  0.0894  0.1843  0.6268
 1027SOL    HW114714   4.447   0.295   3.753  3.0852  2.1539  0.1276
 1027SOL    HW214715   4.481   0.302   3.607  0.7367 -1.2706 -0.5653
 1028SOL     OW14716   2.094   3.313   4.072 -0.7017 -0.4483  0.4216
 1028SOL    HW114717   2.134   3.295   4.157  1.5571  0.9999 -0.3266
 1028SOL    HW214718   2.025   3.248   4.063  1.1837 -2.2692 -0.9348
 1029SOL     OW14719   1.255   2.829   7.767 -0.0209 -0.1120  0.1264
 1029SOL    HW114720   1.171   2.784   7.779  1.1288 -1.7460  1.9145
 1029SOL    HW214721   1.230   2.913   7.729  1.9028  0.6429  0.5356
 1030SOL     OW14722   3.285   3.098   1.713  0.1546  0.4203 -0.0880
 1030SOL    HW114723   3.201   3.070   1.678 -0.4140  2.7903 -0.6236
 1030SOL    HW214724   3.260   3.189   1.724  0.1216  0.3832  0.1311
 1031SOL     OW14725   0.782   3.030   5.362 -0.0754 -0.1350 -0.0815
 1031SOL    HW114726   0.754   2.939   5.347 -3.2002  0.7764  0.2075
 1031SOL    HW214727   0.718   3.074   5.306 -1.0310 -0.2052  0.9653
 1032SOL     OW14728   0.158   1.627   8.631 -0.8361 -0.3295  0.4308
 1032SOL    HW114729   0.181   1.644   8.723 -0.9901 -1.0551  0.6035
 1032SOL    HW214730   0.173   1.532   8.633 -0.8098 -0.2875  2.1015
 1033SOL     OW14731   2.991   0.302   0.047  0.6905 -0.3157  0.2440
 1033SOL    HW114732   3.000   0.285   0.141  0.0047  3.1144  0.9007
 1033SOL    HW214733   3.077   0.281   0.011  1.5087  1.3319  1.2217
 1034SOL     OW14734   0.661   3.086  14.557  0.3298  0.2527  0.0331
 1034SOL    HW114735   0.683   3.080  14.464 -0.2167  0.2871 -0.0975
 1034SOL    HW214736   0.747   3.103  14.596  0.4848 -3.8017  1.4173
 1035SOL     OW14737   2.051   1.080   5.201  0.1150  0.2122 -0.5318
 1035SOL    HW114738   1.998   1.024   5.256  0.6253 -0.2879 -0.5443
 1035SOL    HW214739   2.133   1.081   5.250  0.7437 -1.7874 -1.5199
 1036SOL     OW14740   1.699   0.419   4.152  0.0676 -0.0657 -0.1787
 1036SOL    HW114741   1.624   0.402   4.208  0.7028 -1.2672  0.3069
 1036SOL    HW214742   1.741   0.482   4.212 -0.2039  0.6309 -0.7143
 1037SOL     OW14743   0.183   0.532   6.647  0.1610  0.2063  0.1304
 1037SOL    HW114744   0.195   0.481   6.568  0.7340 -1.1297  1.0902
 1037SOL    HW214745   0.244   0.606   6.638  0.7877 -0.1260  1.5405
 1038SOL     OW14746   0.627   3.166  13.304 -0.0166  0.4762 -0.4495
 1038SOL    HW114747   0.646   3.081  13.263  2.2787  0.3977  0.7981
 1038SOL    HW214748   0.699   3.179  13.365  0.4489 -0.9905 -0.6765
 1039SOL     OW14749   0.351   0.735  12.878  0.2169 -0.3616  0.4511
 1039SOL    HW114750   0.446   0.725  12.885  0.0033 -2.5591  0.1593
 1039SOL    HW214751   0.332   0.803  12.942  1.5656  0.0821  0.3802
 1040SOL     OW14752   2.542   4.626   9.427  0.4547  0.0109  0.3706
 1040SOL    HW114753   2.509   4.706   9.469  2.8961  0.4406  1.4694
 1040SOL    HW214754   2.463   4.616   9.375 -0.1414  1.1678  1.0451
 1041SOL     OW14755   1.151   0.043   5.074  0.0723 -0.4721  0.0560
 1041SOL    HW114756   1.172   0.047   5.167 -0.7732  2.1503  0.1280
 1041SOL    HW214757   1.238   0.070   5.046  0.1679  0.8629  1.6759
 1042SOL     OW14758   0.256   1.657   6.807  0.0942  0.2159 -0.7309
 1042SOL    HW114759   0.251   1.695   6.895  1.4776 -1.1172 -0.0966
 1042SOL    HW214760   0.310   1.722   6.763  1.1921  0.5288  1.0650
 1043SOL     OW14761   2.689   3.329  12.344  0.2837  0.0332  0.3421
 1043SOL    HW114762   2.782   3.349  12.344 -0.1166  1.8725  1.6425
 1043SOL    HW214763   2.683   3.256  12.282 -3.0079  0.7335 -0.1633
 1044SOL     OW14764   3.532   2.188   9.012  0.0296 -0.4006  0.4197
 1044SOL    HW114765   3.570   2.232   8.936  0.4932 -0.1981  0.7630
 1044SOL    HW214766   3.473   2.127   8.968 -2.1155  0.0973  2.6003
 1045SOL     OW14767   2.554   3.026   4.595  0.2547  0.1538  0.1924
 1045SOL    HW114768   2.574   2.968   4.522 -0.4648 -1.5506  1.3561
 1045SOL    HW214769   2.519   2.966   4.662 -0.0712  0.5117  0.3441
 1046SOL     OW14770   0.266   1.028   3.404  0.0617  0.3450  0.4139
 1046SOL    HW114771   0.235   1.053   3.491 -2.4081 -0.1822 -0.3132
 1046SOL    HW214772   0.262   1.109   3.353  1.4551 -0.4472 -0.9457
 1047SOL     OW14773   2.707   2.432  14.816 -0.9259  0.1470 -0.5919
 1047SOL    HW114774   2.642   2.389  14.872 -1.4514  0.9372 -0.5968
 1047SOL    HW214775   2.659   2.473  14.745 -1.2503  0.8004  0.0044
 1048SOL     OW14776   2.880   4.425   1.871  0.3434  0.0048 -0.2323
 1048SOL    HW114777   2.843   4.509   1.843 -0.5824 -0.1355  0.5642
 1048SOL    HW214778   2.803   4.387   1.914  0.8231 -1.9658 -1.1248
 1049SOL     OW14779   0.633   0.235   5.624 -0.1047  0.0073  0.1932
 1049SOL    HW114780   0.650   0.158   5.570 -0.1775  0.1772 -0.0696
 1049SOL    HW214781   0.671   0.301   5.567 -3.1914 -1.0637 -3.0655
 1050SOL     OW14782   0.350   2.749   4.127 -0.2530  0.2491  0.0441
 1050SOL    HW114783   0.282   2.817   4.126  0.2317  0.7777  2.1435
 1050SOL    HW214784   0.405   2.789   4.194 -2.0424 -0.3612  1.8874
 1051SOL     OW14785   2.125   0.159  11.048 -0.1361 -0.6846 -0.3644
 1051SOL    HW114786   2.161   0.145  11.136  0.9836 -2.6098 -1.1256
 1051SOL    HW214787   2.072   0.080  11.043  1.5783 -1.7861 -1.1563
 1052SOL     OW14788   3.026   1.188   2.681  0.4032  0.4135  0.0586
 1052SOL    HW114789   3.086   1.204   2.754  0.0361 -1.3511  0.7682
 1052SOL    HW214790   3.080   1.122   2.637 -0.5426  0.2029 -0.7604
 1053SOL     OW14791   2.501   1.102   9.906  0.8503  0.0055 -0.1357
 1053SOL    HW114792   2.531   1.193   9.904  3.2758 -0.7956  0.3483
 1053SOL    HW214793   2.584   1.056   9.905 -0.4397 -2.3202  0.3669
 1054SOL     OW14794   3.553   4.547   6.143 -0.0937  0.9548 -0.0678
 1054SOL    HW114795   3.479   4.506   6.188 -0.8164  0.5960 -1.5788
 1054SOL    HW214796   3.571   4.627   6.191 -0.6299  2.8580 -3.0105
 1055SOL     OW14797   0.995   1.364   4.827 -0.3053 -0.3356 -0.1203
 1055SOL    HW114798   0.943   1.440   4.852 -0.6971 -0.6746  0.0825
 1055SOL    HW214799   1.077   1.396   4.866  0.8028 -0.5479 -2.2359
 1056SOL     OW14800   2.615   2.314   6.565  0.4340 -0.0596  0.1717
 1056SOL    HW114801   2.650   2.390   6.611  2.7442 -0.2530 -1.2675
 1056SOL    HW214802   2.691   2.268   6.531  1.2209  1.0108  0.4883
 1057SOL     OW14803   4.437   3.126   2.258  0.0378  0.2450 -0.8639
 1057SOL    HW114804   4.354   3.118   2.210 -0.3929  0.0296 -0.0820
 1057SOL    HW214805   4.463   3.213   2.227  3.7245  0.2639  2.3319
 1058SOL     OW14806   3.653   0.598  15.929 -0.6087  0.0618  0.6084
 1058SOL    HW114807   3.681   0.662  15.863 -1.8305 -0.5801 -0.5229
 1058SOL    HW214808   3.582   0.644  15.972 -1.0456 -1.4697  1.5131
 1059SOL     OW14809   3.684   1.366   2.822 -0.4640 -0.6031 -0.2859
 1059SOL    HW114810   3.635   1.372   2.740 -0.4874  1.8743 -0.0749
 1059SOL    HW214811   3.608   1.341   2.874 -0.4954 -4.0034 -1.9817
 1060SOL     OW14812   4.626   1.373  16.122  0.0383  0.1121  0.5062
 1060SOL    HW114813   4.704   1.345  16.074 -0.3202 -0.8287  0.4792
 1060SOL    HW214814   4.633   1.303  16.187 -0.1050 -1.2451 -0.9556
 1061SOL     OW14815   1.465   0.632   5.208  0.5883  0.1032 -0.7798
 1061SOL    HW114816   1.394   0.599   5.262  0.6769  0.4136 -0.4731
 1061SOL    HW214817   1.531   0.569   5.235  0.8569  0.0425 -1.5653
 1062SOL     OW14818   3.467   1.498   8.830  0.0569  0.1733  0.4200
 1062SOL    HW114819   3.431   1.545   8.755  1.9113  0.0894 -0.5380
 1062SOL    HW214820   3.537   1.558   8.856  0.2255 -0.2728  0.9859
 1063SOL     OW14821   3.106   0.750  16.420  0.1131  0.4115  0.2485
 1063SOL    HW114822   3.144   0.837  16.431 -1.9191  1.1774  1.4093
 1063SOL    HW214823   3.176   0.690  16.446  0.1053 -0.3804 -1.6027
 1064SOL     OW14824   4.410   0.103  12.065 -0.2483  0.5803  0.1560
 1064SOL    HW114825   4.413   0.008  12.056 -0.4528  0.5106  0.8448
 1064SOL    HW214826   4.503   0.122  12.074 -0.2342  1.1362 -1.1248
 1065SOL     OW14827   3.925   0.999   5.114  0.1198 -0.3488 -0.0055
 1065SOL    HW114828   4.015   0.968   5.108 -0.2348 -1.8385  2.0483
 1065SOL    HW214829   3.881   0.927   5.160  1.1939 -0.0813  1.4439
 1066SOL     OW14830   2.011   3.720   6.743  0.2715 -0.2161 -0.1506
 1066SOL    HW114831   2.003   3.638   6.792 -2.4334 -0.8957 -1.7669
 1066SOL    HW214832   1.923   3.756   6.740  0.4441  0.3392  1.4147
 1067SOL     OW14833   0.198   2.190   9.729 -0.1189 -0.0960 -0.3373
 1067SOL    HW114834   0.112   2.226   9.751 -0.4511 -0.1707 -1.5173
 1067SOL    HW214835   0.257   2.236   9.789 -2.2737  1.6943  0.4126
 1068SOL     OW14836   2.837   3.076  16.844 -0.8575 -0.1067  0.0339
 1068SOL    HW114837   2.858   3.144  16.908  2.3047 -1.1148  0.0347
 1068SOL    HW214838   2.749   3.063  16.880 -1.4672 -0.2332 -1.4971
 1069SOL     OW14839   4.724   0.138   5.653 -0.4685  0.0449  0.0263
 1069SOL    HW114840   4.703   0.053   5.693 -0.9666 -0.3064 -0.9762
 1069SOL    HW214841   0.041   0.180   5.719 -0.3173  0.2306 -0.2226
 1070SOL     OW14842   0.022   2.771  15.558 -0.3146 -0.4674  0.7408
 1070SOL    HW114843   0.117   2.758  15.557 -0.0413  1.8219 -1.0412
 1070SOL    HW214844   4.738   2.748  15.649 -0.5811  0.4998  0.9156
 1071SOL     OW14845   2.195   4.124   0.872 -0.9261 -0.4255  0.3070
 1071SOL    HW114846   2.265   4.088   0.817  0.6039 -1.0898  2.6734
 1071SOL    HW214847   2.123   4.095   0.816  0.4542 -1.8650 -0.6945
 1072SOL     OW14848   4.392   0.081   5.412  0.2645  0.0609 -0.7411
 1072SOL    HW114849   4.415   0.146   5.479 -0.6951 -0.6136  0.2527
 1072SOL    HW214850   4.322   0.123   5.363  0.7840  1.6950 -0.0811
 1073SOL     OW14851   0.781   0.684  15.258 -0.1644  0.4785  0.9001
 1073SOL    HW114852   0.687   0.668  15.244 -0.1864  1.6988 -0.3747
 1073SOL    HW214853   0.817   0.596  15.270 -0.6753  0.4390  2.1544
 1074SOL     OW14854   4.697   0.308  12.021  0.0910  0.3199 -0.6185
 1074SOL    HW114855   0.050   0.291  11.999 -0.3736 -1.1723 -1.3670
 1074SOL    HW214856   4.653   0.252  11.957 -0.5137 -1.1291  1.0635
 1075SOL     OW14857   3.109   0.758  15.431  0.1309 -0.0542 -0.4317
 1075SOL    HW114858   3.089   0.671  15.466  2.0536  0.7031  2.5977
 1075SOL    HW214859   3.035   0.809  15.464  0.3674 -1.0541  1.7023
 1076SOL     OW14860   3.356   2.930   5.036 -0.0207 -0.0342 -0.2011
 1076SOL    HW114861   3.376   2.899   5.124  1.0351 -0.0044 -0.4344
 1076SOL    HW214862   3.440   2.974   5.027  0.3021 -0.4163  0.9381
 1077SOL     OW14863   3.087   0.181   5.411  0.2889  0.0732  0.5376
 1077SOL    HW114864   3.024   0.229   5.464 -0.7411 -2.8304  1.9232
 1077SOL    HW214865   3.147   0.244   5.370 -0.8797  1.2547  0.6691
 1078SOL     OW14866   2.325   2.089   7.376 -0.3142  0.3711  0.1755
 1078SOL    HW114867   2.384   2.138   7.320  0.0211  2.3670  2.2820
 1078SOL    HW214868   2.240   2.118   7.344 -0.5352 -0.1355  0.2961
 1079SOL     OW14869   1.927   4.230   1.505  0.0628 -0.3038  0.4599
 1079SOL    HW114870   1.996   4.267   1.450 -1.2922 -0.6562 -1.4641
 1079SOL    HW214871   1.960   4.142   1.522  1.2874  0.2334  0.8318
 1080SOL     OW14872   3.339   1.867   5.829 -0.4926  0.3854 -0.4942
 1080SOL    HW114873   3.406   1.930   5.803 -0.0702  0.0890 -0.1293
 1080SOL    HW214874   3.349   1.885   5.922  0.5716 -1.3060 -0.2701
 1081SOL     OW14875   3.149   4.434   1.988  0.2258  0.2986  0.1082
 1081SOL    HW114876   3.140   4.477   1.902 -1.1182  0.8323  0.5027
 1081SOL    HW214877   3.055   4.416   1.997  0.7050 -2.0359  0.3857
 1082SOL     OW14878   3.419   1.766  16.752 -0.3259  0.2642 -0.1814
 1082SOL    HW114879   3.495   1.708  16.746 -0.1897  0.2205  2.0261
 1082SOL    HW214880   3.410   1.786  16.658 -0.6537 -0.4785 -0.3118
 1083SOL     OW14881   3.918   3.069   8.770  0.5635  0.3868 -0.0699
 1083SOL    HW114882   3.912   3.164   8.760 -0.9344  0.2832 -0.0977
 1083SOL    HW214883   3.990   3.063   8.832 -2.3099  0.0082  3.1878
 1084SOL     OW14884   2.497   0.998  16.022  0.2916  0.9868  0.9838
 1084SOL    HW114885   2.455   1.009  16.107 -1.9929 -2.6320  0.2988
 1084SOL    HW214886   2.485   1.086  15.987  1.0476  0.1709 -1.3523
 1085SOL     OW14887   2.240   4.013   3.502  0.1604 -0.5268  0.3151
 1085SOL    HW114888   2.261   4.106   3.491 -0.6240 -0.4914 -1.0041
 1085SOL    HW214889   2.289   3.991   3.581 -0.0971  0.4851  0.7631
 1086SOL     OW14890   2.305   3.035  16.343 -0.0156 -0.2767  0.4783
 1086SOL    HW114891   2.352   3.103  16.295  0.3570 -1.6920 -1.1596
 1086SOL    HW214892   2.343   2.959  16.300  1.1679  1.5749 -1.7387
 1087SOL     OW14893   2.015   3.786  10.755 -0.1045 -0.0085  0.4741
 1087SOL    HW114894   1.952   3.738  10.700 -1.3837 -2.1117  3.7416
 1087SOL    HW214895   2.097   3.787  10.705  0.6958 -0.2116  1.8001
 1088SOL     OW14896   3.036   0.471   2.685 -0.2560 -0.2162  0.3496
 1088SOL    HW114897   2.953   0.517   2.700 -0.5908 -0.1136 -1.8572
 1088SOL    HW214898   3.013   0.386   2.722  0.0361 -0.3886  0.1293
 1089SOL     OW14899   3.488   4.028   8.629  0.3772  0.2659 -0.1169
 1089SOL    HW114900   3.521   3.938   8.622  2.6234  1.0154  0.7642
 1089SOL    HW214901   3.478   4.048   8.722 -1.2845 -0.2814 -0.1801
 1090SOL     OW14902   4.448   2.234  13.697  0.4756 -0.3941 -0.5324
 1090SOL    HW114903   4.509   2.238  13.771 -2.1643  0.7101  1.5697
 1090SOL    HW214904   4.381   2.299  13.715 -0.9290 -1.8798 -0.3675
 1091SOL     OW14905   2.625   3.298   4.504 -0.2146 -0.5433  0.0839
 1091SOL    HW114906   2.696   3.331   4.558 -1.3087  0.4593  0.8930
 1091SOL    HW214907   2.618   3.214   4.550  1.7716 -2.7027 -3.5233
 1092SOL     OW14908   2.156   3.465   8.587  0.2074  0.2964  0.4870
 1092SOL    HW114909   2.251   3.456   8.582  0.2457  0.4768  0.8420
 1092SOL    HW214910   2.150   3.548   8.635  1.2706  1.1262 -0.8277
 1093SOL     OW14911   2.369   1.362   5.449 -0.2247  0.4701  0.2808
 1093SOL    HW114912   2.277   1.351   5.425 -0.6677 -0.8488  2.5511
 1093SOL    HW214913   2.374   1.457   5.449  0.8060  0.4177 -0.2700
 1094SOL     OW14914   1.058   0.995   0.394 -0.2236 -0.2792 -0.3153
 1094SOL    HW114915   1.015   1.075   0.425  1.4572  0.2896  0.5077
 1094SOL    HW214916   1.004   0.981   0.316  0.3369  2.8184 -1.2274
 1095SOL     OW14917   3.104   0.584   2.245 -0.2032  0.1415 -0.1976
 1095SOL    HW114918   3.117   0.492   2.221 -0.3660  0.2813 -0.8260
 1095SOL    HW214919   3.194   0.614   2.231 -0.8089  2.6682  1.3220
 1096SOL     OW14920   0.274   4.129   4.143  0.2965 -0.1289  0.1564
 1096SOL    HW114921   0.236   4.192   4.082  1.3501 -0.3342 -0.7028
 1096SOL    HW214922   0.253   4.050   4.094  0.5791  0.9111 -1.6323
 1097SOL     OW14923   2.522   2.433   0.626 -0.1132  0.6395 -0.5842
 1097SOL    HW114924   2.581   2.508   0.621  0.0152  0.4222 -2.2124
 1097SOL    HW214925   2.559   2.388   0.702  0.5921  1.7080 -0.3057
 1098SOL     OW14926   4.664   0.995  17.660  0.4444 -0.1951 -0.1951
 1098SOL    HW114927   4.708   0.975  17.743  0.8020  1.9938  0.1565
 1098SOL    HW214928   4.581   1.030  17.692  0.2264  0.5828 -1.6146
 1099SOL     OW14929   1.686   2.423   6.889 -0.3213 -0.0975  0.1691
 1099SOL    HW114930   1.726   2.353   6.837  0.4743 -0.4104  1.2244
 1099SOL    HW214931   1.749   2.428   6.960  0.1918  0.2273 -0.3084
 1100SOL     OW14932   0.651   3.979   4.854 -0.1665 -0.0058 -0.4496
 1100SOL    HW114933   0.635   3.894   4.814  3.3480 -1.5660  1.5030
 1100SOL    HW214934   0.588   4.040   4.814 -1.7860 -1.7790 -0.6131
 1101SOL     OW14935   4.616   1.845   6.525  0.1509  0.2561  0.5768
 1101SOL    HW114936   4.653   1.757   6.518 -0.3667  0.1153 -0.3648
 1101SOL    HW214937   4.683   1.901   6.484  1.1514 -0.8667  0.6854
 1102SOL     OW14938   4.350   3.440   4.768 -0.3743 -0.7894 -0.5086
 1102SOL    HW114939   4.305   3.501   4.827 -0.9958  1.0740 -2.9030
 1102SOL    HW214940   4.406   3.496   4.714 -0.6172 -1.4711 -1.4614
 1103SOL     OW14941   4.201   2.686   3.211  0.0791 -0.5730 -0.3764
 1103SOL    HW114942   4.238   2.732   3.287  0.2531 -2.3329  0.6130
 1103SOL    HW214943   4.122   2.740   3.202 -0.0466 -0.8434 -0.8660
 1104SOL     OW14944   3.377   0.356  15.159  0.0704  0.5275  0.3389
 1104SOL    HW114945   3.368   0.388  15.249 -0.9977 -0.1910  0.4969
 1104SOL    HW214946   3.391   0.263  15.174 -1.5734 -0.0293 -1.5680
 1105SOL     OW14947   1.951   4.260   3.643 -0.0726 -0.0825  0.4516
 1105SOL    HW114948   1.979   4.350   3.626  3.0278 -0.7254  2.0542
 1105SOL    HW214949   1.993   4.250   3.728  1.3697 -0.9431 -0.3643
 1106SOL     OW14950   0.315   3.659  11.734  0.0794  0.2779 -0.1071
 1106SOL    HW114951   0.340   3.639  11.643  0.4161  0.2650 -0.0101
 1106SOL    HW214952   0.365   3.739  11.751  1.4108 -0.6655  0.3127
 1107SOL     OW14953   3.395   1.340   5.923  0.3599 -0.2784 -1.1215
 1107SOL    HW114954   3.388   1.410   5.988  1.6574 -0.9283 -0.2700
 1107SOL    HW214955   3.409   1.396   5.846 -0.3853  2.5736  0.8131
 1108SOL     OW14956   1.790   1.505   8.593 -0.1612 -0.0497  0.8050
 1108SOL    HW114957   1.865   1.446   8.595  0.2951  0.3245 -5.8606
 1108SOL    HW214958   1.722   1.438   8.583  0.0424 -0.0693 -0.4996
 1109SOL     OW14959   1.312   3.343   3.935 -0.2043  0.0644  0.1660
 1109SOL    HW114960   1.278   3.391   3.859 -0.5872  2.3788  1.7802
 1109SOL    HW214961   1.403   3.341   3.904 -0.5132 -1.4243 -0.6081
 1110SOL     OW14962   2.867   2.342  15.040  0.0073 -0.3858  0.3651
 1110SOL    HW114963   2.787   2.289  15.037 -0.0842 -0.3092  1.6289
 1110SOL    HW214964   2.864   2.375  15.130 -1.2169  2.1638 -0.6298
 1111SOL     OW14965   3.449   4.477  12.247  0.2352  0.0615  0.3133
 1111SOL    HW114966   3.449   4.536  12.172 -0.7169 -1.8112 -1.2005
 1111SOL    HW214967   3.499   4.522  12.315  0.0060  1.0064 -0.1505
 1112SOL     OW14968   1.867   3.520  15.139  0.2737  0.6511 -0.6528
 1112SOL    HW114969   1.908   3.436  15.120 -0.9887  0.0361 -0.5842
 1112SOL    HW214970   1.862   3.501  15.232 -2.3408 -1.3657 -1.2350
 1113SOL     OW14971   1.708   1.134   4.014  0.2207  0.3872 -1.0131
 1113SOL    HW114972   1.734   1.109   4.103  1.5371  0.6732 -1.3076
 1113SOL    HW214973   1.625   1.177   4.032  0.7774  0.9449  0.2111
 1114SOL     OW14974   2.073   3.395   3.730 -0.0828 -0.3346 -0.4596
 1114SOL    HW114975   2.103   3.304   3.733  0.9664  0.0856  1.2287
 1114SOL    HW214976   2.101   3.425   3.816  1.7505 -1.6316 -0.6111
 1115SOL     OW14977   1.127   3.648   6.951  0.4729 -0.1756  0.6097
 1115SOL    HW114978   1.044   3.683   6.984 -1.0461 -1.5386 -1.7025
 1115SOL    HW214979   1.118   3.557   6.977 -1.7549 -0.3872 -0.8933
 1116SOL     OW14980   2.446   3.181   7.604  0.1863  0.0155 -0.2978
 1116SOL    HW114981   2.515   3.195   7.669  0.4026  0.3249 -0.5955
 1116SOL    HW214982   2.470   3.252   7.545 -0.7061 -0.1744 -0.8922
 1117SOL     OW14983   1.887   1.055   7.535  0.4683 -0.2490  0.0553
 1117SOL    HW114984   1.806   1.073   7.584  0.7701 -1.0430  0.8470
 1117SOL    HW214985   1.944   1.129   7.554  0.8682 -0.9881  1.7472
 1118SOL     OW14986   3.431   0.075  14.461  0.8767  0.4346  0.3206
 1118SOL    HW114987   3.519   0.102  14.434  0.5357  1.5832  0.3297
 1118SOL    HW214988   3.454   4.731  14.504 -4.8897 -2.0404 -1.4211
 1119SOL     OW14989   4.336   4.486  15.113  0.2239 -0.0585  0.2178
 1119SOL    HW114990   4.356   4.563  15.060 -0.4496 -0.0868 -0.0864
 1119SOL    HW214991   4.362   4.517  15.199 -0.9276  2.5526 -0.3814
 1120SOL     OW14992   0.603   3.732  16.437  0.7405 -0.4988 -0.5190
 1120SOL    HW114993   0.577   3.682  16.515 -1.1520  1.0583 -0.1539
 1120SOL    HW214994   0.541   3.805  16.432  0.0727 -0.9661  0.6616
 1121SOL     OW14995   0.053   3.636  17.506  0.4640 -0.5528  0.2820
 1121SOL    HW114996   0.017   3.591  17.430 -2.2125 -2.5543  2.7416
 1121SOL    HW214997   0.128   3.678  17.464 -0.8892  0.2608 -1.3068
 1122SOL     OW14998   1.661   2.392   8.465 -0.1496 -0.2181  0.5391
 1122SOL    HW114999   1.698   2.353   8.385 -0.7955 -0.4276  0.3482
 1122SOL    HW215000   1.592   2.444   8.424  0.3530  0.6908  0.8330
 1123SOL     OW15001   2.124   1.627   3.364 -0.3286 -0.9783 -0.1369
 1123SOL    HW115002   2.142   1.543   3.407 -0.7026 -1.1928 -0.3936
 1123SOL    HW215003   2.142   1.608   3.272  1.5552 -0.3477  0.1033
 1124SOL     OW15004   4.600   2.538   6.606  0.1584  0.0139 -0.3149
 1124SOL    HW115005   4.631   2.611   6.660  0.5874  0.6712 -1.4480
 1124SOL    HW215006   4.543   2.584   6.544 -1.2203  0.8259  1.5818
 1125SOL     OW15007   0.704   1.299   2.395 -0.2224  0.4445  0.4016
 1125SOL    HW115008   0.623   1.347   2.381  0.8829  1.6701 -1.9153
 1125SOL    HW215009   0.675   1.207   2.394 -2.0804  1.0289  2.2501
 1126SOL     OW15010   3.726   2.473   3.288  0.2474  0.3042  0.4443
 1126SOL    HW115011   3.632   2.462   3.298  0.3529  1.6097  2.6298
 1126SOL    HW215012   3.755   2.463   3.378  1.0441  0.7474  0.2359
 1127SOL     OW15013   4.248   2.372   4.759  0.5282 -0.0015  0.2539
 1127SOL    HW115014   4.153   2.370   4.772  0.2898 -1.8890 -1.8913
 1127SOL    HW215015   4.253   2.374   4.664  1.3143  3.4127  0.3703
 1128SOL     OW15016   4.508   1.738  15.395  0.0158  0.2443 -0.7170
 1128SOL    HW115017   4.479   1.653  15.363 -1.1279  1.4771 -2.9817
 1128SOL    HW215018   4.444   1.798  15.357  0.9699  2.2121  0.7645
 1129SOL     OW15019   3.767   3.534   3.481 -0.5388 -0.1903 -0.2002
 1129SOL    HW115020   3.722   3.455   3.512 -0.2690  0.2308  1.2674
 1129SOL    HW215021   3.688   3.585   3.461 -0.7031  0.6877  2.6411
 1130SOL     OW15022   0.701   1.105   8.252  0.2078 -0.8047  0.0449
 1130SOL    HW115023   0.691   1.162   8.327 -1.3786 -2.2873  0.9725
 1130SOL    HW215024   0.640   1.148   8.192  2.2476 -2.5319 -3.2717
 1131SOL     OW15025   1.251   3.823  16.573  0.0952  0.1114  0.2283
 1131SOL    HW115026   1.316   3.759  16.544  0.6829  1.2381 -0.9447
 1131SOL    HW215027   1.173   3.772  16.591  0.4709 -0.3292  0.6111
 1132SOL     OW15028   0.633   1.083   5.863  0.4161 -0.5656 -0.7030
 1132SOL    HW115029   0.655   1.037   5.781  0.8983  0.2148 -1.0028
 1132SOL    HW215030   0.538   1.093   5.851  0.3502  0.2432  0.5435
 1133SOL     OW15031   2.736   4.097   4.851  0.0915 -0.6240 -0.1636
 1133SOL    HW115032   2.669   4.029   4.841  0.1311 -1.1956  3.7004
 1133SOL    HW215033   2.695   4.160   4.791  1.4799  0.3138 -0.1087
 1134SOL     OW15034   1.009   1.208   4.596  0.3337 -0.3645 -0.6845
 1134SOL    HW115035   0.946   1.248   4.535 -2.3967 -2.6041  0.6265
 1134SOL    HW215036   0.984   1.264   4.669  1.4301  0.3121 -0.8283
 1135SOL     OW15037   0.871   3.723   9.326  0.5032 -0.0661 -0.4836
 1135SOL    HW115038   0.814   3.792   9.290 -1.2333 -0.6102  1.2192
 1135SOL    HW215039   0.958   3.760   9.310  1.1023  0.6439  4.1678
 1136SOL     OW15040   1.295   2.848   4.860  0.5915  0.6231 -0.3062
 1136SOL    HW115041   1.292   2.928   4.808 -0.7931  0.4206 -0.5431
 1136SOL    HW215042   1.293   2.779   4.794  0.7246  0.0262  0.3081
 1137SOL     OW15043   1.236   4.518  15.864 -0.4553 -0.6668  0.1088
 1137SOL    HW115044   1.194   4.603  15.854 -1.9988 -1.6469 -1.8648
 1137SOL    HW215045   1.287   4.505  15.784  1.9591 -0.9494  1.7193
 1138SOL     OW15046   3.284   4.072   3.817  0.1697 -0.5864 -0.2462
 1138SOL    HW115047   3.317   3.985   3.835 -3.0022 -1.5029  1.1446
 1138SOL    HW215048   3.303   4.081   3.723 -1.3042 -0.5208 -0.5385
 1139SOL     OW15049   1.463   1.602  10.010 -0.6672  0.1308  0.0395
 1139SOL    HW115050   1.416   1.559   9.938 -0.0576  0.1496 -0.3633
 1139SOL    HW215051   1.552   1.606   9.977 -0.7566  2.1326  0.0266
 1140SOL     OW15052   0.712   0.136   8.450 -0.0619  0.1597  0.4556
 1140SOL    HW115053   0.671   0.197   8.511 -0.1617  0.7043 -0.1630
 1140SOL    HW215054   0.803   0.165   8.448 -0.0957  0.0819 -1.8182
 1141SOL     OW15055   2.849   3.914   1.529  0.2115 -0.2157 -0.1064
 1141SOL    HW115056   2.868   4.007   1.545  1.7122 -0.4786 -0.3945
 1141SOL    HW215057   2.756   3.918   1.507  0.0534 -0.1845  0.5531
 1142SOL     OW15058   4.467   3.389   7.991 -0.3068  0.0128  0.0075
 1142SOL    HW115059   4.438   3.475   7.963  0.4960 -0.6439 -2.7958
 1142SOL    HW215060   4.523   3.370   7.916  0.5656 -1.1194  0.9308
 1143SOL     OW15061   0.635   2.459   2.360 -0.0933  0.0049  0.5225
 1143SOL    HW115062   0.722   2.447   2.399  0.5894  1.4320 -0.5822
 1143SOL    HW215063   0.651   2.534   2.304  0.5106 -1.4741 -1.2885
 1144SOL     OW15064   2.615   3.561  16.085 -0.5744 -0.5515  0.2532
 1144SOL    HW115065   2.667   3.590  16.160  1.2283 -1.9896 -0.4614
 1144SOL    HW215066   2.526   3.544  16.117 -0.2170 -1.8673  0.5510
 1145SOL     OW15067   2.491   3.835   3.967  0.7057 -0.1777  0.0199
 1145SOL    HW115068   2.502   3.758   4.022 -2.3548 -0.8832 -0.3504
 1145SOL    HW215069   2.550   3.893   4.015 -0.2761  0.2067  0.7514
 1146SOL     OW15070   0.157   3.441  13.867 -0.3675 -0.4888  0.4453
 1146SOL    HW115071   0.114   3.498  13.803  3.6948 -0.3192 -2.1256
 1146SOL    HW215072   0.166   3.499  13.942 -2.4285  0.1233  0.1940
 1147SOL     OW15073   1.193   4.603   2.656 -0.5412  0.6361 -0.4895
 1147SOL    HW115074   1.281   4.640   2.649 -0.2949  0.1501  0.0472
 1147SOL    HW215075   1.195   4.568   2.745  0.7975  0.7737 -0.4642
 1148SOL     OW15076   0.310   2.042   1.007  0.2956 -0.0784 -0.4501
 1148SOL    HW115077   0.264   1.960   0.992 -0.4776  0.4607 -1.0312
 1148SOL    HW215078   0.374   2.017   1.074  1.2231 -0.4600 -1.4834
 1149SOL     OW15079   2.535   0.037  11.245  0.4663 -0.1667  0.2206
 1149SOL    HW115080   2.546   4.722  11.323 -1.3895 -0.7830  0.0510
 1149SOL    HW215081   2.453   0.003  11.208  0.9526  0.5021 -1.4989
 1150SOL     OW15082   2.647   3.593  14.641  0.4941 -0.0628 -0.1593
 1150SOL    HW115083   2.633   3.553  14.555 -0.6776 -0.4573  0.2140
 1150SOL    HW215084   2.742   3.608  14.642  0.4862  0.0193 -0.5767
 1151SOL     OW15085   4.253   0.596   3.065  0.2916 -0.3778 -0.3314
 1151SOL    HW115086   4.174   0.552   3.032 -0.2638 -1.1111  1.9447
 1151SOL    HW215087   4.282   0.643   2.987 -3.8159  1.8010 -0.5427
 1152SOL     OW15088   2.516   4.262   6.287 -0.2318 -0.0329 -0.4176
 1152SOL    HW115089   2.562   4.340   6.254  1.0447 -1.0151 -0.9484
 1152SOL    HW215090   2.566   4.258   6.369 -2.4713 -1.2782  0.8799
 1153SOL     OW15091   2.349   2.742   6.856  0.1006 -0.2839 -0.4978
 1153SOL    HW115092   2.305   2.818   6.817 -0.5840 -1.0979 -1.3165
 1153SOL    HW215093   2.418   2.778   6.911  1.4107 -0.5029 -1.9820
 1154SOL     OW15094   1.837   1.677  17.363  0.0412  0.4984 -0.1341
 1154SOL    HW115095   1.857   1.586  17.385 -1.4666 -0.6188 -3.4145
 1154SOL    HW215096   1.798   1.667  17.276 -2.3392 -0.0585  1.0231
 1155SOL     OW15097   1.317   3.568   9.230 -0.0414  0.3438  1.1283
 1155SOL    HW115098   1.364   3.631   9.174  0.8110  0.3002  1.7964
 1155SOL    HW215099   1.335   3.615   9.311 -1.7685 -1.2288  2.4053
 1156SOL     OW15100   0.182   4.005   1.529  0.0317  0.5987 -0.2682
 1156SOL    HW115101   0.237   4.053   1.591 -0.4788  1.6458 -0.6343
 1156SOL    HW215102   0.241   4.001   1.453  0.9834  4.0959  0.2873
 1157SOL     OW15103   1.404   2.875   6.143  0.3542 -0.6269  0.0573
 1157SOL    HW115104   1.431   2.967   6.142  2.2985 -1.2201 -1.1809
 1157SOL    HW215105   1.469   2.831   6.088 -0.5188  1.1297 -2.3712
 1158SOL     OW15106   2.413   2.559   6.145 -0.1638 -0.1373  0.1436
 1158SOL    HW115107   2.384   2.519   6.227  0.3703 -2.7972 -0.9615
 1158SOL    HW215108   2.355   2.634   6.152  0.2513  0.5804 -4.2225
 1159SOL     OW15109   2.989   1.183  16.073 -0.4551 -0.1395 -0.3085
 1159SOL    HW115110   3.040   1.137  16.006  0.4119  0.0235  0.2388
 1159SOL    HW215111   3.055   1.222  16.130 -0.5003  2.0382 -1.7106
 1160SOL     OW15112   1.227   1.368  15.236  0.3758 -1.1410 -0.1478
 1160SOL    HW115113   1.226   1.341  15.328  0.8038  0.3080  0.2717
 1160SOL    HW215114   1.238   1.287  15.186 -1.4417 -1.8192  0.5508
 1161SOL     OW15115   2.364   0.395   5.070 -0.2170 -0.5413  0.0577
 1161SOL    HW115116   2.274   0.425   5.061  1.0201  2.7151 -1.5459
 1161SOL    HW215117   2.364   0.324   5.007 -0.0676 -1.7776  1.4560
 1162SOL     OW15118   4.271   3.990   6.014  0.0628  0.2862  0.3638
 1162SOL    HW115119   4.338   4.052   6.044 -0.2141  0.6907  0.1428
 1162SOL    HW215120   4.263   3.934   6.091 -1.3535  0.4409  0.3129
 1163SOL     OW15121   0.073   3.421   7.461 -0.2870  0.6965  0.4878
 1163SOL    HW115122   0.083   3.351   7.526 -2.0655  0.2208  0.2369
 1163SOL    HW215123   0.015   3.381   7.396 -0.9046  1.5800  0.4990
 1164SOL     OW15124   3.466   0.984  17.673  0.1310 -0.5571 -0.5224
 1164SOL    HW115125   3.411   0.990  17.750  1.7909  1.1673  0.5410
 1164SOL    HW215126   3.537   0.931  17.711 -1.0653 -0.7704  1.4044
 1165SOL     OW15127   0.213   1.446   3.389 -0.1989  0.7585  0.0482
 1165SOL    HW115128   0.118   1.440   3.384 -0.4987  1.7389  3.9989
 1165SOL    HW215129   0.221   1.519   3.328 -0.1542 -0.1483 -1.0314
 1166SOL     OW15130   1.357   0.217   2.965  0.6732 -0.3455 -0.6482
 1166SOL    HW115131   1.406   0.152   2.914  1.0051 -0.8174  0.2704
 1166SOL    HW215132   1.441   0.253   2.995 -0.2865  2.4778 -1.3505
 1167SOL     OW15133   0.263   3.997   2.449  0.0465 -0.5423 -0.3854
 1167SOL    HW115134   0.328   3.989   2.520  0.4745 -0.7575 -0.8037
 1167SOL    HW215135   0.201   4.061   2.482 -1.6752 -2.7455  0.6981
 1168SOL     OW15136   0.482   2.131   6.210 -0.2223  0.0204 -0.3631
 1168SOL    HW115137   0.491   2.114   6.304  0.7950  1.2260 -0.2417
 1168SOL    HW215138   0.393   2.166   6.211 -0.5718 -0.8790  1.4938
 1169SOL     OW15139   4.592   1.030   3.455  0.1212 -0.2295 -0.1396
 1169SOL    HW115140   4.637   0.945   3.459  1.6027  0.5242 -0.9488
 1169SOL    HW215141   4.657   1.075   3.508  0.0755  0.7077 -0.8950
 1170SOL     OW15142   3.584   1.561  14.520 -1.0289  0.1782  0.2401
 1170SOL    HW115143   3.493   1.551  14.548 -1.3848  2.3749 -0.0934
 1170SOL    HW215144   3.626   1.574  14.606  0.8724  1.1935 -0.8500
 1171SOL     OW15145   3.498   3.938   6.322 -0.3477  0.4192 -0.6560
 1171SOL    HW115146   3.561   3.968   6.256 -1.0030 -0.9082 -1.8852
 1171SOL    HW215147   3.552   3.893   6.388 -3.2115 -1.5001  0.3810
 1172SOL     OW15148   2.090   2.307   8.772  0.9825 -0.6182  0.2766
 1172SOL    HW115149   2.170   2.258   8.752  1.2446  0.4274 -1.2233
 1172SOL    HW215150   2.019   2.243   8.766  2.6300 -2.4974  1.0349
 1173SOL     OW15151   4.527   2.302   5.681  0.1511 -0.8274 -0.0519
 1173SOL    HW115152   4.597   2.250   5.721  0.2875  0.3434  1.2475
 1173SOL    HW215153   4.465   2.324   5.751 -2.3254 -0.2883 -2.4286
 1174SOL     OW15154   0.170   2.544   5.080  0.3995  0.6173 -0.7197
 1174SOL    HW115155   0.183   2.450   5.076 -0.9401  0.4244 -0.5385
 1174SOL    HW215156   0.158   2.571   4.988 -0.8053  0.2517 -0.6709
 1175SOL     OW15157   3.644   2.387  15.052  0.0844  0.1888  0.5120
 1175SOL    HW115158   3.565   2.385  15.105  0.8546  0.4249  1.6600
 1175SOL    HW215159   3.636   2.295  15.027  2.4748 -0.0433  0.5736
 1176SOL     OW15160   1.940   4.684   4.689  0.4204  0.1409  0.2945
 1176SOL    HW115161   1.853   4.724   4.687  1.1707  1.8499  1.5852
 1176SOL    HW215162   1.923   4.611   4.748  0.8578  1.6774  2.3426
 1177SOL     OW15163   1.552   3.423   3.826  0.3249 -0.3288  0.1523
 1177SOL    HW115164   1.494   3.443   3.752 -0.4701 -1.0041  0.5898
 1177SOL    HW215165   1.638   3.422   3.783  0.8956  0.2052  1.3089
 1178SOL     OW15166   2.316   3.314   2.613 -0.5741 -0.3613  0.4108
 1178SOL    HW115167   2.311   3.282   2.523  0.1007  1.8917 -0.4400
 1178SOL    HW215168   2.410   3.306   2.629 -0.4238  1.7183  0.5904
 1179SOL     OW15169   4.422   1.200   3.288 -0.0873  0.0452  0.8054
 1179SOL    HW115170   4.479   1.148   3.345  0.4653  0.3866  0.5604
 1179SOL    HW215171   4.379   1.251   3.357  2.1830  1.9507  0.8075
 1180SOL     OW15172   3.345   0.991   5.425 -0.5297  0.2707  0.1674
 1180SOL    HW115173   3.405   0.942   5.480  0.4582  0.3168 -0.8794
 1180SOL    HW215174   3.286   1.023   5.493  0.1959  3.6817 -0.8211
 1181SOL     OW15175   3.422   1.577   6.064  0.2576  0.0197  0.2198
 1181SOL    HW115176   3.426   1.652   6.123  0.5336 -0.8692  1.3229
 1181SOL    HW215177   3.468   1.614   5.988 -2.1158  2.0617 -0.2519
 1182SOL     OW15178   2.329   1.392   4.548  0.0149  0.2506 -0.2469
 1182SOL    HW115179   2.340   1.469   4.603  0.5082 -1.1566  1.6195
 1182SOL    HW215180   2.416   1.356   4.568 -0.1600 -0.5008 -0.8364
 1183SOL     OW15181   0.794   0.230  12.774  0.1121 -0.1820 -0.1406
 1183SOL    HW115182   0.712   0.249  12.727 -0.6593  2.6353  2.3428
 1183SOL    HW215183   0.806   0.143  12.737  1.2978  0.2007 -0.6554
 1184SOL     OW15184   2.176   0.165   1.836 -0.1190  0.2273  0.6100
 1184SOL    HW115185   2.087   0.162   1.801  0.3173 -2.9548 -0.2187
 1184SOL    HW215186   2.230   0.198   1.765 -1.3702 -3.2272 -1.9608
 1185SOL     OW15187   4.383   2.162  12.479 -0.0152  0.4220  0.3875
 1185SOL    HW115188   4.303   2.111  12.467  0.5249 -0.0091 -1.3308
 1185SOL    HW215189   4.401   2.156  12.573 -1.1412 -0.5747  0.5491
 1186SOL     OW15190   3.937   2.099   9.088 -0.2262  0.1882  0.2119
 1186SOL    HW115191   4.005   2.049   9.134 -0.7873  0.0331  0.8840
 1186SOL    HW215192   3.875   2.026   9.081  0.9080 -0.7559 -0.0627
 1187SOL     OW15193   4.423   1.081   7.249 -0.2868  0.0615  0.2666
 1187SOL    HW115194   4.392   1.169   7.226  0.5752  0.4695  0.6810
 1187SOL    HW215195   4.426   1.086   7.344 -0.1060 -0.5552  0.2950
 1188SOL     OW15196   0.069   3.082   4.681  0.0428  0.2895 -0.1260
 1188SOL    HW115197   0.011   3.120   4.747 -0.7803  1.5468 -1.5723
 1188SOL    HW215198   0.091   3.006   4.734  0.8115  0.1813 -0.6110
 1189SOL     OW15199   0.219   3.501   8.616  0.1359 -0.7234  0.2379
 1189SOL    HW115200   0.241   3.492   8.523 -2.1749 -1.5710 -0.2271
 1189SOL    HW215201   0.162   3.578   8.616  0.6688 -0.3361 -0.8138
 1190SOL     OW15202   3.951   3.043   1.813 -0.6338  0.0630 -0.4213
 1190SOL    HW115203   3.959   2.956   1.773  0.4941 -0.4678  0.9275
 1190SOL    HW215204   3.874   3.079   1.769  0.9101  0.5798 -2.7419
 1191SOL     OW15205   3.344   1.871   8.051 -0.4510 -0.4484  0.0390
 1191SOL    HW115206   3.304   1.958   8.048 -1.2413 -0.7920  0.6427
 1191SOL    HW215207   3.420   1.872   8.109  0.3243  0.2992 -0.9860
 1192SOL     OW15208   3.217   4.717   8.349 -0.7720  0.1931 -0.0622
 1192SOL    HW115209   3.159   0.010   8.418  0.2633 -1.3382  1.5152
 1192SOL    HW215210   3.160   4.650   8.312 -0.5483  1.1552 -2.1301
 1193SOL     OW15211   0.565   3.935   8.594  0.5821 -0.4078 -0.1022
 1193SOL    HW115212   0.579   3.919   8.687  2.5454  1.2389 -0.1318
 1193SOL    HW215213   0.470   3.929   8.589  0.4906  1.6501 -0.6016
 1194SOL     OW15214   0.104   3.023   1.482 -0.4219 -0.1769  0.1246
 1194SOL    HW115215   0.099   2.935   1.445 -2.5877 -0.1009  0.2072
 1194SOL    HW215216   0.115   3.077   1.404 -2.5774 -1.1656 -0.8443
 1195SOL     OW15217   2.769   3.627  12.729 -0.0292 -0.1430 -0.2498
 1195SOL    HW115218   2.863   3.609  12.725 -0.1676 -0.2136 -3.3662
 1195SOL    HW215219   2.755   3.580  12.811  0.7020  2.4914  1.3716
 1196SOL     OW15220   4.459   3.375   7.331 -0.5178  0.2036  0.1432
 1196SOL    HW115221   4.430   3.458   7.368  2.2572  1.3655 -0.2954
 1196SOL    HW215222   4.409   3.323   7.395  1.0545  1.2258  2.1840
 1197SOL     OW15223   1.438   2.991  12.231 -0.0144 -0.0173 -0.2267
 1197SOL    HW115224   1.503   2.964  12.295 -0.7887 -1.4164 -0.0296
 1197SOL    HW215225   1.487   3.022  12.155 -0.7074 -0.7403 -0.9687
 1198SOL     OW15226   1.755   4.486   2.531 -0.1852 -0.2236  0.2794
 1198SOL    HW115227   1.759   4.509   2.438 -0.5610 -1.4284 -0.0256
 1198SOL    HW215228   1.678   4.430   2.536  0.4349 -1.1218 -0.0485
 1199SOL     OW15229   3.436   3.561   6.546  0.0713 -0.0462  0.0015
 1199SOL    HW115230   3.373   3.617   6.502  1.0920  0.7724 -0.4002
 1199SOL    HW215231   3.386   3.480   6.557 -2.6295  1.8381  1.3414
 1200SOL     OW15232   1.842   1.575   6.933  0.1544 -0.0522  0.4961
 1200SOL    HW115233   1.787   1.498   6.921  1.3847 -1.0135  1.0593
 1200SOL    HW215234   1.869   1.575   6.841 -1.5454 -0.0086  0.0086
 1201SOL     OW15235   1.495   3.322  11.260  0.1734 -0.1195 -0.2527
 1201SOL    HW115236   1.468   3.267  11.333  0.2225  0.1143 -0.0577
 1201SOL    HW215237   1.408   3.331  11.220 -0.3971  0.9226  1.1943
 1202SOL     OW15238   1.834   0.830   5.919 -0.1203 -0.4208 -0.2249
 1202SOL    HW115239   1.915   0.846   5.966  1.6206 -0.5094 -3.1622
 1202SOL    HW215240   1.820   0.737   5.938 -0.0512 -1.0169 -3.0590
 1203SOL     OW15241   1.981   0.889  10.221  0.2295 -0.3884 -0.4449
 1203SOL    HW115242   1.930   0.957  10.179  2.9026  2.2418  0.6011
 1203SOL    HW215243   1.924   0.813  10.208 -1.9187  0.8566  1.8105
 1204SOL     OW15244   3.581   1.172  16.320 -0.7248  0.5341 -0.2451
 1204SOL    HW115245   3.495   1.133  16.304 -0.3488  0.2990 -1.7276
 1204SOL    HW215246   3.628   1.133  16.246 -0.6823  0.7489 -0.3327
 1205SOL     OW15247   0.760   3.803   8.355  0.6797 -0.1010  0.0110
 1205SOL    HW115248   0.723   3.871   8.411  1.3024  1.6687 -1.7199
 1205SOL    HW215249   0.848   3.789   8.390  0.9896 -2.0975 -1.5988
 1206SOL     OW15250   0.879   0.449   9.218 -0.3191 -0.0529  0.2036
 1206SOL    HW115251   0.854   0.528   9.171  1.4833 -0.4663 -1.4496
 1206SOL    HW215252   0.890   0.387   9.146 -1.3365 -0.1587  0.1476
 1207SOL     OW15253   2.813   1.599   8.161 -0.0383 -0.1271 -0.1396
 1207SOL    HW115254   2.837   1.691   8.152  0.2000 -0.4351 -2.5044
 1207SOL    HW215255   2.733   1.580   8.112  0.9729 -0.8373 -1.4966
 1208SOL     OW15256   0.591   0.704   9.734 -0.4690  0.7145 -0.7710
 1208SOL    HW115257   0.606   0.735   9.823 -0.4555 -2.2047  0.2375
 1208SOL    HW215258   0.529   0.631   9.737 -0.5708  0.9962  3.4532
 1209SOL     OW15259   2.180   1.233   9.259  0.3266 -0.1611 -0.1920
 1209SOL    HW115260   2.103   1.287   9.280  0.8307  0.6523 -0.4370
 1209SOL    HW215261   2.208   1.248   9.169  2.0191 -0.8598  0.2194
 1210SOL     OW15262   4.541   2.041  10.487 -0.1567 -0.0479  0.2016
 1210SOL    HW115263   4.527   1.987  10.409  1.7294 -1.2196  0.6822
 1210SOL    HW215264   4.457   2.088  10.488  0.4257  0.9646  1.1854
 1211SOL     OW15265   2.486   3.887   8.684 -0.2401 -0.3673 -0.3763
 1211SOL    HW115266   2.569   3.931   8.703  0.2816 -1.9101  0.9198
 1211SOL    HW215267   2.453   3.932   8.606 -0.3501  0.9159  0.4143
 1212SOL     OW15268   4.541   2.963  12.253 -0.3764  0.2385 -0.3240
 1212SOL    HW115269   4.516   2.973  12.345 -0.9152  0.2155 -0.4667
 1212SOL    HW215270   4.502   2.881  12.223  3.2379 -1.1733 -1.1089
 1213SOL     OW15271   1.464   2.508   7.052 -0.0706 -0.6738  0.3322
 1213SOL    HW115272   1.527   2.479   6.986  0.4925  1.9107 -0.2625
 1213SOL    HW215273   1.492   2.599   7.054  2.4227 -1.4303  0.3327
 1214SOL     OW15274   1.224   3.506   6.350 -0.4804  0.5997 -0.2874
 1214SOL    HW115275   1.161   3.442   6.384 -0.5039  1.1871  0.7560
 1214SOL    HW215276   1.309   3.469   6.374 -1.4353 -1.3954  0.0439
 1215SOL     OW15277   2.733   3.562   3.941  0.1935  0.6604 -0.7104
 1215SOL    HW115278   2.652   3.538   3.986  1.8942 -1.5068  1.2496
 1215SOL    HW215279   2.767   3.622   4.007  0.4915 -0.4460  0.1539
 1216SOL     OW15280   1.267   2.348   2.495  0.0403  0.4234  0.2877
 1216SOL    HW115281   1.172   2.351   2.493 -0.0012  1.3726  2.7603
 1216SOL    HW215282   1.293   2.372   2.584  1.9104 -0.7537  0.0756
 1217SOL     OW15283   4.653   1.276   6.597 -0.5599 -0.3052 -0.4327
 1217SOL    HW115284   4.624   1.200   6.647 -0.3478 -1.5824 -2.2319
 1217SOL    HW215285   0.008   1.257   6.596 -0.8343 -1.9030  2.9396
 1218SOL     OW15286   0.113   1.889   7.980 -1.0066  0.1132  0.1834
 1218SOL    HW115287   0.118   1.907   7.886 -5.8412  1.8966  0.2731
 1218SOL    HW215288   0.133   1.977   8.011 -0.1017  0.4427 -1.3447
 1219SOL     OW15289   3.564   1.988  16.940 -0.3338  0.5983 -0.0631
 1219SOL    HW115290   3.629   1.990  16.870  0.6530  0.2914  0.8308
 1219SOL    HW215291   3.577   1.897  16.968 -0.8814  1.1249  1.9190
 1220SOL     OW15292   2.617   3.490   2.424 -0.1230 -0.5127 -0.1377
 1220SOL    HW115293   2.560   3.551   2.377  0.0196  0.6644  1.2066
 1220SOL    HW215294   2.593   3.402   2.397  1.1941 -0.9432  0.1019
 1221SOL     OW15295   2.199   4.711  15.923 -0.8143 -0.1266  0.6410
 1221SOL    HW115296   2.160   0.025  15.993  0.1209 -0.3173  1.3057
 1221SOL    HW215297   2.274   0.026  15.896 -1.5538  1.0129  0.8478
 1222SOL     OW15298   0.340   1.426  10.062  0.0650  0.0177 -0.6693
 1222SOL    HW115299   0.310   1.406   9.973 -1.3261 -0.4618 -0.0876
 1222SOL    HW215300   0.257   1.443  10.105 -0.0174 -0.9779 -0.4494
 1223SOL     OW15301   3.077   4.346   1.665  0.1693  0.1634 -0.2420
 1223SOL    HW115302   3.155   4.315   1.710  1.6401  2.0116 -1.4922
 1223SOL    HW215303   3.023   4.375   1.739 -0.3528 -0.2616 -0.4603
 1224SOL     OW15304   4.240   1.148  13.145  0.3063  0.6938  0.7850
 1224SOL    HW115305   4.208   1.071  13.192  0.6047  1.0741  1.5985
 1224SOL    HW215306   4.275   1.196  13.219  1.8338  0.0550  0.4742
 1225SOL     OW15307   2.520   3.601   4.119 -0.0538  0.2933 -0.1166
 1225SOL    HW115308   2.502   3.512   4.148  0.3438 -0.5464 -2.5265
 1225SOL    HW215309   2.526   3.647   4.203 -2.6405 -2.5682  1.6369
 1226SOL     OW15310   2.584   1.833   7.731 -0.3918 -0.4105 -0.6845
 1226SOL    HW115311   2.563   1.759   7.674 -0.4607  0.7645 -2.1937
 1226SOL    HW215312   2.654   1.880   7.686  0.8792  0.5071  2.2350
 1227SOL     OW15313   1.979   3.803   4.036 -0.5015 -0.2225  0.0551
 1227SOL    HW115314   1.961   3.709   4.039  0.3036 -0.3533  0.6331
 1227SOL    HW215315   1.959   3.825   3.945  1.1272 -2.7513 -0.9275
 1228SOL     OW15316   4.584   0.635   3.814  0.1919 -0.2043  0.4982
 1228SOL    HW115317   4.502   0.628   3.766 -1.3409 -0.3295  3.1639
 1228SOL    HW215318   4.606   0.727   3.798 -0.6750 -0.3927 -1.8310
 1229SOL     OW15319   1.346   3.146   3.095  0.2022  0.2005 -0.2779
 1229SOL    HW115320   1.383   3.176   3.012  0.2369 -1.0587 -0.7162
 1229SOL    HW215321   1.417   3.157   3.159 -1.8672  1.2457  1.8610
 1230SOL     OW15322   2.625   1.664   3.277 -0.0484  0.3187 -0.2895
 1230SOL    HW115323   2.566   1.648   3.351 -0.2405  0.8840 -0.3227
 1230SOL    HW215324   2.568   1.654   3.201 -2.2033  0.1857  1.3446
 1231SOL     OW15325   2.275   0.392  15.897  0.2507 -0.1719  0.3621
 1231SOL    HW115326   2.270   0.487  15.883 -0.0957 -0.3665 -0.8007
 1231SOL    HW215327   2.320   0.355  15.821 -0.7138 -1.6890  0.5352
 1232SOL     OW15328   4.578   3.435   8.562  0.0540  0.6730 -0.1221
 1232SOL    HW115329   4.582   3.480   8.477  2.0186  0.7312 -0.0098
 1232SOL    HW215330   4.622   3.353   8.538 -1.5074 -0.9989  2.7129
 1233SOL     OW15331   0.883   0.695   2.485  0.0228 -0.0053 -0.1768
 1233SOL    HW115332   0.966   0.740   2.466  0.8071 -1.1710  0.4420
 1233SOL    HW215333   0.880   0.704   2.580  0.6934 -1.4909 -0.0080
 1234SOL     OW15334   2.532   3.281  11.382 -0.5298 -0.2759 -0.2760
 1234SOL    HW115335   2.475   3.247  11.451 -1.4393 -1.8249 -1.8015
 1234SOL    HW215336   2.544   3.373  11.405 -1.2159 -0.1568 -0.3790
 1235SOL     OW15337   4.193   3.858   8.395 -0.2870 -0.3546  0.6529
 1235SOL    HW115338   4.285   3.858   8.368 -1.1080 -0.4949 -2.1785
 1235SOL    HW215339   4.179   3.941   8.350 -2.5762 -0.1958  1.6713
 1236SOL     OW15340   1.665   2.899  17.119 -0.1352 -0.7079 -0.3148
 1236SOL    HW115341   1.589   2.842  17.136 -1.7781  2.0850  1.6282
 1236SOL    HW215342   1.692   2.954  17.193 -0.9283  0.1649 -0.6689
 1237SOL     OW15343   4.165   2.104   2.709 -0.4765 -0.5896  0.1313
 1237SOL    HW115344   4.234   2.099   2.642 -0.3454  1.1101  0.1298
 1237SOL    HW215345   4.098   2.134   2.647 -1.6566 -0.6627  1.3829
 1238SOL     OW15346   3.148   2.144   5.985 -0.2305 -0.2832 -0.1075
 1238SOL    HW115347   3.128   2.080   5.917  1.4100 -2.7212  1.7200
 1238SOL    HW215348   3.216   2.100   6.035  0.4979  1.1491  0.1521
 1239SOL     OW15349   3.078   2.513   8.596 -0.8289 -0.7144  0.8081
 1239SOL    HW115350   3.156   2.507   8.542 -0.2763 -1.4215  1.6884
 1239SOL    HW215351   3.095   2.448   8.665  1.4531 -0.2107  0.7224
 1240SOL     OW15352   3.487   1.821   8.719 -0.4651  0.1273  0.2196
 1240SOL    HW115353   3.571   1.858   8.693  1.3132 -3.4296  1.0624
 1240SOL    HW215354   3.490   1.734   8.680 -0.7410 -0.0715  0.6339
 1241SOL     OW15355   4.040   1.336   6.667  0.1534 -0.1552  0.2503
 1241SOL    HW115356   4.076   1.418   6.635 -1.2869 -1.0276 -3.5393
 1241SOL    HW215357   4.096   1.284   6.609  1.6796 -0.7055  2.2093
 1242SOL     OW15358   0.854   1.116   6.372 -0.3466 -0.4871  0.0629
 1242SOL    HW115359   0.773   1.116   6.321 -0.8865 -2.0127  0.9280
 1242SOL    HW215360   0.842   1.061   6.449  1.7532  2.2015  2.3301
 1243SOL     OW15361   3.010   1.755   7.018 -0.3065 -0.1114 -0.1664
 1243SOL    HW115362   2.943   1.819   6.992 -2.9213 -2.9971 -0.4979
 1243SOL    HW215363   2.965   1.677   6.986  3.1445 -1.9496 -0.5579
 1244SOL     OW15364   4.610   2.563  10.276  0.1477  0.6420  1.0094
 1244SOL    HW115365   4.534   2.522  10.317  0.7157 -1.1482  0.2574
 1244SOL    HW215366   4.578   2.637  10.225 -0.0983  0.7653  1.3376
 1245SOL     OW15367   1.378   1.264   4.811  0.0098  1.0286 -0.0144
 1245SOL    HW115368   1.391   1.267   4.716  0.5329  1.0508  0.0590
 1245SOL    HW215369   1.337   1.178   4.822  0.9618  0.4455 -1.0287
 1246SOL     OW15370   2.181   0.455  17.204  0.2491 -0.0077  0.2533
 1246SOL    HW115371   2.202   0.516  17.133  1.6971 -1.1812 -0.3547
 1246SOL    HW215372   2.104   0.409  17.172  1.2294 -2.4802  1.4628
 1247SOL     OW15373   1.734   0.701  10.817 -0.5517 -0.3681  0.2578
 1247SOL    HW115374   1.644   0.708  10.850 -0.6590 -1.3957  0.2052
 1247SOL    HW215375   1.775   0.748  10.889 -0.7909 -0.2772  0.3350
 1248SOL     OW15376   1.919   2.330  17.582  0.4897  0.4693 -0.4441
 1248SOL    HW115377   2.001   2.283  17.597  0.0426 -1.3484 -3.7020
 1248SOL    HW215378   1.850   2.264  17.572 -0.2384  1.1606 -0.0446
 1249SOL     OW15379   4.108   4.050   0.806 -0.2214 -0.4247  0.7783
 1249SOL    HW115380   4.135   3.995   0.733  0.8531 -0.3688  1.1336
 1249SOL    HW215381   4.016   4.076   0.800 -0.4394 -1.3790  0.0589
 1250SOL     OW15382   1.930   3.059   4.853 -0.2821  0.4746  0.0265
 1250SOL    HW115383   2.019   3.048   4.822 -0.1372 -0.4131  0.7747
 1250SOL    HW215384   1.894   3.102   4.775 -1.6422  0.4579  0.6412
 1251SOL     OW15385   0.110   2.170   1.168 -0.2108 -0.0842  0.1742
 1251SOL    HW115386   0.048   2.097   1.165  1.5511 -1.5884 -0.0492
 1251SOL    HW215387   0.168   2.137   1.099  0.5606 -0.7580  1.1400
 1252SOL     OW15388   3.713   0.125   4.985 -0.1581 -0.0744 -0.2024
 1252SOL    HW115389   3.650   0.055   5.001  0.4255 -1.0363 -2.1616
 1252SOL    HW215390   3.668   0.191   4.933 -0.0809 -1.9518 -2.6707
 1253SOL     OW15391   1.369   2.858   9.425  0.0883 -0.2895  0.1601
 1253SOL    HW115392   1.428   2.902   9.486  0.5714 -0.7701  0.0383
 1253SOL    HW215393   1.291   2.844   9.478 -1.1839  1.7878 -1.1376
 1254SOL     OW15394   1.575   3.917   4.133  0.1505  0.1921 -0.3699
 1254SOL    HW115395   1.591   4.008   4.160 -0.2372  0.2466 -0.3200
 1254SOL    HW215396   1.537   3.882   4.214  0.2415  1.0844  0.0584
 1255SOL     OW15397   1.430   2.376   6.405 -0.4121  0.0856  0.1178
 1255SOL    HW115398   1.474   2.297   6.437 -0.2882  0.3869  0.6886
 1255SOL    HW215399   1.356   2.332   6.364 -0.5824  0.3328  0.1626
 1256SOL     OW15400   1.503   4.442   8.452  0.2015 -0.1018  0.5003
 1256SOL    HW115401   1.576   4.382   8.438 -0.4404 -1.1510  1.7313
 1256SOL    HW215402   1.441   4.382   8.493  0.9320 -1.1696  0.0467
 1257SOL     OW15403   1.162   3.104  15.439  0.6261  0.3367  0.5382
 1257SOL    HW115404   1.237   3.049  15.418 -1.1121 -1.6440 -0.4647
 1257SOL    HW215405   1.185   3.191  15.404 -0.4279 -0.1414 -1.3598
 1258SOL     OW15406   4.163   1.957  12.893  0.5573 -0.5301 -0.2047
 1258SOL    HW115407   4.120   2.020  12.950  0.7422  0.6575 -1.3762
 1258SOL    HW215408   4.254   1.984  12.884  0.1933  0.1734 -1.7983
 1259SOL     OW15409   3.133   0.987  16.584  0.5667 -0.5808 -0.4496
 1259SOL    HW115410   3.044   0.953  16.575  0.9945 -1.8726  0.1969
 1259SOL    HW215411   3.156   0.964  16.674 -0.1802 -0.8111 -0.3205
 1260SOL     OW15412   4.533   3.248   8.223 -0.0678 -0.3127  0.1055
 1260SOL    HW115413   4.509   3.272   8.134 -1.1231 -1.3765  0.0953
 1260SOL    HW215414   4.512   3.333   8.263 -2.8275 -1.2302  0.6658
 1261SOL     OW15415   2.620   4.722  11.655  1.0084 -0.3699 -0.1931
 1261SOL    HW115416   2.550   4.666  11.619 -0.6993  0.2137  2.2343
 1261SOL    HW215417   2.685   4.704  11.587  1.5738  2.0157 -0.2687
 1262SOL     OW15418   3.457   0.607   2.041 -0.2984  0.3836 -0.4109
 1262SOL    HW115419   3.396   0.677   2.017  0.3627  0.7887 -0.9296
 1262SOL    HW215420   3.457   0.613   2.137 -1.4413 -0.3740 -0.3682
 1263SOL     OW15421   3.466   4.721   8.508 -0.4047  0.2361 -0.2184
 1263SOL    HW115422   3.385   4.714   8.457  0.7263 -3.7521 -1.4982
 1263SOL    HW215423   3.445   0.046   8.577 -2.5218 -0.8070  0.0910
 1264SOL     OW15424   1.883   4.738  15.555 -0.1798  0.1416 -0.4295
 1264SOL    HW115425   1.826   4.662  15.541  0.4668 -0.3814 -0.2424
 1264SOL    HW215426   1.963   4.691  15.581 -1.1369 -1.9660 -1.2813
 1265SOL     OW15427   2.710   0.141  13.583  0.7691  0.5476  0.0172
 1265SOL    HW115428   2.748   0.205  13.643 -0.7426  0.6883  0.8108
 1265SOL    HW215429   2.776   0.071  13.589  0.1126 -0.0369  0.4172
 1266SOL     OW15430   4.104   3.995  13.496 -0.3208  0.3449 -0.5094
 1266SOL    HW115431   4.064   3.909  13.505  2.3654 -0.9182 -0.8603
 1266SOL    HW215432   4.025   4.038  13.463 -0.6575  2.2355  2.8081
 1267SOL     OW15433   3.709   3.605   3.167 -0.2924 -0.1396  0.9011
 1267SOL    HW115434   3.793   3.634   3.201 -1.3696  0.4123  3.0892
 1267SOL    HW215435   3.736   3.536   3.107 -0.3544  0.2952  0.3707
 1268SOL     OW15436   3.452   2.354   6.100 -0.6543 -0.3305  0.0706
 1268SOL    HW115437   3.369   2.396   6.079 -0.9917 -2.6073 -3.1663
 1268SOL    HW215438   3.427   2.314   6.183 -2.5457  1.5198  0.3937
 1269SOL     OW15439   0.438   4.088   5.434 -0.9677 -0.0077  0.1151
 1269SOL    HW115440   0.424   4.024   5.363 -0.8399  0.4796 -0.3445
 1269SOL    HW215441   0.491   4.151   5.385 -2.5718  2.6100  1.7922
 1270SOL     OW15442   2.908   2.176   4.928  0.3928  0.0781 -0.3103
 1270SOL    HW115443   2.960   2.219   4.861  0.1544  1.6589  0.5037
 1270SOL    HW215444   2.975   2.124   4.972 -0.7655 -0.3246  1.0075
 1271SOL     OW15445   1.265   1.343   5.252  0.7050  0.2459  0.3859
 1271SOL    HW115446   1.257   1.283   5.327 -0.6376  0.1328  0.1502
 1271SOL    HW215447   1.355   1.322   5.228  0.2423 -0.4186 -0.7701
 1272SOL     OW15448   3.573   2.364   2.926 -0.2144  0.2583 -0.3167
 1272SOL    HW115449   3.569   2.270   2.945  1.0515  0.3624  0.4784
 1272SOL    HW215450   3.656   2.399   2.958  0.1105 -0.2535 -0.5931
 1273SOL     OW15451   3.891   1.700   5.141  0.4352 -0.3815  0.1616
 1273SOL    HW115452   3.942   1.635   5.189  0.3655 -0.1580  0.5304
 1273SOL    HW215453   3.914   1.691   5.048 -1.9054 -0.2752 -0.4421
 1274SOL     OW15454   3.114   2.370   9.290 -0.2486  0.5115  0.0730
 1274SOL    HW115455   3.167   2.331   9.359 -0.6933 -0.2106  0.0101
 1274SOL    HW215456   3.026   2.349   9.323 -0.9769  2.2881 -0.7092
 1275SOL     OW15457   1.842   0.605   3.037 -0.1385  0.1934 -0.4052
 1275SOL    HW115458   1.782   0.649   3.098 -0.3164  1.1849 -1.3101
 1275SOL    HW215459   1.880   0.680   2.992 -0.6697  1.0924  0.6466
 1276SOL     OW15460   2.035   1.244   4.235 -0.4955  0.5475  0.3604
 1276SOL    HW115461   1.984   1.325   4.237  0.2989  1.0417  0.3824
 1276SOL    HW215462   2.123   1.274   4.254 -0.7029  0.0903  2.0516
 1277SOL     OW15463   0.299   2.391   1.859 -0.5205 -0.0915  0.2787
 1277SOL    HW115464   0.313   2.305   1.899 -0.0119 -0.5751 -0.9331
 1277SOL    HW215465   0.377   2.414   1.809 -0.2626  3.1708  2.1767
 1278SOL     OW15466   3.708   0.674   5.692  0.0992 -0.2670  0.4605
 1278SOL    HW115467   3.704   0.601   5.630 -1.1973 -0.3169  0.5971
 1278SOL    HW215468   3.748   0.620   5.759  1.6117 -2.4069 -2.1644
 1279SOL     OW15469   3.109   4.054   7.506  0.4897 -0.7011 -0.6854
 1279SOL    HW115470   3.196   4.058   7.464  0.5197 -1.6830 -0.7234
 1279SOL    HW215471   3.133   3.995   7.577 -0.7646  2.7732  2.6079
 1280SOL     OW15472   1.675   3.208   9.437 -0.0915  0.0166  0.3005
 1280SOL    HW115473   1.611   3.266   9.477  0.0230 -1.1244  2.1048
 1280SOL    HW215474   1.623   3.128   9.431  1.8609 -1.3112  0.9746
 1281SOL     OW15475   1.039   4.525   8.443 -0.6395  0.4133 -0.3233
 1281SOL    HW115476   1.067   4.434   8.450  0.4078  0.7582 -0.0472
 1281SOL    HW215477   0.964   4.520   8.501 -1.8535 -0.8158 -2.0143
 1282SOL     OW15478   2.876   3.688   3.558  0.0819  0.2314  0.1436
 1282SOL    HW115479   2.853   3.750   3.627 -1.1373 -0.9688  0.8160
 1282SOL    HW215480   2.914   3.621   3.614 -2.5249 -1.5589 -0.1953
 1283SOL     OW15481   1.432   3.191   7.089 -0.1612  0.5278 -0.4878
 1283SOL    HW115482   1.342   3.171   7.115 -0.3042  1.5807 -0.1498
 1283SOL    HW215483   1.420   3.282   7.062 -0.6839  0.5504 -0.1827
 1284SOL     OW15484   2.487   4.115   5.658 -0.2957 -0.5653  0.0008
 1284SOL    HW115485   2.410   4.060   5.669 -0.9109  0.4071  0.6193
 1284SOL    HW215486   2.553   4.060   5.617  0.3525 -1.1932  1.9000
 1285SOL     OW15487   4.447   4.461   2.250 -0.3542  0.1198  0.3746
 1285SOL    HW115488   4.400   4.531   2.295 -0.6592  0.9320 -1.1741
 1285SOL    HW215489   4.403   4.385   2.288  0.5150 -0.3677  0.4137
 1286SOL     OW15490   1.925   1.809   7.518 -0.2794  0.0452  0.5596
 1286SOL    HW115491   1.890   1.753   7.449  0.0035 -2.3406  2.3545
 1286SOL    HW215492   2.003   1.759   7.541 -0.0132 -0.4243 -1.3315
 1287SOL     OW15493   2.775   1.633   1.290  0.0423  0.2938  0.2661
 1287SOL    HW115494   2.732   1.593   1.366 -0.3558  0.3320  0.0604
 1287SOL    HW215495   2.699   1.645   1.234  0.7144 -1.5759 -1.0200
 1288SOL     OW15496   1.709   0.551   6.055  0.0658 -0.6229  0.2287
 1288SOL    HW115497   1.688   0.634   6.099 -2.8794  0.8432 -3.9028
 1288SOL    HW215498   1.637   0.541   5.993  1.1114 -1.6200 -0.8227
 1289SOL     OW15499   1.564   3.439   6.213 -0.0337 -0.1585  0.3273
 1289SOL    HW115500   1.634   3.498   6.183  0.3276 -0.6430  0.2238
 1289SOL    HW215501   1.485   3.467   6.167 -0.3711  0.2596  1.1640
 1290SOL     OW15502   3.515   2.867   6.414  0.4014  0.2944 -0.5622
 1290SOL    HW115503   3.551   2.784   6.383 -0.4308  0.0627 -0.9081
 1290SOL    HW215504   3.422   2.845   6.401  0.3818 -0.2274  0.4140
 1291SOL     OW15505   2.473   3.218   7.116  0.3167  0.2682  0.4334
 1291SOL    HW115506   2.554   3.230   7.065 -0.6670 -0.6412 -1.3388
 1291SOL    HW215507   2.504   3.208   7.206 -1.1867  2.0316  1.1406
 1292SOL     OW15508   1.214   3.823   3.514  0.3288  0.4656 -0.8076
 1292SOL    HW115509   1.234   3.915   3.494 -2.0243  0.9752 -0.7238
 1292SOL    HW215510   1.128   3.824   3.473  0.1079  2.9115 -0.3018
 1293SOL     OW15511   0.457   0.334   5.780  0.0706  0.0238  0.3089
 1293SOL    HW115512   0.524   0.296   5.722 -0.9151  0.7324 -1.2864
 1293SOL    HW215513   0.510   0.393   5.833 -1.6791  2.9326 -1.2092
 1294SOL     OW15514   4.480   3.660   4.670  0.5488  0.4429 -0.3693
 1294SOL    HW115515   4.435   3.727   4.617  0.7490  1.3640  0.6134
 1294SOL    HW215516   4.495   3.707   4.752 -1.4509 -0.1642  0.3515
 1295SOL     OW15517   3.048   4.400   0.351 -0.2009 -0.9126 -0.3295
 1295SOL    HW115518   3.059   4.330   0.415 -0.8158  0.3798  1.1906
 1295SOL    HW215519   3.016   4.467   0.411  1.0437  1.6436 -2.5366
 1296SOL     OW15520   3.826   2.648   9.946 -0.0998  0.1005 -0.6830
 1296SOL    HW115521   3.867   2.595   9.877 -0.4220  0.1682 -0.9264
 1296SOL    HW215522   3.734   2.626   9.937  0.1358 -0.4870 -1.6314
 1297SOL     OW15523   3.322   2.520   2.454 -0.5602 -0.2738  0.0690
 1297SOL    HW115524   3.400   2.576   2.452  0.4197 -1.6172  1.4935
 1297SOL    HW215525   3.360   2.437   2.426  2.1010  0.3646  1.8040
 1298SOL     OW15526   1.199   0.045   6.757 -0.1717 -0.1066  0.1758
 1298SOL    HW115527   1.117   0.091   6.740 -0.0875 -0.2183 -0.5097
 1298SOL    HW215528   1.233   0.092   6.834  1.5170  0.1505 -0.7252
 1299SOL     OW15529   1.771   3.677   3.256  0.0925 -0.3491 -0.1989
 1299SOL    HW115530   1.858   3.679   3.294  0.1394 -0.9098 -0.2828
 1299SOL    HW215531   1.718   3.737   3.309  0.0563 -1.4684  1.0221
 1300SOL     OW15532   4.648   1.444   7.159  0.4566  0.4042 -0.7974
 1300SOL    HW115533   4.659   1.521   7.103  0.4403  0.8705 -0.1525
 1300SOL    HW215534   4.713   1.466   7.226  0.8506 -0.0170 -1.0382
 1301SOL     OW15535   1.084   0.447   3.986  0.9474 -0.0280  0.0829
 1301SOL    HW115536   0.993   0.426   4.007  0.3191  0.4648 -2.1723
 1301SOL    HW215537   1.104   0.486   4.070  2.1011 -2.2425  0.8392
 1302SOL     OW15538   3.728   1.792   0.207  0.3322 -0.0661  0.2166
 1302SOL    HW115539   3.653   1.819   0.260 -0.5281  0.9001 -1.4949
 1302SOL    HW215540   3.678   1.772   0.127  0.0286  2.8124 -0.2966
 1303SOL     OW15541   2.436   3.578   1.686  0.4116 -0.1189  0.6006
 1303SOL    HW115542   2.475   3.554   1.602 -0.2139  0.3033  0.1903
 1303SOL    HW215543   2.520   3.595   1.728 -0.7941  0.9870  2.5420
 1304SOL     OW15544   0.401   1.657   2.055  0.4804  0.5095 -0.2199
 1304SOL    HW115545   0.362   1.716   2.118 -2.8890  0.5779 -2.3974
 1304SOL    HW215546   0.334   1.589   2.044  1.6111 -1.1574  3.1465
 1305SOL     OW15547   1.957   1.516   2.689 -0.2452 -0.1426 -0.3114
 1305SOL    HW115548   1.880   1.558   2.727 -1.0821 -0.9215 -1.1587
 1305SOL    HW215549   1.913   1.432   2.680  0.1704 -0.5522  1.4797
 1306SOL     OW15550   1.473   3.414  17.151 -0.3355  0.0134 -0.0562
 1306SOL    HW115551   1.528   3.376  17.083 -3.3672 -2.3008 -1.1996
 1306SOL    HW215552   1.386   3.375  17.140 -0.3775  0.3854 -0.9929
 1307SOL     OW15553   1.856   4.422  15.671 -0.0168 -0.2518  0.5588
 1307SOL    HW115554   1.779   4.467  15.703 -0.7804 -0.4292 -1.0247
 1307SOL    HW215555   1.925   4.448  15.733  0.3323 -2.4505  1.1073
 1308SOL     OW15556   0.629   0.901   9.561 -0.6030  0.1311  0.0294
 1308SOL    HW115557   0.609   0.826   9.617 -0.0603 -0.2761 -0.3183
 1308SOL    HW215558   0.551   0.907   9.507  0.9205  0.9947 -2.0632
 1309SOL     OW15559   2.953   0.433   8.191 -0.5031  0.4766 -0.3364
 1309SOL    HW115560   3.020   0.423   8.259 -0.6068  1.8020 -0.0301
 1309SOL    HW215561   2.937   0.526   8.208 -0.7632  0.6910 -1.8049
 1310SOL     OW15562   0.745   1.169   3.718  0.3612 -0.4327 -0.2336
 1310SOL    HW115563   0.758   1.105   3.788  0.8155 -0.4236 -0.3070
 1310SOL    HW215564   0.654   1.147   3.698  0.4083  0.1725 -1.1485
 1311SOL     OW15565   1.842   2.235   6.776  0.5679 -0.0356  0.2500
 1311SOL    HW115566   1.913   2.188   6.821 -0.1612 -0.1246  1.2992
 1311SOL    HW215567   1.871   2.227   6.685 -1.5169  2.4605 -0.6174
 1312SOL     OW15568   0.877   3.397   8.404 -0.7124 -0.2024  0.2725
 1312SOL    HW115569   0.791   3.440   8.408  0.9489  3.1292  0.4246
 1312SOL    HW215570   0.861   3.328   8.468  0.5832  0.3686  1.2123
 1313SOL     OW15571   4.265   3.531   2.755 -0.0856 -0.0790 -0.1903
 1313SOL    HW115572   4.274   3.552   2.662  2.5710 -1.6463 -0.2928
 1313SOL    HW215573   4.250   3.436   2.755  0.7610 -0.2123  0.3184
 1314SOL     OW15574   3.679   1.699  16.977  0.2743  0.0335  0.7800
 1314SOL    HW115575   3.728   1.725  16.899 -0.2197  1.4683  0.9281
 1314SOL    HW215576   3.740   1.645  17.026  0.6176 -1.6189 -1.4384
 1315SOL     OW15577   2.528   2.466   3.584  0.3104  0.0483  0.1559
 1315SOL    HW115578   2.522   2.560   3.565 -0.4572  0.4669  2.4595
 1315SOL    HW215579   2.486   2.427   3.507  1.1193 -0.1951 -0.1644
 1316SOL     OW15580   3.004   4.331   3.030 -0.0646  0.4015  0.3206
 1316SOL    HW115581   2.936   4.281   3.075  2.0243 -1.5952  1.2284
 1316SOL    HW215582   2.971   4.342   2.940 -0.7884 -0.1675  0.5090
 1317SOL     OW15583   1.955   2.854  12.762  0.2868 -0.2812 -0.1155
 1317SOL    HW115584   1.948   2.829  12.854  1.6162 -0.5384 -0.0904
 1317SOL    HW215585   2.039   2.810  12.748  1.0398  0.3661  2.4218
 1318SOL     OW15586   1.480   4.507   8.881  0.1138 -0.4865  0.1088
 1318SOL    HW115587   1.418   4.538   8.815 -1.3748  0.0491  1.7620
 1318SOL    HW215588   1.563   4.544   8.850 -0.2855 -0.9646 -1.5308
 1319SOL     OW15589   3.725   1.754  16.417  0.1214 -0.0983  0.7981
 1319SOL    HW115590   3.821   1.752  16.423  0.2407 -0.3192 -1.0250
 1319SOL    HW215591   3.707   1.825  16.355 -1.0911 -1.9809 -1.0106
 1320SOL     OW15592   3.797   0.472   1.541  0.0234  0.0015 -0.0803
 1320SOL    HW115593   3.738   0.539   1.508 -0.3311  0.9782  2.5417
 1320SOL    HW215594   3.763   0.397   1.492 -3.4143  1.2550  0.4179
 1321SOL     OW15595   0.175   4.528   4.456 -0.0946 -0.1934  0.7279
 1321SOL    HW115596   0.207   4.552   4.543  0.8098 -0.6007  0.5004
 1321SOL    HW215597   0.150   4.437   4.472 -1.8159  0.2412  0.5316
 1322SOL     OW15598   2.081   2.967  10.950  0.5913  0.0872  0.7467
 1322SOL    HW115599   2.016   3.009  11.005  1.1116  0.5842  0.9831
 1322SOL    HW215600   2.145   3.038  10.957  1.5346 -0.6908  0.1754
 1323SOL     OW15601   0.358   0.691  10.845  0.1391  0.1842  0.3581
 1323SOL    HW115602   0.341   0.783  10.865 -1.8359 -0.0692 -0.1948
 1323SOL    HW215603   0.322   0.678  10.757 -1.2067  0.5803  0.8627
 1324SOL     OW15604   2.708   2.653   0.615  0.5444 -0.3721  0.2992
 1324SOL    HW115605   2.801   2.669   0.599  0.0686 -0.4839 -2.6524
 1324SOL    HW215606   2.662   2.705   0.550  1.7127  1.0058  0.5811
 1325SOL     OW15607   4.565   1.021   9.248 -0.4739 -0.4666  0.0235
 1325SOL    HW115608   4.497   1.066   9.298  0.0079 -1.2384  1.3807
 1325SOL    HW215609   4.527   0.933   9.250 -0.4272 -0.5341 -2.3499
 1326SOL     OW15610   4.093   2.258   2.464  0.0004  0.2115 -0.0155
 1326SOL    HW115611   4.159   2.189   2.464 -0.6542 -0.4079 -1.4957
 1326SOL    HW215612   4.137   2.340   2.486 -1.2291  0.5598  1.1604
 1327SOL     OW15613   1.529   0.261   8.700  0.4151  0.3725  0.5871
 1327SOL    HW115614   1.469   0.321   8.657  0.2978  0.4304  0.8309
 1327SOL    HW215615   1.510   0.280   8.792 -1.2148 -0.5871  0.4566
 1328SOL     OW15616   4.267   0.815   4.454 -0.2776  0.2620  0.4382
 1328SOL    HW115617   4.285   0.788   4.544 -1.0487 -0.1244  0.4760
 1328SOL    HW215618   4.240   0.728   4.424 -0.9593  0.6401 -0.0433
 1329SOL     OW15619   4.568   1.671   3.346  0.2506 -0.3330 -0.3246
 1329SOL    HW115620   4.589   1.744   3.404 -1.7469 -1.4918  1.8487
 1329SOL    HW215621   4.559   1.717   3.263  1.0394 -0.6961 -0.6143
 1330SOL     OW15622   2.468   2.392   9.967  0.1174  0.2347 -0.3727
 1330SOL    HW115623   2.385   2.440   9.974 -0.7525 -1.4747  0.9787
 1330SOL    HW215624   2.433   2.303   9.970 -1.9720  1.0809  0.7258
 1331SOL     OW15625   2.556   2.283   0.221  0.2575 -0.3013  0.4448
 1331SOL    HW115626   2.523   2.372   0.236 -0.3559 -0.6502  1.1561
 1331SOL    HW215627   2.645   2.281   0.257 -0.8230  0.7753  3.2012
 1332SOL     OW15628   2.878   2.697  15.475 -0.1689 -0.1005  0.0012
 1332SOL    HW115629   2.803   2.657  15.432  2.2537 -3.0567 -1.4560
 1332SOL    HW215630   2.948   2.653  15.427 -1.8630 -1.1720 -1.4973
 1333SOL     OW15631   2.900   2.391  13.600 -0.0149 -0.3223 -0.3495
 1333SOL    HW115632   2.979   2.383  13.653  0.1531 -1.1366 -0.7202
 1333SOL    HW215633   2.925   2.466  13.546  1.4251 -0.6398 -0.1244
 1334SOL     OW15634   0.924   2.765   6.396  0.3964  0.2263  0.0608
 1334SOL    HW115635   1.007   2.789   6.354  0.4712 -2.5605 -1.3434
 1334SOL    HW215636   0.870   2.739   6.322 -1.2914  1.4372  0.8610
 1335SOL     OW15637   2.902   1.092  13.984 -0.4289 -0.3570  0.2572
 1335SOL    HW115638   2.915   1.006  14.022  1.2886  0.8155  2.3207
 1335SOL    HW215639   2.820   1.114  14.028  0.3160 -1.0605  1.9626
 1336SOL     OW15640   0.556   2.058   5.090  0.1115 -0.3891 -0.2663
 1336SOL    HW115641   0.629   2.115   5.116  0.6898 -0.9346 -0.7017
 1336SOL    HW215642   0.579   2.069   4.998  1.9121  0.6605  0.2967
 1337SOL     OW15643   4.727   0.073   9.728 -0.7598 -0.9218 -0.2079
 1337SOL    HW115644   4.642   0.055   9.769 -1.8273  1.8061 -1.2558
 1337SOL    HW215645   4.714   0.153   9.677  0.7769  0.5285  1.6943
 1338SOL     OW15646   2.898   4.603  13.588  0.1083  0.3219 -0.7435
 1338SOL    HW115647   2.977   4.551  13.603 -1.1199 -1.0140  1.0939
 1338SOL    HW215648   2.876   4.575  13.499 -2.0394  0.6842 -0.3338
 1339SOL     OW15649   1.346   4.398   5.368 -0.2362  0.2429 -0.3468
 1339SOL    HW115650   1.434   4.389   5.331  0.5116 -1.1050  1.7312
 1339SOL    HW215651   1.297   4.352   5.300  0.6968 -0.7422 -0.3419
 1340SOL     OW15652   2.390   2.375   2.443 -0.0061  0.4423 -0.0367
 1340SOL    HW115653   2.341   2.402   2.366 -0.4489 -0.8016 -0.1894
 1340SOL    HW215654   2.446   2.304   2.413  0.9760  0.7815  1.0122
 1341SOL     OW15655   2.046   1.573   1.586 -0.1049 -0.1388  0.3835
 1341SOL    HW115656   2.006   1.538   1.666 -0.2301  0.4116  0.5606
 1341SOL    HW215657   2.134   1.561   1.620 -0.4511 -2.0901  0.6353
 1342SOL     OW15658   3.421   0.828   0.366 -0.0061  0.0272  0.2492
 1342SOL    HW115659   3.440   0.746   0.321 -2.1167 -0.5054  0.3493
 1342SOL    HW215660   3.374   0.875   0.298  0.8538  0.2060 -0.2301
 1343SOL     OW15661   3.066   3.846   6.895 -0.1759 -0.0921  0.2949
 1343SOL    HW115662   3.139   3.791   6.924  0.4819  0.8444  0.3827
 1343SOL    HW215663   3.019   3.785   6.838  2.5458 -1.3635 -0.5570
 1344SOL     OW15664   4.500   0.497   2.851  0.0869 -0.3276 -0.5726
 1344SOL    HW115665   4.418   0.546   2.858  0.1599 -0.5562  1.8674
 1344SOL    HW215666   4.499   0.451   2.935 -0.4175  0.0587 -0.3625
 1345SOL     OW15667   2.445   2.547   5.256  0.0142 -0.4702  0.5135
 1345SOL    HW115668   2.486   2.619   5.208  2.6777 -1.9788  0.5437
 1345SOL    HW215669   2.409   2.600   5.327 -0.4142  1.4469 -1.1321
 1346SOL     OW15670   1.666   0.099   7.570  0.0922  0.0746 -0.2637
 1346SOL    HW115671   1.599   0.142   7.623 -1.2729 -0.9262 -1.1949
 1346SOL    HW215672   1.614   0.112   7.490 -0.8810 -0.8207  0.2220
 1347SOL     OW15673   0.728   2.912   3.481 -0.1235 -0.1763 -0.5856
 1347SOL    HW115674   0.708   2.996   3.439 -2.7690 -1.8683 -2.6927
 1347SOL    HW215675   0.647   2.901   3.531 -0.6214  1.1927 -1.0677
 1348SOL     OW15676   1.809   0.789   5.180  0.0419  0.2433 -0.2244
 1348SOL    HW115677   1.897   0.790   5.216  0.4756  1.3355 -1.3120
 1348SOL    HW215678   1.760   0.822   5.255 -0.5820 -1.3197  0.0468
 1349SOL     OW15679   1.350   2.342   0.457 -0.9734 -0.0847 -0.0492
 1349SOL    HW115680   1.336   2.360   0.364 -0.8474 -0.8277 -0.2124
 1349SOL    HW215681   1.373   2.249   0.458  0.2062  0.1828 -2.9954
 1350SOL     OW15682   4.059   3.901  15.382 -0.3747  0.4996  0.2665
 1350SOL    HW115683   4.130   3.921  15.442  1.4960 -1.7388 -1.1806
 1350SOL    HW215684   4.113   3.882  15.305 -1.0657 -3.3392  0.7261
 1351SOL     OW15685   0.922   2.527   1.694 -0.0843 -0.1484  0.0526
 1351SOL    HW115686   0.908   2.548   1.601  0.0779  0.6294  0.2032
 1351SOL    HW215687   0.943   2.610   1.737 -1.2215 -0.4300  1.1403
 1352SOL     OW15688   2.321   4.511   3.745  0.3691  0.4950 -0.1789
 1352SOL    HW115689   2.251   4.482   3.687  0.7985 -1.2438  0.1713
 1352SOL    HW215690   2.362   4.577   3.688 -0.8101 -1.0705 -2.8636
 1353SOL     OW15691   2.083   0.789   6.903  0.0333  0.3724  0.1200
 1353SOL    HW115692   2.138   0.745   6.839 -0.4840  0.4924 -0.4096
 1353SOL    HW215693   2.145   0.837   6.958  0.7438 -0.1687 -0.2126
 1354SOL     OW15694   3.364   4.551   8.887 -0.4232  0.1162 -0.0322
 1354SOL    HW115695   3.335   4.618   8.824 -0.2308  1.5317  1.3976
 1354SOL    HW215696   3.284   4.552   8.940 -0.2823  0.3147  0.1762
 1355SOL     OW15697   2.697   1.440   4.946 -0.4831  0.3937  0.4994
 1355SOL    HW115698   2.775   1.496   4.954  1.0744 -1.6608 -0.3307
 1355SOL    HW215699   2.717   1.378   5.016  1.7149  0.5837  0.0362
 1356SOL     OW15700   1.790   3.883   6.721  0.0132 -0.3238  1.0027
 1356SOL    HW115701   1.854   3.915   6.658 -1.4110 -0.0938 -0.3216
 1356SOL    HW215702   1.726   3.851   6.658  0.2023 -0.1677  0.7332
 1357SOL     OW15703   1.044   0.945  13.475 -0.2621 -0.4003  0.2989
 1357SOL    HW115704   1.089   0.990  13.547  1.9782 -0.2042 -1.2134
 1357SOL    HW215705   1.116   0.926  13.415 -0.3460 -0.1290  0.1131
 1358SOL     OW15706   4.210   2.119  13.260  0.3929  0.9639 -0.0214
 1358SOL    HW115707   4.244   2.206  13.243 -0.9727  1.1383 -1.8236
 1358SOL    HW215708   4.135   2.117  13.201  0.6897 -2.1564 -0.3265
 1359SOL     OW15709   0.718   0.469  17.276  0.1296 -0.0921  0.7905
 1359SOL    HW115710   0.624   0.464  17.295 -0.2316 -0.6625 -1.0885
 1359SOL    HW215711   0.721   0.560  17.246 -3.7968  0.1706  1.0869
 1360SOL     OW15712   0.464   2.981   6.462 -0.4967 -0.8715  0.0127
 1360SOL    HW115713   0.476   3.071   6.431 -1.1623 -0.6585  0.3555
 1360SOL    HW215714   0.369   2.968   6.462 -0.3978 -1.5643  1.5281
 1361SOL     OW15715   0.993   0.219   7.267 -0.5497 -0.1370 -0.2325
 1361SOL    HW115716   1.077   0.241   7.227 -1.7128  0.9133 -2.0911
 1361SOL    HW215717   0.946   0.244   7.188  1.1386  0.1704 -1.1403
 1362SOL     OW15718   1.218   4.130   5.636  0.9051 -0.6533  0.1481
 1362SOL    HW115719   1.210   4.079   5.555  1.6208  0.3557 -0.5665
 1362SOL    HW215720   1.129   4.137   5.670 -0.0625 -0.2652 -2.4202
 1363SOL     OW15721   4.519   4.660   2.950 -0.0890  0.1002 -0.1490
 1363SOL    HW115722   4.441   4.710   2.974  0.1762 -0.2288  1.4144
 1363SOL    HW215723   4.581   4.732   2.937 -1.0983  0.8345 -0.8197
 1364SOL     OW15724   0.462   1.340  16.732  0.2494  0.2162 -0.2510
 1364SOL    HW115725   0.512   1.262  16.756 -0.1972  0.3242  1.0120
 1364SOL    HW215726   0.408   1.346  16.810  1.9647  0.3354  0.9184
 1365SOL     OW15727   2.577   4.495   2.338  0.1553  0.1382  0.2219
 1365SOL    HW115728   2.551   4.583   2.310 -0.7786 -0.0283  0.5406
 1365SOL    HW215729   2.667   4.492   2.305 -0.5114  1.3924 -1.7733
 1366SOL     OW15730   3.173   1.002   2.529 -0.5194  0.3174 -0.8435
 1366SOL    HW115731   3.195   1.053   2.451 -3.3990 -0.1283 -1.9756
 1366SOL    HW215732   3.224   0.922   2.514 -1.5251 -0.9422  2.4457
 1367SOL     OW15733   3.672   2.901   4.639 -0.0160  0.0497  0.3133
 1367SOL    HW115734   3.641   2.846   4.567  0.0499 -0.6484  0.8108
 1367SOL    HW215735   3.675   2.832   4.705 -0.2763  1.1207  1.4345
 1368SOL     OW15736   1.157   2.555   9.440  0.4939  0.0204 -0.0219
 1368SOL    HW115737   1.227   2.579   9.380 -0.7503  0.6774 -1.2158
 1368SOL    HW215738   1.209   2.526   9.515  1.0276 -0.0437 -0.4215
 1369SOL     OW15739   1.923   4.085   8.384 -0.0212  0.6329 -0.4788
 1369SOL    HW115740   1.914   3.992   8.406  1.7373  0.6449  0.2145
 1369SOL    HW215741   1.928   4.082   8.288  0.7556  1.0267 -0.4472
 1370SOL     OW15742   1.249   2.772   8.403  0.2649 -0.0426  0.4268
 1370SOL    HW115743   1.202   2.840   8.450  0.7102  0.8410 -0.4241
 1370SOL    HW215744   1.211   2.781   8.316  1.2312 -0.0750  0.0045
 1371SOL     OW15745   0.560   0.905   2.228  0.6437 -0.2952 -0.1885
 1371SOL    HW115746   0.577   0.858   2.146  0.9443 -0.0741 -0.2504
 1371SOL    HW215747   0.485   0.852   2.257 -0.9126  1.8890 -0.2325
 1372SOL     OW15748   1.384   0.446  14.117  0.6831 -0.0799  0.0632
 1372SOL    HW115749   1.339   0.505  14.057  0.0877 -0.2655  0.3257
 1372SOL    HW215750   1.475   0.475  14.108  0.5791  0.1806 -0.1386
 1373SOL     OW15751   2.494   2.079  10.279 -0.7702 -0.3791 -0.2979
 1373SOL    HW115752   2.461   2.157  10.323  1.0600  0.4464 -0.3575
 1373SOL    HW215753   2.565   2.060  10.341  0.3840 -0.1412 -1.5537
 1374SOL     OW15754   4.643   3.984   8.569 -0.0692  0.0372  0.8473
 1374SOL    HW115755   4.695   3.973   8.489 -2.7686  2.8917 -1.3035
 1374SOL    HW215756   4.569   3.931   8.539 -0.2933 -0.7731  2.8855
 1375SOL     OW15757   1.063   1.094   3.933 -0.1330  0.1749  0.5985
 1375SOL    HW115758   1.057   1.130   3.844 -0.0889  1.8984  1.3025
 1375SOL    HW215759   0.973   1.066   3.944 -0.4638  0.5152 -1.1551
 1376SOL     OW15760   1.728   1.621   5.604 -0.1572 -0.6499 -0.2377
 1376SOL    HW115761   1.655   1.681   5.620  1.0656  0.7077  0.2109
 1376SOL    HW215762   1.718   1.613   5.509 -2.6141 -1.2265  0.0666
 1377SOL     OW15763   2.662   2.392  13.778 -0.0521  0.0756  0.2498
 1377SOL    HW115764   2.639   2.299  13.778 -1.6114  0.4716  0.6209
 1377SOL    HW215765   2.706   2.393  13.693  1.2435  2.3129  0.9315
 1378SOL     OW15766   1.455   0.724   4.672 -0.0792 -0.6855 -0.8069
 1378SOL    HW115767   1.381   0.680   4.715 -1.0973  0.9819 -0.8467
 1378SOL    HW215768   1.531   0.669   4.688  1.0707  2.0187  3.0813
 1379SOL     OW15769   1.187   4.547   5.738  0.4652 -0.4845  0.2589
 1379SOL    HW115770   1.270   4.507   5.713  0.4014  0.3566 -1.3655
 1379SOL    HW215771   1.215   4.582   5.823  2.5458 -0.9917 -0.2225
 1380SOL     OW15772   0.343   2.209   3.429 -0.1385 -0.1152 -0.1909
 1380SOL    HW115773   0.418   2.265   3.450  0.1501 -1.5555  2.5580
 1380SOL    HW215774   0.275   2.253   3.481  0.6476  2.0937 -1.0430
 1381SOL     OW15775   3.052   0.184   9.371 -0.7277  0.7154  0.2279
 1381SOL    HW115776   3.001   0.197   9.291  0.7154 -0.0505 -0.8224
 1381SOL    HW215777   3.101   0.108   9.340 -0.6052  2.1064 -2.9893
 1382SOL     OW15778   4.503   1.483   2.660 -0.8495 -0.4946 -0.1977
 1382SOL    HW115779   4.486   1.425   2.734  2.8439 -1.8936 -0.4801
 1382SOL    HW215780   4.429   1.456   2.606  0.2329 -0.3424 -1.7594
 1383SOL     OW15781   2.431   4.120   2.757 -0.1973 -0.1569  0.1474
 1383SOL    HW115782   2.396   4.032   2.768 -1.0319  0.3693  1.8373
 1383SOL    HW215783   2.508   4.105   2.703 -0.5293 -0.1379 -0.3272
 1384SOL     OW15784   2.488   1.472  15.020 -0.3057 -0.5319  0.3970
 1384SOL    HW115785   2.486   1.384  14.983  0.9385  0.4257 -1.9041
 1384SOL    HW215786   2.572   1.508  14.992  0.7413 -3.9830 -0.8882
 1385SOL     OW15787   1.943   3.536   5.744 -0.1102 -0.0857 -0.0935
 1385SOL    HW115788   1.866   3.519   5.690 -0.3696 -0.6189  0.4459
 1385SOL    HW215789   1.954   3.631   5.739  1.4242 -0.2199  0.6064
 1386SOL     OW15790   3.515   1.134   1.478 -0.3800  0.3005  0.5944
 1386SOL    HW115791   3.431   1.121   1.434 -0.8300 -3.1401  2.5529
 1386SOL    HW215792   3.488   1.196   1.547  1.9268  2.5001 -0.4630
 1387SOL     OW15793   1.355   1.286   2.989  0.4548  0.3167 -0.5207
 1387SOL    HW115794   1.335   1.245   3.074 -1.9220 -0.2501 -1.3735
 1387SOL    HW215795   1.280   1.341   2.970 -0.1407  0.4784  2.2713
 1388SOL     OW15796   2.261   2.384   3.138  0.2342  0.4100  0.1349
 1388SOL    HW115797   2.282   2.422   3.053  2.2296  0.1180  0.5034
 1388SOL    HW215798   2.167   2.403   3.143  0.3163  0.4549  1.3748
 1389SOL     OW15799   3.743   1.521   2.556 -1.2453  0.6451  0.1892
 1389SOL    HW115800   3.786   1.527   2.641  2.9912  1.4366 -2.0650
 1389SOL    HW215801   3.663   1.568   2.580 -0.5142  0.3993  3.0898
 1390SOL     OW15802   2.556   2.087   0.778 -0.0792 -0.2421 -0.6454
 1390SOL    HW115803   2.504   2.157   0.817  2.9462  2.2076 -1.0314
 1390SOL    HW215804   2.515   2.016   0.827 -0.4882 -0.4468 -1.2736
 1391SOL     OW15805   1.248   1.690  17.575  0.6295 -0.3104  0.2700
 1391SOL    HW115806   1.190   1.766  17.583 -0.5038 -1.3255  1.6697
 1391SOL    HW215807   1.333   1.732  17.560 -0.6023  2.0453 -0.0314
 1392SOL     OW15808   4.040   1.824  15.180 -0.5343 -0.7449  0.1934
 1392SOL    HW115809   4.005   1.901  15.224  1.4072 -0.2320  0.8497
 1392SOL    HW215810   3.959   1.775  15.166 -0.6900 -0.4810  0.1760
 1393SOL     OW15811   3.260   1.238  17.453 -0.2280 -0.7372 -0.1512
 1393SOL    HW115812   3.186   1.213  17.398  0.5540  0.3276 -1.6857
 1393SOL    HW215813   3.309   1.295  17.394  0.3086 -0.8360  0.1990
 1394SOL     OW15814   2.588   3.667   7.926  0.0742 -0.3410  0.2988
 1394SOL    HW115815   2.566   3.733   7.991 -0.3536 -1.2147  1.0443
 1394SOL    HW215816   2.670   3.704   7.893  1.0316 -1.0791  1.8503
 1395SOL     OW15817   1.603   2.182   1.904  0.0740 -0.0392 -0.3470
 1395SOL    HW115818   1.685   2.161   1.860 -0.8074 -0.3018 -1.8986
 1395SOL    HW215819   1.597   2.277   1.895 -1.1689 -0.1325 -0.5457
 1396SOL     OW15820   2.764   3.752   3.248  0.0143  0.0006  0.0456
 1396SOL    HW115821   2.678   3.763   3.288  0.4242 -0.7365  1.1159
 1396SOL    HW215822   2.761   3.659   3.228 -0.8542 -0.4561  2.2972
 1397SOL     OW15823   2.204   2.017   0.093 -0.3432  0.2141  0.2849
 1397SOL    HW115824   2.198   2.064   0.009 -2.3924  2.4309  1.6805
 1397SOL    HW215825   2.167   2.088   0.146 -2.3718 -0.9713  0.4342
 1398SOL     OW15826   3.655   3.174   7.679 -0.3049 -0.2943  0.7498
 1398SOL    HW115827   3.719   3.159   7.610 -0.7405  0.0893  0.2563
 1398SOL    HW215828   3.658   3.102   7.742 -1.8096 -1.1683 -0.1698
 1399SOL     OW15829   1.849   2.500  10.312  0.1959 -0.4408 -0.5102
 1399SOL    HW115830   1.829   2.484  10.404 -2.2004  0.6401 -0.8370
 1399SOL    HW215831   1.759   2.510  10.280 -0.5026 -2.3184  0.8865
 1400SOL     OW15832   2.968   4.507   4.201  0.3805 -0.2497 -0.0562
 1400SOL    HW115833   2.894   4.506   4.140  0.0848  1.4946  0.2705
 1400SOL    HW215834   2.922   4.499   4.284 -2.7360  0.5689 -1.6853
 1401SOL     OW15835   1.490   2.007   2.045 -0.1268 -0.4590 -0.0186
 1401SOL    HW115836   1.450   1.977   1.964 -1.2066  1.4008 -0.1704
 1401SOL    HW215837   1.550   2.071   2.006  0.9957  0.0056  2.4355
 1402SOL     OW15838   2.236   4.542   5.494 -0.2751 -0.4866  0.7773
 1402SOL    HW115839   2.242   4.446   5.493  0.0411 -0.4347 -2.7589
 1402SOL    HW215840   2.239   4.553   5.589 -0.0982  0.0666  0.7048
 1403SOL     OW15841   4.015   3.975   3.760 -0.1235  0.4611  0.3062
 1403SOL    HW115842   4.079   3.912   3.792 -1.1202 -0.2779  0.8520
 1403SOL    HW215843   4.018   4.046   3.824  1.4567 -0.6580  1.4845
 1404SOL     OW15844   3.128   0.266   7.484 -0.3653  0.0103 -0.7953
 1404SOL    HW115845   3.063   0.200   7.508  1.3851 -1.4351 -0.0829
 1404SOL    HW215846   3.104   0.332   7.549  1.7315 -0.9154  0.8941
 1405SOL     OW15847   1.924   1.517   1.315  0.0647 -0.0664 -0.2532
 1405SOL    HW115848   1.838   1.543   1.347  0.2859  1.0980 -0.6269
 1405SOL    HW215849   1.975   1.522   1.396 -1.5656 -0.0550  0.7655
 1406SOL     OW15850   1.887   4.603   5.765  0.5264  0.1198 -0.1299
 1406SOL    HW115851   1.816   4.551   5.803 -0.6227  1.5657 -0.3242
 1406SOL    HW215852   1.832   4.658   5.710 -0.1897  0.2299  0.6961
 1407SOL     OW15853   0.773   1.418  11.684 -0.1700 -0.0564  0.3700
 1407SOL    HW115854   0.775   1.331  11.724 -0.1224  0.0037  0.4971
 1407SOL    HW215855   0.689   1.450  11.716  0.1542  0.5895  0.5572
 1408SOL     OW15856   4.058   4.724  10.764 -0.2050 -0.5383  0.1048
 1408SOL    HW115857   4.144   4.698  10.797 -0.3425 -0.1464  0.7826
 1408SOL    HW215858   4.052   0.071  10.807  1.3795 -0.0459 -0.6463
 1409SOL     OW15859   3.797   1.338   8.336 -0.1463 -0.0941 -0.3704
 1409SOL    HW115860   3.885   1.333   8.298 -2.0599 -1.8902 -4.5925
 1409SOL    HW215861   3.751   1.390   8.269  1.2388  0.1778 -1.1019
 1410SOL     OW15862   1.598   3.715  13.981  0.5592 -0.1227 -0.2845
 1410SOL    HW115863   1.608   3.678  13.894  1.3784 -0.0345 -0.2255
 1410SOL    HW215864   1.679   3.766  13.981  1.0005 -0.8529 -2.7166
 1411SOL     OW15865   1.785   3.235   7.555 -0.8850 -0.6230 -1.0268
 1411SOL    HW115866   1.737   3.313   7.528  1.6180  1.5392  0.8922
 1411SOL    HW215867   1.797   3.259   7.647  0.0397 -2.9616 -0.5202
 1412SOL     OW15868   0.128   2.708  11.748 -0.5747  0.4021  0.7586
 1412SOL    HW115869   0.038   2.705  11.715 -0.5810  0.3095  0.7848
 1412SOL    HW215870   0.165   2.776  11.692 -1.1761  1.5062  1.7053
 1413SOL     OW15871   3.482   0.412   5.928  0.0437  0.0009 -0.3933
 1413SOL    HW115872   3.546   0.448   5.989  0.6854 -3.3217  0.8804
 1413SOL    HW215873   3.521   0.325   5.929 -1.1541 -0.5650 -2.1629
 1414SOL     OW15874   2.912   0.777   2.177 -0.4494  0.2570 -0.7763
 1414SOL    HW115875   2.839   0.741   2.227 -1.3451  0.8662 -1.6294
 1414SOL    HW215876   2.983   0.721   2.209 -2.0401 -1.2765  0.0414
 1415SOL     OW15877   3.276   0.309   6.212 -0.9459 -0.6039  0.0997
 1415SOL    HW115878   3.215   0.368   6.167  1.8218 -0.5464 -3.6190
 1415SOL    HW215879   3.357   0.361   6.212 -1.5740  0.3535  1.2344
 1416SOL     OW15880   4.526   3.536   6.879  0.3037 -0.0563 -0.0071
 1416SOL    HW115881   4.575   3.522   6.799  0.2053 -0.1443 -0.0515
 1416SOL    HW215882   4.507   3.630   6.879  1.6628  0.2095 -1.5470
 1417SOL     OW15883   2.401   2.421   9.143  0.0533 -0.0571  0.1545
 1417SOL    HW115884   2.312   2.445   9.116  1.1052  3.1151 -0.4175
 1417SOL    HW215885   2.407   2.488   9.211  1.5886  0.4083 -0.4453
 1418SOL     OW15886   0.009   3.899   4.847  0.0261 -0.3796 -0.3669
 1418SOL    HW115887   4.655   3.878   4.859 -0.2573  1.7199  1.0957
 1418SOL    HW215888   4.734   3.991   4.825  0.5688 -0.5012 -1.2067
 1419SOL     OW15889   3.851   0.713   7.643  1.0270 -0.0920  0.0839
 1419SOL    HW115890   3.906   0.746   7.572 -0.7735  0.9014 -0.8776
 1419SOL    HW215891   3.804   0.793   7.670 -1.2542 -1.2226 -0.5347
 1420SOL     OW15892   0.467   1.907   9.026 -0.5433 -0.4265 -0.4112
 1420SOL    HW115893   0.484   1.815   9.047 -0.9438  0.0657  2.1219
 1420SOL    HW215894   0.373   1.910   9.007 -0.7192 -2.4154  0.1311
 1421SOL     OW15895   3.955   0.242  13.623  0.0105 -0.3419 -0.2320
 1421SOL    HW115896   3.956   0.242  13.527  0.6601 -1.3717 -0.2245
 1421SOL    HW215897   4.005   0.322  13.641 -2.2758  0.6153  1.9691
 1422SOL     OW15898   3.119   2.458   1.900 -0.0549 -0.6202 -0.4045
 1422SOL    HW115899   3.092   2.428   1.813  2.6329  0.3227 -1.5686
 1422SOL    HW215900   3.209   2.486   1.884  1.9883 -6.0475  1.2181
 1423SOL     OW15901   1.109   2.006   3.267  0.4532 -0.1437  0.2715
 1423SOL    HW115902   1.029   1.996   3.215  1.3935  1.5985 -1.5052
 1423SOL    HW215903   1.095   2.099   3.285  0.6170 -0.2614  0.9927
 1424SOL     OW15904   0.296   4.089  10.591  0.1650  0.1481 -0.0335
 1424SOL    HW115905   0.388   4.082  10.618 -0.2779 -0.5175  1.3292
 1424SOL    HW215906   0.269   3.998  10.604 -0.0754  0.2508  0.1910
 1425SOL     OW15907   0.374   4.228   0.084  0.7001  0.2594  0.0603
 1425SOL    HW115908   0.432   4.303   0.075 -0.5696  1.3584  1.0731
 1425SOL    HW215909   0.289   4.268   0.068 -0.7403 -3.3515 -1.2937
 1426SOL     OW15910   3.204   2.927   7.388  0.0533  0.2578 -1.5846
 1426SOL    HW115911   3.137   2.935   7.320  1.5051  2.4952 -2.7567
 1426SOL    HW215912   3.247   3.010   7.365 -0.3620  1.1756  0.9872
 1427SOL     OW15913   2.633   3.385  14.107  0.4614 -0.0466 -0.0422
 1427SOL    HW115914   2.608   3.364  14.017  0.7172  0.1896 -0.1676
 1427SOL    HW215915   2.549   3.390  14.152  1.5697  3.6147  1.6467
 1428SOL     OW15916   3.842   1.546  11.807  0.1031 -0.0047 -0.1039
 1428SOL    HW115917   3.876   1.462  11.840  1.6325  0.6278 -0.0629
 1428SOL    HW215918   3.767   1.577  11.858  0.4053  0.5619 -0.0075
 1429SOL     OW15919   0.758   1.405   3.553  0.5878 -0.0041 -0.2053
 1429SOL    HW115920   0.845   1.444   3.561  0.3486  0.7679 -1.3262
 1429SOL    HW215921   0.778   1.319   3.590 -2.7334  0.2576  2.2330
 1430SOL     OW15922   4.047   2.278  11.820 -0.1231  0.2535 -0.4839
 1430SOL    HW115923   4.040   2.283  11.915 -1.3114  1.6665 -0.6377
 1430SOL    HW215924   4.078   2.362  11.787  2.2139  0.2634  1.7663
 1431SOL     OW15925   4.495   4.514  14.319  0.1901  0.0440  0.3325
 1431SOL    HW115926   4.581   4.522  14.360  1.6990  0.0884 -2.8171
 1431SOL    HW215927   4.442   4.547  14.391  0.3846  0.9117  0.0846
 1432SOL     OW15928   1.701   0.141  16.395 -0.1034  0.6391  0.2080
 1432SOL    HW115929   1.635   0.203  16.427  0.5474  1.8409 -0.7559
 1432SOL    HW215930   1.675   0.057  16.433 -0.3416  0.7211  0.2249
 1433SOL     OW15931   4.393   0.373  15.335 -0.1013  0.1697 -0.0530
 1433SOL    HW115932   4.467   0.391  15.277 -0.1343  2.4996  0.5913
 1433SOL    HW215933   4.441   0.360  15.417  1.0585  0.2445 -0.7156
 1434SOL     OW15934   4.120   2.878  10.211 -0.5505  0.5808  0.2629
 1434SOL    HW115935   4.190   2.882  10.276  0.1694 -0.3702 -0.4475
 1434SOL    HW215936   4.138   2.787  10.187  1.8543  0.8422  1.1002
 1435SOL     OW15937   1.416   4.656   3.680 -0.0747  0.3613  0.4399
 1435SOL    HW115938   1.503   4.627   3.708 -0.3930 -0.9525  0.0742
 1435SOL    HW215939   1.415   4.631   3.587 -0.5300  0.5877  0.3865
 1436SOL     OW15940   4.480   1.359   5.532  0.1218  0.4347 -0.0705
 1436SOL    HW115941   4.557   1.412   5.553 -0.0604  0.3796  0.7337
 1436SOL    HW215942   4.453   1.379   5.442 -0.8594  1.1333  0.3762
 1437SOL     OW15943   0.449   2.501   6.982  0.8669  0.3469 -0.3119
 1437SOL    HW115944   0.356   2.521   6.977  1.4153  2.4229 -2.5841
 1437SOL    HW215945   0.452   2.432   6.915 -0.3192 -0.3048  0.2981
 1438SOL     OW15946   1.892   4.121   5.078 -0.9971  0.3582  0.1246
 1438SOL    HW115947   1.911   4.081   4.993 -0.0143 -1.6036  1.2748
 1438SOL    HW215948   1.838   4.196   5.052  0.4644  0.7154 -1.9538
 1439SOL     OW15949   4.595   0.791   0.686  0.3863  0.1430  0.2008
 1439SOL    HW115950   4.674   0.755   0.646  1.8308 -0.3293  3.4310
 1439SOL    HW215951   4.583   0.723   0.752 -0.7580 -0.3887 -0.5702
 1440SOL     OW15952   4.345   4.575  17.293 -0.4556  0.4411 -0.5128
 1440SOL    HW115953   4.428   4.623  17.300 -0.6288  0.1393  3.9986
 1440SOL    HW215954   4.364   4.514  17.222 -0.7821 -0.2049 -0.0457
 1441SOL     OW15955   1.173   0.047   8.641  0.6630 -0.3486 -0.2135
 1441SOL    HW115956   1.088   0.002   8.635  1.1396 -1.1189 -1.0403
 1441SOL    HW215957   1.236   4.714   8.649  0.0070 -1.2754 -3.4608
 1442SOL     OW15958   1.978   1.901  15.376  0.0623 -0.0158  0.2073
 1442SOL    HW115959   1.950   1.820  15.333  1.8105  0.1999 -1.3340
 1442SOL    HW215960   1.948   1.964  15.312 -1.5316  0.2434  1.2196
 1443SOL     OW15961   2.762   3.686  16.294 -0.0903  0.5950 -0.1540
 1443SOL    HW115962   2.833   3.664  16.353 -0.9942 -1.4120  0.1732
 1443SOL    HW215963   2.816   3.713  16.220  0.4008 -1.5665 -0.5700
 1444SOL     OW15964   0.538   2.530  16.449  0.4605  0.6216  0.0982
 1444SOL    HW115965   0.462   2.481  16.418  1.4859  0.2729 -1.8690
 1444SOL    HW215966   0.599   2.462  16.477  1.5105  0.8304 -1.6485
 1445SOL     OW15967   4.579   2.816   3.279 -0.4305 -0.0580 -0.1547
 1445SOL    HW115968   4.668   2.849   3.290 -0.2164 -1.0858  1.1255
 1445SOL    HW215969   4.584   2.784   3.189 -1.4695 -1.1128  0.1653
 1446SOL     OW15970   2.287   0.223   3.468 -0.4536 -0.3515  0.0051
 1446SOL    HW115971   2.256   0.165   3.398  0.6444 -2.9873  1.7261
 1446SOL    HW215972   2.301   0.303   3.417 -1.5329  0.0136  0.2921
 1447SOL     OW15973   3.570   1.779  11.729 -0.3907  0.4782  0.0493
 1447SOL    HW115974   3.509   1.822  11.668 -2.0442 -0.3613  1.1260
 1447SOL    HW215975   3.579   1.845  11.797  1.5294  0.2665 -0.0105
 1448SOL     OW15976   2.956   3.064   7.087 -0.7030  0.4008 -0.4888
 1448SOL    HW115977   2.912   3.125   7.147 -0.4571  2.1280 -2.0474
 1448SOL    HW215978   2.968   3.109   7.003  1.4506 -1.2685 -1.0696
 1449SOL     OW15979   3.357   1.259   7.619 -0.2549  0.0167 -0.6563
 1449SOL    HW115980   3.431   1.311   7.587  1.9349 -1.8372  1.3397
 1449SOL    HW215981   3.322   1.236   7.534 -1.8331 -0.0271  0.0150
 1450SOL     OW15982   3.231   1.728   3.635 -0.0391  0.6993  0.1788
 1450SOL    HW115983   3.219   1.815   3.597 -0.8839 -0.3852 -2.0712
 1450SOL    HW215984   3.292   1.747   3.706  0.0204 -0.9077  0.5614
 1451SOL     OW15985   0.201   0.052   9.440 -0.3217 -0.1422 -0.0925
 1451SOL    HW115986   0.136   0.100   9.388 -0.5615 -0.2789  0.0817
 1451SOL    HW215987   0.275   0.111   9.434 -0.6179  0.2193 -0.1993
 1452SOL     OW15988   3.358   0.190   8.264 -0.5610  0.0547 -0.0004
 1452SOL    HW115989   3.282   0.244   8.241  0.2987  2.1671  2.1374
 1452SOL    HW215990   3.317   0.110   8.297  0.3672 -0.4014  0.0544
 1453SOL     OW15991   3.596   1.420   3.543 -1.3674  0.3849  0.1400
 1453SOL    HW115992   3.664   1.479   3.577  1.4744 -2.9652  0.2600
 1453SOL    HW215993   3.584   1.374   3.626  1.6618  0.1592  0.4723
 1454SOL     OW15994   1.517   4.732   5.393 -0.1038 -0.5048  0.2737
 1454SOL    HW115995   1.525   4.691   5.479 -0.2286 -0.5793  0.2503
 1454SOL    HW215996   1.607   0.020   5.377 -1.0415  2.5804  0.0527
 1455SOL     OW15997   1.727   2.955   7.479 -0.2215 -0.7325  0.5809
 1455SOL    HW115998   1.742   3.047   7.500  2.1001 -1.2394  1.0375
 1455SOL    HW215999   1.742   2.919   7.566 -3.6356 -0.6250  1.2299
 1456SOL     OW16000   1.620   2.321   3.436  0.2143 -0.4726 -0.0918
 1456SOL    HW116001   1.645   2.237   3.475 -3.0109 -0.8891  1.0753
 1456SOL    HW216002   1.689   2.319   3.369  0.1055 -2.0822 -0.1627
 1457SOL     OW16003   4.200   0.448   4.193  0.2870  0.0648 -0.3529
 1457SOL    HW116004   4.238   0.500   4.122  0.6299  1.8825  1.1749
 1457SOL    HW216005   4.269   0.395   4.233  0.6848  0.1462 -0.9264
 1458SOL     OW16006   3.411   0.549   0.322  0.3276 -0.2397 -0.2315
 1458SOL    HW116007   3.441   0.510   0.404 -2.5431 -0.7041  0.5612
 1458SOL    HW216008   3.393   0.470   0.271  0.8194 -0.6849  0.2796
 1459SOL     OW16009   1.538   4.545   3.189 -0.1321 -0.0548  0.8203
 1459SOL    HW116010   1.595   4.621   3.173  0.7330 -0.8217  0.2292
 1459SOL    HW216011   1.582   4.486   3.128  2.0137  1.9972  0.3446
 1460SOL     OW16012   3.257   2.898   5.716 -0.1191  0.2135 -0.4062
 1460SOL    HW116013   3.297   2.847   5.645 -0.7350  0.2238 -0.7649
 1460SOL    HW216014   3.168   2.917   5.684  0.1365  1.5255 -0.3435
 1461SOL     OW16015   4.464   2.688   2.223  0.4490  0.1482  0.0275
 1461SOL    HW116016   4.474   2.722   2.134  0.8349 -0.9421 -0.3487
 1461SOL    HW216017   4.553   2.659   2.244  0.3202 -1.3827 -1.4982
 1462SOL     OW16018   0.472   0.952   6.304 -0.1885  0.4100  0.2759
 1462SOL    HW116019   0.549   0.911   6.264  0.9002 -0.2313  3.0367
 1462SOL    HW216020   0.447   1.010   6.231 -1.9441  0.0252  0.5741
 1463SOL     OW16021   4.169   1.116  10.992 -0.2781  0.0728 -0.0393
 1463SOL    HW116022   4.234   1.061  10.948  0.1182  0.2412  0.3386
 1463SOL    HW216023   4.183   1.101  11.086 -1.2751 -2.1433 -0.2321
 1464SOL     OW16024   3.428   1.092   6.741 -0.4309  0.3939 -0.0037
 1464SOL    HW116025   3.454   1.005   6.711 -0.0818  0.9837 -1.3775
 1464SOL    HW216026   3.499   1.105   6.804 -0.2109  0.6049 -0.2997
 1465SOL     OW16027   2.698   0.649  17.133 -0.8994  0.3636 -0.0332
 1465SOL    HW116028   2.624   0.611  17.182 -2.6280  1.8541 -1.4999
 1465SOL    HW216029   2.668   0.631  17.044 -1.2995 -0.3119  0.2372
 1466SOL     OW16030   4.113   0.575   6.235 -0.2720 -0.1315 -0.1243
 1466SOL    HW116031   4.139   0.635   6.165  1.0076 -2.6580 -1.8031
 1466SOL    HW216032   4.170   0.502   6.214  0.7438  0.9612 -1.1002
 1467SOL     OW16033   1.166   1.329   2.062 -0.1309 -0.0373  0.2271
 1467SOL    HW116034   1.137   1.420   2.070  0.2158 -0.0262  1.3501
 1467SOL    HW216035   1.098   1.285   2.113 -1.3094  0.8226 -0.6063
 1468SOL     OW16036   0.949   2.520   6.206 -0.4049 -0.3428  0.2814
 1468SOL    HW116037   0.967   2.436   6.248  0.2980 -0.1466  0.3861
 1468SOL    HW216038   1.013   2.524   6.135 -0.5285  1.2825  0.2620
 1469SOL     OW16039   1.739   1.163   6.158  0.4847  0.4262 -0.0513
 1469SOL    HW116040   1.759   1.142   6.067 -0.3180  2.1570 -0.6093
 1469SOL    HW216041   1.793   1.097   6.201 -0.6114 -0.2951  0.2151
 1470SOL     OW16042   0.309   3.500   6.940  0.3554  0.0102 -0.0858
 1470SOL    HW116043   0.388   3.492   6.886  0.2534 -0.8542 -0.1004
 1470SOL    HW216044   0.304   3.595   6.945  2.0520  0.1939 -1.7102
 1471SOL     OW16045   0.278   2.221  11.813  0.0306  0.1300  0.0803
 1471SOL    HW116046   0.334   2.217  11.891 -1.1246 -0.2550  0.8877
 1471SOL    HW216047   0.285   2.135  11.770 -0.6772 -0.5330  1.2999
 1472SOL     OW16048   4.635   3.095  13.604  0.0087 -0.4465  0.2644
 1472SOL    HW116049   4.714   3.045  13.628 -0.1983 -0.9142 -0.0355
 1472SOL    HW216050   4.674   3.146  13.533 -1.2013 -1.0542 -0.8337
 1473SOL     OW16051   2.961   1.535  11.839  0.5663 -0.5193  0.1484
 1473SOL    HW116052   2.956   1.446  11.873 -0.0130  0.0862  1.6376
 1473SOL    HW216053   3.015   1.582  11.902  0.8967  0.4196 -0.8364
 1474SOL     OW16054   2.825   1.263   3.845  0.1214 -0.2871  0.5540
 1474SOL    HW116055   2.739   1.284   3.883 -1.0286 -1.4228 -1.4067
 1474SOL    HW216056   2.826   1.300   3.756 -0.5002 -0.8649  0.2998
 1475SOL     OW16057   0.126   2.457   5.774  0.4079  0.0249 -0.6695
 1475SOL    HW116058   0.192   2.388   5.776 -0.2434 -0.4822  2.8068
 1475SOL    HW216059   0.061   2.423   5.835 -0.1546  3.8241  0.8552
 1476SOL     OW16060   4.494   4.044   8.129 -0.3803 -0.3429  0.3581
 1476SOL    HW116061   4.512   4.048   8.035  0.2757 -0.9790  0.4540
 1476SOL    HW216062   4.566   4.099   8.161 -1.4640  0.6267  1.0952
 1477SOL     OW16063   0.128   2.852   5.724  0.0102  0.5799  0.3530
 1477SOL    HW116064   0.100   2.917   5.660 -0.6738 -0.0694 -0.0133
 1477SOL    HW216065   0.057   2.862   5.788  1.1709 -0.4312  1.8009
 1478SOL     OW16066   0.960   4.605   1.733 -0.6921  0.0255 -0.0035
 1478SOL    HW116067   0.976   4.561   1.650 -0.5426 -1.3320  0.7530
 1478SOL    HW216068   1.042   4.593   1.781 -0.9547  1.8443  0.9168
 1479SOL     OW16069   1.612   0.633   6.624  0.7257  0.2412  0.0889
 1479SOL    HW116070   1.525   0.594   6.629  1.0649 -0.6871 -1.3051
 1479SOL    HW216071   1.656   0.590   6.551 -0.0332  0.3282 -0.4121
 1480SOL     OW16072   3.355   2.551   6.835  0.6016 -0.1459  0.0807
 1480SOL    HW116073   3.447   2.527   6.828  0.2094 -1.8818  0.8263
 1480SOL    HW216074   3.334   2.566   6.927  1.3191 -0.9830  0.3765
 1481SOL     OW16075   3.167   0.214  14.734 -0.1336 -0.2717  0.7679
 1481SOL    HW116076   3.110   0.289  14.750 -1.5562 -1.6051  1.9635
 1481SOL    HW216077   3.149   0.205  14.640  0.3940  0.1787  0.6249
 1482SOL     OW16078   1.992   4.415  17.208 -0.3376  0.1691  0.0085
 1482SOL    HW116079   1.984   4.355  17.134  2.0206  3.0904 -2.6113
 1482SOL    HW216080   2.079   4.453  17.191 -0.4717  1.0566  1.3072
 1483SOL     OW16081   3.323   3.145   8.817 -0.2098 -0.2328  0.3399
 1483SOL    HW116082   3.234   3.151   8.853 -0.7702 -1.1910 -0.8695
 1483SOL    HW216083   3.309   3.075   8.754 -0.4557 -0.0596  0.2036
 1484SOL     OW16084   0.121   2.265   1.676  0.2585 -0.4173 -0.0918
 1484SOL    HW116085   0.124   2.351   1.634 -0.7973  0.1020  0.9124
 1484SOL    HW216086   0.185   2.283   1.744  0.4863 -2.5379  0.2605
 1485SOL     OW16087   0.893   0.727   3.976 -0.5968 -0.4502 -0.3046
 1485SOL    HW116088   0.858   0.646   4.014 -0.5775  0.0544  0.7899
 1485SOL    HW216089   0.953   0.678   3.919 -0.5056 -0.6178 -0.0626
 1486SOL     OW16090   0.991   1.111   4.962  0.4915  0.7151 -0.1030
 1486SOL    HW116091   0.949   1.182   4.914  0.0324  1.7846  1.8569
 1486SOL    HW216092   0.974   1.038   4.902  3.0577 -1.0002  1.2731
 1487SOL     OW16093   1.502   4.035   8.393 -0.1148 -0.2453 -0.6177
 1487SOL    HW116094   1.557   4.108   8.422 -0.5429  0.2239 -0.9922
 1487SOL    HW216095   1.426   4.086   8.364  0.1569  0.1018 -0.7275
 1488SOL     OW16096   3.993   4.618  10.527 -0.7920 -0.3609 -0.3876
 1488SOL    HW116097   4.017   4.652  10.613  2.3396 -5.7106  0.8679
 1488SOL    HW216098   4.067   4.645  10.473 -1.0571 -0.4308 -0.7873
 1489SOL     OW16099   0.561   0.114   4.033 -0.1441 -0.8301 -0.5533
 1489SOL    HW116100   0.621   0.178   4.072 -1.1432 -0.4366  0.3588
 1489SOL    HW216101   0.624   0.051   3.997 -0.8971 -1.6690 -0.3945
 1490SOL     OW16102   1.715   2.580  10.037 -0.5137  0.0135 -0.6634
 1490SOL    HW116103   1.664   2.562  10.115  0.3095 -0.0953 -0.1560
 1490SOL    HW216104   1.731   2.673  10.048  2.1635 -0.9239  3.0587
 1491SOL     OW16105   1.723   1.748   6.391  0.6299  0.3622  0.6156
 1491SOL    HW116106   1.714   1.756   6.296 -0.2662 -0.3742  0.6395
 1491SOL    HW216107   1.790   1.815   6.403  1.0498 -0.5645  3.5050
 1492SOL     OW16108   1.158   4.226  12.622  0.2300  0.1993  0.1649
 1492SOL    HW116109   1.130   4.317  12.627 -0.6568 -0.0418 -0.4863
 1492SOL    HW216110   1.225   4.229  12.691  1.7932  2.8552 -1.4761
 1493SOL     OW16111   1.112   2.281   9.516 -0.4551  0.5157 -0.2701
 1493SOL    HW116112   1.040   2.233   9.475  0.2861 -1.1981  0.4336
 1493SOL    HW216113   1.120   2.364   9.469 -1.5013  0.0951 -1.1787
 1494SOL     OW16114   0.358   3.862  16.018 -0.3787  0.1417  0.0331
 1494SOL    HW116115   0.278   3.825  15.981  0.1604  1.5395 -2.4852
 1494SOL    HW216116   0.385   3.909  15.939  1.5981 -0.7745  0.1592
 1495SOL     OW16117   2.613   0.662   1.774  0.1391  0.1844 -0.0266
 1495SOL    HW116118   2.640   0.675   1.865 -0.4196 -3.5829  0.7043
 1495SOL    HW216119   2.692   0.635   1.727  0.0656  1.6112 -0.9640
 1496SOL     OW16120   0.404   1.300   6.964  0.3063 -0.1670 -0.3679
 1496SOL    HW116121   0.406   1.392   6.993  1.1746 -0.2437 -0.1871
 1496SOL    HW216122   0.455   1.259   7.033 -0.2410  0.7303  0.5699
 1497SOL     OW16123   1.935   2.322  16.801 -0.1200 -0.3457 -0.2563
 1497SOL    HW116124   1.973   2.293  16.884 -0.2029 -0.3927 -0.2357
 1497SOL    HW216125   1.875   2.387  16.837 -0.0660 -0.6813  0.4294
 1498SOL     OW16126   0.669   4.459   8.394  0.8268  0.3281  0.9121
 1498SOL    HW116127   0.688   4.374   8.354  2.4165  1.2799 -0.3300
 1498SOL    HW216128   0.573   4.458   8.383  0.8290 -0.5063  0.9587
 1499SOL     OW16129   3.976   2.484   5.003 -0.1327  0.2921 -0.6380
 1499SOL    HW116130   3.975   2.416   5.070  2.9130  1.2808  0.4287
 1499SOL    HW216131   3.960   2.431   4.924  0.5308 -2.5108  1.1037
 1500SOL     OW16132   2.707   0.725  13.302  0.3134 -0.0923  0.0606
 1500SOL    HW116133   2.700   0.799  13.241  2.4459 -0.5833 -0.7757
 1500SOL    HW216134   2.722   0.767  13.386 -3.9083  0.9052  0.2976
 1501SOL     OW16135   0.686   2.086   2.851 -0.4380 -0.1325 -0.2886
 1501SOL    HW116136   0.739   2.043   2.784  0.1579 -1.6271  1.1707
 1501SOL    HW216137   0.619   2.132   2.800 -1.5206  2.1160  3.1404
 1502SOL     OW16138   2.843   1.490   6.554 -0.0306 -0.9636  0.2465
 1502SOL    HW116139   2.782   1.520   6.622 -0.7516 -2.6220  0.3399
 1502SOL    HW216140   2.794   1.413   6.525 -0.9026 -0.8419  1.3663
 1503SOL     OW16141   4.332   0.289   6.435 -0.5716  0.7575  0.1965
 1503SOL    HW116142   4.249   0.320   6.472 -0.7062 -0.2748  0.7590
 1503SOL    HW216143   4.324   0.194   6.427  0.2782  0.6885  0.1826
 1504SOL     OW16144   0.103   0.939  17.302 -0.3181 -0.1873 -0.2522
 1504SOL    HW116145   0.095   0.875  17.231 -2.7695 -0.9875  0.7599
 1504SOL    HW216146   0.031   0.920  17.361 -0.3523 -2.3187 -0.9553
 1505SOL     OW16147   0.909   2.975   1.582 -0.6895 -0.4483 -0.2773
 1505SOL    HW116148   0.839   3.000   1.642  0.6839  0.9155  0.7629
 1505SOL    HW216149   0.861   3.003   1.504 -0.6124 -1.1527 -0.5758
 1506SOL     OW16150   1.468   0.652   0.453  0.1325  0.0048  0.2457
 1506SOL    HW116151   1.451   0.628   0.544 -0.0963  0.1214  0.2345
 1506SOL    HW216152   1.389   0.702   0.431 -0.1010 -0.9599 -1.0919
 1507SOL     OW16153   1.610   2.632   4.720  0.1857 -0.3964 -0.5129
 1507SOL    HW116154   1.522   2.664   4.740  0.5626 -0.3056  0.9762
 1507SOL    HW216155   1.660   2.699   4.766 -1.6928  0.8205 -0.2405
 1508SOL     OW16156   1.522   2.109   0.400  0.7130 -0.0618 -0.0692
 1508SOL    HW116157   1.604   2.063   0.378  0.8796 -0.0826  0.5995
 1508SOL    HW216158   1.457   2.039   0.390 -1.1103  1.5336  0.6464
 1509SOL     OW16159   4.408   0.527   4.436  0.1684 -0.4732  0.1365
 1509SOL    HW116160   4.445   0.445   4.403 -1.1433 -0.8323 -0.4601
 1509SOL    HW216161   4.324   0.497   4.472 -0.3297 -0.2933 -0.8739
 1510SOL     OW16162   2.932   3.532   3.765  0.1502 -0.0571 -0.2569
 1510SOL    HW116163   2.852   3.541   3.817  0.9151 -0.1745  0.9350
 1510SOL    HW216164   2.992   3.567   3.831 -0.5760 -0.1405  0.4525
 1511SOL     OW16165   1.732   2.363   7.417  0.4214 -0.4175 -0.1239
 1511SOL    HW116166   1.641   2.391   7.411  0.1158 -1.7752 -2.0576
 1511SOL    HW216167   1.721   2.268   7.410  1.0882 -0.3113 -2.7105
 1512SOL     OW16168   2.358   3.598   2.702  0.2947  0.0104 -0.2811
 1512SOL    HW116169   2.423   3.584   2.770 -1.9835 -3.1365  1.2795
 1512SOL    HW216170   2.328   3.507   2.692  2.0568 -0.5161 -0.7055
 1513SOL     OW16171   4.158   4.162   7.197  0.8774 -0.0829  0.1063
 1513SOL    HW116172   4.122   4.142   7.110 -0.1603 -1.8186  0.9394
 1513SOL    HW216173   4.099   4.236   7.205  0.4379 -0.7546  2.9305
 1514SOL     OW16174   4.345   3.177  12.235  0.6255 -0.3899 -0.0268
 1514SOL    HW116175   4.430   3.146  12.204  0.7578 -0.0072 -0.0471
 1514SOL    HW216176   4.363   3.165  12.328  0.1197  1.4988  0.3196
 1515SOL     OW16177   4.270   3.013  15.174 -0.6837  0.1496  0.0718
 1515SOL    HW116178   4.363   2.997  15.162 -0.8040 -2.2414  2.3030
 1515SOL    HW216179   4.262   3.105  15.148  0.2699  0.3566  0.4866
 1516SOL     OW16180   3.975   3.100   6.408  0.4809 -0.2114  0.1178
 1516SOL    HW116181   4.019   3.184   6.397  2.9098 -1.3980  0.8608
 1516SOL    HW216182   3.987   3.087   6.502  0.4831 -1.7978 -0.1049
 1517SOL     OW16183   2.620   3.304  17.151 -0.9119 -0.2503  0.2766
 1517SOL    HW116184   2.614   3.395  17.122  0.0224  0.4872  2.4374
 1517SOL    HW216185   2.698   3.289  17.097  0.3302  1.2983  1.6630
 1518SOL     OW16186   1.499   3.942   5.657 -0.0555 -0.2485  0.1780
 1518SOL    HW116187   1.412   3.947   5.696  0.0986 -3.5526  0.9165
 1518SOL    HW216188   1.528   4.033   5.665 -1.4840  0.1411  0.8193
 1519SOL     OW16189   3.900   3.040   5.422 -0.3481 -0.4005  0.3361
 1519SOL    HW116190   3.855   3.124   5.417  2.8819  1.4432  1.9974
 1519SOL    HW216191   3.843   2.993   5.482 -0.4636 -0.8521 -0.1280
 1520SOL     OW16192   1.770   1.936   8.607 -0.1579  0.5356  0.3381
 1520SOL    HW116193   1.693   1.946   8.550 -0.7381 -0.1763  0.9944
 1520SOL    HW216194   1.744   1.858   8.655 -0.5836  0.0036 -0.7584
 1521SOL     OW16195   2.650   4.591  16.274  0.3641 -0.7694 -0.2770
 1521SOL    HW116196   2.702   4.653  16.223 -1.3149  1.7358  1.0693
 1521SOL    HW216197   2.611   4.642  16.345  1.6306 -1.1413  0.6790
 1522SOL     OW16198   4.244   4.610   5.347 -0.6070 -0.1067  0.1190
 1522SOL    HW116199   4.289   4.690   5.375 -1.7796  0.8041 -0.5460
 1522SOL    HW216200   4.284   4.596   5.261 -0.8167 -1.8128  0.2993
 1523SOL     OW16201   2.630   0.640   4.026  0.4610 -0.1904  0.7757
 1523SOL    HW116202   2.607   0.591   3.947 -0.9847  0.0296  1.0711
 1523SOL    HW216203   2.615   0.731   4.000  1.7597  0.2388  1.5247
 1524SOL     OW16204   3.201   2.086   5.406  0.1052  0.5959 -0.2255
 1524SOL    HW116205   3.119   2.127   5.378 -2.0850 -4.5120 -1.3118
 1524SOL    HW216206   3.218   2.011   5.348 -3.1372  0.0016 -0.4133
 1525SOL     OW16207   1.594   1.249  11.217 -0.0077  1.1403  0.5785
 1525SOL    HW116208   1.577   1.340  11.243  3.8110  1.6704  1.3266
 1525SOL    HW216209   1.685   1.236  11.245  0.0805 -2.6844 -1.4493
 1526SOL     OW16210   3.688   0.576   5.006  0.4328  0.1517  0.0162
 1526SOL    HW116211   3.695   0.613   4.918  1.0802 -2.2869 -0.9445
 1526SOL    HW216212   3.593   0.568   5.020  0.3945  2.8376  1.3441
 1527SOL     OW16213   3.947   0.560   5.342 -0.3142 -0.0209  0.1167
 1527SOL    HW116214   4.031   0.575   5.299 -1.0658 -1.8812 -1.9961
 1527SOL    HW216215   3.979   0.550   5.431  3.1202  1.9452 -0.8871
 1528SOL     OW16216   0.751   3.925   3.313  0.3352  0.0129  0.0195
 1528SOL    HW116217   0.664   3.889   3.330  0.8064 -0.1757  1.9652
 1528SOL    HW216218   0.757   3.913   3.218 -2.4620  0.6899 -0.2587
 1529SOL     OW16219   4.374   4.734   2.343  0.2002 -0.1007  0.8549
 1529SOL    HW116220   4.427   0.048   2.283 -0.3638 -0.5871 -0.0509
 1529SOL    HW216221   4.300   0.056   2.350  0.1868 -0.1454  1.1171
 1530SOL     OW16222   1.355   2.381   8.748 -0.5189 -0.5617 -0.0169
 1530SOL    HW116223   1.292   2.309   8.759 -1.4715 -0.3454 -4.0745
 1530SOL    HW216224   1.435   2.329   8.755  0.3067  0.4614 -1.8617
 1531SOL     OW16225   3.952   3.657  11.540  0.9586  0.5366 -0.5461
 1531SOL    HW116226   3.988   3.574  11.511  1.6411  0.2801  1.0396
 1531SOL    HW216227   3.863   3.634  11.565  0.5272 -0.3275 -2.8961
 1532SOL     OW16228   2.435   4.442   5.929  0.0809  0.2485  0.4217
 1532SOL    HW116229   2.495   4.470   5.998  1.5491 -1.0520 -0.3426
 1532SOL    HW216230   2.377   4.384   5.978  0.2571 -0.1075  0.2111
 1533SOL     OW16231   2.525   1.818  17.069  0.3545 -0.2708 -0.2549
 1533SOL    HW116232   2.482   1.749  17.018 -0.6457 -0.6477  1.1063
 1533SOL    HW216233   2.586   1.770  17.124  1.2706  0.2063 -0.8552
 1534SOL     OW16234   0.275   4.728   5.665 -0.0114  0.2296 -0.1639
 1534SOL    HW116235   0.267   0.084   5.675  0.1655  0.3129 -0.8243
 1534SOL    HW216236   0.367   4.724   5.640  0.1601  0.0935  0.4746
 1535SOL     OW16237   1.749   4.549   9.060 -0.0714 -0.1019  0.1686
 1535SOL    HW116238   1.666   4.588   9.085  0.3938  1.4371 -0.7380
 1535SOL    HW216239   1.813   4.559   9.131  0.0307  1.0173 -0.0922
 1536SOL     OW16240   1.201   1.864  13.320 -0.2969  0.0621  0.1447
 1536SOL    HW116241   1.295   1.848  13.323 -0.3613 -0.7346 -2.0850
 1536SOL    HW216242   1.169   1.797  13.259 -2.2005 -0.5357  1.8170
 1537SOL     OW16243   1.888   2.098   8.784  0.6834  0.0127 -0.2920
 1537SOL    HW116244   1.826   2.104   8.857  1.1340 -0.6680  0.1457
 1537SOL    HW216245   1.840   2.044   8.722  0.2958  0.1155 -0.0847
 1538SOL     OW16246   3.451   3.227   3.391 -0.9226 -0.0949 -0.2815
 1538SOL    HW116247   3.432   3.138   3.421 -0.8112 -0.3684 -1.0052
 1538SOL    HW216248   3.521   3.250   3.453 -2.5527  2.6258  0.4975
 1539SOL     OW16249   3.735   3.839  13.138 -0.2029  0.0683 -0.2511
 1539SOL    HW116250   3.691   3.924  13.137  1.1728  0.7889  0.4447
 1539SOL    HW216251   3.800   3.861  13.204 -1.8912  1.2384  1.0353
 1540SOL     OW16252   4.466   1.810   0.082  0.3598 -0.3555  0.4375
 1540SOL    HW116253   4.486   1.857   0.001 -0.8429 -0.5594  0.0347
 1540SOL    HW216254   4.379   1.776   0.062  0.0451  1.8109 -1.8742
 1541SOL     OW16255   3.585   3.116  14.815 -0.7041  0.0873  0.3043
 1541SOL    HW116256   3.610   3.046  14.755  2.2185  2.2150 -0.9653
 1541SOL    HW216257   3.628   3.192  14.775 -0.3906  0.3262  1.0845
 1542SOL     OW16258   4.267   1.039  11.238  0.0159  0.1723 -0.2924
 1542SOL    HW116259   4.296   0.953  11.269  0.0862  0.7994  1.3733
 1542SOL    HW216260   4.259   1.099  11.311 -1.4745 -1.1040  0.5994
 1543SOL     OW16261   4.531   1.050   4.776  0.6390  0.0295  0.5090
 1543SOL    HW116262   4.470   1.070   4.704  0.9704  0.3084  0.3058
 1543SOL    HW216263   4.524   1.127   4.832  1.3381 -0.0561  0.7063
 1544SOL     OW16264   4.572   0.492   7.698  0.1311 -0.4543 -0.6252
 1544SOL    HW116265   4.542   0.583   7.703  0.9000 -0.0217 -3.6595
 1544SOL    HW216266   4.626   0.483   7.776 -1.2242 -0.0078  0.3553
 1545SOL     OW16267   1.763   1.882   8.065  0.4116 -0.0513  0.0546
 1545SOL    HW116268   1.738   1.972   8.041  0.1631 -0.5246 -1.4710
 1545SOL    HW216269   1.788   1.842   7.982  1.7064  1.2082 -0.1739
 1546SOL     OW16270   3.128   3.815  12.243 -0.3801  0.1581 -0.0105
 1546SOL    HW116271   3.056   3.865  12.280  0.8174  2.2894 -0.5758
 1546SOL    HW216272   3.091   3.790  12.158 -0.3036  3.4524 -1.0160
 1547SOL     OW16273   3.829   4.567   8.065  0.4542 -0.4456  0.0600
 1547SOL    HW116274   3.899   4.539   8.005  0.3275 -0.1184 -0.2403
 1547SOL    HW216275   3.886   4.620   8.120  2.3427 -1.8331 -0.5639
 1548SOL     OW16276   2.512   2.851  15.172 -0.1522 -0.0176  0.3507
 1548SOL    HW116277   2.580   2.787  15.151  0.5000  0.0705  2.1395
 1548SOL    HW216278   2.443   2.787  15.189  0.8809 -1.4731 -0.9957
 1549SOL     OW16279   1.293   3.732  16.843 -0.4189 -0.6353  0.5327
 1549SOL    HW116280   1.243   3.800  16.796  2.4878  3.1756  2.9749
 1549SOL    HW216281   1.227   3.698  16.903 -0.8952 -1.6694 -0.5778
 1550SOL     OW16282   4.366   2.347   5.252  0.0598 -0.2988 -0.3894
 1550SOL    HW116283   4.291   2.396   5.286  1.8042  0.8510  1.7270
 1550SOL    HW216284   4.336   2.258   5.268 -0.7767  0.4153  1.9140
 1551SOL     OW16285   3.568   4.627   8.134  0.9620 -0.0134  0.0817
 1551SOL    HW116286   3.613   4.704   8.169 -0.0540 -0.8856  3.2938
 1551SOL    HW216287   3.635   4.595   8.072  1.5549  1.3357  0.0148
 1552SOL     OW16288   0.179   3.577   6.504  0.4925 -0.3298 -0.0519
 1552SOL    HW116289   0.131   3.535   6.575 -0.5969 -2.2585 -1.9428
 1552SOL    HW216290   0.219   3.647   6.556 -2.5441 -0.3454  2.2542
 1553SOL     OW16291   4.287   2.024   5.809  0.4192  0.0054 -0.3182
 1553SOL    HW116292   4.358   1.965   5.784  2.4332  2.5134 -0.4991
 1553SOL    HW216293   4.266   1.990   5.896 -2.5212  3.2338  0.2121
 1554SOL     OW16294   1.563   3.682  16.894 -0.0292 -0.1067 -0.0631
 1554SOL    HW116295   1.478   3.713  16.865 -0.1416  0.3770  0.8162
 1554SOL    HW216296   1.550   3.682  16.988  2.0458 -0.0631  0.2380
 1555SOL     OW16297   3.382   2.617   4.842 -0.1119  0.0618  0.1465
 1555SOL    HW116298   3.370   2.652   4.754  2.3085 -2.2185 -1.0772
 1555SOL    HW216299   3.348   2.529   4.830  0.6936  0.1228 -2.5493
 1556SOL     OW16300   4.392   0.499  16.837  0.3894  0.1664 -0.0706
 1556SOL    HW116301   4.330   0.546  16.782  2.0626 -0.6049 -2.5802
 1556SOL    HW216302   4.332   0.441  16.885 -0.1749  0.2226 -0.7119
 1557SOL     OW16303   1.837   4.589   6.950  0.5951 -0.3718 -0.1744
 1557SOL    HW116304   1.782   4.620   7.022 -0.3615  1.7517 -1.8029
 1557SOL    HW216305   1.782   4.520   6.913  0.7417 -0.9004  0.6024
 1558SOL     OW16306   1.514   2.819   7.832  0.0531  0.2393 -0.1239
 1558SOL    HW116307   1.423   2.816   7.800 -0.9852  0.6409  2.8342
 1558SOL    HW216308   1.554   2.807   7.746  1.6985 -3.0804  1.0784
 1559SOL     OW16309   0.676   3.429   7.083  0.4882 -0.7753  0.0942
 1559SOL    HW116310   0.749   3.412   7.024  0.0005 -2.9579  0.1065
 1559SOL    HW216311   0.600   3.411   7.028  0.9105  2.2097 -1.5003
 1560SOL     OW16312   2.072   4.079  10.590 -0.3945  0.3657  0.6917
 1560SOL    HW116313   2.163   4.108  10.579  1.2655 -3.5621  3.5157
 1560SOL    HW216314   2.090   3.985  10.584  2.9776  1.0153  0.5004
 1561SOL     OW16315   0.178   3.248   8.951 -1.0032 -0.0998  0.1902
 1561SOL    HW116316   0.129   3.260   9.032  1.2325 -0.9148  1.6595
 1561SOL    HW216317   0.116   3.192   8.904 -0.0358 -0.8925 -0.1417
 1562SOL     OW16318   2.165   3.801   1.788 -0.5137 -0.6463  0.1744
 1562SOL    HW116319   2.152   3.716   1.745  0.5845 -0.4336 -0.5880
 1562SOL    HW216320   2.251   3.818   1.749  0.4428 -4.1996  0.7240
 1563SOL     OW16321   2.446   0.671   3.612 -0.3130 -0.1959  0.3655
 1563SOL    HW116322   2.446   0.713   3.527 -0.5343 -0.9867 -0.0272
 1563SOL    HW216323   2.358   0.632   3.608  0.2771 -2.0292  4.5692
 1564SOL     OW16324   1.585   0.151   7.953  0.3532  0.2949  0.1150
 1564SOL    HW116325   1.513   0.105   7.996  0.3197  0.6374  0.4261
 1564SOL    HW216326   1.656   0.092   7.981  0.6075  0.1861 -0.7619
 1565SOL     OW16327   1.779   4.241  15.491  0.8032 -0.2778 -0.0992
 1565SOL    HW116328   1.764   4.300  15.417  0.0465 -0.3510 -0.0045
 1565SOL    HW216329   1.800   4.306  15.559  3.4101  0.7242 -1.8905
 1566SOL     OW16330   2.318   1.793  17.435  0.4856 -0.1808  0.2065
 1566SOL    HW116331   2.315   1.756  17.524 -0.0296  1.2780  0.8065
 1566SOL    HW216332   2.281   1.726  17.379 -0.8228  0.6736  0.0460
 1567SOL     OW16333   3.873   1.148   6.831 -0.0507  0.5965 -0.1100
 1567SOL    HW116334   3.901   1.096   6.756  1.7021 -0.2649  1.1295
 1567SOL    HW216335   3.953   1.152   6.884 -1.0062  0.0548  1.3720
 1568SOL     OW16336   4.015   3.900   2.356 -0.3535  0.1541  0.7460
 1568SOL    HW116337   3.925   3.867   2.349 -0.3742 -0.1887  2.6370
 1568SOL    HW216338   4.038   3.939   2.272 -2.8861 -0.5675 -0.2928
 1569SOL     OW16339   2.814   2.760  12.173  0.1973 -0.1787  0.3756
 1569SOL    HW116340   2.826   2.744  12.079 -0.9404  1.4204 -0.0318
 1569SOL    HW216341   2.904   2.742  12.200  0.5484  3.7199  1.7767
 1570SOL     OW16342   3.775   2.017   8.479  0.5718  0.9802 -0.3195
 1570SOL    HW116343   3.723   2.090   8.513  0.2608  0.8013 -0.4089
 1570SOL    HW216344   3.773   1.961   8.556  0.7659  0.6978 -0.5196
 1571SOL     OW16345   2.129   0.873   9.631 -0.0186  0.1255  0.2755
 1571SOL    HW116346   2.159   0.905   9.546 -0.1482  1.7895  0.8557
 1571SOL    HW216347   2.182   0.933   9.684  0.7760 -0.5567  0.2468
 1572SOL     OW16348   1.847   2.678   2.094 -0.3155  0.3055 -0.2664
 1572SOL    HW116349   1.912   2.615   2.065  0.0071  1.6254 -2.4038
 1572SOL    HW216350   1.828   2.729   2.015  0.8372  1.7677  0.4038
 1573SOL     OW16351   1.394   4.528   2.061  0.3920  0.3308  0.3552
 1573SOL    HW116352   1.433   4.453   2.015  1.6168  2.8362 -2.6431
 1573SOL    HW216353   1.408   4.598   1.997  2.2864  1.5747  2.1095
 1574SOL     OW16354   2.302   0.442   5.657  0.1253 -0.0664  0.0291
 1574SOL    HW116355   2.360   0.513   5.629 -1.1480  0.2210 -1.8384
 1574SOL    HW216356   2.355   0.363   5.646  1.3065  1.0095 -1.8636
 1575SOL     OW16357   0.797   0.178  14.075 -0.6441  0.3081  0.2289
 1575SOL    HW116358   0.857   0.194  14.148 -0.5356 -0.2523  0.2632
 1575SOL    HW216359   0.764   0.088  14.087 -0.3859  0.1695 -0.1033
 1576SOL     OW16360   1.553   3.818   6.540  0.3758  0.2955  0.1268
 1576SOL    HW116361   1.490   3.845   6.608 -1.6688 -0.6671 -1.3749
 1576SOL    HW216362   1.489   3.819   6.469  0.1060 -0.5419  0.3516
 1577SOL     OW16363   4.239   2.969   7.616  0.1062 -0.1197  0.4819
 1577SOL    HW116364   4.200   2.903   7.674 -1.1306 -0.0113 -0.2297
 1577SOL    HW216365   4.239   3.042   7.678  0.5869  0.8103 -0.6271
 1578SOL     OW16366   2.934   0.508  10.508  0.0362  0.1473  0.3126
 1578SOL    HW116367   2.905   0.436  10.451  1.5955  1.1482 -1.7264
 1578SOL    HW216368   3.026   0.488  10.522 -0.3127  0.5512  3.1938
 1579SOL     OW16369   1.124   4.686   7.892 -0.2940  0.2144 -0.5067
 1579SOL    HW116370   1.068   4.732   7.955  1.6172 -1.7399  2.6439
 1579SOL    HW216371   1.058   4.667   7.825 -1.0910 -0.1315  0.3695
 1580SOL     OW16372   0.131   3.735   7.348 -0.5696 -0.1214 -0.2558
 1580SOL    HW116373   0.071   3.771   7.413  0.2573  1.5153 -0.3909
 1580SOL    HW216374   0.191   3.684   7.401  0.0641  0.5515 -0.3291
 1581SOL     OW16375   2.291   0.639  15.751  0.0180 -0.2280 -0.2660
 1581SOL    HW116376   2.371   0.678  15.786 -0.0164 -0.8413  0.4939
 1581SOL    HW216377   2.287   0.672  15.661  0.3591  1.4964  0.3575
 1582SOL     OW16378   4.537   0.204  13.551  0.0745  0.0212 -0.1081
 1582SOL    HW116379   4.515   0.163  13.635  0.7215  0.2449  0.1649
 1582SOL    HW216380   4.455   0.187  13.504 -0.2228  1.1263  0.0124
 1583SOL     OW16381   0.208   2.174   6.248  0.0455 -0.0872  0.0039
 1583SOL    HW116382   0.146   2.193   6.177 -0.5529 -1.2025  0.2276
 1583SOL    HW216383   0.195   2.256   6.296  0.0539  0.4081 -0.8526
 1584SOL     OW16384   4.233   3.785   6.499 -0.1950 -0.8854 -0.4392
 1584SOL    HW116385   4.325   3.758   6.488  0.2867 -0.5831  2.8184
 1584SOL    HW216386   4.197   3.699   6.517 -1.4976 -0.4244 -0.8544
 1585SOL     OW16387   3.636   0.908   2.064 -0.2149  0.3846  0.6047
 1585SOL    HW116388   3.601   0.993   2.037 -2.3258 -0.9579 -0.8556
 1585SOL    HW216389   3.675   0.867   1.986 -0.6007  0.0094  0.6066
 1586SOL     OW16390   2.104   0.597   7.897  0.5667  0.3279 -0.7435
 1586SOL    HW116391   2.175   0.564   7.951  0.7856  0.2883 -1.0571
 1586SOL    HW216392   2.054   0.515   7.901 -0.5293  1.0994  1.9225
 1587SOL     OW16393   0.001   4.216   4.237 -0.1663 -0.0662 -0.3121
 1587SOL    HW116394   0.041   4.180   4.157  1.6391  1.8505 -0.2464
 1587SOL    HW216395   0.011   4.310   4.224  0.0015 -0.3633 -2.4100
 1588SOL     OW16396   4.251   0.915   9.521 -0.7078  0.3184  0.4026
 1588SOL    HW116397   4.258   0.846   9.455 -0.5963 -0.1652  0.9254
 1588SOL    HW216398   4.345   0.930   9.532 -0.6939 -0.4974  1.4414
 1589SOL     OW16399   3.381   4.007  14.779  0.4679  0.1880  0.1131
 1589SOL    HW116400   3.357   3.981  14.690 -1.0083  0.5356  0.4003
 1589SOL    HW216401   3.425   3.927  14.807 -1.2066  0.1746  2.6951
 1590SOL     OW16402   4.443   2.301   0.066 -0.3920 -0.2068 -0.0028
 1590SOL    HW116403   4.404   2.306  17.730 -0.2032  0.9137 -0.0333
 1590SOL    HW216404   4.363   2.302   0.119 -0.1710 -1.2681  0.3442
 1591SOL     OW16405   1.444   4.667   6.716 -0.4083  0.5708  0.2046
 1591SOL    HW116406   1.493   4.715   6.649  0.1751  0.4596  0.5456
 1591SOL    HW216407   1.355   4.702   6.707 -0.7610 -0.6206 -0.8156
 1592SOL     OW16408   1.554   4.674   4.002  0.0124 -0.1607 -0.4332
 1592SOL    HW116409   1.502   4.717   3.934 -1.1091 -0.2010  0.3984
 1592SOL    HW216410   1.594   0.014   4.041 -0.9538 -0.1522  0.5391
 1593SOL     OW16411   2.554   3.497  14.404  0.0630  0.2390 -0.2638
 1593SOL    HW116412   2.575   3.560  14.335 -0.4972 -0.9729 -1.5308
 1593SOL    HW216413   2.458   3.504  14.405  0.0976  0.7295  0.3807
 1594SOL     OW16414   0.051   4.424   9.955  0.5853  0.4105 -0.5900
 1594SOL    HW116415   0.096   4.508   9.963  1.0313  0.1375 -0.2086
 1594SOL    HW216416   0.116   4.358   9.980  0.7846 -0.2538 -2.8845
 1595SOL     OW16417   0.418   0.781   7.236  0.0617 -0.7404  0.6013
 1595SOL    HW116418   0.495   0.809   7.285  0.0195 -0.2210  0.3694
 1595SOL    HW216419   0.355   0.837   7.280  0.1090  0.4568 -0.8885
 1596SOL     OW16420   2.336   1.776  14.282  0.3480  0.0732 -0.3796
 1596SOL    HW116421   2.344   1.682  14.267 -0.6964  0.0260 -0.6421
 1596SOL    HW216422   2.243   1.787  14.263  0.6587 -0.7775 -2.4300
 1597SOL     OW16423   1.284   1.122   5.431 -0.1075  0.4448 -0.1637
 1597SOL    HW116424   1.316   1.098   5.518  1.0392 -1.0343 -0.9936
 1597SOL    HW216425   1.336   1.062   5.378 -0.3783 -1.4135  1.7023
 1598SOL     OW16426   4.498   2.514   8.612 -0.4331  0.0922 -0.3144
 1598SOL    HW116427   4.561   2.580   8.642  0.2769 -0.2492 -1.0689
 1598SOL    HW216428   4.427   2.532   8.674 -0.7020 -0.4995 -0.4491
 1599SOL     OW16429   2.770   1.876   4.241 -0.2528 -0.1784  0.3012
 1599SOL    HW116430   2.718   1.908   4.167  1.4270 -0.7650 -1.1359
 1599SOL    HW216431   2.724   1.919   4.314 -1.8521 -0.3389 -0.6020
 1600SOL     OW16432   3.922   4.466   1.838 -0.5519 -0.2888  0.3503
 1600SOL    HW116433   3.855   4.404   1.865 -0.8237 -0.4567 -0.6958
 1600SOL    HW216434   3.894   4.548   1.878 -1.2410 -0.3569  0.0050
 1601SOL     OW16435   4.171   2.689   8.720  0.5557 -0.2258 -0.2581
 1601SOL    HW116436   4.129   2.768   8.753  0.9316 -0.3709  0.5562
 1601SOL    HW216437   4.261   2.717   8.707  0.1789  0.8835 -0.4417
 1602SOL     OW16438   0.453   3.543   3.987  0.3607  0.2658 -0.6360
 1602SOL    HW116439   0.410   3.597   3.921  1.4601  0.8656 -0.8430
 1602SOL    HW216440   0.546   3.541   3.964  0.4077 -0.4475 -0.4069
 1603SOL     OW16441   1.461   3.253  13.083 -0.1001 -0.0939 -0.5850
 1603SOL    HW116442   1.506   3.300  13.012  1.0828 -0.1071  0.1597
 1603SOL    HW216443   1.535   3.200  13.113  0.0861  0.7270  0.4040
 1604SOL     OW16444   1.308   2.187  11.370 -0.0734 -0.0355 -0.1139
 1604SOL    HW116445   1.353   2.154  11.292  0.3982  1.0700 -0.3121
 1604SOL    HW216446   1.347   2.274  11.368  2.9122 -1.3361  0.6095
 1605SOL     OW16447   3.301   3.018   5.390  0.5192  0.2029 -0.0312
 1605SOL    HW116448   3.309   2.923   5.378  2.3920  0.4733 -0.8652
 1605SOL    HW216449   3.223   3.015   5.445 -0.3429  0.5235 -1.2288
 1606SOL     OW16450   3.979   3.545   3.991 -0.5447  0.2081 -0.0352
 1606SOL    HW116451   3.905   3.496   4.027 -1.0812  1.9125  1.1956
 1606SOL    HW216452   3.939   3.555   3.904 -3.4238 -0.5545  1.2042
 1607SOL     OW16453   3.153   3.986   4.864 -0.0858 -0.5603  0.0473
 1607SOL    HW116454   3.104   4.004   4.944  0.4762  3.9965 -0.6712
 1607SOL    HW216455   3.095   4.020   4.796 -0.3213  0.6977  0.8895
 1608SOL     OW16456   4.700   3.584   5.025 -0.4714 -0.3539  0.3640
 1608SOL    HW116457   4.704   3.551   5.114 -0.7243  1.6290  1.0921
 1608SOL    HW216458   4.625   3.534   4.991 -1.1107  1.4957 -0.9500
 1609SOL     OW16459   0.305   2.767   7.057  0.9879  0.0760 -0.3186
 1609SOL    HW116460   0.300   2.861   7.040  0.6744  0.1939  0.4203
 1609SOL    HW216461   0.400   2.752   7.060  0.5411 -2.3556  2.6400
 1610SOL     OW16462   4.322   2.377   3.379 -0.2852 -0.2095 -0.1646
 1610SOL    HW116463   4.407   2.419   3.369  0.7272 -1.8132  1.6116
 1610SOL    HW216464   4.337   2.296   3.428  0.2760 -0.8232 -1.3432
 1611SOL     OW16465   4.051   0.840   5.549 -0.5425  0.0136 -0.2918
 1611SOL    HW116466   4.038   0.746   5.534 -1.1038  0.3755 -1.9685
 1611SOL    HW216467   4.146   0.841   5.539 -0.4317  3.4982  1.1120
 1612SOL     OW16468   4.658   2.762  14.966  0.0851 -0.3582  0.1617
 1612SOL    HW116469   4.585   2.806  15.009 -0.1686 -0.2675 -0.3631
 1612SOL    HW216470   4.629   2.718  14.886  0.9030 -0.0567 -0.2935
 1613SOL     OW16471   1.168   3.391   8.486  0.1791  0.4160 -0.0711
 1613SOL    HW116472   1.185   3.479   8.520  0.3949  0.9576 -1.5686
 1613SOL    HW216473   1.089   3.393   8.432 -0.0343  3.2019  0.3132
 1614SOL     OW16474   4.537   3.718   6.200  0.2408  0.0981 -0.8363
 1614SOL    HW116475   4.559   3.668   6.278 -0.2867  2.8775  1.1178
 1614SOL    HW216476   4.512   3.798   6.247  0.7674  0.3286 -0.9463
 1615SOL     OW16477   2.147   0.834   2.423 -0.2275 -0.2356  0.2159
 1615SOL    HW116478   2.177   0.920   2.451 -0.0378 -0.2921  0.1867
 1615SOL    HW216479   2.052   0.830   2.435 -0.0932 -0.2354  1.3197
 1616SOL     OW16480   3.793   0.935  16.455 -0.5460 -0.5877  0.5072
 1616SOL    HW116481   3.798   0.935  16.359 -0.0473 -0.2690  0.5292
 1616SOL    HW216482   3.820   1.025  16.473 -1.0074 -0.2077 -0.7267
 1617SOL     OW16483   2.248   3.530   3.974 -0.3650  0.2695 -0.2106
 1617SOL    HW116484   2.219   3.457   4.028 -2.1539 -0.2467 -1.8930
 1617SOL    HW216485   2.241   3.594   4.045  0.1161 -0.3341  0.3838
 1618SOL     OW16486   1.710   0.669   6.882 -0.0656  0.3335 -0.6476
 1618SOL    HW116487   1.700   0.575   6.899 -1.3100  0.6610  0.4828
 1618SOL    HW216488   1.669   0.674   6.796 -1.0327  1.9178 -0.0946
 1619SOL     OW16489   2.450   1.661   3.052  0.0236  0.1185 -0.6184
 1619SOL    HW116490   2.441   1.693   2.963  0.4537 -2.2385 -1.5218
 1619SOL    HW216491   2.358   1.664   3.077 -0.2861 -0.5392 -1.6952
 1620SOL     OW16492   0.908   3.583   1.603  0.0024 -0.4780  0.1883
 1620SOL    HW116493   0.983   3.523   1.609  0.0887 -0.4882 -0.9606
 1620SOL    HW216494   0.875   3.582   1.693  2.9935 -2.6803  1.2633
 1621SOL     OW16495   3.323   1.155   4.413 -0.0306  0.1296  0.1587
 1621SOL    HW116496   3.257   1.182   4.477 -0.6292 -0.0269 -0.3860
 1621SOL    HW216497   3.313   1.061   4.397 -0.0195 -0.0563  1.2304
 1622SOL     OW16498   0.946   3.891  11.420  0.0186  0.2500  0.1709
 1622SOL    HW116499   0.945   3.948  11.344  1.6673 -1.4630 -1.1338
 1622SOL    HW216500   0.958   3.953  11.492  0.8241  1.1397 -0.7223
 1623SOL     OW16501   0.907   4.691   8.756  0.4609 -0.4206  0.5542
 1623SOL    HW116502   0.826   0.004   8.759  1.0729  0.4563  2.1750
 1623SOL    HW216503   0.873   4.610   8.719 -1.0114  0.6097 -0.3645
 1624SOL     OW16504   1.662   4.725   4.359  0.1946  0.4839  0.0327
 1624SOL    HW116505   1.662   0.045   4.434 -0.4757  3.1495 -2.0229
 1624SOL    HW216506   1.701   0.045   4.293 -0.7181  1.2869  0.1975
 1625SOL     OW16507   1.161   1.353   0.341 -0.0037  0.2712  0.4198
 1625SOL    HW116508   1.086   1.412   0.339 -2.7751 -3.1902  1.9176
 1625SOL    HW216509   1.133   1.298   0.414 -1.2287 -1.4458 -1.3483
 1626SOL     OW16510   2.036   1.902   8.150  0.1691 -0.2093  0.4913
 1626SOL    HW116511   2.020   1.992   8.124  1.3805 -0.0701  0.2319
 1626SOL    HW216512   1.946   1.874   8.133 -0.2362 -0.5398  3.1847
 1627SOL     OW16513   1.353   3.728   3.206 -0.1349 -0.5789  0.0385
 1627SOL    HW116514   1.438   3.762   3.178 -1.2037  0.9960 -1.3205
 1627SOL    HW216515   1.306   3.806   3.236 -2.4460 -1.3156 -1.6506
 1628SOL     OW16516   2.050   0.564  10.322  0.5025  0.2495  0.1591
 1628SOL    HW116517   2.024   0.603  10.405 -1.1061 -0.2557 -0.1074
 1628SOL    HW216518   2.092   0.487  10.360  0.3151 -0.4255 -0.9980
 1629SOL     OW16519   3.369   0.129   4.617  0.2195  0.3562  0.1164
 1629SOL    HW116520   3.359   0.224   4.620  0.6509  0.3645  1.1913
 1629SOL    HW216521   3.367   0.110   4.524 -2.2909 -0.7271  0.4061
 1630SOL     OW16522   0.250   1.781   2.268 -0.1603 -0.3840 -0.1657
 1630SOL    HW116523   0.310   1.778   2.342  0.2297  0.7399 -0.4365
 1630SOL    HW216524   0.193   1.710   2.297 -1.6115  0.7524 -0.2127
 1631SOL     OW16525   4.071   1.701   8.131  0.1347 -0.2342 -0.5843
 1631SOL    HW116526   3.984   1.699   8.170 -0.1757 -0.4526 -1.2901
 1631SOL    HW216527   4.073   1.781   8.079  1.0105  0.4571  0.5066
 1632SOL     OW16528   4.667   4.263   3.271 -0.0751  0.4698  0.1827
 1632SOL    HW116529   4.651   4.277   3.178 -2.1272  0.7164  0.5732
 1632SOL    HW216530   0.020   4.292   3.281  0.1225 -0.5922  1.4030
 1633SOL     OW16531   3.533   2.203   8.304  0.0626  0.0293  0.2853
 1633SOL    HW116532   3.495   2.154   8.231  0.4394 -0.7345  0.6005
 1633SOL    HW216533   3.452   2.195   8.355  0.3870 -0.2251  0.7632
 1634SOL     OW16534   0.508   2.193   8.702  0.1774  0.3024  0.1035
 1634SOL    HW116535   0.547   2.215   8.618  1.9209 -2.2259  0.2673
 1634SOL    HW216536   0.509   2.280   8.742  0.9845  0.7013 -0.7970
 1635SOL     OW16537   1.508   1.010  14.978 -0.0065  0.6460 -0.3173
 1635SOL    HW116538   1.424   0.992  14.936 -0.1251 -3.2673  1.6146
 1635SOL    HW216539   1.485   0.984  15.067  2.3498 -0.3316 -0.0069
 1636SOL     OW16540   1.897   2.375  17.305  0.1809  0.6208  0.1842
 1636SOL    HW116541   1.988   2.345  17.299 -0.1452 -0.1462 -0.7117
 1636SOL    HW216542   1.887   2.376  17.400  0.7052 -2.0534  0.2615
 1637SOL     OW16543   4.581   0.684   9.547  0.1748  0.1217  0.6915
 1637SOL    HW116544   4.547   0.764   9.587  3.4436  2.0226 -0.2717
 1637SOL    HW216545   4.572   0.633   9.627  0.5474 -0.6733  0.2261
 1638SOL     OW16546   3.342   2.473   4.035  0.1558 -0.1420 -0.4029
 1638SOL    HW116547   3.381   2.468   3.947 -0.8387 -1.9604 -0.7369
 1638SOL    HW216548   3.260   2.520   4.016 -0.1924 -0.6030 -0.0174
 1639SOL     OW16549   4.589   2.081   8.012 -0.2171 -0.0940  0.0127
 1639SOL    HW116550   4.566   2.112   7.924 -2.2107 -2.4646 -0.3249
 1639SOL    HW216551   4.682   2.096   8.026 -0.3827  0.7836  0.1364
 1640SOL     OW16552   1.132   1.478  15.931 -0.2189 -0.1507 -0.3771
 1640SOL    HW116553   1.062   1.529  15.890  0.2204  0.7731  0.0152
 1640SOL    HW216554   1.146   1.414  15.862 -1.3398 -0.8902  0.0828
 1641SOL     OW16555   3.327   2.740   5.368 -0.4245 -0.1940  0.5911
 1641SOL    HW116556   3.398   2.746   5.432  0.4747  0.8343 -0.4845
 1641SOL    HW216557   3.342   2.654   5.329 -0.2397 -0.4475  1.2211
 1642SOL     OW16558   4.391   2.507  10.649  0.1639 -0.3658 -0.2091
 1642SOL    HW116559   4.440   2.544  10.722 -0.7522  0.8346 -0.1997
 1642SOL    HW216560   4.314   2.564  10.656  0.5622  0.0499  0.7233
 1643SOL     OW16561   0.267   2.674  15.608  0.0068 -0.7937  0.0582
 1643SOL    HW116562   0.272   2.578  15.605 -0.7041 -0.8454  0.7632
 1643SOL    HW216563   0.353   2.701  15.574 -0.2643 -1.0085 -0.8186
 1644SOL     OW16564   4.308   0.917   5.771  0.1607  0.0343  0.1162
 1644SOL    HW116565   4.297   0.842   5.712  3.4055 -0.1113 -0.3089
 1644SOL    HW216566   4.223   0.915   5.815  1.0913  1.1355  1.9505
 1645SOL     OW16567   4.478   3.134  14.784  0.4239  0.5512  0.4038
 1645SOL    HW116568   4.480   3.188  14.863 -0.3359 -0.5423  1.1732
 1645SOL    HW216569   4.433   3.057  14.819  1.1652 -0.6410 -1.2952
 1646SOL     OW16570   4.624   1.607   8.227  0.0376  0.0404 -0.5281
 1646SOL    HW116571   4.698   1.547   8.240  1.0195  1.0195 -1.5831
 1646SOL    HW216572   4.561   1.575   8.291 -0.5449  1.1167 -0.5635
 1647SOL     OW16573   0.297   0.426  10.890  0.0822 -0.2195 -0.0193
 1647SOL    HW116574   0.376   0.404  10.939  0.2034  1.3723  0.5062
 1647SOL    HW216575   0.306   0.520  10.874  0.9559 -0.1482  0.8960
 1648SOL     OW16576   2.154   3.417   3.168 -0.2360  0.4319  0.4760
 1648SOL    HW116577   2.126   3.329   3.141  0.5571  0.4444 -0.4050
 1648SOL    HW216578   2.133   3.473   3.093 -1.3652  1.1790  1.3618
 1649SOL     OW16579   4.438   1.855   7.298  0.2815 -0.3964  0.5822
 1649SOL    HW116580   4.430   1.863   7.203 -0.8146 -1.2835  0.6011
 1649SOL    HW216581   4.405   1.942   7.321 -1.8883 -0.7313 -1.3352
 1650SOL     OW16582   0.818   2.718   1.501 -0.6076 -0.0448 -0.4923
 1650SOL    HW116583   0.873   2.707   1.423 -1.2367  0.4687 -1.0099
 1650SOL    HW216584   0.842   2.804   1.537  0.4755  0.0650 -1.4408
 1651SOL     OW16585   0.407   4.495   7.931 -0.4507 -0.3057 -0.3003
 1651SOL    HW116586   0.470   4.549   7.883  1.7681 -1.8981  0.8548
 1651SOL    HW216587   0.329   4.497   7.875 -0.8516 -0.1886  0.2582
 1652SOL     OW16588   0.731   2.401   7.984  0.3118  0.0480 -0.3204
 1652SOL    HW116589   0.706   2.493   7.973 -1.3625 -0.2643  0.8504
 1652SOL    HW216590   0.812   2.406   7.934  1.0201  1.9045  0.9846
 1653SOL     OW16591   3.555   0.399   2.457  0.3178  0.4422  0.2553
 1653SOL    HW116592   3.626   0.350   2.416  0.8832  0.4402  1.2345
 1653SOL    HW216593   3.481   0.368   2.405  1.3887  1.5974 -1.9596
 1654SOL     OW16594   0.385   1.532   2.940  0.0751 -0.5559  0.2004
 1654SOL    HW116595   0.381   1.437   2.929  1.3727 -0.5802 -0.0547
 1654SOL    HW216596   0.480   1.548   2.943  0.1134 -0.6565 -0.4533
 1655SOL     OW16597   2.274   1.564  15.570 -0.0996  0.4556 -0.3095
 1655SOL    HW116598   2.343   1.571  15.636 -3.3637 -0.7241  3.2283
 1655SOL    HW216599   2.266   1.658  15.552  2.5803  0.4143 -1.7756
 1656SOL     OW16600   2.090   0.828   3.144  0.1940 -0.3871 -0.4079
 1656SOL    HW116601   2.152   0.803   3.075 -2.2676 -0.8381 -2.4605
 1656SOL    HW216602   2.117   0.920   3.152  1.4423 -0.8192  0.3430
 1657SOL     OW16603   1.111   1.718   5.377  0.6057  0.2315 -0.7002
 1657SOL    HW116604   1.189   1.739   5.326  0.7557 -0.3883 -0.7260
 1657SOL    HW216605   1.144   1.644   5.427 -0.1745  0.1021 -0.3796
 1658SOL     OW16606   3.682   3.115   4.462 -0.1010  0.0600 -0.1168
 1658SOL    HW116607   3.666   3.083   4.551 -0.2213 -0.0314 -0.1724
 1658SOL    HW216608   3.597   3.104   4.421  0.4828  0.3786 -1.4299
 1659SOL     OW16609   2.122   2.846   4.656 -0.2822  0.0029  0.5018
 1659SOL    HW116610   2.065   2.808   4.589 -1.5929  0.1243  1.5515
 1659SOL    HW216611   2.098   2.783   4.724 -1.9772  1.1836  1.0083
 1660SOL     OW16612   2.211   2.970   7.113 -0.4334 -0.2057 -0.4206
 1660SOL    HW116613   2.194   3.064   7.112  0.3322 -0.0527  1.0773
 1660SOL    HW216614   2.130   2.942   7.069  0.2653  0.2872 -2.0249
 1661SOL     OW16615   4.590   2.576   7.907 -0.9204  0.3443  0.8067
 1661SOL    HW116616   4.685   2.572   7.917 -1.1648 -0.8358  2.7073
 1661SOL    HW216617   4.567   2.619   7.989  0.3570  1.3123  0.6453
 1662SOL     OW16618   4.202   4.625  14.277 -0.1220  0.4594  0.1023
 1662SOL    HW116619   4.237   4.574  14.350  0.2701 -1.8640 -1.7069
 1662SOL    HW216620   4.201   4.714  14.312  1.2211  0.6562 -0.3435
 1663SOL     OW16621   4.310   2.398  17.537  0.0901  0.2987  0.3303
 1663SOL    HW116622   4.266   2.360  17.460  1.8899 -1.4849  0.1956
 1663SOL    HW216623   4.315   2.493  17.525  0.7154  0.1003 -0.9549
 1664SOL     OW16624   2.013   2.132   5.619 -0.1383  0.3036  0.4722
 1664SOL    HW116625   2.094   2.096   5.656  1.2311  0.7493 -2.1395
 1664SOL    HW216626   2.021   2.224   5.645 -2.1748  0.2640  1.2528
 1665SOL     OW16627   2.136   0.534   5.064 -0.0034  0.7291  0.3558
 1665SOL    HW116628   2.075   0.511   5.133 -1.0233 -2.5490 -1.6280
 1665SOL    HW216629   2.090   0.601   5.014  1.2945  2.2903  1.2366
 1666SOL     OW16630   0.766   2.705   7.205 -0.0641 -0.7461 -0.5145
 1666SOL    HW116631   0.689   2.648   7.211  0.0495 -0.8591 -0.1165
 1666SOL    HW216632   0.724   2.750   7.132  1.5751  1.4959 -0.0716
 1667SOL     OW16633   1.839   0.504   0.469 -0.6415  0.5563  0.1603
 1667SOL    HW116634   1.875   0.558   0.540  1.9371  0.8382 -1.3380
 1667SOL    HW216635   1.857   0.562   0.394  0.5845 -0.6131 -0.4452
 1668SOL     OW16636   3.015   4.499   8.757  0.2932 -0.5174  0.3734
 1668SOL    HW116637   2.972   4.576   8.719  0.7796  0.0414  0.9768
 1668SOL    HW216638   3.028   4.523   8.849  1.3538  0.7082 -0.1080
 1669SOL     OW16639   3.988   4.001   6.518  0.5204 -0.0106 -0.5573
 1669SOL    HW116640   3.901   4.026   6.550 -0.3458 -3.0317 -0.5215
 1669SOL    HW216641   4.012   3.924   6.571  0.6849  0.4129 -0.0132
 1670SOL     OW16642   2.487   4.424   4.827  0.0535 -0.5313  0.6095
 1670SOL    HW116643   2.464   4.510   4.791  1.1430 -1.0719 -1.4221
 1670SOL    HW216644   2.569   4.404   4.781 -0.4460 -0.7358 -0.1922
 1671SOL     OW16645   3.513   0.852  11.889 -0.0009 -0.4912  0.3951
 1671SOL    HW116646   3.432   0.819  11.849  0.8041 -1.0413 -0.7840
 1671SOL    HW216647   3.505   0.946  11.874  1.7087 -0.6796 -1.7147
 1672SOL     OW16648   2.593   2.554   0.273  0.9571  0.1628  0.1799
 1672SOL    HW116649   2.666   2.614   0.264 -0.9061  2.1082 -2.0382
 1672SOL    HW216650   2.520   2.616   0.277  1.6012  0.8217  1.8791
 1673SOL     OW16651   2.766   3.466   4.690  0.3709  0.4346 -0.2046
 1673SOL    HW116652   2.829   3.439   4.756 -0.9824 -0.9579  0.5212
 1673SOL    HW216653   2.749   3.557   4.713 -1.2039 -0.5384  2.4098
 1674SOL     OW16654   4.567   0.933  12.379  0.1274  0.1630 -0.3786
 1674SOL    HW116655   4.584   1.025  12.399 -1.3409 -0.0903  1.9889
 1674SOL    HW216656   4.488   0.950  12.328 -0.6129 -0.6814  0.4801
 1675SOL     OW16657   4.593   4.660   5.784 -0.2270 -0.2811 -0.2897
 1675SOL    HW116658   4.568   4.596   5.717 -0.7978 -0.4844  0.1206
 1675SOL    HW216659   4.514   4.713   5.796  0.0184  0.4445 -1.8864
 1676SOL     OW16660   1.538   2.080   7.020  0.5416  0.1749  0.9184
 1676SOL    HW116661   1.608   2.015   7.026  1.8048  1.4587  0.1145
 1676SOL    HW216662   1.571   2.156   7.068  2.8119 -1.3681  1.7577
 1677SOL     OW16663   4.168   2.514   2.517 -0.0518  1.1608 -0.4882
 1677SOL    HW116664   4.129   2.544   2.435  1.7409  0.8408 -1.4465
 1677SOL    HW216665   4.183   2.603   2.551  1.7665  1.5191 -2.1950
 1678SOL     OW16666   1.340   2.842   1.298 -0.2982 -0.1480  0.1477
 1678SOL    HW116667   1.274   2.818   1.363 -0.7069  0.6833  0.0405
 1678SOL    HW216668   1.413   2.859   1.358  0.1567 -1.0429 -0.1515
 1679SOL     OW16669   0.465   1.554  13.068 -0.0706  0.3980 -0.1120
 1679SOL    HW116670   0.489   1.560  12.976  0.0325 -1.2612 -0.2062
 1679SOL    HW216671   0.418   1.471  13.056  1.6176 -0.6291  0.3849
 1680SOL     OW16672   2.386   0.494   3.218 -0.3566 -0.4438  0.0473
 1680SOL    HW116673   2.373   0.490   3.123 -0.2370 -2.0035  0.0887
 1680SOL    HW216674   2.432   0.412   3.240 -0.2284 -0.2493  0.5020
 1681SOL     OW16675   1.426   1.485   3.209  0.5576 -0.3076  0.0004
 1681SOL    HW116676   1.399   1.455   3.122  0.5190 -3.4024  1.1099
 1681SOL    HW216677   1.345   1.527   3.238  0.8259 -0.5513  1.0994
 1682SOL     OW16678   3.886   4.083   8.217  0.2299  0.6776 -0.3220
 1682SOL    HW116679   3.840   4.166   8.207  0.6013  1.0690  1.3639
 1682SOL    HW216680   3.854   4.061   8.304 -1.4601  0.0436 -1.0974
 1683SOL     OW16681   1.419   4.617   6.381 -0.2310 -0.4134  0.3645
 1683SOL    HW116682   1.358   4.567   6.326  0.2631  0.0809 -0.6304
 1683SOL    HW216683   1.386   4.706   6.369 -0.9796 -0.7381 -0.0050
 1684SOL     OW16684   1.073   4.361   9.508 -0.3421 -0.6574 -0.3957
 1684SOL    HW116685   1.012   4.300   9.466 -2.7485  1.7447 -0.3245
 1684SOL    HW216686   1.023   4.390   9.584 -1.7680  0.6162 -1.8293
 1685SOL     OW16687   0.581   3.839   2.686 -0.4584 -0.6477 -0.7352
 1685SOL    HW116688   0.495   3.871   2.710  0.1350  1.2969 -1.1984
 1685SOL    HW216689   0.553   3.795   2.605  2.8003  1.0201 -2.7754
 1686SOL     OW16690   1.230   1.239   8.473  0.3591  0.1709  0.5083
 1686SOL    HW116691   1.235   1.295   8.551  1.9995 -0.3712  0.7878
 1686SOL    HW216692   1.163   1.282   8.419 -1.4053 -0.8255  1.8809
 1687SOL     OW16693   3.795   2.090   6.239 -0.1818  0.3458  0.8624
 1687SOL    HW116694   3.732   2.059   6.305 -1.0191  0.9969  0.3766
 1687SOL    HW216695   3.852   2.014   6.238 -0.3018  0.3003 -1.6653
 1688SOL     OW16696   1.195   4.437   3.435 -0.0968  0.2715  0.3863
 1688SOL    HW116697   1.258   4.509   3.442  0.2943 -0.2809  2.6777
 1688SOL    HW216698   1.176   4.409   3.525 -0.7379 -1.6814 -0.3539
 1689SOL     OW16699   3.871   0.040   6.068  0.2906 -0.0451 -0.0474
 1689SOL    HW116700   3.893   4.705   6.125  0.1283 -1.4121 -1.7274
 1689SOL    HW216701   3.877   0.107   6.135 -0.4541  1.4995 -1.5362
 1690SOL     OW16702   0.696   2.161   7.271 -0.6618 -0.2514  0.0863
 1690SOL    HW116703   0.694   2.246   7.315 -0.5798 -0.4993  0.5665
 1690SOL    HW216704   0.770   2.186   7.215 -1.6557  0.3760 -0.9292
 1691SOL     OW16705   4.116   3.186   3.457  0.0135  0.0694  0.2591
 1691SOL    HW116706   4.191   3.234   3.490 -0.2014  0.8609 -0.3849
 1691SOL    HW216707   4.086   3.256   3.398  1.3180  2.5343  2.5403
 1692SOL     OW16708   0.821   0.911   6.569  0.1531  0.0910  0.3699
 1692SOL    HW116709   0.822   0.842   6.503 -1.3923 -2.6774  3.2705
 1692SOL    HW216710   0.802   0.858   6.646 -0.8726 -0.8186 -0.5189
 1693SOL     OW16711   1.378   3.803   8.038  0.0190  0.2208 -0.0923
 1693SOL    HW116712   1.425   3.849   7.969  0.0156 -1.3472 -1.1301
 1693SOL    HW216713   1.387   3.711   8.015  1.1892  0.5883 -1.1004
 1694SOL     OW16714   0.279   2.503   8.921 -0.2853  0.1676 -0.0769
 1694SOL    HW116715   0.316   2.503   8.833 -0.3751 -1.5869 -0.0989
 1694SOL    HW216716   0.359   2.487   8.971 -0.7103  0.9395  0.8528
 1695SOL     OW16717   1.681   0.091   6.139  0.1962 -0.9422  0.0211
 1695SOL    HW116718   1.743   0.162   6.157  0.9151 -1.6600  0.3841
 1695SOL    HW216719   1.732   0.014   6.166 -0.1164 -1.2140 -0.1664
 1696SOL     OW16720   0.303   0.092   6.359 -0.0806  0.4327  0.0694
 1696SOL    HW116721   0.267   0.005   6.374  2.7255 -0.5939  0.8812
 1696SOL    HW216722   0.337   0.082   6.270  0.4438 -0.8011  0.4024
 1697SOL     OW16723   3.859   0.488   5.820  0.1356  0.4954 -0.4007
 1697SOL    HW116724   3.839   0.412   5.764 -0.9855  0.3685  0.1657
 1697SOL    HW216725   3.931   0.459   5.876 -0.4787 -0.6011 -0.1707
 1698SOL     OW16726   3.307   1.696   7.047  0.2378  0.0678 -0.5632
 1698SOL    HW116727   3.368   1.753   7.095  0.3843  1.8821 -2.9055
 1698SOL    HW216728   3.236   1.760   7.040 -0.6179 -0.8539 -0.3145
 1699SOL     OW16729   4.679   4.602   6.711  0.0127  0.4902 -0.0589
 1699SOL    HW116730   0.012   4.663   6.729 -0.3063  0.7002  0.5068
 1699SOL    HW216731   4.683   4.535   6.780 -1.2137 -0.1529 -0.6170
 1700SOL     OW16732   2.856   3.012   2.972 -0.0084 -0.1541 -0.6958
 1700SOL    HW116733   2.767   3.032   3.003  0.3667  0.7590 -0.2024
 1700SOL    HW216734   2.890   3.090   2.928  2.9591 -0.3071  1.4057
 1701SOL     OW16735   1.015   3.175   4.810 -0.1662 -0.4387  0.7287
 1701SOL    HW116736   0.949   3.235   4.776  1.5142  0.4383 -1.0064
 1701SOL    HW216737   0.986   3.184   4.900 -3.2403 -5.3316  0.2693
 1702SOL     OW16738   4.705   2.455   3.715  0.2515 -0.2657 -0.3028
 1702SOL    HW116739   4.649   2.490   3.646 -0.4499 -1.6624 -0.4389
 1702SOL    HW216740   4.733   2.530   3.768 -1.8224 -0.4883  1.1021
 1703SOL     OW16741   1.777   3.285   3.145  0.6146  0.1094  0.5480
 1703SOL    HW116742   1.724   3.360   3.116 -0.9143 -2.0266 -2.2088
 1703SOL    HW216743   1.830   3.266   3.067 -1.8827  0.6764 -1.3110
 1704SOL     OW16744   3.499   0.061  11.340 -0.2378  0.0094 -0.0756
 1704SOL    HW116745   3.542   0.083  11.422  1.2404  1.0953 -1.1523
 1704SOL    HW216746   3.472   0.144  11.301  2.7415  1.9428  2.0126
 1705SOL     OW16747   0.623   2.022  13.548 -0.7687 -0.3774  0.6296
 1705SOL    HW116748   0.633   1.928  13.535 -1.6556 -0.5294  1.0030
 1705SOL    HW216749   0.527   2.025  13.544 -0.6837  1.2205 -0.0598
 1706SOL     OW16750   2.921   3.567   2.544 -0.6125 -0.1118 -0.0113
 1706SOL    HW116751   2.886   3.478   2.554  1.4150 -0.6546  2.0930
 1706SOL    HW216752   2.985   3.546   2.476  0.3989  1.6432  0.4056
 1707SOL     OW16753   0.529   4.114  16.042  0.1070 -0.5056 -0.3156
 1707SOL    HW116754   0.584   4.118  16.120 -0.4955  0.6933  0.0556
 1707SOL    HW216755   0.465   4.053  16.079 -0.9933 -0.4693 -2.1369
 1708SOL     OW16756   2.310   0.741   4.228  0.9911  0.8357 -0.8376
 1708SOL    HW116757   2.310   0.715   4.136  1.3439  1.6209 -1.0626
 1708SOL    HW216758   2.304   0.836   4.219  0.7646  0.5551 -3.6288
 1709SOL     OW16759   1.156   0.183   3.315 -0.7457  0.5005  0.5492
 1709SOL    HW116760   1.183   0.254   3.372  1.9269  1.3875 -1.7819
 1709SOL    HW216761   1.229   0.122   3.326 -0.6056  0.4254 -0.7295
 1710SOL     OW16762   1.213   4.229  15.624 -0.1963  0.2848 -0.4148
 1710SOL    HW116763   1.159   4.297  15.584  0.2451  1.1540  0.4624
 1710SOL    HW216764   1.218   4.160  15.559  0.1767  0.8638 -0.9985
 1711SOL     OW16765   0.937   1.554   7.365 -0.5094 -0.3536 -0.2334
 1711SOL    HW116766   0.895   1.638   7.382 -2.2481 -1.9568  3.2073
 1711SOL    HW216767   0.971   1.578   7.278 -1.2997  2.1469  0.1559
 1712SOL     OW16768   3.064   2.237  14.728  0.2329  0.3793  0.5740
 1712SOL    HW116769   3.043   2.320  14.687 -0.3778  0.0816  0.2869
 1712SOL    HW216770   3.108   2.193  14.655 -0.0388 -1.5375  1.5669
 1713SOL     OW16771   1.519   3.412   7.931  0.3985 -0.0594  0.3077
 1713SOL    HW116772   1.496   3.480   7.867 -2.1462 -2.1006 -0.9218
 1713SOL    HW216773   1.436   3.366   7.939  1.2682 -1.4296  1.4243
 1714SOL     OW16774   4.415   4.301  13.264  0.2557  0.0796  0.1506
 1714SOL    HW116775   4.418   4.316  13.359 -1.3209  1.8376 -0.0846
 1714SOL    HW216776   4.379   4.213  13.260 -1.1958  0.6968 -0.3787
 1715SOL     OW16777   2.295   2.450   7.578  0.3690 -0.0566 -0.0925
 1715SOL    HW116778   2.262   2.539   7.587 -2.7470 -1.1630 -0.8222
 1715SOL    HW216779   2.264   2.421   7.492  1.3692  2.0717 -1.1950
 1716SOL     OW16780   1.638   3.121  14.070 -0.2693  0.0066  0.0651
 1716SOL    HW116781   1.609   3.210  14.087  2.8696  1.1992 -0.7237
 1716SOL    HW216782   1.637   3.097  14.162  0.2227  4.0874  1.1009
 1717SOL     OW16783   2.861   2.745   2.789 -0.3735  0.1885  0.8798
 1717SOL    HW116784   2.862   2.810   2.718 -0.1044  0.3430  1.0265
 1717SOL    HW216785   2.873   2.807   2.861  0.8135 -1.4605  2.1071
 1718SOL     OW16786   1.316   2.804  16.540 -0.5937  0.1090 -0.6323
 1718SOL    HW116787   1.349   2.882  16.497  0.1616  0.4904  0.6568
 1718SOL    HW216788   1.296   2.751  16.462 -0.4049  0.8794 -1.1977
 1719SOL     OW16789   0.080   1.848  12.183 -0.0515 -0.2290 -0.3121
 1719SOL    HW116790   4.723   1.845  12.176 -0.1942 -1.1933  1.9976
 1719SOL    HW216791   0.094   1.767  12.233  0.8530  0.5700  0.7315
 1720SOL     OW16792   2.959   2.854   5.357 -0.0909 -0.5923  0.0840
 1720SOL    HW116793   2.878   2.850   5.307 -0.7423 -4.4775  1.4748
 1720SOL    HW216794   3.023   2.853   5.286 -0.7425 -0.4338 -0.4970
 1721SOL     OW16795   3.407   2.051   2.559 -0.0295  0.2072 -0.6768
 1721SOL    HW116796   3.433   2.070   2.649  1.6060 -0.0208 -1.1173
 1721SOL    HW216797   3.358   1.969   2.562  1.2676 -0.5346 -0.2156
 1722SOL     OW16798   3.897   0.529   2.635  0.1717 -0.7387  0.1391
 1722SOL    HW116799   3.872   0.450   2.684 -2.3050 -0.3654 -0.5456
 1722SOL    HW216800   3.848   0.590   2.690  0.0787  0.7173 -1.5880
 1723SOL     OW16801   2.791   2.425   5.586 -0.2200  0.3319  0.2880
 1723SOL    HW116802   2.740   2.433   5.505  0.5696 -0.0990 -0.2407
 1723SOL    HW216803   2.879   2.411   5.553  0.6716  2.0543  1.9229
 1724SOL     OW16804   1.252   0.961  14.912 -0.2508 -0.1988  0.6950
 1724SOL    HW116805   1.250   0.977  14.818  1.4500 -0.7518  0.5495
 1724SOL    HW216806   1.204   0.878  14.921 -2.4825  1.0753  0.3478
 1725SOL     OW16807   3.551   4.460   2.176 -0.1200 -0.2783 -0.5428
 1725SOL    HW116808   3.615   4.429   2.241  3.0787  0.3322 -3.4048
 1725SOL    HW216809   3.486   4.497   2.235 -1.3017 -1.8206 -0.8823
 1726SOL     OW16810   1.281   0.347  13.268 -0.8028 -0.6120  0.0975
 1726SOL    HW116811   1.231   0.299  13.202 -0.8353 -1.6119  0.8546
 1726SOL    HW216812   1.251   0.435  13.244 -0.0430 -0.6888 -1.1716
 1727SOL     OW16813   1.893   2.208   3.379 -0.0845  0.1975  0.2674
 1727SOL    HW116814   1.845   2.125   3.379  0.2813 -0.0044  1.5506
 1727SOL    HW216815   1.966   2.182   3.435 -0.9786  0.2157  1.4344
 1728SOL     OW16816   0.234   2.316   0.148  0.4623 -0.4852  0.3032
 1728SOL    HW116817   0.168   2.301   0.216  0.8820  0.1985  0.8571
 1728SOL    HW216818   0.274   2.400   0.168  1.8139 -0.8561 -0.9115
 1729SOL     OW16819   1.741   2.584  17.238  0.2877 -0.4066 -0.0271
 1729SOL    HW116820   1.783   2.501  17.262  3.4578  1.4720  0.9224
 1729SOL    HW216821   1.803   2.638  17.190  0.2041  0.4034  0.7915
 1730SOL     OW16822   0.523   4.632   5.605  0.4116 -0.5292  0.2918
 1730SOL    HW116823   0.507   4.546   5.642 -1.4358  0.2326  1.2579
 1730SOL    HW216824   0.512   4.609   5.513  0.0466 -0.7447  0.3885
 1731SOL     OW16825   0.141   1.347   9.437  0.3587 -0.0160 -0.3094
 1731SOL    HW116826   0.123   1.263   9.394  1.2036 -0.6836  0.6191
 1731SOL    HW216827   0.235   1.360   9.429  0.3365 -0.7102 -1.6954
 1732SOL     OW16828   4.067   3.768  17.236  0.2427 -0.2750  0.3688
 1732SOL    HW116829   3.984   3.736  17.201  0.4615  0.0030 -0.4027
 1732SOL    HW216830   4.043   3.735  17.323  0.1276 -0.5768  0.2202
 1733SOL     OW16831   0.059   2.067  16.263 -0.3287  0.3141  0.1761
 1733SOL    HW116832   0.003   1.997  16.296  0.0012 -0.2150 -0.3938
 1733SOL    HW216833   0.102   2.033  16.185 -1.2645 -1.0971  0.2695
 1734SOL     OW16834   4.161   1.029   8.377  0.2067 -0.4818 -0.1285
 1734SOL    HW116835   4.131   1.008   8.289 -0.6225 -0.1410  0.0764
 1734SOL    HW216836   4.080   1.037   8.427  0.7568 -1.5597  0.9471
 1735SOL     OW16837   2.617   1.877   8.635 -0.6601 -0.1425 -1.1405
 1735SOL    HW116838   2.624   1.973   8.627 -0.0291  0.0608  1.7451
 1735SOL    HW216839   2.708   1.849   8.625 -0.5117 -0.0230 -0.1265
 1736SOL     OW16840   0.006   0.946   4.053  0.7284  0.1600  0.0463
 1736SOL    HW116841   0.091   0.911   4.025  0.3900 -1.8272  1.5472
 1736SOL    HW216842   4.723   0.885   4.123  1.3587  1.0850  1.0616
 1737SOL     OW16843   0.108   2.948   5.355  0.0747  0.1319  0.5494
 1737SOL    HW116844   0.064   2.923   5.274 -0.5310  0.3751  0.8050
 1737SOL    HW216845   0.128   2.859   5.382  0.1834 -0.8328 -2.6763
 1738SOL     OW16846   2.210   1.311   8.993  0.2177  0.3696  0.2070
 1738SOL    HW116847   2.242   1.351   8.912  1.9690 -1.9512 -0.2577
 1738SOL    HW216848   2.192   1.391   9.041  2.1886  1.6483 -1.2042
 1739SOL     OW16849   0.245   3.770   7.735 -0.2439  0.6093 -0.1749
 1739SOL    HW116850   0.330   3.756   7.776 -0.5590 -2.2687 -0.5011
 1739SOL    HW216851   0.276   3.736   7.651  0.8608  0.2503  0.3784
 1740SOL     OW16852   1.969   2.333   5.793  0.0243  0.4325  0.9732
 1740SOL    HW116853   2.004   2.369   5.874 -0.3170  2.2592  0.3141
 1740SOL    HW216854   1.899   2.398   5.790 -1.0527 -0.6877  2.0932
 1741SOL     OW16855   4.063   4.134   3.208 -0.3685 -0.3294  0.6055
 1741SOL    HW116856   4.064   4.127   3.304 -1.1914 -1.6688  0.5123
 1741SOL    HW216857   3.981   4.183   3.203 -0.5487 -0.9887 -2.6801
 1742SOL     OW16858   3.017   0.120   2.414 -0.1511 -0.2771 -0.3812
 1742SOL    HW116859   3.046   0.070   2.338  1.9867  1.3486 -0.6584
 1742SOL    HW216860   2.923   0.104   2.417 -0.0128 -1.0939 -0.4155
 1743SOL     OW16861   2.531   0.711   5.920 -1.0054  0.1717  0.6938
 1743SOL    HW116862   2.485   0.718   5.837  0.3803 -0.2695 -0.0995
 1743SOL    HW216863   2.623   0.737   5.910 -1.2156  0.4692 -0.4443
 1744SOL     OW16864   2.959   3.258   5.178  0.6174  0.2156  0.3167
 1744SOL    HW116865   2.995   3.177   5.143 -1.5353 -1.0517  1.0373
 1744SOL    HW216866   3.027   3.279   5.242 -0.6966 -0.1817  1.8459
 1745SOL     OW16867   3.429   1.758   3.343 -0.9790 -0.6627 -0.6186
 1745SOL    HW116868   3.421   1.679   3.290 -0.1954 -0.9549 -0.2876
 1745SOL    HW216869   3.408   1.721   3.428  0.4237  0.8099  0.3659
 1746SOL     OW16870   1.953   4.447   4.230 -0.2218 -0.1240 -0.5120
 1746SOL    HW116871   1.888   4.467   4.163 -3.6625 -0.1575  2.7851
 1746SOL    HW216872   1.982   4.535   4.254  1.3583 -1.2403  1.6910
 1747SOL     OW16873   2.804   1.639   7.786 -0.5020  0.2891 -0.1628
 1747SOL    HW116874   2.742   1.613   7.855  0.0032  1.4543  0.7418
 1747SOL    HW216875   2.832   1.726   7.815  1.2098 -0.7492  1.3044
 1748SOL     OW16876   2.551   1.635   2.216  0.4424 -0.1438  0.1371
 1748SOL    HW116877   2.552   1.689   2.295  2.7402  2.0394 -1.3803
 1748SOL    HW216878   2.494   1.568   2.254 -2.5831  2.3893  0.1403
 1749SOL     OW16879   2.272   3.286  11.212 -0.4649  0.0003 -0.0847
 1749SOL    HW116880   2.326   3.362  11.190  0.9719 -1.0742 -0.2548
 1749SOL    HW216881   2.247   3.252  11.126  1.4950  1.2371 -1.1670
 1750SOL     OW16882   0.487   4.380   5.740 -0.2002 -0.7618  0.2446
 1750SOL    HW116883   0.403   4.345   5.711  0.7789 -3.0716  0.2008
 1750SOL    HW216884   0.484   4.355   5.832  4.9254  2.2990  1.2289
 1751SOL     OW16885   0.295   3.993   0.299  0.4797  0.2693  0.0742
 1751SOL    HW116886   0.331   3.969   0.214 -2.6358 -0.9062 -0.9146
 1751SOL    HW216887   0.287   4.088   0.290 -2.1212 -0.2237 -2.7690
 1752SOL     OW16888   2.602   3.271  13.794  0.4511 -0.3190  0.3431
 1752SOL    HW116889   2.681   3.289  13.744 -0.7139 -2.9184 -2.4777
 1752SOL    HW216890   2.609   3.177  13.814 -1.2627 -0.0779  2.0749
 1753SOL     OW16891   2.408   1.393   8.036  0.0935 -0.0840 -0.3486
 1753SOL    HW116892   2.380   1.366   7.948 -0.6802 -1.6656  0.3912
 1753SOL    HW216893   2.380   1.322   8.093 -1.4477  1.0136  0.2731
 1754SOL     OW16894   4.205   1.012   3.771 -0.2051 -0.1691 -0.3369
 1754SOL    HW116895   4.148   1.051   3.705  0.0911  0.9363  0.0642
 1754SOL    HW216896   4.144   0.960   3.824 -0.0502 -0.3470 -0.3345
 1755SOL     OW16897   1.306   0.435   0.236 -0.1208 -0.0171 -0.1885
 1755SOL    HW116898   1.288   0.384   0.315  0.2998 -1.4190 -1.0062
 1755SOL    HW216899   1.216   0.465   0.224 -0.0987 -1.4515 -4.0238
 1756SOL     OW16900   0.371   3.458   1.344 -0.1422  0.0516 -0.3287
 1756SOL    HW116901   0.440   3.455   1.411 -0.9412  2.8509  0.5947
 1756SOL    HW216902   0.312   3.528   1.371 -1.2425 -1.3108  0.7640
 1757SOL     OW16903   4.614   0.918   3.800 -0.5217 -0.2504 -0.2388
 1757SOL    HW116904   4.677   0.966   3.854 -0.9370 -1.5583  1.4142
 1757SOL    HW216905   4.634   0.967   3.720 -0.8517  1.1502  0.5419
 1758SOL     OW16906   2.757   3.085   6.719 -0.0961 -0.1072  0.6317
 1758SOL    HW116907   2.772   3.063   6.627 -1.4893 -1.3193  0.6950
 1758SOL    HW216908   2.662   3.083   6.720 -0.0926  1.8364  3.2347
 1759SOL     OW16909   2.603   3.698   4.618 -0.2114 -0.4402  0.2407
 1759SOL    HW116910   2.515   3.724   4.590 -0.0325 -0.0313  0.0674
 1759SOL    HW216911   2.629   3.756   4.690  0.4747  1.2976 -1.4212
 1760SOL     OW16912   0.095   3.546   6.787  0.1381 -0.5022 -0.0202
 1760SOL    HW116913   0.179   3.521   6.827 -0.2328 -1.0282  0.4232
 1760SOL    HW216914   0.054   3.591   6.861 -0.7282 -0.3147 -0.6189
 1761SOL     OW16915   4.294   3.211   9.529  0.5591 -0.0066  0.4587
 1761SOL    HW116916   4.328   3.177   9.447  1.8202 -1.6074  1.6655
 1761SOL    HW216917   4.200   3.211   9.510  0.5802  0.3709  0.3577
 1762SOL     OW16918   2.768   2.354   5.069 -0.1949  0.3488  1.1471
 1762SOL    HW116919   2.789   2.276   5.017  0.0007  2.0020 -1.2831
 1762SOL    HW216920   2.856   2.392   5.065 -1.2806  2.5367 -1.9374
 1763SOL     OW16921   0.466   2.813   4.391  0.5062 -0.1008 -0.0203
 1763SOL    HW116922   0.463   2.724   4.426  0.6770  0.3885  1.2380
 1763SOL    HW216923   0.496   2.855   4.471 -0.5131 -0.5455  0.5987
 1764SOL     OW16924   4.679   2.042  16.842  0.2814 -0.0649 -0.7287
 1764SOL    HW116925   4.679   2.061  16.748 -0.7782  0.1742 -0.6780
 1764SOL    HW216926   4.587   2.054  16.865  0.3348 -1.8820  0.3645
 1765SOL     OW16927   4.274   2.071   8.379  0.2114 -0.4029 -0.1273
 1765SOL    HW116928   4.328   2.112   8.446 -0.6136  0.1542  0.1849
 1765SOL    HW216929   4.193   2.063   8.429 -0.5737  1.6858 -1.0288
 1766SOL     OW16930   2.796   4.466   7.905 -0.0317 -0.0368  0.4745
 1766SOL    HW116931   2.737   4.491   7.834  0.9920 -0.9781 -0.7294
 1766SOL    HW216932   2.804   4.371   7.889  2.1844  0.0558  1.0209
 1767SOL     OW16933   1.506   2.592   3.024 -0.5120  0.2926  0.3929
 1767SOL    HW116934   1.465   2.621   3.106 -0.9031 -1.2525  0.7509
 1767SOL    HW216935   1.466   2.648   2.957  1.2152  0.9577 -0.0801
 1768SOL     OW16936   3.149   2.750  14.912 -0.9447 -0.1384 -0.2331
 1768SOL    HW116937   3.190   2.737  14.997  1.7334  0.7996 -1.3919
 1768SOL    HW216938   3.062   2.720  14.940 -0.7054 -0.3151  0.3099
 1769SOL     OW16939   2.892   3.957   1.863  0.1201  0.3044 -0.3989
 1769SOL    HW116940   2.986   3.975   1.858  1.0820 -4.6584 -0.5782
 1769SOL    HW216941   2.876   3.944   1.770  1.1828 -1.8257 -0.2924
 1770SOL     OW16942   0.024   4.331  17.187  0.2234  0.2935 -0.5208
 1770SOL    HW116943   0.064   4.412  17.221  0.5458  1.7167 -4.2324
 1770SOL    HW216944   4.690   4.371  17.139 -0.8179  0.6200  1.3192
 1771SOL     OW16945   3.100   2.754   8.166 -0.5870 -0.2608  0.4805
 1771SOL    HW116946   3.046   2.832   8.177 -1.2106 -0.5036 -0.7868
 1771SOL    HW216947   3.164   2.786   8.103  0.2150  0.8741  1.8871
 1772SOL     OW16948   0.741   4.700   1.885  0.6725  0.5763  0.8029
 1772SOL    HW116949   0.822   4.660   1.855 -0.0588  0.2191 -0.6550
 1772SOL    HW216950   0.679   4.628   1.875 -0.1461  1.1603  1.6336
 1773SOL     OW16951   3.924   0.416   4.743  0.4029  0.3918 -0.4329
 1773SOL    HW116952   3.959   0.491   4.791  0.3574  1.8089 -2.5848
 1773SOL    HW216953   3.830   0.417   4.763  0.2952 -1.6235 -0.8617
 1774SOL     OW16954   4.553   4.295  16.342  1.2244  0.4350 -0.2165
 1774SOL    HW116955   4.464   4.260  16.351  1.2581  0.7266  1.2137
 1774SOL    HW216956   4.542   4.310  16.248 -0.4267  1.6324  0.1633
 1775SOL     OW16957   4.221   4.363   8.757 -0.0530 -0.8414 -0.0892
 1775SOL    HW116958   4.245   4.347   8.848 -0.3470  0.1094  0.1610
 1775SOL    HW216959   4.130   4.337   8.752 -0.2746  0.1019 -1.0653
 1776SOL     OW16960   0.677   0.751   9.990  0.1951 -0.3348 -0.0987
 1776SOL    HW116961   0.634   0.834  10.009  0.2936 -0.6601  1.6318
 1776SOL    HW216962   0.705   0.742  10.082  2.0273 -0.2786 -0.6506
 1777SOL     OW16963   4.043   3.331   2.496  0.2200 -0.0203  0.1450
 1777SOL    HW116964   4.092   3.291   2.567 -1.3923  1.1528  1.9337
 1777SOL    HW216965   4.062   3.425   2.491 -0.5229  0.0240 -2.0290
 1778SOL     OW16966   0.487   3.789   1.883 -0.1734  0.1850 -0.0748
 1778SOL    HW116967   0.509   3.864   1.938 -1.5288 -1.0140  2.1043
 1778SOL    HW216968   0.396   3.778   1.912 -0.6813 -0.5851 -1.9402
 1779SOL     OW16969   3.630   0.027   4.655 -0.1518 -0.0437  0.1094
 1779SOL    HW116970   3.647   4.674   4.680 -1.3576  0.3656  2.5071
 1779SOL    HW216971   3.539   0.046   4.680 -0.5613 -1.4490 -0.2624
 1780SOL     OW16972   2.203   1.516  11.688 -0.0085 -0.5185  0.3440
 1780SOL    HW116973   2.145   1.473  11.751  0.2242 -0.5308  0.5512
 1780SOL    HW216974   2.243   1.584  11.743  0.2493  1.0711 -1.8133
 1781SOL     OW16975   0.414   0.931   9.418  0.4070 -0.2938  0.2926
 1781SOL    HW116976   0.400   1.021   9.390 -1.4774 -1.0603 -1.2195
 1781SOL    HW216977   0.371   0.881   9.349  1.6162 -1.3798  0.3328
 1782SOL     OW16978   3.008   3.827   2.651  0.1872  0.2191 -0.1374
 1782SOL    HW116979   2.952   3.761   2.611 -0.8457  1.1039 -0.1542
 1782SOL    HW216980   3.046   3.868   2.574  1.5670 -0.0168  0.4126
 1783SOL     OW16981   1.043   2.150   2.390  0.0131  0.0898 -0.6195
 1783SOL    HW116982   1.003   2.064   2.403 -1.9367  0.7080 -2.4671
 1783SOL    HW216983   1.126   2.137   2.345  0.1412 -0.3416 -0.2511
 1784SOL     OW16984   1.768   1.149  17.510 -0.1582  0.5657  0.2759
 1784SOL    HW116985   1.701   1.102  17.459 -0.0053 -0.3097  0.8675
 1784SOL    HW216986   1.791   1.085  17.577  0.2838  3.4037  2.8313
 1785SOL     OW16987   0.297   3.692   2.890  0.0460 -0.4025  0.1055
 1785SOL    HW116988   0.350   3.766   2.920 -0.3302  0.0312 -0.2975
 1785SOL    HW216989   0.207   3.726   2.891  0.3719  0.4752  0.0827
 1786SOL     OW16990   0.919   3.759   5.173  0.2477  0.0228 -0.4489
 1786SOL    HW116991   0.871   3.836   5.202  0.4698  0.5109 -1.3795
 1786SOL    HW216992   0.960   3.805   5.100  0.1036 -0.4159 -0.8042
 1787SOL     OW16993   4.192   3.939   6.748  1.1178  0.4048  0.4808
 1787SOL    HW116994   4.183   3.860   6.801 -0.0772 -0.8793 -1.6501
 1787SOL    HW216995   4.211   3.903   6.661 -1.4226  0.4005 -0.0622
 1788SOL     OW16996   3.268   1.838   2.062 -0.3529 -0.3615  0.6330
 1788SOL    HW116997   3.205   1.900   2.024 -0.0513 -0.5863 -0.2281
 1788SOL    HW216998   3.216   1.808   2.136 -3.1347  1.3515 -0.6263
 1789SOL     OW16999   1.882   4.714  16.180 -0.4340 -0.2425 -0.5150
 1789SOL    HW117000   1.866   4.636  16.233 -0.7311  1.5198  1.9575
 1789SOL    HW217001   1.860   0.044  16.243 -1.4267  0.5397 -1.6993
 1790SOL     OW17002   0.753   0.099  17.498  0.0852  0.1319 -0.0518
 1790SOL    HW117003   0.701   0.178  17.512 -0.4984 -0.0847 -0.9444
 1790SOL    HW217004   0.778   0.123  17.409  0.8643  0.7277  0.3302
 1791SOL     OW17005   2.476   0.245   2.003  0.0671  0.3797  0.5814
 1791SOL    HW117006   2.394   0.295   2.000  0.0011  0.2234 -0.2546
 1791SOL    HW217007   2.517   0.307   2.063  0.8911  1.8323 -1.4956
 1792SOL     OW17008   1.055   2.591  12.907  0.1143 -0.0722 -0.5396
 1792SOL    HW117009   1.000   2.517  12.881  1.5133 -1.0949 -0.5657
 1792SOL    HW217010   1.127   2.573  12.848 -0.4713 -0.7090 -1.0521
 1793SOL     OW17011   1.402   3.760   4.341 -0.2809 -0.1774 -0.3337
 1793SOL    HW117012   1.402   3.665   4.333  1.8043 -0.2555  0.5943
 1793SOL    HW217013   1.341   3.790   4.274  0.3549  3.0170  0.5237
 1794SOL     OW17014   3.501   0.317   7.666 -0.1723  1.2551  0.4025
 1794SOL    HW117015   3.577   0.369   7.638  0.7900 -1.5736 -2.2810
 1794SOL    HW217016   3.477   0.269   7.587  0.8344  0.2864  0.6767
 1795SOL     OW17017   2.635   1.730   2.796  0.1446  0.4152 -0.4429
 1795SOL    HW117018   2.561   1.786   2.819  1.2521  1.8953 -0.4941
 1795SOL    HW217019   2.702   1.793   2.769  0.9067  0.6836  2.0364
 1796SOL     OW17020   2.074   2.230   9.894  0.0357  0.0598 -0.3919
 1796SOL    HW117021   2.106   2.181   9.969  0.3355 -0.2695 -0.7373
 1796SOL    HW217022   2.033   2.299   9.946 -0.8762 -1.5351  0.9859
 1797SOL     OW17023   3.909   1.053   2.172 -0.4081  0.2161  0.1649
 1797SOL    HW117024   3.866   1.056   2.257 -0.0949  1.4962  0.2779
 1797SOL    HW217025   3.928   0.959   2.169  0.8350  0.4674  0.1844
 1798SOL     OW17026   2.076   3.865  13.135  0.7604 -0.2619  0.2150
 1798SOL    HW117027   2.000   3.921  13.119  1.5501  0.4616 -0.9750
 1798SOL    HW217028   2.144   3.915  13.090  1.2658  0.7038  2.0331
 1799SOL     OW17029   4.231   1.480   0.782  0.0092  0.0166 -0.3767
 1799SOL    HW117030   4.231   1.392   0.820 -0.7863 -0.0266 -0.4601
 1799SOL    HW217031   4.320   1.499   0.755  1.1104 -2.8352  1.2285
 1800SOL     OW17032   4.613   0.785   4.228 -0.0401  0.0960  0.1241
 1800SOL    HW117033   4.519   0.792   4.210  0.1261  2.5603  0.2089
 1800SOL    HW217034   4.618   0.800   4.323 -2.5311  2.5960 -0.1324
 1801SOL     OW17035   0.170   1.949   6.438  0.4357  0.1013 -0.2232
 1801SOL    HW117036   0.254   1.917   6.470 -0.2404 -0.5081  0.9414
 1801SOL    HW217037   0.199   1.999   6.362  3.2994  0.9035  1.3834
 1802SOL     OW17038   2.792   4.182   6.943  0.0651  0.1946 -0.0926
 1802SOL    HW117039   2.740   4.123   6.997 -1.6181  0.9789 -0.8720
 1802SOL    HW217040   2.742   4.263   6.933 -0.8839 -0.3550  0.2125
 1803SOL     OW17041   1.105   2.038   7.312  0.1311  0.9527 -0.4197
 1803SOL    HW117042   1.094   1.999   7.399  0.9721  1.8740  0.1078
 1803SOL    HW217043   1.193   2.007   7.293  1.4200  2.4216  3.0592
 1804SOL     OW17044   2.045   0.900   7.320  0.2505 -0.6721 -0.0757
 1804SOL    HW117045   2.096   0.967   7.364  2.2995 -2.9999  1.1344
 1804SOL    HW217046   1.954   0.920   7.344  0.2163  1.2740 -1.8095
 1805SOL     OW17047   0.039   1.137   1.192 -0.8788 -0.3036  0.1020
 1805SOL    HW117048   0.116   1.085   1.167 -0.9333 -1.3466  2.0981
 1805SOL    HW217049   0.012   1.097   1.275  0.7154 -0.4820  0.5334
 1806SOL     OW17050   2.739   2.003   1.778  0.4598  0.2934  0.2996
 1806SOL    HW117051   2.812   2.031   1.722  0.5971 -1.0543 -0.2122
 1806SOL    HW217052   2.722   2.087   1.821  1.9864  1.3017 -1.0708
 1807SOL     OW17053   2.698   2.558   1.915  0.0272 -0.7247  0.3647
 1807SOL    HW117054   2.686   2.653   1.908  0.4857 -0.7754 -1.0655
 1807SOL    HW217055   2.697   2.557   2.011  1.3317  0.7082  0.3847
 1808SOL     OW17056   0.694   2.192   1.439 -0.2829  0.4740  0.2754
 1808SOL    HW117057   0.705   2.190   1.344 -0.4184 -3.0100  0.3305
 1808SOL    HW217058   0.612   2.240   1.448 -0.8307 -0.1847 -1.1567
 1809SOL     OW17059   4.490   2.024   4.431  0.3651  0.2509  0.1082
 1809SOL    HW117060   4.540   2.105   4.421  2.0151 -1.0429 -2.2208
 1809SOL    HW217061   4.432   2.055   4.501  1.1546 -1.1522  1.3820
 1810SOL     OW17062   3.072   1.458   6.716 -0.1765  0.1021  0.1871
 1810SOL    HW117063   3.142   1.517   6.686  2.7123 -3.5697 -0.2304
 1810SOL    HW217064   3.019   1.469   6.637  0.8263  2.3168 -0.1919
 1811SOL     OW17065   0.430   3.959  11.388 -0.0645  0.6714 -0.4712
 1811SOL    HW117066   0.513   3.957  11.436 -0.1859 -0.8286 -0.3248
 1811SOL    HW217067   0.426   3.864  11.375  0.8378  0.2328  2.4239
 1812SOL     OW17068   3.205   2.183   5.104  0.1651 -0.3873 -0.3100
 1812SOL    HW117069   3.223   2.092   5.081 -1.9320 -0.7521 -0.5569
 1812SOL    HW217070   3.127   2.178   5.159  0.3202 -0.2516 -0.0803
 1813SOL     OW17071   0.369   0.745   6.743 -0.1613 -0.3850  0.8396
 1813SOL    HW117072   0.390   0.795   6.822 -0.5634  1.5115 -0.2556
 1813SOL    HW217073   0.418   0.665   6.759  1.2933  0.0418 -1.6418
 1814SOL     OW17074   3.350   0.948   7.976  0.0922  0.6694  0.2619
 1814SOL    HW117075   3.343   0.947   7.880 -1.1375  1.6843  0.3314
 1814SOL    HW217076   3.393   1.030   7.997  0.6944 -0.0473  1.7510
 1815SOL     OW17077   4.722   2.374   5.340  0.2454  0.1217  0.1755
 1815SOL    HW117078   4.707   2.413   5.427  1.1186  1.6376 -0.3502
 1815SOL    HW217079   4.630   2.367   5.313  0.7766  1.0962 -1.9017
 1816SOL     OW17080   2.967   1.487  15.069  0.6395  0.1793  0.6654
 1816SOL    HW117081   2.917   1.417  15.111 -1.4099  0.0935 -1.9376
 1816SOL    HW217082   2.919   1.484  14.986  1.2974  0.4378  0.2758
 1817SOL     OW17083   3.109   3.884   4.488  0.3978  0.7935 -0.3657
 1817SOL    HW117084   3.113   3.925   4.402 -0.9039  1.0526 -0.3147
 1817SOL    HW217085   3.060   3.951   4.537  0.4888  1.3733 -1.0693
 1818SOL     OW17086   2.210   3.738   7.852 -0.2495  0.0864 -0.1473
 1818SOL    HW117087   2.133   3.687   7.878 -0.6795  0.4824 -0.6490
 1818SOL    HW217088   2.231   3.689   7.773  1.0695  1.0274 -0.3685
 1819SOL     OW17089   0.665   4.639  10.122 -0.2258  0.3306 -1.1177
 1819SOL    HW117090   0.761   4.648  10.121 -0.5370  3.5977  2.4811
 1819SOL    HW217091   0.650   4.708  10.057 -0.1959  0.4045 -1.0463
 1820SOL     OW17092   4.385   1.158   8.274 -0.3227 -0.1807  0.1097
 1820SOL    HW117093   4.308   1.116   8.313  0.1493 -2.3674 -1.2608
 1820SOL    HW217094   4.395   1.109   8.193  1.5312  0.5649 -0.1177
 1821SOL     OW17095   3.415   0.603   7.769 -0.2247  0.3984  0.1018
 1821SOL    HW117096   3.450   0.568   7.687 -1.0784  2.9924 -1.3903
 1821SOL    HW217097   3.370   0.531   7.814 -0.5619 -0.3625 -1.4556
 1822SOL     OW17098   4.290   1.726   5.339 -0.6123  0.2364  0.0475
 1822SOL    HW117099   4.327   1.716   5.427 -1.0329  0.7958  0.2828
 1822SOL    HW217100   4.378   1.715   5.303 -0.7103 -0.0976 -0.0963
 1823SOL     OW17101   4.509   4.298  13.551 -0.4344  0.0347  0.2109
 1823SOL    HW117102   4.460   4.223  13.584  0.7791 -0.8194  0.0841
 1823SOL    HW217103   4.600   4.269  13.558 -0.5776 -1.0972 -2.8627
 1824SOL     OW17104   1.432   2.450  17.029  0.2132 -0.4126 -0.1823
 1824SOL    HW117105   1.482   2.518  16.984 -0.8624 -0.6207 -1.7009
 1824SOL    HW217106   1.505   2.395  17.058  1.1427  0.9057 -0.0513
 1825SOL     OW17107   4.415   3.764   5.823  0.2445  0.6069 -0.4156
 1825SOL    HW117108   4.468   3.736   5.748 -0.3892 -0.4273 -0.4898
 1825SOL    HW217109   4.406   3.858   5.814  0.0782  0.6783  0.5122
 1826SOL     OW17110   2.764   2.905  14.038  0.7126  0.2443  0.1991
 1826SOL    HW117111   2.779   2.828  13.984 -1.3053 -0.5967  0.8340
 1826SOL    HW217112   2.719   2.972  13.986 -0.7321  0.1831  1.3748
 1827SOL     OW17113   1.512   3.728  15.452  0.3252  0.4156 -0.1545
 1827SOL    HW117114   1.545   3.818  15.447  0.1477  0.4874 -0.0586
 1827SOL    HW217115   1.542   3.694  15.368 -4.3627 -0.6325 -1.3812
 1828SOL     OW17116   1.556   0.796  17.144 -0.6210 -0.2621  0.3704
 1828SOL    HW117117   1.561   0.889  17.121 -0.7115 -0.7725 -1.6724
 1828SOL    HW217118   1.608   0.769  17.069  0.4922  1.8325  0.3843
 1829SOL     OW17119   2.203   4.227   5.716  0.6294  0.5596 -0.2997
 1829SOL    HW117120   2.189   4.315   5.752  0.5782  0.5371 -0.2633
 1829SOL    HW217121   2.218   4.252   5.625  2.1487  0.3576 -0.0980
 1830SOL     OW17122   3.890   4.474   4.117 -0.1770 -0.3831 -0.0914
 1830SOL    HW117123   3.847   4.392   4.092 -0.5392 -0.2928  0.2259
 1830SOL    HW217124   3.963   4.440   4.168 -0.7351 -1.5738 -0.0900
 1831SOL     OW17125   1.245   0.671  14.963 -0.0114  0.1895  0.0225
 1831SOL    HW117126   1.321   0.636  14.916  0.3029 -0.1903  0.8148
 1831SOL    HW217127   1.253   0.613  15.040 -1.8272 -0.7038 -0.4637
 1832SOL     OW17128   3.001   1.017   4.720  0.0659 -0.1802  0.3524
 1832SOL    HW117129   3.068   0.952   4.744  0.7418 -0.5417 -2.4546
 1832SOL    HW217130   3.003   1.069   4.800  0.5670 -0.0148  0.2343
 1833SOL     OW17131   4.151   4.460   7.653  0.0411  0.0686  0.6738
 1833SOL    HW117132   4.113   4.386   7.607 -0.0106  0.2403  0.4400
 1833SOL    HW217133   4.083   4.490   7.715  0.2423  1.0179  0.4397
 1834SOL     OW17134   2.455   4.561   2.999  0.1054 -0.3285  0.2274
 1834SOL    HW117135   2.527   4.538   2.940 -0.2416 -0.3983 -0.1659
 1834SOL    HW217136   2.416   4.631   2.948  1.0018 -1.1385 -1.5610
 1835SOL     OW17137   0.225   4.059   9.293  0.2021 -0.4959 -0.4039
 1835SOL    HW117138   0.194   4.033   9.380  0.9214  1.0136  0.2942
 1835SOL    HW217139   0.295   3.997   9.273  0.4020 -0.5515  0.4382
 1836SOL     OW17140   2.338   1.354   3.138  0.0967  0.6423  0.3447
 1836SOL    HW117141   2.369   1.413   3.069 -2.8301  0.1457 -1.3895
 1836SOL    HW217142   2.274   1.410   3.183  0.0088  1.0693 -0.3178
 1837SOL     OW17143   1.133   3.544   2.886 -0.1907  0.0436  0.1693
 1837SOL    HW117144   1.160   3.631   2.859  0.2277 -0.6985 -1.7919
 1837SOL    HW217145   1.149   3.491   2.808 -0.0074  0.3735 -0.0131
 1838SOL     OW17146   0.602   1.264   4.932 -0.3459 -0.1858  0.1384
 1838SOL    HW117147   0.651   1.295   5.008 -2.2298  3.0553  0.0060
 1838SOL    HW217148   0.554   1.344   4.913 -0.6720  0.3941  3.3444
 1839SOL     OW17149   2.551   0.892  16.449  0.1865 -0.1158  0.3207
 1839SOL    HW117150   2.497   0.822  16.485 -2.0037 -0.1984 -3.1016
 1839SOL    HW217151   2.585   0.928  16.531  3.1275  0.5315 -1.1905
 1840SOL     OW17152   3.948   3.739   4.767  0.1502 -0.0137  0.4352
 1840SOL    HW117153   3.946   3.784   4.851 -2.3224  1.5242 -0.4611
 1840SOL    HW217154   3.886   3.788   4.713 -0.4546 -1.3366 -0.0823
 1841SOL     OW17155   1.587   1.460   3.808 -0.2901 -0.0205  0.1805
 1841SOL    HW117156   1.574   1.523   3.737  0.3547  0.7016  0.7009
 1841SOL    HW217157   1.679   1.437   3.797 -0.5285  0.2691 -2.4165
 1842SOL     OW17158   1.322   4.359  12.215  0.3885  0.7672 -0.0314
 1842SOL    HW117159   1.250   4.314  12.171 -0.0352  2.3802 -0.9696
 1842SOL    HW217160   1.280   4.402  12.290 -0.9649 -0.8653  0.1409
 1843SOL     OW17161   4.590   3.146  11.293  0.6012 -0.7213 -0.4898
 1843SOL    HW117162   4.537   3.218  11.327 -0.4333 -0.5460 -2.4731
 1843SOL    HW217163   4.651   3.191  11.235 -1.1736  1.4668 -0.6358
 1844SOL     OW17164   1.914   3.865  16.733  0.4014  0.2259 -0.2214
 1844SOL    HW117165   1.818   3.869  16.737  0.3556 -2.2094  1.0111
 1844SOL    HW217166   1.923   3.793  16.670  0.0310  0.7200 -0.8381
 1845SOL     OW17167   3.555   3.411   0.696  0.6723 -0.4486  0.2850
 1845SOL    HW117168   3.545   3.492   0.747 -2.1285 -2.0087  2.1955
 1845SOL    HW217169   3.647   3.416   0.671  0.2076  1.2479 -1.0969
 1846SOL     OW17170   3.042   0.884  16.858 -0.3979  0.2687  0.1573
 1846SOL    HW117171   3.126   0.895  16.902  0.2032 -2.4508 -0.3082
 1846SOL    HW217172   2.996   0.834  16.926 -0.3725 -0.7058 -0.5350
 1847SOL     OW17173   1.775   1.451   7.934 -0.3262 -0.0119  0.3146
 1847SOL    HW117174   1.852   1.487   7.890 -0.2187 -0.9155 -0.2328
 1847SOL    HW217175   1.816   1.407   8.008  1.1366  2.1840  0.8351
 1848SOL     OW17176   2.548   0.648   6.672  0.1631 -0.3669 -0.6068
 1848SOL    HW117177   2.606   0.590   6.623  1.4683  0.2183  0.2650
 1848SOL    HW217178   2.533   0.711   6.602 -0.4903 -0.3956 -0.4931
 1849SOL     OW17179   0.252   0.903   1.341 -0.1798 -0.3416  0.1343
 1849SOL    HW117180   0.222   0.937   1.256 -2.9258 -0.7059  0.9552
 1849SOL    HW217181   0.315   0.839   1.308  0.0382  0.9866 -2.0148
 1850SOL     OW17182   2.352   0.380   5.939 -0.3720 -0.3234 -0.5381
 1850SOL    HW117183   2.408   0.312   5.901 -0.6571 -0.4238 -0.7802
 1850SOL    HW217184   2.314   0.425   5.863 -1.2968  0.4236  0.3671
 1851SOL     OW17185   2.205   3.258   7.094 -0.1007 -0.2082  0.1516
 1851SOL    HW117186   2.202   3.344   7.137  0.2642  1.2431 -2.6977
 1851SOL    HW217187   2.299   3.247   7.102 -0.1308  0.2105  1.1589
 1852SOL     OW17188   3.143   0.027   2.128  0.4508  0.2199 -0.3638
 1852SOL    HW117189   3.087   0.057   2.057  2.6787  3.0993 -0.9234
 1852SOL    HW217190   3.222   0.017   2.075  1.8573  0.5668  1.6857
 1853SOL     OW17191   2.663   4.313  12.527  0.2780  0.5283  0.2236
 1853SOL    HW117192   2.700   4.227  12.509  0.7890  0.9937 -0.9264
 1853SOL    HW217193   2.576   4.301  12.490  0.9049  2.1441 -1.7753
 1854SOL     OW17194   0.252   0.799   9.221  0.2086  0.3071  0.1905
 1854SOL    HW117195   0.263   0.750   9.140 -0.2684 -0.5833  0.6635
 1854SOL    HW217196   0.158   0.793   9.237  0.3744  0.7166  1.3126
 1855SOL     OW17197   3.624   1.824   2.292  0.1541 -0.1878  0.2127
 1855SOL    HW117198   3.706   1.848   2.248  0.9076 -0.0429  1.6741
 1855SOL    HW217199   3.645   1.853   2.381 -1.4394 -2.4372  1.3266
 1856SOL     OW17200   3.154   4.095   3.010 -0.3055  0.0619 -0.1675
 1856SOL    HW117201   3.094   4.167   3.025 -0.6677 -0.1269 -0.7210
 1856SOL    HW217202   3.236   4.128   3.046 -0.7748  1.8681 -0.7760
 1857SOL     OW17203   0.887   0.833   5.248  0.1350 -0.0636  0.1074
 1857SOL    HW117204   0.965   0.869   5.207  0.0898 -1.8294 -1.4913
 1857SOL    HW217205   0.938   0.815   5.327  0.2846 -1.4873 -0.3218
 1858SOL     OW17206   2.233   1.615  10.462  0.1986 -0.2394  0.6581
 1858SOL    HW117207   2.278   1.646  10.383 -1.5602 -2.9347 -1.4289
 1858SOL    HW217208   2.282   1.534  10.478 -0.7828 -0.9581  0.0492
 1859SOL     OW17209   0.578   3.362   1.909  0.0946  0.4876  0.1289
 1859SOL    HW117210   0.511   3.407   1.962 -0.4227 -0.4219  0.2363
 1859SOL    HW217211   0.546   3.367   1.819 -1.5781 -0.3374  0.6770
 1860SOL     OW17212   4.111   0.430  15.387  0.7838  0.3697 -0.2367
 1860SOL    HW117213   4.199   0.400  15.365  1.4687  0.9893  1.7503
 1860SOL    HW217214   4.061   0.418  15.306  2.2741  1.1857 -1.2723
 1861SOL     OW17215   1.446   0.821   8.070  0.2835 -0.5822  0.0864
 1861SOL    HW117216   1.381   0.887   8.092 -0.1086 -0.0644 -2.6806
 1861SOL    HW217217   1.460   0.781   8.156 -0.3825  0.7740  0.8248
 1862SOL     OW17218   1.188   3.165   7.251 -0.1471  0.4188  0.3250
 1862SOL    HW117219   1.140   3.237   7.210 -0.1305  1.0452  1.3755
 1862SOL    HW217220   1.181   3.181   7.345  0.3258 -1.1099  0.6173
 1863SOL     OW17221   1.443   0.377   9.501  0.4265 -0.5460  0.0567
 1863SOL    HW117222   1.455   0.470   9.481 -1.0810 -0.4352 -0.2817
 1863SOL    HW217223   1.490   0.366   9.584  0.2969  2.7560  0.5811
 1864SOL     OW17224   2.345   1.459   4.134 -0.4707  0.3042 -1.0123
 1864SOL    HW117225   2.298   1.523   4.187  0.7036 -1.5242  2.2296
 1864SOL    HW217226   2.323   1.379   4.181  2.7453 -0.2392 -0.4610
 1865SOL     OW17227   2.978   1.375   2.261  0.2055  0.0052 -0.4889
 1865SOL    HW117228   2.917   1.443   2.232 -0.3677  0.2165  1.2199
 1865SOL    HW217229   2.935   1.301   2.218  0.4633  0.2539 -1.1678
 1866SOL     OW17230   0.399   0.502   7.912 -0.0533 -0.4084  0.2217
 1866SOL    HW117231   0.434   0.571   7.856 -0.5497 -1.2089 -1.0749
 1866SOL    HW217232   0.365   0.441   7.846 -1.1919 -1.6003  1.9135
 1867SOL     OW17233   1.868   0.722   8.951 -0.6303  0.4907  0.1876
 1867SOL    HW117234   1.834   0.787   9.013  0.0787 -0.9326  2.0603
 1867SOL    HW217235   1.864   0.646   9.010  0.0503  1.1807  1.1197
 1868SOL     OW17236   0.404   4.067   3.863 -0.1890  0.3416  0.4878
 1868SOL    HW117237   0.383   4.000   3.927 -1.6885 -0.4115 -0.7892
 1868SOL    HW217238   0.352   4.033   3.790  0.0134  2.7300 -0.7855
 1869SOL     OW17239   3.925   3.047  15.956  0.6002  0.2562 -0.7271
 1869SOL    HW117240   3.935   3.041  15.861 -1.3092  0.8120 -0.9539
 1869SOL    HW217241   4.006   3.002  15.980  0.7731  1.3404  0.7234
 1870SOL     OW17242   2.226   3.811   4.142  0.1637  0.7121  0.0564
 1870SOL    HW117243   2.141   3.826   4.099  0.0105 -0.9071 -0.1983
 1870SOL    HW217244   2.272   3.895   4.132  3.3079 -1.0707 -0.2321
 1871SOL     OW17245   4.302   3.601   7.287 -0.1564 -0.3462  0.2315
 1871SOL    HW117246   4.291   3.687   7.246 -1.8309 -0.5272  0.3069
 1871SOL    HW217247   4.227   3.606   7.347 -0.4905 -1.3811 -0.1046
 1872SOL     OW17248   1.819   0.783   9.808 -0.0892  0.5040 -0.4704
 1872SOL    HW117249   1.854   0.794   9.896 -1.3912 -0.3394  0.1498
 1872SOL    HW217250   1.731   0.819   9.815 -0.5455 -1.2838  2.8141
 1873SOL     OW17251   3.385   4.631  17.163 -0.4131 -0.3297  0.3332
 1873SOL    HW117252   3.302   4.675  17.146 -0.9409 -0.2447  3.0742
 1873SOL    HW217253   3.437   4.682  17.225  0.3850  1.1193 -1.5321
 1874SOL     OW17254   1.888   2.204  14.607  0.4824 -0.3755  0.0972
 1874SOL    HW117255   1.803   2.164  14.588 -0.8615  1.6766  1.6907
 1874SOL    HW217256   1.866   2.297  14.601 -1.4491 -0.9743 -1.9691
 1875SOL     OW17257   3.459   1.371   8.412 -0.0911 -0.1282  0.1064
 1875SOL    HW117258   3.478   1.277   8.410  0.0383 -0.1273  1.4400
 1875SOL    HW217259   3.378   1.376   8.361 -1.5297 -1.2389  2.2761
 1876SOL     OW17260   4.338   2.932   1.163  0.1666 -0.0785  0.1563
 1876SOL    HW117261   4.373   2.915   1.075 -2.1283  1.4778 -1.0589
 1876SOL    HW217262   4.263   2.989   1.150  0.7586  0.2381 -1.9346
 1877SOL     OW17263   1.826   3.527   6.293  0.0917  0.1572  0.4098
 1877SOL    HW117264   1.835   3.517   6.198 -0.3905 -0.9114  0.4762
 1877SOL    HW217265   1.894   3.594   6.305  1.4000 -0.6515 -2.3411
 1878SOL     OW17266   0.594   3.916  12.817  0.5491  0.2457 -0.2773
 1878SOL    HW117267   0.684   3.929  12.790  0.1781  1.4044 -0.9478
 1878SOL    HW217268   0.567   4.003  12.848  0.5274 -0.4920  1.7634
 1879SOL     OW17269   3.697   1.097   1.151  0.2103 -0.2611  0.5612
 1879SOL    HW117270   3.771   1.150   1.121  1.1612 -1.0163  1.5561
 1879SOL    HW217271   3.715   1.030   1.085  2.0521 -1.8340  2.6501
 1880SOL     OW17272   4.030   3.746   3.448 -0.2316 -0.3914 -0.6316
 1880SOL    HW117273   3.952   3.698   3.477 -0.5827  0.2156 -0.5737
 1880SOL    HW217274   4.032   3.737   3.353 -0.2761  1.8902 -0.8456
 1881SOL     OW17275   0.247   0.368   5.123  0.5110  0.2913  0.1816
 1881SOL    HW117276   0.210   0.285   5.094  1.1101  0.0462  0.1193
 1881SOL    HW217277   0.203   0.425   5.060 -1.4444 -0.3316  0.9890
 1882SOL     OW17278   1.090   0.489   6.170 -0.0827  0.0324  0.2479
 1882SOL    HW117279   1.022   0.445   6.120 -0.1673  0.7145 -0.2431
 1882SOL    HW217280   1.105   0.425   6.240  2.3323 -0.5238 -0.7758
 1883SOL     OW17281   4.319   4.504   5.928  0.1781 -0.0087  0.2500
 1883SOL    HW117282   4.399   4.452   5.936 -0.0847 -0.5609 -0.7615
 1883SOL    HW217283   4.264   4.450   5.871  2.0805  0.4843 -2.0405
 1884SOL     OW17284   1.516   2.191   3.147 -0.1585  0.6403 -0.2001
 1884SOL    HW117285   1.444   2.229   3.197 -0.7323  0.9320 -1.2429
 1884SOL    HW217286   1.510   2.100   3.177  0.0682  0.6877 -0.0171
 1885SOL     OW17287   2.700   3.367   5.168 -0.2386 -0.0526  0.5033
 1885SOL    HW117288   2.712   3.308   5.241 -0.3181 -1.6861 -0.8051
 1885SOL    HW217289   2.785   3.349   5.128  0.0871  0.5700  0.9064
 1886SOL     OW17290   4.591   4.685   0.338  0.4875  0.3046 -0.1331
 1886SOL    HW117291   4.666   4.626   0.332 -1.3663 -1.6955 -3.8902
 1886SOL    HW217292   4.530   4.646   0.276 -1.9256  1.3262  1.6058
 1887SOL     OW17293   0.002   1.251   2.633  0.8627  0.2167  0.7198
 1887SOL    HW117294   4.711   1.244   2.542  3.0058 -2.1237  0.2075
 1887SOL    HW217295   0.096   1.254   2.619  0.7908  0.0246  0.1896
 1888SOL     OW17296   3.966   2.417   9.792  0.5139  0.5744  0.0063
 1888SOL    HW117297   4.037   2.471   9.826 -0.2454  0.9025  1.0633
 1888SOL    HW217298   3.983   2.427   9.699 -0.2974 -0.9974 -0.3043
 1889SOL     OW17299   3.161   0.791   4.806  0.4168 -0.0302 -0.0702
 1889SOL    HW117300   3.185   0.729   4.736 -0.1533 -0.6025  0.2425
 1889SOL    HW217301   3.155   0.742   4.887  2.7874 -0.5148 -0.1867
 1890SOL     OW17302   2.998   3.348   3.581 -0.1177 -0.1107  0.5861
 1890SOL    HW117303   3.092   3.339   3.595 -0.4644  0.2909  3.1852
 1890SOL    HW217304   2.976   3.425   3.633 -0.1555  0.0719  0.3006
 1891SOL     OW17305   1.501   1.167   6.997  0.7849 -0.0222  0.4278
 1891SOL    HW117306   1.457   1.163   7.082 -0.6927  0.7191 -0.2983
 1891SOL    HW217307   1.468   1.082   6.969  0.7449 -0.0665  0.6081
 1892SOL     OW17308   0.798   3.480   4.510 -0.2529  0.2185  0.2599
 1892SOL    HW117309   0.885   3.469   4.474  0.2761  1.7078  1.0920
 1892SOL    HW217310   0.771   3.388   4.514 -1.4760  0.4508 -2.9923
 1893SOL     OW17311   0.819   4.715  17.744  0.2903  0.2990  0.2549
 1893SOL    HW117312   0.858   4.725  17.657 -1.1347 -4.4960 -0.9622
 1893SOL    HW217313   0.761   0.052   0.001  0.0763 -0.2901  4.2272
 1894SOL     OW17314   2.844   0.748   7.146 -0.2591 -0.3687 -0.0591
 1894SOL    HW117315   2.821   0.704   7.064  0.8500  0.1488 -0.6556
 1894SOL    HW217316   2.939   0.742   7.150 -0.2675  0.1388  0.8609
 1895SOL     OW17317   3.830   4.658   2.029 -0.4636 -0.2875 -0.4278
 1895SOL    HW117318   3.828   4.621   2.118  1.1354 -1.3936 -0.8526
 1895SOL    HW217319   3.838   0.012   2.051  0.0476 -0.1623 -1.1574
 1896SOL     OW17320   0.116   3.282   2.680 -0.4408 -0.7443  0.2006
 1896SOL    HW117321   0.026   3.274   2.710 -0.0056 -0.8845  1.5043
 1896SOL    HW217322   0.157   3.198   2.704 -0.8238 -1.2971 -1.0680
 1897SOL     OW17323   3.795   2.435  14.104  0.6381 -0.1147  0.1020
 1897SOL    HW117324   3.792   2.529  14.120  0.0650 -0.0612 -0.3650
 1897SOL    HW217325   3.707   2.407  14.129 -0.2286  2.7589  0.2423
 1898SOL     OW17326   0.916   4.621   5.331 -0.1395  0.6681 -0.5269
 1898SOL    HW117327   0.985   4.582   5.385  0.0548  0.9359 -0.5844
 1898SOL    HW217328   0.858   4.550   5.305  1.1305 -0.6776  0.3086
 1899SOL     OW17329   3.239   2.028   6.459 -0.3399 -0.0646 -0.4537
 1899SOL    HW117330   3.301   2.078   6.513 -0.4430 -1.0969  0.6355
 1899SOL    HW217331   3.273   1.940   6.478 -2.5705 -0.8683 -0.1763
 1900SOL     OW17332   0.432   2.986   8.590  0.5507 -0.5332  0.5549
 1900SOL    HW117333   0.447   3.067   8.639  2.2039 -1.5506  1.7082
 1900SOL    HW217334   0.364   3.002   8.525  2.8288  2.5919 -1.0457
 1901SOL     OW17335   1.628   2.922   2.095 -0.3270  0.2558  0.0229
 1901SOL    HW117336   1.599   2.977   2.022 -2.3547 -1.2816 -0.3298
 1901SOL    HW217337   1.713   2.887   2.067 -0.7068 -0.0724 -0.7149
 1902SOL     OW17338   2.405   4.588  11.512  0.0154  0.1955 -0.3835
 1902SOL    HW117339   2.412   4.506  11.463  3.0119 -0.5311  1.2661
 1902SOL    HW217340   2.310   4.595  11.507  0.0301 -0.4462 -1.7407
 1903SOL     OW17341   1.578   2.439   9.337 -0.1983  0.3933 -0.4282
 1903SOL    HW117342   1.555   2.399   9.420 -0.2921  1.0125 -0.1523
 1903SOL    HW217343   1.671   2.417   9.345 -0.8699 -1.9915  0.7006
 1904SOL     OW17344   4.333   2.357   4.384  0.2076  0.5444  0.2114
 1904SOL    HW117345   4.318   2.428   4.446  0.6242  1.0075 -0.2128
 1904SOL    HW217346   4.410   2.392   4.339  1.1955 -0.1086  1.4014
 1905SOL     OW17347   2.384   0.005  10.953 -0.3386  0.2041 -0.2417
 1905SOL    HW117348   2.426   4.658  10.943  0.0662  0.3628  0.1252
 1905SOL    HW217349   2.337   4.727  11.035 -0.9830 -0.9663 -0.8327
 1906SOL     OW17350   2.220   2.656  17.659  0.0181  0.0821 -0.1324
 1906SOL    HW117351   2.135   2.616  17.675 -1.0656  1.4939 -2.4067
 1906SOL    HW217352   2.184   2.742  17.638 -0.0485  0.2335  0.6267
 1907SOL     OW17353   2.294   0.144   7.057  0.7767  0.2219  0.1234
 1907SOL    HW117354   2.328   0.229   7.085  1.0760  0.0592  0.2577
 1907SOL    HW217355   2.206   0.152   7.020  0.9329  0.1683 -0.2582
 1908SOL     OW17356   0.559   1.565   9.957 -0.0190 -0.1082 -0.5596
 1908SOL    HW117357   0.510   1.601   9.883 -2.4516  0.4819  1.3395
 1908SOL    HW217358   0.494   1.510   9.999 -0.5205  0.6358 -0.3562
 1909SOL     OW17359   0.345   3.615  11.464 -0.0808  0.6673  0.4595
 1909SOL    HW117360   0.276   3.660  11.416  0.0934  0.5036  0.0605
 1909SOL    HW217361   0.424   3.619  11.411 -0.7857  0.7806 -0.5746
 1910SOL     OW17362   0.167   0.346   6.417  0.7629  0.3336  0.0433
 1910SOL    HW117363   0.175   0.252   6.429  0.1859  0.4517  1.3341
 1910SOL    HW217364   0.125   0.348   6.331  0.8403 -2.7525 -0.0345
 1911SOL     OW17365   0.464   1.680   4.633 -0.1345  0.4841 -0.3553
 1911SOL    HW117366   0.444   1.730   4.712 -1.7756 -2.4960  1.1095
 1911SOL    HW217367   0.372   1.658   4.614  0.6801 -0.9910 -2.6817
 1912SOL     OW17368   4.545   4.459  16.570 -0.0538 -0.5430 -0.2180
 1912SOL    HW117369   4.541   4.406  16.490  0.1431 -0.7881 -0.0664
 1912SOL    HW217370   4.499   4.406  16.635 -0.0359 -1.1334 -0.6856
 1913SOL     OW17371   2.142   1.443   2.902  0.0671  0.3908 -0.7408
 1913SOL    HW117372   2.057   1.458   2.861 -0.4819  1.8353  0.9319
 1913SOL    HW217373   2.185   1.395   2.831 -1.4258  0.6197 -1.7954
 1914SOL     OW17374   3.954   2.771   1.764 -0.0615 -0.2361  0.1346
 1914SOL    HW117375   3.892   2.698   1.759 -1.2983  0.6266  2.4508
 1914SOL    HW217376   4.020   2.733   1.822  2.1963 -1.9919 -3.6369
 1915SOL     OW17377   1.364   0.402  13.513  0.2916 -0.1863 -0.2487
 1915SOL    HW117378   1.345   0.384  13.421 -2.3336  0.1100  0.2279
 1915SOL    HW217379   1.300   0.338  13.544  0.5381 -0.1140  0.4161
 1916SOL     OW17380   0.632   3.511   5.539  0.0541  1.1083 -0.0084
 1916SOL    HW117381   0.625   3.434   5.595 -0.8831  2.0143  1.1013
 1916SOL    HW217382   0.706   3.483   5.485 -1.0929 -2.1465  0.0468
 1917SOL     OW17383   3.410   2.073   3.707 -0.1998 -0.1210  0.1150
 1917SOL    HW117384   3.338   2.053   3.646 -0.0392 -1.3544  0.3369
 1917SOL    HW217385   3.423   1.994   3.760  1.6329  0.0103 -0.1602
 1918SOL     OW17386   4.243   3.956   4.054  0.1899 -0.6277  0.1471
 1918SOL    HW117387   4.331   3.993   4.069 -0.1246  0.1392  0.0881
 1918SOL    HW217388   4.194   4.039   4.049  0.9160 -0.1242  1.1595
 1919SOL     OW17389   2.699   2.101  15.788 -0.0632 -0.2103 -0.8581
 1919SOL    HW117390   2.760   2.173  15.802  0.0463 -0.5615  0.4180
 1919SOL    HW217391   2.756   2.030  15.816  0.0213  1.4849  3.1833
 1920SOL     OW17392   2.429   1.357   7.421  0.1322 -0.0956  0.3228
 1920SOL    HW117393   2.334   1.360   7.427  0.0764  1.5182 -1.1394
 1920SOL    HW217394   2.443   1.371   7.327 -1.3916 -0.0861  0.1037
 1921SOL     OW17395   1.208   2.173  13.939  0.0701  0.2125 -0.6298
 1921SOL    HW117396   1.183   2.238  13.874 -2.3790  1.3059  1.4047
 1921SOL    HW217397   1.295   2.205  13.961 -0.6422  3.2628 -2.3502
 1922SOL     OW17398   3.766   1.625   3.624  0.9005 -0.2909  0.1562
 1922SOL    HW117399   3.814   1.699   3.586 -1.2494  0.5334 -0.9810
 1922SOL    HW217400   3.723   1.667   3.698  0.9308  1.5647 -0.8620
 1923SOL     OW17401   1.889   1.380  17.372 -0.0412  0.3404 -0.1126
 1923SOL    HW117402   1.917   1.316  17.306  1.8662  0.2898  0.7490
 1923SOL    HW217403   1.855   1.317  17.436  1.1038 -1.0158 -0.8243
 1924SOL     OW17404   2.452   1.220   3.477  0.5378  0.3977 -0.2970
 1924SOL    HW117405   2.476   1.233   3.385  0.7150  3.8314  0.2571
 1924SOL    HW217406   2.429   1.127   3.469 -0.4729  0.7208 -1.0683
 1925SOL     OW17407   1.777   2.432  14.909  0.0477 -0.1446  0.3566
 1925SOL    HW117408   1.813   2.354  14.867 -0.2115 -1.4597  2.5883
 1925SOL    HW217409   1.797   2.499  14.842  0.0861 -0.4647  0.0490
 1926SOL     OW17410   3.419   0.079  15.224  0.0859 -0.5376  0.8666
 1926SOL    HW117411   3.471   0.011  15.267  1.7119 -0.1778 -0.5563
 1926SOL    HW217412   3.424   0.043  15.136 -2.3041  0.9790  0.1322
 1927SOL     OW17413   4.369   2.518   7.489  0.4718  0.5600 -0.1605
 1927SOL    HW117414   4.464   2.509   7.482  0.5997  0.6852  1.3358
 1927SOL    HW217415   4.367   2.555   7.577  0.2466 -1.3819  0.6560
 1928SOL     OW17416   1.231   3.697   5.221  0.2299 -0.4948  0.1271
 1928SOL    HW117417   1.326   3.690   5.220  0.3033  0.5020  0.5143
 1928SOL    HW217418   1.229   3.758   5.295 -0.0794  0.9355 -1.0721
 1929SOL     OW17419   2.008   2.429   6.015 -0.4868  0.0131 -0.4239
 1929SOL    HW117420   2.030   2.358   6.075 -1.9442  1.5051  1.8506
 1929SOL    HW217421   2.079   2.486   6.042 -1.3234  1.2003 -0.7245
 1930SOL     OW17422   4.317   2.587  12.767 -0.0161  0.1686 -0.4085
 1930SOL    HW117423   4.410   2.594  12.785 -0.0868 -1.3451  0.5794
 1930SOL    HW217424   4.315   2.548  12.679 -1.4928  0.1714 -0.3820
 1931SOL     OW17425   0.124   2.658   7.990 -0.1954  0.6100  0.6421
 1931SOL    HW117426   0.189   2.716   7.950  0.0152 -0.4673 -0.5714
 1931SOL    HW217427   0.079   2.731   8.032  0.3948  0.2317  1.9522
 1932SOL     OW17428   3.412   3.969   5.926 -0.0532 -0.6116 -0.0074
 1932SOL    HW117429   3.443   3.914   5.999  2.6306 -0.8807 -1.3872
 1932SOL    HW217430   3.462   3.917   5.864 -0.0213 -1.6848  0.9041
 1933SOL     OW17431   3.573   4.525   5.880 -0.1715  0.2562 -0.0566
 1933SOL    HW117432   3.568   4.564   5.967  3.0043 -1.3882  0.8522
 1933SOL    HW217433   3.552   4.435   5.907 -1.2212  0.2687 -0.8299
 1934SOL     OW17434   1.272   0.933   3.164 -0.3400  0.4022 -0.0428
 1934SOL    HW117435   1.301   0.873   3.096 -0.1000  1.0559 -0.5161
 1934SOL    HW217436   1.179   0.940   3.142 -1.1815 -1.1689  3.0402
 1935SOL     OW17437   2.726   4.235   4.185  0.4177 -0.2148 -0.0708
 1935SOL    HW117438   2.657   4.186   4.230 -1.7170  3.9180  1.1648
 1935SOL    HW217439   2.792   4.239   4.255 -0.5468  0.6534  0.7962
 1936SOL     OW17440   0.718   2.697   2.761  0.1655  0.2083  0.1806
 1936SOL    HW117441   0.752   2.719   2.674  0.6777 -1.9186 -0.1614
 1936SOL    HW217442   0.676   2.612   2.746  1.7966 -0.5657 -0.0238
 1937SOL     OW17443   2.447   4.522   8.035 -0.2927 -0.1799  0.0503
 1937SOL    HW117444   2.415   4.552   7.950  2.3268  1.2583 -0.4274
 1937SOL    HW217445   2.520   4.584   8.041 -0.9958  0.7221 -0.5925
 1938SOL     OW17446   4.154   1.745  13.653  0.1928 -0.2385 -0.1281
 1938SOL    HW117447   4.185   1.802  13.583  1.8813 -2.2855 -1.0653
 1938SOL    HW217448   4.204   1.779  13.727 -0.9764 -1.4223  1.1989
 1939SOL     OW17449   3.428   3.901   4.459  0.5303  0.1028 -0.9869
 1939SOL    HW117450   3.509   3.921   4.412  1.6775 -2.7116 -0.1978
 1939SOL    HW217451   3.370   3.861   4.394  0.4289  0.6093 -1.2047
 1940SOL     OW17452   0.429   3.893   5.239 -0.1716  0.4800 -0.2230
 1940SOL    HW117453   0.449   3.884   5.146  0.5859 -1.8953  0.1740
 1940SOL    HW217454   0.495   3.834   5.275 -0.0575 -0.6905 -2.3714
 1941SOL     OW17455   4.221   2.127   2.054 -0.1058  0.3531 -0.0322
 1941SOL    HW117456   4.130   2.120   2.024 -0.3213  2.3209  0.1643
 1941SOL    HW217457   4.213   2.218   2.083 -0.4927  0.3316 -0.0714
 1942SOL     OW17458   3.414   2.174  17.418 -0.3128 -0.1807  0.3844
 1942SOL    HW117459   3.367   2.212  17.492 -0.1815 -1.2765  1.0423
 1942SOL    HW217460   3.346   2.115  17.383 -0.5537 -0.5996  1.5486
 1943SOL     OW17461   3.910   2.936   7.658 -0.5235  0.0802  0.1265
 1943SOL    HW117462   3.845   2.939   7.729  0.9768 -1.5081  1.5654
 1943SOL    HW217463   3.972   2.875   7.699 -1.7913 -1.8981 -0.9140
 1944SOL     OW17464   3.256   3.916   5.419 -0.1812  0.4920 -0.1632
 1944SOL    HW117465   3.346   3.949   5.415  0.1289 -0.5384 -1.5944
 1944SOL    HW217466   3.229   3.966   5.496  0.8988  1.8636 -0.6839
 1945SOL     OW17467   0.628   0.038   6.289 -0.0905  0.1691 -0.2251
 1945SOL    HW117468   0.711   0.049   6.243  2.3298 -0.7751  3.9862
 1945SOL    HW217469   0.617   4.683   6.270 -0.4858  0.8018 -3.0661
 1946SOL     OW17470   1.940   0.646   9.262 -0.1430 -0.3398 -0.3606
 1946SOL    HW117471   2.017   0.645   9.320  0.2958  2.0885 -0.9068
 1946SOL    HW217472   1.871   0.668   9.325  1.4606 -1.4947  1.8141
 1947SOL     OW17473   3.153   2.793  17.464 -0.3968  0.0671 -0.1620
 1947SOL    HW117474   3.115   2.826  17.382 -0.0669 -1.9359 -1.1203
 1947SOL    HW217475   3.210   2.723  17.433 -2.8207 -1.3434 -1.4359
 1948SOL     OW17476   1.941   0.604   7.104 -0.0042  0.2443 -0.0118
 1948SOL    HW117477   1.987   0.620   7.187 -0.8868 -0.0372  0.5413
 1948SOL    HW217478   1.992   0.656   7.042  1.2073 -0.2870  0.5308
 1949SOL     OW17479   3.549   0.988  12.375  0.0539 -0.3581 -0.7724
 1949SOL    HW117480   3.584   0.912  12.422 -0.7673 -1.5275 -2.0491
 1949SOL    HW217481   3.460   0.976  12.407  0.6108  1.7295  1.5930
 1950SOL     OW17482   1.965   0.032   9.008  0.2849  0.1908  0.2533
 1950SOL    HW117483   1.984   0.124   9.026 -1.6264  0.3721  1.2938
 1950SOL    HW217484   1.889   0.026   9.065  0.0348 -0.0776 -0.1130
 1951SOL     OW17485   1.916   0.784   2.857 -0.4057 -0.5191 -0.2871
 1951SOL    HW117486   1.941   0.876   2.866 -0.5050 -0.5967  0.7691
 1951SOL    HW217487   1.998   0.736   2.867 -0.2797 -0.7640 -2.5955
 1952SOL     OW17488   1.490   1.401   6.090 -0.1894  0.0161 -0.1030
 1952SOL    HW117489   1.465   1.475   6.035  2.8813  1.0947 -0.0843
 1952SOL    HW217490   1.585   1.401   6.081 -0.2699  1.1271 -0.9304
 1953SOL     OW17491   3.248   3.891  11.433 -0.4824 -0.2688 -0.4409
 1953SOL    HW117492   3.182   3.922  11.371 -0.8137 -0.5217 -0.2119
 1953SOL    HW217493   3.313   3.961  11.425 -0.3638 -0.1345  1.7789
 1954SOL     OW17494   1.945   3.701   1.576 -0.0717 -0.1887 -0.4388
 1954SOL    HW117495   1.918   3.654   1.655 -1.5709  1.8180  0.2450
 1954SOL    HW217496   2.034   3.667   1.565  0.5901  1.3022  0.3299
 1955SOL     OW17497   4.494   4.065   7.852  0.2435  0.2006 -0.2041
 1955SOL    HW117498   4.535   4.062   7.765 -0.7949  0.9408 -0.7214
 1955SOL    HW217499   4.433   4.139   7.844 -0.9406 -0.7165  0.3409
 1956SOL     OW17500   3.196   0.714   8.082  0.3405  0.6691 -0.1824
 1956SOL    HW117501   3.234   0.787   8.033  0.0145  2.2097  1.8554
 1956SOL    HW217502   3.107   0.726   8.049  0.0496  0.4126  0.5177
 1957SOL     OW17503   3.745   0.791   1.068 -0.7678 -0.1089  0.0771
 1957SOL    HW117504   3.800   0.737   1.125 -1.0301 -1.0596 -0.5709
 1957SOL    HW217505   3.808   0.847   1.023 -1.5872  0.8618  0.1178
 1958SOL     OW17506   0.644   1.579   3.034 -0.1422  0.2921  0.2208
 1958SOL    HW117507   0.724   1.562   3.084  0.7552 -2.0120 -1.9746
 1958SOL    HW217508   0.656   1.670   3.009 -2.3545  1.0030  1.6763
 1959SOL     OW17509   1.703   2.329  11.786  0.0681  0.4761 -0.1743
 1959SOL    HW117510   1.630   2.378  11.747  0.0558  0.1386 -0.5640
 1959SOL    HW217511   1.668   2.240  11.780  2.2893 -0.2972 -1.3555
 1960SOL     OW17512   4.080   4.409   5.404  0.1007  0.0646  0.4707
 1960SOL    HW117513   4.011   4.459   5.447 -0.0502  0.7552 -0.5648
 1960SOL    HW217514   4.156   4.468   5.400 -0.8877  1.2395 -0.9836
 1961SOL     OW17515   3.785   4.347   7.813  1.2851 -0.2379  0.1821
 1961SOL    HW117516   3.754   4.267   7.855  0.0178 -0.9778 -2.1566
 1961SOL    HW217517   3.700   4.388   7.801  0.8372 -1.0598  0.5716
 1962SOL     OW17518   2.096   3.814  17.370  0.6609 -0.2052  0.3094
 1962SOL    HW117519   2.005   3.792  17.389  1.2778 -1.2326  2.1183
 1962SOL    HW217520   2.128   3.842  17.456 -0.6111  2.3135 -0.0449
 1963SOL     OW17521   3.976   4.264   4.298 -0.4123  0.1236 -0.6750
 1963SOL    HW117522   4.036   4.191   4.311 -2.0364 -1.0780  0.1308
 1963SOL    HW217523   3.961   4.284   4.391 -0.3149  2.4533 -1.1453
 1964SOL     OW17524   4.123   3.741   7.760  0.0189 -0.7065 -0.3119
 1964SOL    HW117525   4.028   3.736   7.770 -0.0312 -1.3186 -1.0357
 1964SOL    HW217526   4.150   3.776   7.845  1.7975 -1.5714 -0.5184
 1965SOL     OW17527   2.097   2.072  10.109  0.1835 -0.4919 -0.3500
 1965SOL    HW117528   2.077   2.005  10.174 -0.9168  0.0768 -0.1059
 1965SOL    HW217529   2.099   2.143  10.174  2.3030 -0.1415 -0.7865
 1966SOL     OW17530   0.290   0.174   2.690  0.2448  0.0526  0.2839
 1966SOL    HW117531   0.348   0.135   2.755 -0.4689  0.5101  1.1967
 1966SOL    HW217532   0.302   0.268   2.704 -2.8503  0.0734  2.9923
 1967SOL     OW17533   4.575   3.397   6.110  0.3276  0.0160  0.0695
 1967SOL    HW117534   4.622   3.319   6.082  3.4836  2.1358 -0.4761
 1967SOL    HW217535   4.646   3.434   6.162 -0.0815  0.4259  0.3418
 1968SOL     OW17536   2.360   3.415   3.340  0.4303 -0.0139 -0.2370
 1968SOL    HW117537   2.290   3.426   3.276 -0.3316 -1.3983  0.3562
 1968SOL    HW217538   2.318   3.430   3.425 -0.1304 -1.5107 -0.2659
 1969SOL     OW17539   0.722   1.127   8.692 -0.4235  0.0995  0.1123
 1969SOL    HW117540   0.771   1.160   8.767 -1.7858 -1.9905  1.9399
 1969SOL    HW217541   0.775   1.169   8.624 -0.8632  0.5764  0.0586
 1970SOL     OW17542   2.625   2.141  11.139 -0.5506 -0.2045  0.5460
 1970SOL    HW117543   2.690   2.140  11.069 -0.9773 -1.2983  0.1551
 1970SOL    HW217544   2.665   2.198  11.204  3.1266 -1.4477 -0.6260
 1971SOL     OW17545   1.575   1.669  12.234 -0.0728  0.8534 -0.8394
 1971SOL    HW117546   1.563   1.592  12.178  0.3283  0.0068  0.2455
 1971SOL    HW217547   1.641   1.639  12.297 -0.2809  2.5558  0.1900
 1972SOL     OW17548   0.144   3.978   7.608  0.2480  0.1321  0.7800
 1972SOL    HW117549   0.177   3.899   7.651  2.2474 -0.2745 -1.5459
 1972SOL    HW217550   0.220   4.017   7.565 -0.8542  0.1372 -1.1586
 1973SOL     OW17551   2.458   3.362   1.982  0.4067 -0.0034  0.2205
 1973SOL    HW117552   2.428   3.443   1.942 -1.0126 -1.0255 -0.7783
 1973SOL    HW217553   2.554   3.367   1.980  0.3231  0.8212 -1.4794
 1974SOL     OW17554   1.846   4.165   6.551 -0.3930  0.0674 -0.0452
 1974SOL    HW117555   1.917   4.209   6.597 -1.5967  0.8204  1.0877
 1974SOL    HW217556   1.887   4.083   6.524 -0.2855  0.7201 -1.8945
 1975SOL     OW17557   0.743   3.047   1.377  0.0622 -0.0663 -0.0771
 1975SOL    HW117558   0.681   2.977   1.355  0.3791 -0.2267 -0.4701
 1975SOL    HW217559   0.747   3.091   1.292 -0.1865 -0.8113 -0.4726
 1976SOL     OW17560   2.034   1.464  12.675  0.6527 -0.2877 -0.1744
 1976SOL    HW117561   2.109   1.495  12.726  0.8792 -0.1417 -0.5957
 1976SOL    HW217562   1.962   1.526  12.683  0.6670 -0.3573  0.5310
 1977SOL     OW17563   0.629   4.229   1.404 -0.6626  0.3718  0.3209
 1977SOL    HW117564   0.678   4.229   1.486 -0.8479  2.3175  0.4317
 1977SOL    HW217565   0.585   4.314   1.407 -1.4096 -0.0193  0.4944
 1978SOL     OW17566   4.373   1.079   4.491 -0.2455 -0.4710  0.4174
 1978SOL    HW117567   4.361   1.126   4.409 -0.8057 -1.2143  0.0794
 1978SOL    HW217568   4.322   0.999   4.494 -0.4837 -0.4015 -2.7120
 1979SOL     OW17569   3.816   3.321   4.343 -0.1800  0.3160  0.6999
 1979SOL    HW117570   3.777   3.385   4.404  0.2292 -0.7239  2.0405
 1979SOL    HW217571   3.770   3.243   4.372 -2.8982  1.4333 -0.5841
 1980SOL     OW17572   0.027   4.190   4.799  0.3338 -0.1709 -0.5981
 1980SOL    HW117573   4.721   4.207   4.882 -0.5652  0.4587 -1.2056
 1980SOL    HW217574   0.087   4.265   4.798  0.4292 -0.2078  1.2174
 1981SOL     OW17575   4.498   2.834   1.541 -0.8151  0.0745  0.0592
 1981SOL    HW117576   4.570   2.773   1.556  1.1579  1.9400 -1.8908
 1981SOL    HW217577   4.437   2.786   1.485 -0.6405  0.7110 -0.6692
 1982SOL     OW17578   0.202   1.780   7.451 -0.0020  0.2290 -0.3841
 1982SOL    HW117579   0.124   1.827   7.424 -0.3978  0.1402  0.5782
 1982SOL    HW217580   0.233   1.832   7.525 -1.2564  0.3727  0.0459
 1983SOL     OW17581   4.629   4.424  15.261  0.0877 -1.1313  0.0289
 1983SOL    HW117582   4.575   4.376  15.198 -0.8468  2.6671 -2.0430
 1983SOL    HW217583   4.570   4.488  15.301  3.7434  1.0231  1.9944
 1984SOL     OW17584   4.012   1.256   7.285 -0.3286  0.1225  0.3631
 1984SOL    HW117585   4.011   1.268   7.380  2.9505 -1.2285  0.5686
 1984SOL    HW217586   4.005   1.161   7.275  2.4374  0.0090 -0.4948
 1985SOL     OW17587   2.686   2.131   3.561 -0.3192 -0.4373  0.8700
 1985SOL    HW117588   2.718   2.217   3.532  1.4985 -0.7884  1.8185
 1985SOL    HW217589   2.759   2.078   3.529 -0.9534 -0.6548 -0.2414
 1986SOL     OW17590   1.862   0.823   1.569  0.7631 -0.5376  0.3059
 1986SOL    HW117591   1.852   0.915   1.545 -2.0527 -1.4031 -1.7678
 1986SOL    HW217592   1.806   0.818   1.646  0.7834 -2.5816  0.1887
 1987SOL     OW17593   2.210   1.174   2.231 -0.0537 -0.0029 -0.8668
 1987SOL    HW117594   2.170   1.237   2.172 -1.0315 -0.0740 -0.2948
 1987SOL    HW217595   2.141   1.159   2.296  0.3086 -0.7865 -0.6566
 1988SOL     OW17596   1.281   1.159  17.608 -0.6949 -0.3015 -0.1447
 1988SOL    HW117597   1.278   1.254  17.593 -1.5031 -0.1510  0.9460
 1988SOL    HW217598   1.283   1.154  17.704  1.4989  1.4891 -0.1005
 1989SOL     OW17599   0.259   3.532  15.602  0.2668 -0.1437  0.1218
 1989SOL    HW117600   0.216   3.447  15.610  0.2729 -0.1722 -0.1842
 1989SOL    HW217601   0.346   3.518  15.566  0.3159 -0.8741  0.5205
 1990SOL     OW17602   0.632   3.242  17.076  1.0305 -0.0625  0.1154
 1990SOL    HW117603   0.584   3.159  17.074 -1.3569  1.2888  0.4795
 1990SOL    HW217604   0.691   3.238  17.001 -0.4009  0.6648 -1.0666
 1991SOL     OW17605   2.727   0.119  16.163 -0.4687 -0.4006 -0.2557
 1991SOL    HW117606   2.761   0.201  16.126  2.5972 -0.5014  2.3271
 1991SOL    HW217607   2.650   0.105  16.107 -1.4747  0.2179  0.9679
 1992SOL     OW17608   2.311   2.422   2.841 -0.4184 -0.1830 -0.9356
 1992SOL    HW117609   2.244   2.490   2.847 -2.7582 -2.4459 -1.3314
 1992SOL    HW217610   2.376   2.451   2.778  0.9347 -2.1077 -0.4347
 1993SOL     OW17611   3.429   0.918  13.582 -0.7533  0.7714  1.0462
 1993SOL    HW117612   3.355   0.946  13.528  0.3231  4.1465  1.3017
 1993SOL    HW217613   3.450   0.999  13.629  0.4587  2.0407 -1.7140
 1994SOL     OW17614   0.771   4.622   4.248 -0.2300  0.2612 -0.5530
 1994SOL    HW117615   0.815   4.683   4.189 -0.2431  1.3978  0.6036
 1994SOL    HW217616   0.763   4.673   4.329 -0.3290  0.0144 -0.4064
 1995SOL     OW17617   0.296   1.381   6.075  0.4609  0.0935  0.5267
 1995SOL    HW117618   0.346   1.440   6.018 -1.6762  0.9766 -0.4564
 1995SOL    HW217619   0.212   1.427   6.078  0.3675 -0.0611  0.3083
 1996SOL     OW17620   4.200   3.267  13.378 -0.3494 -0.4891  0.1689
 1996SOL    HW117621   4.201   3.209  13.454  0.6046 -0.3961  0.2268
 1996SOL    HW217622   4.202   3.346  13.433 -0.5816  1.2502 -2.3282
 1997SOL     OW17623   3.145   1.457   7.030 -0.5236  0.5024 -0.3713
 1997SOL    HW117624   3.179   1.533   7.077  1.8221  1.2443 -3.2238
 1997SOL    HW217625   3.115   1.492   6.946  2.8937 -0.3772 -1.9799
 1998SOL     OW17626   1.554   1.676   6.839 -0.4635 -0.0852  0.3478
 1998SOL    HW117627   1.507   1.593   6.826 -0.5364 -0.0455  0.3597
 1998SOL    HW217628   1.644   1.646   6.823 -0.8862 -1.0943 -0.1793
 1999SOL     OW17629   1.401   3.401   5.197 -1.0488 -0.1134 -0.2107
 1999SOL    HW117630   1.457   3.330   5.165  0.2980  2.0861 -2.7912
 1999SOL    HW217631   1.313   3.379   5.167 -1.6246 -0.3969  1.7060
 2000SOL     OW17632   1.276   1.424   6.364  0.4364  0.1518 -0.3807
 2000SOL    HW117633   1.313   1.337   6.381  0.6986  0.4050  0.3520
 2000SOL    HW217634   1.352   1.476   6.392  1.6449 -1.4850 -0.6302
 2001SOL     OW17635   3.256   3.200  11.379  0.2920  0.7529 -0.2403
 2001SOL    HW117636   3.280   3.159  11.463 -4.3301  1.6443  1.4747
 2001SOL    HW217637   3.172   3.156  11.364 -0.6062  1.6121  2.3485
 2002SOL     OW17638   2.109   1.431   8.360  0.0986 -0.0946  0.4321
 2002SOL    HW117639   2.149   1.507   8.402  1.5608 -0.4757 -0.2672
 2002SOL    HW217640   2.091   1.377   8.437 -1.6008 -0.8697 -0.4876
 2003SOL     OW17641   3.563   1.763  17.750 -0.3181  0.1816  0.0678
 2003SOL    HW117642   3.558   1.703  17.677  0.7594  2.9820 -2.3054
 2003SOL    HW217643   3.500   1.720   0.057  2.3614 -1.3078  1.8528
 2004SOL     OW17644   4.283   1.298   7.892  0.1625  0.2934  0.0675
 2004SOL    HW117645   4.332   1.368   7.937  1.0407  0.4620 -1.1409
 2004SOL    HW217646   4.192   1.321   7.906 -0.0266 -0.4677  0.0762
 2005SOL     OW17647   2.816   2.551   6.621 -0.4867  0.6828 -0.6053
 2005SOL    HW117648   2.726   2.579   6.608 -0.5450  1.3702  1.2018
 2005SOL    HW217649   2.857   2.620   6.673  0.8796 -0.6446  0.0895
 2006SOL     OW17650   2.461   3.215   1.395 -0.5834 -0.3251  0.1671
 2006SOL    HW117651   2.505   3.276   1.336  1.6202 -1.7802  0.3075
 2006SOL    HW217652   2.387   3.194   1.338 -0.2962  1.2607 -0.8154
 2007SOL     OW17653   4.413   2.101   2.247  0.1848 -0.4652  0.1932
 2007SOL    HW117654   4.505   2.109   2.222  0.3030  4.3007  2.0524
 2007SOL    HW217655   4.365   2.139   2.174 -2.8505 -0.3271  2.2751
 2008SOL     OW17656   0.896   2.579   4.359  0.1265  0.3065 -0.2667
 2008SOL    HW117657   0.894   2.609   4.268 -4.1136 -0.9915 -0.6236
 2008SOL    HW217658   0.830   2.638   4.396  0.2449 -0.7605  1.6727
 2009SOL     OW17659   3.856   3.102   2.980 -0.0811  0.4533  1.1680
 2009SOL    HW117660   3.902   3.018   2.980 -0.1603  0.4083  0.0692
 2009SOL    HW217661   3.835   3.108   3.073  0.7708 -0.2893  1.4096
 2010SOL     OW17662   1.640   0.097   9.031 -0.7538  0.1438 -0.2887
 2010SOL    HW117663   1.660   0.058   8.946 -0.9110 -0.0200 -0.2509
 2010SOL    HW217664   1.564   0.153   9.016 -1.1787 -0.7251 -1.3054
 2011SOL     OW17665   1.471   0.269  14.650  0.2997  0.2901  0.0149
 2011SOL    HW117666   1.379   0.254  14.632  0.0204  2.1409 -0.1236
 2011SOL    HW217667   1.503   0.313  14.571  2.2716  0.5918  0.9520
 2012SOL     OW17668   0.628   0.455   0.230 -0.1444 -0.2031 -0.3351
 2012SOL    HW117669   0.575   0.385   0.270 -1.1109 -0.1250 -1.4667
 2012SOL    HW217670   0.629   0.420   0.141  0.1519 -0.3968 -0.2556
 2013SOL     OW17671   2.726   0.867   9.858 -0.6422  0.1494 -0.2325
 2013SOL    HW117672   2.818   0.852   9.882 -0.3443  0.7586 -0.9881
 2013SOL    HW217673   2.710   0.814   9.780 -4.1195  0.1929  0.4861
 2014SOL     OW17674   2.352   3.850   4.561 -0.3546  0.1871  0.5209
 2014SOL    HW117675   2.318   3.918   4.503  0.1834  1.8721  2.1876
 2014SOL    HW217676   2.273   3.824   4.607 -1.4531 -1.2666 -2.1578
 2015SOL     OW17677   1.996   1.818   9.639 -0.1855  0.0573  0.1051
 2015SOL    HW117678   1.944   1.874   9.696  1.7856  3.0262 -1.0009
 2015SOL    HW217679   2.066   1.793   9.699 -0.9512  1.5327  1.6119
 2016SOL     OW17680   2.075   1.510   8.801  0.9161 -0.2156 -0.0138
 2016SOL    HW117681   2.112   1.587   8.757  1.0409 -0.8673 -1.0372
 2016SOL    HW217682   2.018   1.556   8.862  0.6549  0.4911 -0.8000
 2017SOL     OW17683   2.416   3.842  10.758 -0.3404  0.4329 -0.0629
 2017SOL    HW117684   2.491   3.828  10.701 -1.3724  0.6842 -1.4872
 2017SOL    HW217685   2.414   3.760  10.809 -0.2779  0.4238 -0.0754
 2018SOL     OW17686   4.571   4.447   2.800 -0.2781  0.3916  0.3080
 2018SOL    HW117687   4.546   4.502   2.726  0.5301  0.0468 -0.2286
 2018SOL    HW217688   4.553   4.516   2.864  1.4371  0.8674  0.2865
 2019SOL     OW17689   0.208   0.450   7.003  0.9125 -0.0657 -0.0104
 2019SOL    HW117690   0.218   0.388   7.075 -0.3663 -1.1198 -0.7428
 2019SOL    HW217691   0.214   0.536   7.046  0.8500  0.1040 -0.3408
 2020SOL     OW17692   3.872   3.569   3.736  0.5912 -0.1940  0.7806
 2020SOL    HW117693   3.781   3.599   3.740 -0.5768 -3.7267  0.1909
 2020SOL    HW217694   3.867   3.522   3.652  0.1530 -1.8293  1.7302
 2021SOL     OW17695   4.139   2.580   1.875  1.0473  0.0884 -0.2789
 2021SOL    HW117696   4.191   2.629   1.939 -0.7127  0.0251  1.1943
 2021SOL    HW217697   4.211   2.532   1.833 -0.9591 -2.3907 -0.9069
 2022SOL     OW17698   1.903   1.072  14.697 -0.9259 -0.0255 -0.0297
 2022SOL    HW117699   1.942   1.031  14.619  1.1502  0.9177  0.4937
 2022SOL    HW217700   1.940   1.161  14.697  0.9704 -0.8014 -1.0451
 2023SOL     OW17701   1.039   4.488  16.623 -0.7613  0.6281  0.2332
 2023SOL    HW117702   1.061   4.500  16.715 -0.1021 -0.9041  0.2668
 2023SOL    HW217703   1.124   4.519  16.592 -0.7529 -2.1562 -2.5034
 2024SOL     OW17704   2.207   3.981   2.159 -0.4895  0.5781  0.4308
 2024SOL    HW117705   2.139   3.915   2.142 -0.1752  0.2279  0.5357
 2024SOL    HW217706   2.224   3.994   2.066  0.9351 -0.4167  0.5579
 2025SOL     OW17707   2.784   2.519   8.811  0.1933 -0.7919  0.5349
 2025SOL    HW117708   2.745   2.475   8.887 -0.2057 -1.9497 -0.3408
 2025SOL    HW217709   2.797   2.432   8.772  1.1222 -0.7220  0.7047
 2026SOL     OW17710   2.454   0.213   5.758  0.3184 -0.3312  0.0294
 2026SOL    HW117711   2.524   0.211   5.693 -0.8963  0.1813 -1.3048
 2026SOL    HW217712   2.431   0.120   5.765 -1.6784  0.0064 -2.0949
 2027SOL     OW17713   3.414   2.199   6.608  0.5564  0.0697 -0.9377
 2027SOL    HW117714   3.457   2.116   6.629 -0.3236  0.6619  3.2615
 2027SOL    HW217715   3.375   2.217   6.694 -0.7406 -1.9947 -1.0969
 2028SOL     OW17716   3.985   1.373   7.874  0.3043  0.0788  0.4316
 2028SOL    HW117717   3.940   1.426   7.808  1.4129  1.6354  0.9139
 2028SOL    HW217718   3.953   1.284   7.862  0.6521  0.1500 -1.0089
 2029SOL     OW17719   2.537   1.077  15.068  0.0591 -0.5045  0.3305
 2029SOL    HW117720   2.456   1.035  15.038 -0.0841 -0.5053  0.7103
 2029SOL    HW217721   2.515   1.118  15.152  2.0614  1.5944 -0.1891
 2030SOL     OW17722   0.591   3.435   2.414 -0.5756 -0.8478 -0.0323
 2030SOL    HW117723   0.509   3.395   2.387  0.7344 -2.3574 -1.7659
 2030SOL    HW217724   0.655   3.368   2.387  0.7832  0.2174  0.5326
 2031SOL     OW17725   3.730   1.672   7.813  0.5740  0.0608 -0.3945
 2031SOL    HW117726   3.812   1.721   7.815  0.3670  0.4006 -0.2692
 2031SOL    HW217727   3.675   1.729   7.759 -2.0728 -1.6912  0.4309
 2032SOL     OW17728   1.954   2.179   0.430  0.0406  0.3120  0.2778
 2032SOL    HW117729   1.929   2.256   0.480 -1.3193  0.1313 -0.1127
 2032SOL    HW217730   1.970   2.115   0.500 -1.2150  0.9382  1.1311
 2033SOL     OW17731   3.755   1.794  15.834  0.0888 -0.0982 -0.3998
 2033SOL    HW117732   3.846   1.770  15.851  0.1300  0.7471  0.5318
 2033SOL    HW217733   3.774   1.887  15.817 -0.2818  0.1599  0.5696
 2034SOL     OW17734   2.795   3.725   4.163  0.4074 -0.1961 -0.3810
 2034SOL    HW117735   2.761   3.672   4.235  1.4168 -1.6094 -0.9436
 2034SOL    HW217736   2.730   3.792   4.182 -0.4987 -1.3936  0.7997
 2035SOL     OW17737   3.277   4.612   3.497 -0.2268  0.4187  0.1278
 2035SOL    HW117738   3.298   4.580   3.409 -1.2328 -2.1249  0.8164
 2035SOL    HW217739   3.278   4.707   3.484 -2.3573  0.2027 -1.6703
 2036SOL     OW17740   2.003   0.988  11.122 -0.1989  0.5927 -0.0756
 2036SOL    HW117741   2.097   0.999  11.131 -0.2848  0.4331  0.9698
 2036SOL    HW217742   1.976   1.009  11.211 -1.6793 -1.0059 -0.1416
 2037SOL     OW17743   4.677   4.252   5.068  0.1235  0.0085 -0.1896
 2037SOL    HW117744   4.671   4.289   5.156 -1.7634 -2.2719  0.6513
 2037SOL    HW217745   4.621   4.176   5.081 -2.2147  1.5748 -0.9349
 2038SOL     OW17746   2.890   1.338   2.519  0.3486 -0.1783 -1.0840
 2038SOL    HW117747   2.943   1.298   2.587  0.2437 -2.0866 -2.1429
 2038SOL    HW217748   2.952   1.332   2.447 -0.7671  1.9293 -2.2339
 2039SOL     OW17749   0.099   4.600   3.177  1.0461  0.0861  0.1667
 2039SOL    HW117750   0.112   4.553   3.094 -0.2160  1.6211 -0.9021
 2039SOL    HW217751   0.121   4.525   3.232 -1.4641 -1.0253 -0.3451
 2040SOL     OW17752   4.222   0.282  15.670  0.3291  0.0273 -0.0882
 2040SOL    HW117753   4.309   0.295  15.634  0.9464  0.3765  1.5407
 2040SOL    HW217754   4.165   0.324  15.606 -0.1351 -2.1933 -1.1576
 2041SOL     OW17755   4.359   4.226   2.424 -0.4889  0.5878  0.2231
 2041SOL    HW117756   4.450   4.211   2.449 -0.5355  2.6870  1.6348
 2041SOL    HW217757   4.308   4.218   2.505  1.3622  1.1170  1.4255
 2042SOL     OW17758   0.588   2.228   8.163  0.2270  0.6569 -1.0598
 2042SOL    HW117759   0.649   2.286   8.116 -0.1531  0.5469 -1.6935
 2042SOL    HW217760   0.528   2.195   8.096 -1.1508  1.0312 -0.0071
 2043SOL     OW17761   1.120   0.504   9.067  0.1243 -0.1267  0.0539
 2043SOL    HW117762   1.171   0.561   9.124  0.7051 -0.6951  0.1089
 2043SOL    HW217763   1.087   0.443   9.133  0.6756  0.4870  0.8899
 2044SOL     OW17764   3.034   3.625   3.353 -0.1616  0.1304  0.4614
 2044SOL    HW117765   2.986   3.566   3.295  0.7684  0.5684 -0.7615
 2044SOL    HW217766   2.970   3.670   3.408  1.6054  2.7534  0.3876
 2045SOL     OW17767   2.776   1.586   9.012 -0.2720 -0.7059 -0.0633
 2045SOL    HW117768   2.817   1.503   8.989  0.4329 -0.4664  0.3306
 2045SOL    HW217769   2.725   1.612   8.935 -1.9471 -0.5612  1.1035
 2046SOL     OW17770   1.236   1.071   6.003 -0.4301  0.4108  0.6179
 2046SOL    HW117771   1.199   1.159   6.001 -1.3927 -0.0696 -1.7770
 2046SOL    HW217772   1.164   1.031   6.053 -1.9020  0.1787 -1.7048
 2047SOL     OW17773   4.090   0.248  10.878 -0.2591 -0.5294 -0.5043
 2047SOL    HW117774   4.022   0.304  10.915  2.6584  4.3400 -2.5976
 2047SOL    HW217775   4.148   0.234  10.953 -0.8091 -0.2979 -0.0372
 2048SOL     OW17776   0.188   4.366   3.303 -0.2585 -0.0834  0.1687
 2048SOL    HW117777   0.229   4.291   3.260  0.2349  0.9817 -1.2016
 2048SOL    HW217778   0.237   4.394   3.380 -2.3099  0.4400  1.3074
 2049SOL     OW17779   3.663   1.207   0.740  0.4634  0.1966  0.5570
 2049SOL    HW117780   3.618   1.129   0.771  2.5256 -1.4043 -0.4517
 2049SOL    HW217781   3.689   1.253   0.819  1.2106  1.0192 -0.1671
 2050SOL     OW17782   1.352   0.993   4.997  0.0611  0.1493 -0.2387
 2050SOL    HW117783   1.364   1.005   4.903  1.6071  1.9210  0.1928
 2050SOL    HW217784   1.443   0.993   5.026 -0.6894  0.5395  2.1505
 2051SOL     OW17785   0.784   3.961   5.352 -0.4632  0.3701  0.0803
 2051SOL    HW117786   0.793   4.049   5.389  1.1389  0.5158 -0.6490
 2051SOL    HW217787   0.742   3.980   5.268 -1.6886 -2.0191  0.1621
 2052SOL     OW17788   1.810   3.443  15.393 -0.0175  0.0569  0.1873
 2052SOL    HW117789   1.807   3.351  15.419 -0.0466 -0.3746 -1.3324
 2052SOL    HW217790   1.775   3.492  15.467 -2.1289 -0.7190 -0.2833
 2053SOL     OW17791   4.590   2.550  12.787 -0.8075  0.1843  0.3584
 2053SOL    HW117792   4.628   2.583  12.705 -1.3359 -0.4330 -0.1408
 2053SOL    HW217793   4.624   2.610  12.853  1.2907 -1.2174  0.5472
 2054SOL     OW17794   2.703   4.554   6.761  0.7733  0.3754 -0.1255
 2054SOL    HW117795   2.750   4.491   6.706 -0.3343 -0.5480 -0.0017
 2054SOL    HW217796   2.767   4.572   6.831  0.7425 -0.1111  0.0319
 2055SOL     OW17797   3.462   4.097   3.172 -1.0336  0.3411 -0.1109
 2055SOL    HW117798   3.528   4.097   3.241 -1.1078  2.7389 -0.0380
 2055SOL    HW217799   3.506   4.055   3.097 -1.5637  0.9294 -0.7523
 2056SOL     OW17800   2.111   1.650  13.079 -0.3856  0.4759  0.0381
 2056SOL    HW117801   2.036   1.710  13.080 -0.6073  0.1803  1.3805
 2056SOL    HW217802   2.066   1.577  13.037 -1.7620  1.7987 -0.8185
 2057SOL     OW17803   4.602   0.670   8.481 -0.3182 -0.6535 -0.3850
 2057SOL    HW117804   4.623   0.614   8.406  0.0835 -1.2488  0.1681
 2057SOL    HW217805   4.543   0.733   8.439  0.4370  1.2592  1.4497
 2058SOL     OW17806   2.949   3.341   5.510 -0.0020  0.1839  0.3156
 2058SOL    HW117807   2.975   3.428   5.540  0.6726  0.2366 -0.4271
 2058SOL    HW217808   3.031   3.312   5.472  0.9653  2.4668  0.6659
 2059SOL     OW17809   2.327   2.305   5.269 -0.0864  0.0985 -0.1839
 2059SOL    HW117810   2.375   2.387   5.286  0.9678 -0.8333  1.2946
 2059SOL    HW217811   2.338   2.265   5.355 -2.0736 -3.9524 -1.7965
 2060SOL     OW17812   1.782   2.954   1.313 -0.2455  0.7776  0.8138
 2060SOL    HW117813   1.714   3.015   1.285 -1.1295 -0.0228  1.2361
 2060SOL    HW217814   1.856   2.989   1.263 -1.2574 -0.3745 -1.5080
 2061SOL     OW17815   3.153   3.260   0.238 -0.2965  0.3081  0.4720
 2061SOL    HW117816   3.173   3.253   0.145 -0.3166 -2.1636  0.6703
 2061SOL    HW217817   3.244   3.273   0.266 -0.3446  0.2424  0.6566
 2062SOL     OW17818   0.482   1.855   4.249  0.6032  0.2716 -0.1765
 2062SOL    HW117819   0.434   1.787   4.200 -0.5275  1.6450 -0.9596
 2062SOL    HW217820   0.402   1.886   4.293  1.1834  0.6420  0.6170
 2063SOL     OW17821   1.282   0.218   7.887 -0.0186 -0.4959 -0.7039
 2063SOL    HW117822   1.281   0.205   7.982  1.9229  1.2614 -0.4490
 2063SOL    HW217823   1.191   0.232   7.861  0.5035  0.6914 -1.8789
 2064SOL     OW17824   0.545   4.490  12.615 -0.2934  0.1602 -0.2194
 2064SOL    HW117825   0.499   4.407  12.631 -0.5736  0.7350  2.0595
 2064SOL    HW217826   0.609   4.466  12.549  1.2414  1.5625  0.7697
 2065SOL     OW17827   3.912   2.796   3.047  0.5287  0.1173 -0.4914
 2065SOL    HW117828   3.849   2.799   3.118 -0.3624  0.6762 -1.3067
 2065SOL    HW217829   3.877   2.732   2.986  1.7399 -1.5654  0.6007
 2066SOL     OW17830   3.580   0.685  13.405 -0.2220  0.1691 -0.2556
 2066SOL    HW117831   3.558   0.744  13.477 -0.1258 -0.3823  0.2272
 2066SOL    HW217832   3.562   0.745  13.332 -2.3551 -1.8072 -1.3625
 2067SOL     OW17833   3.486   4.688   4.965  0.5261 -0.1242  0.1151
 2067SOL    HW117834   3.421   4.665   4.900  0.2382  1.5528 -0.1826
 2067SOL    HW217835   3.432   4.679   5.044 -0.6328  1.4220 -0.4995
 2068SOL     OW17836   2.459   4.166   3.124  0.6322  0.2796  0.5032
 2068SOL    HW117837   2.483   4.084   3.167 -1.3220 -0.4508  0.2112
 2068SOL    HW217838   2.418   4.131   3.046  0.5772 -0.3272  0.8047
 2069SOL     OW17839   1.774   4.116   7.102  0.2774  0.4423 -0.1535
 2069SOL    HW117840   1.725   4.122   7.020  0.6691 -3.9450 -0.7252
 2069SOL    HW217841   1.814   4.030   7.088  0.6767  0.3820  1.3578
 2070SOL     OW17842   2.969   1.515   8.704  0.5349 -0.0161 -0.2048
 2070SOL    HW117843   2.906   1.467   8.757  0.3128  1.5493  0.9673
 2070SOL    HW217844   3.049   1.497   8.753  0.8127  1.5806 -0.0497
 2071SOL     OW17845   2.566   1.545   1.832 -0.1472  0.0323 -0.3090
 2071SOL    HW117846   2.614   1.624   1.854 -0.4344 -0.0099  0.5013
 2071SOL    HW217847   2.488   1.554   1.888  0.1391 -0.3493  0.1559
 2072SOL     OW17848   1.434   3.598   7.719  0.3168 -1.0922 -0.2911
 2072SOL    HW117849   1.381   3.552   7.654 -0.4792 -3.5804  2.0820
 2072SOL    HW217850   1.369   3.668   7.723  1.7069  0.2749 -2.2241
 2073SOL     OW17851   1.997   2.852   2.260 -0.1959  0.5575  0.3816
 2073SOL    HW117852   2.071   2.869   2.201  0.8149  1.0624  1.7936
 2073SOL    HW217853   1.950   2.782   2.215  0.7580  0.8052 -1.0186
 2074SOL     OW17854   0.068   0.792  12.322  0.6719  0.2951  0.0939
 2074SOL    HW117855   4.737   0.855  12.344  0.0080 -0.6376  0.6660
 2074SOL    HW217856   0.100   0.771  12.410 -1.4817 -0.9410  0.6025
 2075SOL     OW17857   3.183   4.305   2.577  0.6785 -0.1599 -0.1269
 2075SOL    HW117858   3.174   4.234   2.641  0.4513 -2.8794 -3.1570
 2075SOL    HW217859   3.274   4.288   2.551  0.3146  2.0203 -2.7021
 2076SOL     OW17860   3.680   1.068   9.463  0.0383 -0.0590 -0.0070
 2076SOL    HW117861   3.763   1.048   9.505  0.6105  0.3019 -0.9876
 2076SOL    HW217862   3.614   1.058   9.532  0.8940  1.9795  1.1263
 2077SOL     OW17863   0.517   2.770   7.813 -0.2433  0.0887  0.6723
 2077SOL    HW117864   0.433   2.815   7.820  0.5658  1.5607  0.7595
 2077SOL    HW217865   0.493   2.689   7.768  0.4494  0.0412  0.3812
 2078SOL     OW17866   1.720   3.904   3.457  0.2340  0.7440 -0.8405
 2078SOL    HW117867   1.774   3.892   3.536 -3.1055 -0.8475  1.2123
 2078SOL    HW217868   1.695   3.996   3.464 -1.7371  0.1802 -0.3834
 2079SOL     OW17869   2.640   3.336  14.748  0.1357 -0.0168  0.1429
 2079SOL    HW117870   2.601   3.320  14.834  0.5103 -2.6091 -0.1855
 2079SOL    HW217871   2.629   3.431  14.742  0.1622  0.0834  1.6158
 2080SOL     OW17872   2.135   2.899  17.560 -0.0592  0.4598 -0.0339
 2080SOL    HW117873   2.069   2.908  17.491 -1.1470 -2.2162  0.6670
 2080SOL    HW217874   2.198   2.969  17.540 -2.8113  2.6489 -1.0392
 2081SOL     OW17875   4.140   1.308  17.596 -0.1122 -0.5344  0.0961
 2081SOL    HW117876   4.233   1.329  17.590 -0.0525 -0.0338  2.7657
 2081SOL    HW217877   4.108   1.375  17.656 -2.6483 -2.0861  0.4843
 2082SOL     OW17878   3.437   1.753  16.369 -0.4362  0.2242 -0.5056
 2082SOL    HW117879   3.441   1.689  16.299 -1.2081 -1.6482  1.1755
 2082SOL    HW217880   3.528   1.752  16.399 -1.4510 -1.8471  2.4892
 2083SOL     OW17881   0.047   0.047   4.443 -0.1982 -0.2009 -0.2401
 2083SOL    HW117882   0.087   0.077   4.361 -1.1425 -0.7350 -0.9038
 2083SOL    HW217883   0.093   4.702   4.451 -1.0654 -0.8534 -1.9168
 2084SOL     OW17884   4.584   4.054   3.901 -0.4000  0.2485 -0.5694
 2084SOL    HW117885   4.587   4.004   3.982 -0.0739 -2.3182 -2.1737
 2084SOL    HW217886   4.633   3.990   3.850  0.8894  0.9969 -0.2559
 2085SOL     OW17887   3.662   1.099   8.268 -0.6316 -0.4692 -0.0250
 2085SOL    HW117888   3.674   1.065   8.357  1.2612  0.3986  0.0441
 2085SOL    HW217889   3.694   1.188   8.283 -1.4864 -0.4842  1.9849
 2086SOL     OW17890   2.991   0.863  17.328 -0.2820 -0.3410  0.1472
 2086SOL    HW117891   2.949   0.795  17.381 -1.3581 -1.5098 -2.2065
 2086SOL    HW217892   3.067   0.880  17.384 -1.1245  1.6821  0.6539
 2087SOL     OW17893   2.368   1.806   8.567  0.0642 -0.0606  0.3902
 2087SOL    HW117894   2.358   1.847   8.481 -1.2604 -0.3514  0.3970
 2087SOL    HW217895   2.461   1.814   8.585 -0.0719  0.9150  0.6313
 2088SOL     OW17896   4.608   1.227   0.205 -0.0875  0.1078  0.1371
 2088SOL    HW117897   4.556   1.182   0.272 -1.0220 -1.2357 -1.4743
 2088SOL    HW217898   4.577   1.315   0.228  2.6934  0.6722  1.6490
 2089SOL     OW17899   2.980   4.016   8.781 -0.0998  0.1754  0.0325
 2089SOL    HW117900   2.933   4.091   8.817  1.9226  1.6545 -0.3910
 2089SOL    HW217901   3.051   4.013   8.845 -0.2916 -3.3022  0.0682
 2090SOL     OW17902   3.705   3.095   0.831 -0.0834  0.2991 -0.6218
 2090SOL    HW117903   3.709   3.118   0.739 -0.1093 -1.5690 -1.0922
 2090SOL    HW217904   3.700   3.001   0.813  0.7112  0.1961 -0.3155
 2091SOL     OW17905   3.736   1.582   8.822  0.0059 -0.3406  0.5345
 2091SOL    HW117906   3.820   1.620   8.847  0.3358 -0.3130 -0.6212
 2091SOL    HW217907   3.731   1.503   8.875  1.8965 -2.2924 -2.1718
 2092SOL     OW17908   2.667   0.078   7.054  0.4731 -0.0293 -0.0789
 2092SOL    HW117909   2.641   0.080   7.146  2.2172 -0.5192  0.4210
 2092SOL    HW217910   2.691   0.168   7.032  0.0178  0.6661  2.2729
 2093SOL     OW17911   1.250   2.451   6.767  0.0308 -0.5662 -0.1136
 2093SOL    HW117912   1.283   2.361   6.771 -0.0190 -0.5800 -0.0248
 2093SOL    HW217913   1.184   2.439   6.699 -1.1115  2.2447  0.5131
 2094SOL     OW17914   3.951   2.410   1.995  0.4242 -0.3134 -0.3148
 2094SOL    HW117915   4.033   2.390   2.040 -0.2367 -1.5646  0.3239
 2094SOL    HW217916   3.983   2.478   1.935 -0.2688  0.7948  0.5816
 2095SOL     OW17917   0.573   4.225   8.675 -0.1446 -0.2423  0.3684
 2095SOL    HW117918   0.653   4.175   8.692  0.8219  1.9234  2.1083
 2095SOL    HW217919   0.501   4.163   8.678 -0.3740  0.2206  4.2620
 2096SOL     OW17920   4.667   1.197  16.326  0.1520  0.0099 -0.5463
 2096SOL    HW117921   4.699   1.115  16.289  1.5001  0.9851 -1.4976
 2096SOL    HW217922   4.575   1.178  16.345  1.2695 -0.8704  3.9082
 2097SOL     OW17923   1.372   1.948   3.257 -0.3443  0.6240  1.1060
 2097SOL    HW117924   1.283   1.982   3.250  0.5395  2.3694 -1.5458
 2097SOL    HW217925   1.368   1.861   3.217 -1.7080  0.4254  1.6688
 2098SOL     OW17926   4.232   4.391   1.458  1.0338 -0.6869  0.4308
 2098SOL    HW117927   4.148   4.434   1.442  1.1878  0.2487  2.1986
 2098SOL    HW217928   4.250   4.404   1.551 -0.6759 -1.1653  0.8267
 2099SOL     OW17929   4.338   3.852   4.297  0.0281  0.1517  0.5938
 2099SOL    HW117930   4.338   3.757   4.284 -2.2131  0.3684 -0.9444
 2099SOL    HW217931   4.399   3.876   4.229  1.3773 -2.5804  0.8329
 2100SOL     OW17932   2.101   3.249   6.199  0.0862  0.4519 -0.2656
 2100SOL    HW117933   2.036   3.192   6.157 -1.3312  1.7615  0.1440
 2100SOL    HW217934   2.101   3.202   6.282  1.7394  0.9684  0.0107
 2101SOL     OW17935   3.715   4.034   2.462  0.3549  0.5521  0.5435
 2101SOL    HW117936   3.743   4.022   2.553  2.8450 -0.4945 -0.3581
 2101SOL    HW217937   3.738   3.951   2.420  0.3010  0.3978  0.8208
 2102SOL     OW17938   2.872   1.170   1.663  0.5146 -0.3215  0.1992
 2102SOL    HW117939   2.916   1.085   1.667  1.3904  0.1590  0.8084
 2102SOL    HW217940   2.787   1.143   1.630  0.7823 -2.9528  1.6986
 2103SOL     OW17941   4.022   4.182   2.402 -0.6196 -0.0945 -0.3853
 2103SOL    HW117942   4.071   4.163   2.483  2.2861  1.1597 -1.8294
 2103SOL    HW217943   4.028   4.099   2.355 -0.5127 -0.1918 -0.2020
 2104SOL     OW17944   0.540   2.643   9.748  0.2968 -0.9272 -0.9426
 2104SOL    HW117945   0.474   2.575   9.733 -2.1898  1.4153 -0.6628
 2104SOL    HW217946   0.603   2.629   9.677  0.4546 -0.3798 -0.9151
 2105SOL     OW17947   4.437   4.569   3.214  0.6550 -0.1775 -0.7613
 2105SOL    HW117948   4.472   4.565   3.125 -0.1488  0.8237 -1.1126
 2105SOL    HW217949   4.342   4.574   3.206  0.7866 -0.2605 -2.3097
 2106SOL     OW17950   2.031   4.295   6.879  0.4003  0.1687  0.7866
 2106SOL    HW117951   2.047   4.314   6.971  1.1208 -0.1164  0.7213
 2106SOL    HW217952   1.960   4.232   6.889 -0.6369  1.3234  0.6454
 2107SOL     OW17953   4.554   0.412   2.590 -0.1803  0.4876  0.2156
 2107SOL    HW117954   4.548   0.441   2.681  0.8873 -0.9099  0.7225
 2107SOL    HW217955   4.592   0.326   2.607  1.5906  0.9298 -1.4680
 2108SOL     OW17956   1.788   3.462   8.366  0.7152 -0.2041  0.2341
 2108SOL    HW117957   1.706   3.475   8.413 -0.5283 -2.3312 -1.3688
 2108SOL    HW217958   1.798   3.545   8.319  0.4390 -0.7586 -0.7809
 2109SOL     OW17959   4.513   0.383  13.238 -0.6841  0.1145  0.3318
 2109SOL    HW117960   4.586   0.430  13.199 -0.7285  0.1649  0.3094
 2109SOL    HW217961   4.505   0.425  13.323 -1.0848  0.4741  0.1177
 2110SOL     OW17962   1.400   0.531   4.106  0.4661 -0.2693 -0.2403
 2110SOL    HW117963   1.414   0.600   4.170 -0.6387  0.2670 -0.5739
 2110SOL    HW217964   1.420   0.450   4.153  0.6444 -0.5750 -0.8501
 2111SOL     OW17965   3.521   3.503   3.790 -0.2253 -0.1444  0.3742
 2111SOL    HW117966   3.479   3.568   3.733  0.1301 -0.3891 -0.1692
 2111SOL    HW217967   3.497   3.534   3.877 -1.8148  1.0087 -0.4770
 2112SOL     OW17968   1.976   1.900  17.425 -0.0957 -0.0422  0.3299
 2112SOL    HW117969   1.930   1.817  17.416  0.9087 -0.4461 -0.9299
 2112SOL    HW217970   1.993   1.922  17.333  2.3744 -2.1066  0.3168
 2113SOL     OW17971   1.998   0.590   1.609 -0.2135 -0.2158  0.2011
 2113SOL    HW117972   1.970   0.681   1.616  0.6518 -0.1300  2.6228
 2113SOL    HW217973   1.918   0.543   1.635 -0.5398  0.5210  0.5205
 2114SOL     OW17974   4.125   1.329  11.922 -0.7142 -0.8888  0.1189
 2114SOL    HW117975   4.167   1.364  12.001  2.2909  0.9061 -2.3233
 2114SOL    HW217976   4.030   1.342  11.928 -0.4547  1.3094 -0.4577
 2115SOL     OW17977   1.833   2.258   9.572 -0.4811  0.1166 -0.2054
 2115SOL    HW117978   1.845   2.353   9.580  1.4645 -0.0630 -0.8628
 2115SOL    HW217979   1.740   2.246   9.555 -0.9029  0.0368  2.1779
 2116SOL     OW17980   2.096   0.096  14.032  0.0951  0.2646  0.0113
 2116SOL    HW117981   2.049   0.151  14.095  0.1943 -0.9440  1.1585
 2116SOL    HW217982   2.092   0.007  14.069  0.5754  0.7507  1.2391
 2117SOL     OW17983   0.493   3.504   4.659  0.0297  0.2346  0.1710
 2117SOL    HW117984   0.515   3.440   4.727 -1.6598 -0.6405 -0.0907
 2117SOL    HW217985   0.512   3.457   4.577 -2.0360  0.8708 -0.6650
 2118SOL     OW17986   3.744   3.389   6.971  0.4743 -0.4079 -0.1407
 2118SOL    HW117987   3.759   3.474   6.930  0.5630 -0.5934 -0.4887
 2118SOL    HW217988   3.834   3.357   6.975  1.2781  1.5641 -3.0205
 2119SOL     OW17989   0.987   3.403   3.846 -0.3112  0.2619 -0.2598
 2119SOL    HW117990   0.965   3.496   3.844 -0.2369  0.3359  2.1509
 2119SOL    HW217991   1.077   3.416   3.818  0.4931 -0.7034  1.8422
 2120SOL     OW17992   1.657   4.216   4.133 -0.2261 -0.0435  0.2039
 2120SOL    HW117993   1.684   4.304   4.107  2.5606 -1.3016 -1.1527
 2120SOL    HW217994   1.718   4.163   4.082  1.1534  0.4160  1.4049
 2121SOL     OW17995   0.454   0.439   9.800  0.0987 -0.2452 -0.5897
 2121SOL    HW117996   0.440   0.440   9.894 -1.4352  2.0089 -0.8488
 2121SOL    HW217997   0.409   0.358   9.780 -1.5377  0.6190 -0.3787
 2122SOL     OW17998   2.199   4.707  12.198 -0.0444 -0.1883  0.0421
 2122SOL    HW117999   2.180   4.693  12.105  0.8286 -0.4283 -0.0936
 2122SOL    HW218000   2.238   4.622  12.218  2.0165  1.1323  1.5542
 2123SOL     OW18001   0.326   3.397   2.940 -0.2003  0.1047  0.5154
 2123SOL    HW118002   0.315   3.491   2.924 -0.2182  0.1303  0.6831
 2123SOL    HW218003   0.255   3.361   2.886  1.6169 -2.3159 -0.2520
 2124SOL     OW18004   0.597   0.718   2.537  0.4339 -0.1059  0.0634
 2124SOL    HW118005   0.651   0.677   2.605  0.4104 -0.7456 -0.3069
 2124SOL    HW218006   0.585   0.649   2.471 -1.7551  1.4514 -1.1556
 2125SOL     OW18007   3.668   2.434  10.802 -0.0275  0.4564  0.0336
 2125SOL    HW118008   3.580   2.461  10.775  0.0262  0.4419 -0.1543
 2125SOL    HW218009   3.676   2.468  10.891  2.1014 -2.1866  0.8612
 2126SOL     OW18010   3.864   4.016  13.320  0.4285 -0.0727 -0.2868
 2126SOL    HW118011   3.905   4.016  13.233 -1.7383  2.9691 -1.3011
 2126SOL    HW218012   3.850   4.110  13.325 -3.0385 -0.5173 -1.6935
 2127SOL     OW18013   4.485   2.962   7.297 -0.4710 -0.1713 -0.2042
 2127SOL    HW118014   4.434   2.976   7.217 -2.1477 -2.9000  0.3909
 2127SOL    HW218015   4.466   2.872   7.323 -1.1127 -0.2938 -1.0878
 2128SOL     OW18016   3.656   3.961   4.340 -0.4355 -0.0132  0.7252
 2128SOL    HW118017   3.734   3.971   4.284 -1.7835  0.8162 -1.0223
 2128SOL    HW218018   3.624   4.051   4.343  0.4511  0.2925  1.0712
 2129SOL     OW18019   4.056   1.500   4.247  0.0920  0.2566  0.2543
 2129SOL    HW118020   3.981   1.459   4.204 -0.3083 -0.9182  2.0535
 2129SOL    HW218021   4.066   1.581   4.198 -1.3641 -1.0001 -2.1680
 2130SOL     OW18022   4.385   2.089   5.015  0.0318 -0.0329  0.1011
 2130SOL    HW118023   4.294   2.061   5.013  0.2772 -0.8257  0.0341
 2130SOL    HW218024   4.381   2.137   4.933 -0.4225 -1.3721 -0.6565
 2131SOL     OW18025   4.481   1.836   5.803  0.2393  0.1190 -0.1535
 2131SOL    HW118026   4.569   1.850   5.836  1.2648 -1.4191 -2.1891
 2131SOL    HW218027   4.446   1.768   5.861  0.3517  0.5450  0.4110
 2132SOL     OW18028   2.218   0.554   4.606 -0.0033 -0.6463 -0.0104
 2132SOL    HW118029   2.187   0.569   4.696  0.1087 -2.4512  0.3249
 2132SOL    HW218030   2.293   0.613   4.596 -1.9192  1.8112  0.0657
 2133SOL     OW18031   0.571   3.251  13.007  0.4425  0.4212 -0.1903
 2133SOL    HW118032   0.624   3.331  12.996  1.3443 -0.2562 -0.8113
 2133SOL    HW218033   0.587   3.221  13.097 -0.5008 -1.2552 -0.5991
 2134SOL     OW18034   2.264   2.834   5.131  0.0509  0.2203 -0.3010
 2134SOL    HW118035   2.185   2.886   5.146 -2.1912 -2.4459 -2.9208
 2134SOL    HW218036   2.325   2.863   5.198 -0.2989 -0.2739  0.2337
 2135SOL     OW18037   3.936   2.900   2.459 -0.7719 -0.2272  0.2201
 2135SOL    HW118038   3.916   2.863   2.373  0.1089  0.7101 -0.3806
 2135SOL    HW218039   3.892   2.984   2.444  0.7360  0.6162  0.5137
 2136SOL     OW18040   3.145   2.604  11.496 -0.0629 -0.3262  0.3882
 2136SOL    HW118041   3.226   2.625  11.542  0.1563  0.3416 -0.3252
 2136SOL    HW218042   3.093   2.680  11.523  1.3193  0.7656 -0.0723
 2137SOL     OW18043   1.881   2.699  17.525  0.0762  0.1212 -0.1139
 2137SOL    HW118044   1.890   2.789  17.494 -0.2425  0.4348  0.7064
 2137SOL    HW218045   1.877   2.663  17.437 -0.5545 -0.9563  0.3558
 2138SOL     OW18046   3.453   0.155  16.708 -0.0326 -0.3130  0.2451
 2138SOL    HW118047   3.471   0.093  16.779  0.1878 -0.8470 -0.2784
 2138SOL    HW218048   3.525   0.134  16.648  0.0330 -0.8907  0.5224
 2139SOL     OW18049   1.371   4.273   8.973  0.1507  0.8389 -0.7734
 2139SOL    HW118050   1.381   4.281   9.068  1.0368  2.1131 -0.9741
 2139SOL    HW218051   1.446   4.325   8.943  0.2274  1.4846  0.5184
 2140SOL     OW18052   3.878   3.681   5.447  0.1625 -0.2635 -0.0847
 2140SOL    HW118053   3.822   3.610   5.478  1.6041 -1.3267  0.1210
 2140SOL    HW218054   3.959   3.640   5.415  0.2448 -1.2110  1.3327
 2141SOL     OW18055   1.538   2.809   5.848 -0.1383  0.0752 -0.0200
 2141SOL    HW118056   1.568   2.799   5.757  1.7745 -1.6958  0.8008
 2141SOL    HW218057   1.562   2.729   5.895 -0.0519  0.0643 -0.0822
 2142SOL     OW18058   0.301   4.212  10.349 -0.4724 -0.0130 -0.1462
 2142SOL    HW118059   0.281   4.175  10.435  2.6696  3.0669  1.9196
 2142SOL    HW218060   0.397   4.215  10.358 -0.5206 -2.8515  1.2155
 2143SOL     OW18061   3.982   0.763   2.494  0.1201 -0.0376 -0.0764
 2143SOL    HW118062   4.028   0.819   2.556  0.1133  0.5441 -0.5991
 2143SOL    HW218063   3.959   0.683   2.542 -0.3180  0.4403  0.4962
 2144SOL     OW18064   0.677   2.761   6.716 -0.4151 -0.6095  0.5077
 2144SOL    HW118065   0.717   2.682   6.752  1.6828  0.2560  0.0699
 2144SOL    HW218066   0.664   2.745   6.623 -0.8196 -2.6238  0.9133
 2145SOL     OW18067   1.277   3.807  17.309 -0.1791 -0.3897  0.4362
 2145SOL    HW118068   1.233   3.756  17.377  2.4365 -2.4707  0.5891
 2145SOL    HW218069   1.221   3.884  17.316  1.6192  1.1320 -1.7713
 2146SOL     OW18070   4.163   0.029   5.939  0.2346 -0.2879 -0.0029
 2146SOL    HW118071   4.085   4.734   5.985  1.3665 -1.5633  1.0130
 2146SOL    HW218072   4.206   4.682   5.947  2.1570  0.7772  0.8094
 2147SOL     OW18073   1.092   2.491   8.126 -0.2838  0.2014  0.4095
 2147SOL    HW118074   1.155   2.440   8.076  0.9784  2.4988 -0.3263
 2147SOL    HW218075   1.152   2.565   8.140 -2.3338  1.8330  0.5553
 2148SOL     OW18076   2.086   2.132   6.391 -0.4173  0.2731  0.9170
 2148SOL    HW118077   2.035   2.188   6.450 -1.0327  3.4549 -2.5833
 2148SOL    HW218078   2.161   2.131   6.450  0.3584  1.3706 -0.0503
 2149SOL     OW18079   2.627   1.699   9.257  0.6063 -0.0666 -0.1199
 2149SOL    HW118080   2.642   1.633   9.189  0.2964  0.5716 -0.8141
 2149SOL    HW218081   2.605   1.776   9.205  1.5633 -0.3706 -0.9810
 2150SOL     OW18082   4.432   2.123   1.054 -0.2401 -0.0250  0.5942
 2150SOL    HW118083   4.517   2.090   1.025 -0.0474  2.0765 -1.2655
 2150SOL    HW218084   4.442   2.120   1.149  0.7695  1.2858  0.5397
 2151SOL     OW18085   0.479   3.664   2.497 -0.0284  0.1922  0.6679
 2151SOL    HW118086   0.401   3.615   2.523 -1.1030  0.3962 -2.1691
 2151SOL    HW218087   0.534   3.589   2.474 -1.3305 -0.5769  0.0096
 2152SOL     OW18088   4.718   4.165   8.207  0.3168  0.5976 -0.0272
 2152SOL    HW118089   0.033   4.155   8.127 -1.4929 -0.7815 -1.0400
 2152SOL    HW218090   0.024   4.238   8.250  2.9366 -0.7156 -0.4627
 2153SOL     OW18091   1.083   1.265   5.608 -0.5013 -0.0055  0.3410
 2153SOL    HW118092   0.991   1.242   5.619 -0.3845 -0.4764  0.3378
 2153SOL    HW218093   1.110   1.209   5.535 -1.5325 -0.1264  0.0546
 2154SOL     OW18094   0.297   1.179   3.685  0.3601  0.0293  0.1276
 2154SOL    HW118095   0.327   1.264   3.652 -0.6166  0.2615 -0.1612
 2154SOL    HW218096   0.383   1.144   3.711  0.1964  1.8552  3.0571
 2155SOL     OW18097   4.205   2.006  13.515 -0.4094  0.3317  0.1638
 2155SOL    HW118098   4.115   2.031  13.536 -1.3224 -2.8690  0.0371
 2155SOL    HW218099   4.214   2.044  13.427  0.0034  2.0948  0.9755
 2156SOL     OW18100   2.855   0.410   2.443  0.0939  0.0781 -0.2923
 2156SOL    HW118101   2.940   0.445   2.469 -0.6474  0.9546  0.9198
 2156SOL    HW218102   2.878   0.355   2.368  0.8682  1.2488 -0.9005
 2157SOL     OW18103   0.970   0.227   6.704  0.6520  1.1423  0.4219
 2157SOL    HW118104   0.944   0.256   6.617 -1.4775 -1.0435  0.3019
 2157SOL    HW218105   0.881   0.248   6.735  0.6881  1.6774  0.1601
 2158SOL     OW18106   1.608   4.637  17.459 -0.0719  0.0839  1.0011
 2158SOL    HW118107   1.566   4.713  17.500 -1.3323  0.8833 -1.7918
 2158SOL    HW218108   1.692   4.621  17.502 -0.8176 -0.7423  2.1588
 2159SOL     OW18109   4.326   3.592   4.341  0.4305  0.7939 -0.0419
 2159SOL    HW118110   4.259   3.533   4.376  1.3283 -0.5098 -0.5282
 2159SOL    HW218111   4.397   3.529   4.334 -1.6535 -1.4940 -0.5695
 2160SOL     OW18112   4.299   1.671  11.103 -0.2563  0.1448  0.4843
 2160SOL    HW118113   4.216   1.626  11.092  0.1590 -0.0556 -1.7049
 2160SOL    HW218114   4.339   1.606  11.161 -0.4181  0.6187  1.1335
 2161SOL     OW18115   2.459   1.220   5.192  0.5288  0.1883  0.1938
 2161SOL    HW118116   2.457   1.262   5.277 -0.3931  2.4897 -0.9658
 2161SOL    HW218117   2.394   1.277   5.149 -0.6909 -0.7258  0.8134
 2162SOL     OW18118   2.634   3.681  14.221  0.3238  0.5136  0.4282
 2162SOL    HW118119   2.656   3.669  14.128  1.0034 -0.8175  0.7571
 2162SOL    HW218120   2.703   3.739  14.254 -1.5500  2.6849  0.5066
 2163SOL     OW18121   1.871   2.552   2.818  0.1306  0.3534 -0.1965
 2163SOL    HW118122   1.904   2.471   2.778 -1.2939 -0.0199 -0.6088
 2163SOL    HW218123   1.959   2.589   2.829  0.3105 -0.6927  1.9334
 2164SOL     OW18124   1.414   0.688   4.339 -0.0763  0.4405 -0.5110
 2164SOL    HW118125   1.356   0.764   4.340 -0.1223  0.4071 -0.6001
 2164SOL    HW218126   1.500   0.723   4.316 -0.9171  3.5656  1.2584
 2165SOL     OW18127   4.084   1.568   5.280 -0.0542  0.0311 -0.2525
 2165SOL    HW118128   4.129   1.489   5.250  0.4867  0.0719  0.4623
 2165SOL    HW218129   4.159   1.624   5.264 -1.0999  1.3728 -0.4715
 2166SOL     OW18130   1.196   3.637  15.164  0.8964  0.0978  0.6451
 2166SOL    HW118131   1.132   3.567  15.175 -1.4588  1.9499 -1.2553
 2166SOL    HW218132   1.215   3.645  15.071 -0.9456  0.5018  0.3000
 2167SOL     OW18133   2.800   3.426   7.544 -0.3562  0.5149 -0.3464
 2167SOL    HW118134   2.810   3.358   7.610 -1.0872  0.0117 -0.7519
 2167SOL    HW218135   2.890   3.443   7.517  0.3835 -2.0457  0.5601
 2168SOL     OW18136   2.852   1.787   3.224  0.1351  0.0232 -0.1784
 2168SOL    HW118137   2.768   1.745   3.237  0.5523 -0.4209  1.1524
 2168SOL    HW218138   2.901   1.758   3.301 -2.3565  1.3097  1.8708
 2169SOL     OW18139   3.005   2.140   2.302  0.0438 -0.4119  0.1479
 2169SOL    HW118140   2.942   2.077   2.265 -0.0736  0.4255 -1.0623
 2169SOL    HW218141   2.964   2.162   2.386 -1.6562 -2.2051 -0.1942
 2170SOL     OW18142   0.703   0.984  15.198 -0.4418 -0.2637 -0.3715
 2170SOL    HW118143   0.768   0.995  15.129 -0.4439  2.2704  0.0143
 2170SOL    HW218144   0.713   0.896  15.234 -1.6793  0.1347  0.9582
 2171SOL     OW18145   4.265   1.867   7.730  0.2607  0.4240 -0.1535
 2171SOL    HW118146   4.255   1.824   7.815  0.4820 -1.2950 -0.9974
 2171SOL    HW218147   4.290   1.787   7.685  1.6971  2.2121 -2.5200
 2172SOL     OW18148   2.788   1.049   2.786 -0.0995 -0.5527  0.1354
 2172SOL    HW118149   2.851   1.099   2.734  0.0243 -0.6122  0.2291
 2172SOL    HW218150   2.785   1.094   2.871  1.3679  1.6061 -0.9657
 2173SOL     OW18151   3.636   4.501   3.829  0.2355  0.0061  0.4834
 2173SOL    HW118152   3.572   4.453   3.881 -2.0859  1.8458 -0.6747
 2173SOL    HW218153   3.594   4.522   3.746  1.9116 -2.0207 -0.8719
 2174SOL     OW18154   4.314   4.460   2.014  0.1242 -0.1258  0.7372
 2174SOL    HW118155   4.384   4.519   2.043 -0.2486  0.0681  1.2403
 2174SOL    HW218156   4.319   4.389   2.078  0.0539  1.5339  2.5829
 2175SOL     OW18157   2.297   1.051   3.904  0.6943  0.2836 -0.5177
 2175SOL    HW118158   2.297   1.109   3.827 -1.8481  1.2240  0.2047
 2175SOL    HW218159   2.209   1.081   3.927 -0.2592 -0.4649 -3.1309
 2176SOL     OW18160   1.451   4.347   7.581  0.3382  0.7298  0.0813
 2176SOL    HW118161   1.396   4.411   7.627  1.4835  0.5316  1.7083
 2176SOL    HW218162   1.416   4.259   7.599  1.7317 -0.4502 -3.0563
 2177SOL     OW18163   4.298   1.162  11.482  0.3156 -0.4587  0.5482
 2177SOL    HW118164   4.383   1.122  11.496  1.0458  0.5806 -0.9783
 2177SOL    HW218165   4.300   1.236  11.542 -0.7322  0.5073 -0.5880
 2178SOL     OW18166   2.989   3.295  12.319 -0.4098  0.1801  0.0062
 2178SOL    HW118167   3.043   3.218  12.304 -1.2137 -0.3215 -0.3154
 2178SOL    HW218168   2.994   3.332  12.231  1.4285 -0.0850 -0.0037
 2179SOL     OW18169   2.079   2.938  14.439  0.0054  0.0712 -0.3941
 2179SOL    HW118170   2.010   2.928  14.372  0.6457 -0.6830 -0.9336
 2179SOL    HW218171   2.033   2.899  14.513 -2.9414  0.1123 -2.1764
 2180SOL     OW18172   4.726   1.021   1.784  0.0317 -0.0388  0.2680
 2180SOL    HW118173   0.050   0.958   1.749 -0.2891  0.7260 -1.7112
 2180SOL    HW218174   0.040   1.066   1.850  0.5157 -2.4049  1.5173
 2181SOL     OW18175   1.751   3.900   4.640 -0.6056 -0.1952 -0.0650
 2181SOL    HW118176   1.759   3.958   4.565 -0.9535  1.2781  1.0350
 2181SOL    HW218177   1.664   3.863   4.625 -1.0642  1.1277 -0.6809
 2182SOL     OW18178   2.354   3.031   6.297  0.1592 -0.2327 -0.0832
 2182SOL    HW118179   2.282   3.078   6.339 -0.3170  0.9760 -2.3006
 2182SOL    HW218180   2.380   3.092   6.228 -2.6506 -1.5683 -2.2891
 2183SOL     OW18181   0.756   0.735   7.772  0.2370  0.1183  0.0898
 2183SOL    HW118182   0.787   0.699   7.855 -0.2269 -0.4759  0.0049
 2183SOL    HW218183   0.778   0.827   7.787  2.7597 -0.2766 -1.2679
 2184SOL     OW18184   3.292   3.955  15.087  0.2560 -0.3164 -0.2084
 2184SOL    HW118185   3.286   4.034  15.142  1.6088  0.0375 -0.5692
 2184SOL    HW218186   3.284   3.994  15.000 -1.3104  1.6275  0.8051
 2185SOL     OW18187   4.570   4.560  13.547 -0.5619 -0.2358 -0.0406
 2185SOL    HW118188   4.520   4.596  13.474  1.0500 -1.7187 -1.8682
 2185SOL    HW218189   4.533   4.472  13.554 -0.6181 -0.2481 -0.5020
 2186SOL     OW18190   2.947   2.513   4.430  0.2338 -0.0064  0.0696
 2186SOL    HW118191   2.992   2.565   4.496  2.7332 -1.0989 -0.7526
 2186SOL    HW218192   2.894   2.469   4.496  2.9738 -0.9267  1.6925
 2187SOL     OW18193   1.494   1.319  10.180  0.1765  0.5514  0.5438
 2187SOL    HW118194   1.435   1.395  10.185 -1.0815 -0.5240  1.7438
 2187SOL    HW218195   1.509   1.302  10.272  1.0756 -0.4366  0.2028
 2188SOL     OW18196   0.102   3.663  11.948 -0.0809  0.3647 -0.3576
 2188SOL    HW118197   0.157   3.654  11.871  0.0944  0.5972 -0.2601
 2188SOL    HW218198   0.176   3.677  12.007  0.0903  1.8427 -0.9189
 2189SOL     OW18199   0.689   3.030  11.890 -0.4434  0.2510  0.6849
 2189SOL    HW118200   0.640   3.110  11.872 -0.4174  0.4674  1.5753
 2189SOL    HW218201   0.632   2.983  11.951 -2.3876 -0.8328 -1.9959
 2190SOL     OW18202   0.205   0.277   7.799  0.2218  0.9981 -0.3976
 2190SOL    HW118203   0.141   0.258   7.868  0.4779 -1.3080 -0.7824
 2190SOL    HW218204   0.152   0.326   7.737  0.4582  1.5593 -0.1592
 2191SOL     OW18205   1.651   2.122   7.646 -0.1821 -0.3233  0.0125
 2191SOL    HW118206   1.576   2.064   7.632 -3.1661  3.1056  1.4906
 2191SOL    HW218207   1.600   2.199   7.673  0.3382  0.7553 -2.1098
 2192SOL     OW18208   4.058   1.772   0.573  0.3684 -0.4132  0.6618
 2192SOL    HW118209   4.020   1.847   0.619  0.0051 -0.0379 -0.2545
 2192SOL    HW218210   4.039   1.803   0.484  0.0505 -0.3082  0.7642
 2193SOL     OW18211   0.127   3.509   9.588 -0.3489  0.3690  0.0294
 2193SOL    HW118212   0.114   3.601   9.564 -0.7450  1.5801  4.8013
 2193SOL    HW218213   0.036   3.483   9.604  0.3036 -1.6128  0.5246
 2194SOL     OW18214   0.210   3.336   7.914 -0.1014 -0.2848  0.0005
 2194SOL    HW118215   0.187   3.425   7.942  0.5567 -0.3341  0.7027
 2194SOL    HW218216   0.304   3.342   7.901 -0.1649  0.1100 -0.2860
 2195SOL     OW18217   3.880   3.991   4.180 -0.4505  0.1151 -0.4955
 2195SOL    HW118218   3.918   3.918   4.132  1.9959  0.2258  1.2816
 2195SOL    HW218219   3.963   4.025   4.214  0.1127 -1.3448 -0.4153
 2196SOL     OW18220   1.601   2.784  13.613  0.3243 -0.3214 -0.6452
 2196SOL    HW118221   1.642   2.848  13.554  2.2799 -0.1572  0.9235
 2196SOL    HW218222   1.509   2.812  13.617  0.6930  0.7231  0.4357
 2197SOL     OW18223   2.135   1.814   0.250  0.0868  0.4498 -0.2502
 2197SOL    HW118224   2.157   1.873   0.177  0.9364  0.1755 -0.2196
 2197SOL    HW218225   2.078   1.756   0.200  0.6010 -2.1834  2.2670
 2198SOL     OW18226   4.688   1.838   2.865  0.4541 -0.1492 -0.2928
 2198SOL    HW118227   4.681   1.836   2.770 -1.0163  0.3175 -0.1901
 2198SOL    HW218228   4.640   1.757   2.878  0.0911  0.2781  1.0360
 2199SOL     OW18229   0.742   0.642  13.842  0.7090 -0.1250 -0.1677
 2199SOL    HW118230   0.704   0.554  13.850  1.8077 -0.7133 -1.3729
 2199SOL    HW218231   0.698   0.676  13.764  1.6152 -0.8351 -0.9808
 2200SOL     OW18232   1.822   3.620  14.145 -0.0226 -0.4975  0.2791
 2200SOL    HW118233   1.864   3.620  14.059  1.3890  0.7182  0.9538
 2200SOL    HW218234   1.736   3.586  14.120  0.2686 -0.5301 -0.6965
 2201SOL     OW18235   3.222   3.418  11.642  0.5701  0.4904  0.1242
 2201SOL    HW118236   3.216   3.507  11.608 -1.4127  0.5523  0.6786
 2201SOL    HW218237   3.287   3.379  11.583  0.3127  1.3962 -0.7630
 2202SOL     OW18238   3.850   3.789   6.040 -0.2535 -0.1028 -0.2482
 2202SOL    HW118239   3.863   3.751   5.953 -0.5871 -2.4243  0.7178
 2202SOL    HW218240   3.880   3.713   6.091  1.4046  0.0428 -1.0181
 2203SOL     OW18241   4.217   2.364   7.852  0.3462 -0.1069 -0.3294
 2203SOL    HW118242   4.310   2.344   7.867  0.1937 -0.2346  0.4404
 2203SOL    HW218243   4.203   2.422   7.927  1.0981 -1.0874  0.5674
 2204SOL     OW18244   0.970   4.511   3.994  0.0540  0.0127  0.5604
 2204SOL    HW118245   1.037   4.530   4.059  0.5736  0.1051 -0.0028
 2204SOL    HW218246   1.005   4.432   3.954  0.6905 -0.0724  1.3028
 2205SOL     OW18247   0.603   0.272  16.070  0.2206 -0.3339  0.0684
 2205SOL    HW118248   0.514   0.302  16.052  0.4958 -0.0486 -0.7885
 2205SOL    HW218249   0.622   0.307  16.157 -0.8691  0.5202 -0.0400
 2206SOL     OW18250   0.121   4.447   1.840  0.6136  0.4495  0.6188
 2206SOL    HW118251   0.041   4.499   1.841  0.4422  0.2064 -0.4322
 2206SOL    HW218252   0.096   4.358   1.814  0.8605  0.3874  0.5904
 2207SOL     OW18253   1.525   4.724   9.924  0.1090 -0.6316 -0.4111
 2207SOL    HW118254   1.577   4.708   9.845  2.6799 -1.4927  1.4364
 2207SOL    HW218255   1.564   0.070   9.949  1.6332 -1.0875 -1.2613
 2208SOL     OW18256   3.694   3.432   7.563  0.2537 -0.2675  0.6500
 2208SOL    HW118257   3.638   3.380   7.622  0.2222  0.0839  0.9320
 2208SOL    HW218258   3.702   3.369   7.492 -0.8001  0.9506 -0.5383
 2209SOL     OW18259   1.028   1.572   6.356 -0.7013 -0.4609 -0.7442
 2209SOL    HW118260   0.991   1.509   6.294 -3.7346 -0.6702  1.2924
 2209SOL    HW218261   1.111   1.528   6.376 -1.2171 -1.1622 -0.1716
 2210SOL     OW18262   2.337   0.028   9.219 -0.1366 -0.2680  0.5372
 2210SOL    HW118263   2.286   0.107   9.202 -0.9634 -1.1966 -1.2992
 2210SOL    HW218264   2.344   4.728   9.131 -3.0822  1.3585 -0.3894
 2211SOL     OW18265   1.916   2.835   8.596  0.2880  0.2389 -0.1258
 2211SOL    HW118266   1.823   2.812   8.592  0.4151 -0.2042 -0.5078
 2211SOL    HW218267   1.905   2.915   8.544 -1.8313  0.2548  0.3412
 2212SOL     OW18268   1.643   3.938   2.698  0.7283  0.0233  0.1390
 2212SOL    HW118269   1.685   3.956   2.782  3.6656 -1.3493 -1.0372
 2212SOL    HW218270   1.615   3.849   2.719 -0.5092  0.2772 -0.4460
 2213SOL     OW18271   0.584   1.708  14.866  0.1027 -0.1357  1.0412
 2213SOL    HW118272   0.618   1.784  14.819 -1.2332  0.1120  0.5092
 2213SOL    HW218273   0.635   1.711  14.948 -0.9691  0.9057  1.6599
 2214SOL     OW18274   0.191   0.530   3.496 -0.1304 -0.7650 -0.6824
 2214SOL    HW118275   0.228   0.456   3.544 -0.6242 -1.0504 -0.7388
 2214SOL    HW218276   0.101   0.500   3.507 -0.0018 -0.1828  1.9666
 2215SOL     OW18277   1.878   3.294   7.817  0.0305  0.4759  0.4392
 2215SOL    HW118278   1.819   3.304   7.891 -0.8234  1.7800 -0.4324
 2215SOL    HW218279   1.934   3.229   7.861 -1.5221 -1.1881 -0.0270
 2216SOL     OW18280   1.712   2.659   6.341 -0.1084 -0.9165 -0.6040
 2216SOL    HW118281   1.703   2.752   6.321  0.3330 -0.5747  0.7742
 2216SOL    HW218282   1.800   2.630   6.365  0.0472  0.6664  0.6891
 2217SOL     OW18283   0.291   3.715  12.131 -0.0964  0.4666 -0.5495
 2217SOL    HW118284   0.371   3.675  12.098 -1.1312 -1.3183 -0.9081
 2217SOL    HW218285   0.286   3.678  12.220  1.4459  0.9079 -0.2800
 2218SOL     OW18286   2.807   0.380   2.901  0.4483 -0.1828 -0.4271
 2218SOL    HW118287   2.809   0.321   2.976 -0.4952 -0.2849 -0.4780
 2218SOL    HW218288   2.816   0.464   2.946 -1.5574 -0.2334  0.0893
 2219SOL     OW18289   3.825   1.375   4.920  0.0209 -0.2003  0.6437
 2219SOL    HW118290   3.794   1.307   4.860  0.1093  0.3664 -0.0427
 2219SOL    HW218291   3.898   1.405   4.866  0.7988  0.3137  1.9877
 2220SOL     OW18292   2.943   1.663   4.722  0.6513 -0.1049 -0.4628
 2220SOL    HW118293   2.958   1.636   4.812 -0.3935 -0.5755 -0.4392
 2220SOL    HW218294   2.875   1.730   4.724  2.0092  1.2315  0.6045
 2221SOL     OW18295   0.076   2.025   6.691 -0.5085  0.3918  0.0537
 2221SOL    HW118296   0.115   2.018   6.603 -1.4330  2.6078 -0.5247
 2221SOL    HW218297   0.086   1.941   6.736 -2.5010 -0.2124 -0.6532
 2222SOL     OW18298   4.451   1.967  13.617  0.1900 -0.1279  0.3808
 2222SOL    HW118299   4.377   1.949  13.560 -0.7480 -0.5161  1.7215
 2222SOL    HW218300   4.456   2.063  13.623 -2.5083  0.0678 -0.6821
 2223SOL     OW18301   0.775   4.611   9.452  0.2962  0.4661  0.4445
 2223SOL    HW118302   0.793   4.527   9.409  3.2631  1.0802  0.4440
 2223SOL    HW218303   0.735   4.581   9.533  1.8137 -1.1428  0.5947
 2224SOL     OW18304   1.194   1.532   5.568 -0.4580 -0.4980  0.4723
 2224SOL    HW118305   1.286   1.510   5.581  0.6610  3.2160 -1.3243
 2224SOL    HW218306   1.165   1.441   5.582 -0.7693 -0.3389  0.8628
 2225SOL     OW18307   0.619   4.189   9.313 -0.0126 -0.0990  0.0976
 2225SOL    HW118308   0.557   4.241   9.365  0.2042 -0.5389  0.7921
 2225SOL    HW218309   0.572   4.186   9.230  1.1164 -0.9949 -0.5074
 2226SOL     OW18310   3.441   4.123   8.889 -0.5463  0.4821 -0.7216
 2226SOL    HW118311   3.346   4.123   8.899 -0.5439  0.6730 -0.6873
 2226SOL    HW218312   3.464   4.057   8.954  1.5896  0.6788 -1.2667
 2227SOL     OW18313   3.831   4.615   5.806 -0.5325 -0.1141  0.3186
 2227SOL    HW118314   3.900   4.590   5.868 -1.5829 -0.9162  1.1772
 2227SOL    HW218315   3.753   4.612   5.862 -1.6364 -1.5973 -1.2992
 2228SOL     OW18316   3.490   0.421   3.291  0.1418 -0.6225  0.2149
 2228SOL    HW118317   3.488   0.361   3.217  0.6759 -0.4324  0.0445
 2228SOL    HW218318   3.584   0.420   3.311  0.4692 -0.3428 -1.3312
 2229SOL     OW18319   3.662   4.349   7.133  0.2159 -0.6068  0.2340
 2229SOL    HW118320   3.589   4.301   7.172 -1.4435  1.0924 -0.7612
 2229SOL    HW218321   3.656   4.430   7.184  0.9955 -0.2028 -0.3077
 2230SOL     OW18322   3.036   1.288  10.800  0.2247  0.9882  0.6404
 2230SOL    HW118323   3.032   1.274  10.895 -1.1259 -2.2754  0.0851
 2230SOL    HW218324   2.960   1.246  10.761  0.3811  0.3858  0.9800
 2231SOL     OW18325   0.930   2.070   8.805 -0.1069 -0.2525 -0.3904
 2231SOL    HW118326   0.897   2.103   8.722 -1.0421  0.6572  0.3562
 2231SOL    HW218327   0.880   1.988   8.812  2.7742 -1.8781  1.3312
 2232SOL     OW18328   4.224   1.946   1.087  0.0201  0.1041 -0.0152
 2232SOL    HW118329   4.253   1.861   1.055  2.9570  0.1066  2.6550
 2232SOL    HW218330   4.305   1.994   1.098 -0.2243  1.1063 -2.6559
 2233SOL     OW18331   3.803   1.191   3.909 -0.2789 -0.4850  0.1289
 2233SOL    HW118332   3.879   1.235   3.947  1.2229 -0.9941 -2.2512
 2233SOL    HW218333   3.851   1.109   3.900 -0.1126 -0.6222  2.2297
 2234SOL     OW18334   4.363   1.305   2.818  0.4341  0.3535 -0.1526
 2234SOL    HW118335   4.413   1.317   2.899  0.7337 -1.8088 -0.0285
 2234SOL    HW218336   4.333   1.214   2.819 -1.8925  1.1242 -1.4483
 2235SOL     OW18337   3.067   3.982   7.142 -0.2147  0.9524 -0.1083
 2235SOL    HW118338   3.073   3.970   7.047  0.6321 -1.5184  0.2604
 2235SOL    HW218339   3.033   4.072   7.139 -1.3176  0.5503  0.1784
 2236SOL     OW18340   2.736   1.399   4.255  0.0059  0.1308 -0.0831
 2236SOL    HW118341   2.691   1.444   4.184 -2.2477  0.1636  1.3545
 2236SOL    HW218342   2.795   1.467   4.287  2.2570 -1.8478 -0.0079
 2237SOL     OW18343   2.632   3.800  15.435 -0.4682  0.4531 -0.0410
 2237SOL    HW118344   2.720   3.791  15.398  0.0595  2.5071  0.7152
 2237SOL    HW218345   2.651   3.816  15.528  3.8673  2.2265 -1.2181
 2238SOL     OW18346   3.392   1.779   6.476  0.0737 -0.4866 -0.4280
 2238SOL    HW118347   3.423   1.799   6.564 -1.0042 -1.0562  0.0860
 2238SOL    HW218348   3.391   1.683   6.479  0.7360 -0.4907 -0.3793
 2239SOL     OW18349   3.033   2.999  11.343  0.0355 -0.4882  0.0973
 2239SOL    HW118350   3.008   2.942  11.271 -1.1442  2.2820 -1.6472
 2239SOL    HW218351   2.961   3.061  11.340 -0.1475 -0.8217 -1.9352
 2240SOL     OW18352   1.789   0.178   8.632 -0.2227 -0.1898 -0.3768
 2240SOL    HW118353   1.778   0.084   8.620  1.6066 -0.8305  2.9897
 2240SOL    HW218354   1.701   0.206   8.657  1.1593  1.2057  2.8928
 2241SOL     OW18355   3.453   2.746   7.097  0.0475  0.4944  0.0666
 2241SOL    HW118356   3.488   2.804   7.164  0.3064  0.3139  0.0876
 2241SOL    HW218357   3.368   2.723   7.136  0.4240 -0.2433  0.4588
 2242SOL     OW18358   1.519   3.590  14.423  0.2063 -0.1642 -0.5570
 2242SOL    HW118359   1.613   3.573  14.434 -0.4424 -1.5606  2.8785
 2242SOL    HW218360   1.516   3.672  14.472 -0.4096 -0.7088  0.3327
 2243SOL     OW18361   2.474   2.849  16.227  0.1095 -0.1171  0.0734
 2243SOL    HW118362   2.440   2.799  16.153 -1.5135 -0.7315  1.2329
 2243SOL    HW218363   2.519   2.778  16.273  1.3762  0.3123 -0.4852
 2244SOL     OW18364   0.286   1.790   7.030 -0.1980 -0.2297 -0.9158
 2244SOL    HW118365   0.256   1.879   7.050 -1.0508 -1.3130  2.6983
 2244SOL    HW218366   0.372   1.809   6.992  1.5897 -1.5163  2.4393
 2245SOL     OW18367   4.570   1.809   7.720 -0.3855  0.1130 -0.4294
 2245SOL    HW118368   4.504   1.759   7.672  0.7040 -1.0003 -0.7602
 2245SOL    HW218369   4.562   1.771   7.807  0.4097  2.4711  0.6645
 2246SOL     OW18370   3.738   2.836   0.790  0.4366 -0.2281  0.0278
 2246SOL    HW118371   3.664   2.779   0.769  0.0568 -0.2634  1.4942
 2246SOL    HW218372   3.816   2.781   0.799  0.3371  0.0361  2.4843
 2247SOL     OW18373   0.457   4.335   7.539  0.2163 -0.2358 -0.4310
 2247SOL    HW118374   0.496   4.369   7.459 -1.5210 -0.9605 -1.5736
 2247SOL    HW218375   0.506   4.388   7.603 -1.2473 -0.4158  0.8369
 2248SOL     OW18376   3.809   4.554   2.286  0.2056  0.0347  0.2485
 2248SOL    HW118377   3.781   4.469   2.322 -0.9147  1.6913  3.2342
 2248SOL    HW218378   3.821   4.591   2.373 -0.7535 -1.7770  1.1776
 2249SOL     OW18379   0.815   4.658  14.345 -0.0526  0.0623 -0.0896
 2249SOL    HW118380   0.777   4.664  14.258  2.9112 -1.8652 -1.5117
 2249SOL    HW218381   0.807   0.011  14.370  1.4918 -0.0052  0.6634
 2250SOL     OW18382   0.706   4.547   7.156  0.0099 -0.0753 -0.3157
 2250SOL    HW118383   0.799   4.532   7.172 -0.4193  0.4396  2.6781
 2250SOL    HW218384   0.693   4.635   7.191  0.2592  0.3811 -1.3817
 2251SOL     OW18385   0.409   3.042   5.283  0.3332 -0.0875  0.2628
 2251SOL    HW118386   0.380   3.027   5.193 -0.0393 -1.0645  0.5454
 2251SOL    HW218387   0.365   2.966   5.321  0.9274 -0.5874 -0.0502
 2252SOL     OW18388   0.179   3.832   5.378 -0.0830 -0.3944  0.1352
 2252SOL    HW118389   0.139   3.828   5.291 -1.8536  1.4069  0.8777
 2252SOL    HW218390   0.271   3.857   5.363 -1.0244  3.8924  1.6788
 2253SOL     OW18391   1.595   2.441   2.490 -0.0168 -0.3785  0.4649
 2253SOL    HW118392   1.667   2.380   2.501  0.1559 -0.2414  0.1016
 2253SOL    HW218393   1.554   2.413   2.408 -2.3253 -1.0863  1.8426
 2254SOL     OW18394   2.497   1.165  15.312 -0.4148 -0.3766 -0.2064
 2254SOL    HW118395   2.402   1.156  15.322 -0.0673 -2.8195  0.9249
 2254SOL    HW218396   2.509   1.236  15.375  3.8161 -0.4280 -0.9709
 2255SOL     OW18397   1.005   1.817   9.356 -0.2963  0.2086 -0.1315
 2255SOL    HW118398   1.033   1.759   9.285  1.3629  0.1217  0.6111
 2255SOL    HW218399   1.079   1.820   9.416  0.3818  0.4247 -0.9821
 2256SOL     OW18400   0.317   0.411   6.082  0.1870  0.6285  0.1409
 2256SOL    HW118401   0.390   0.349   6.071 -0.1359  0.3481 -0.4181
 2256SOL    HW218402   0.348   0.486   6.031  1.5291  0.7249  1.0828
 2257SOL     OW18403   4.434   0.070   9.764 -0.4793 -0.0230 -0.0685
 2257SOL    HW118404   4.446   0.164   9.765 -1.4043  0.1239 -1.5006
 2257SOL    HW218405   4.397   0.059   9.676  1.1298  0.2554 -0.7694
 2258SOL     OW18406   2.030   3.273   0.699 -0.2139 -0.1054  0.0492
 2258SOL    HW118407   2.047   3.260   0.792  0.7336 -0.4442 -0.1680
 2258SOL    HW218408   2.094   3.343   0.685  0.1829 -0.7231 -1.2660
 2259SOL     OW18409   2.426   2.197   7.651  0.2092 -0.2464  0.3735
 2259SOL    HW118410   2.375   2.117   7.645 -0.4127  0.2084 -0.4956
 2259SOL    HW218411   2.381   2.249   7.584  1.1541 -0.1328 -0.1830
 2260SOL     OW18412   3.048   1.265   9.567 -0.1248  0.0519 -0.3212
 2260SOL    HW118413   2.999   1.345   9.548 -2.9016 -1.2277  1.4732
 2260SOL    HW218414   2.977   1.207   9.594 -1.8523  1.8528 -1.0136
 2261SOL     OW18415   4.316   3.049   9.073 -0.1687  0.4491  0.0571
 2261SOL    HW118416   4.340   3.062   9.164  2.3610 -0.5957 -0.4613
 2261SOL    HW218417   4.340   2.960   9.047 -1.1410 -0.6997  3.1383
 2262SOL     OW18418   3.642   3.394   8.288 -0.1960  0.0182 -0.3844
 2262SOL    HW118419   3.736   3.374   8.287  0.2690  2.2454 -1.4020
 2262SOL    HW218420   3.623   3.395   8.382 -1.8566 -0.1850 -0.7252
 2263SOL     OW18421   1.822   1.959  13.991 -0.1026 -0.1463 -0.0798
 2263SOL    HW118422   1.780   1.883  14.031  0.9797 -1.4134 -1.3860
 2263SOL    HW218423   1.782   2.024  14.049 -0.4560  0.4425 -0.9802
 2264SOL     OW18424   4.243   1.622   4.738 -0.7794 -0.6110 -0.0811
 2264SOL    HW118425   4.169   1.600   4.681 -1.3820 -0.1156  0.5057
 2264SOL    HW218426   4.308   1.624   4.669 -0.4663 -0.2774  0.2275
 2265SOL     OW18427   0.137   4.566   8.953  0.3161  0.0801 -0.5051
 2265SOL    HW118428   0.150   4.584   9.046 -0.0754  2.0185 -0.8345
 2265SOL    HW218429   0.083   4.488   8.968 -1.5628  1.0512 -2.3538
 2266SOL     OW18430   1.260   4.658  10.049 -0.5446  0.2857  0.5172
 2266SOL    HW118431   1.276   4.573  10.008 -0.7734 -0.1574  1.3367
 2266SOL    HW218432   1.340   4.705  10.028 -0.3067  0.2475  1.3300
 2267SOL     OW18433   2.982   2.266   7.447  0.7560  0.0515 -0.7466
 2267SOL    HW118434   2.936   2.225   7.373  1.1977  2.2586 -2.2340
 2267SOL    HW218435   2.944   2.217   7.520 -0.9633  0.5123 -1.3388
 2268SOL     OW18436   0.648   1.125   4.302 -0.3874  0.4791  0.4219
 2268SOL    HW118437   0.611   1.214   4.305 -1.0149  0.1348  2.6980
 2268SOL    HW218438   0.602   1.086   4.377 -0.6339  0.8528  0.4666
 2269SOL     OW18439   2.195   1.120   3.161  0.3800 -0.0538  0.3330
 2269SOL    HW118440   2.266   1.058   3.178 -1.5538 -2.2677  0.1399
 2269SOL    HW218441   2.250   1.198   3.153  0.8272 -0.1981  2.0784
 2270SOL     OW18442   0.870   3.822  13.794  0.8555 -0.1300  0.3955
 2270SOL    HW118443   0.829   3.856  13.714 -1.8620 -1.5820  1.1511
 2270SOL    HW218444   0.791   3.815  13.847 -0.6562 -0.8632 -1.9215
 2271SOL     OW18445   0.321   0.482  14.201 -0.0517 -0.3210  0.4930
 2271SOL    HW118446   0.311   0.390  14.225 -2.2080  0.0290  0.9112
 2271SOL    HW218447   0.336   0.474  14.107  0.3802  3.1854  0.2829
 2272SOL     OW18448   3.385   0.733  15.368  0.1077  0.0295  0.6140
 2272SOL    HW118449   3.427   0.764  15.288  4.4179 -2.8458  1.7866
 2272SOL    HW218450   3.293   0.750  15.347  1.0340  2.4021 -1.4554
 2273SOL     OW18451   0.403   1.410   3.608  0.3343 -0.3418  0.0038
 2273SOL    HW118452   0.350   1.419   3.529 -0.2174 -2.3501  0.1550
 2273SOL    HW218453   0.471   1.475   3.591  0.3294 -0.6598 -1.2431
 2274SOL     OW18454   1.664   3.505   9.140  0.2178  0.2095 -0.2047
 2274SOL    HW118455   1.608   3.532   9.214  1.2608  0.4619  0.4868
 2274SOL    HW218456   1.741   3.469   9.184  1.0099  1.0609 -0.9079
 2275SOL     OW18457   4.595   0.984   8.347 -0.5785 -0.8098 -0.1981
 2275SOL    HW118458   4.613   0.994   8.441 -1.9251  0.7811 -0.1110
 2275SOL    HW218459   4.519   1.042   8.344  0.0203 -0.3017 -5.0859
 2276SOL     OW18460   4.188   0.342   5.388  0.1919  0.0697 -0.9544
 2276SOL    HW118461   4.215   0.330   5.479  1.4922  0.2621 -1.3105
 2276SOL    HW218462   4.116   0.280   5.386 -0.1032  0.4631 -2.6904
 2277SOL     OW18463   1.575   1.256   2.798 -0.6241 -0.0672  0.0727
 2277SOL    HW118464   1.502   1.257   2.859  0.0078  1.0741  0.8147
 2277SOL    HW218465   1.605   1.167   2.820  0.8981  0.0691 -1.4375
 2278SOL     OW18466   4.549   1.071  11.510  0.1077  0.0196  0.0566
 2278SOL    HW118467   4.577   0.984  11.481 -3.5127 -0.4907 -2.0225
 2278SOL    HW218468   4.601   1.124  11.450 -1.9912  1.2624 -0.6769
 2279SOL     OW18469   3.083   0.859   9.185 -0.3137 -0.1700 -0.1585
 2279SOL    HW118470   2.995   0.884   9.213  0.1750  0.3697  0.8794
 2279SOL    HW218471   3.135   0.934   9.214 -1.4605 -0.6611  3.1728
 2280SOL     OW18472   3.537   1.030   5.062 -0.4923  0.4081  0.1704
 2280SOL    HW118473   3.576   1.070   5.140 -0.6425  0.3661  0.2677
 2280SOL    HW218474   3.614   1.014   5.007 -0.1604  0.8610  0.4948
 2281SOL     OW18475   1.362   2.438   1.362  0.3876  0.5444  0.2478
 2281SOL    HW118476   1.451   2.403   1.349  0.6124  0.7316  1.3134
 2281SOL    HW218477   1.312   2.356   1.360  2.1952 -0.5730  0.4823
 2282SOL     OW18478   1.543   3.579  11.308 -0.3511 -0.1122 -0.1778
 2282SOL    HW118479   1.556   3.635  11.231 -1.0933  1.0712  0.5683
 2282SOL    HW218480   1.524   3.491  11.275 -1.9872  0.3597 -0.4712
 2283SOL     OW18481   3.553   3.319   2.992 -0.0683 -0.1531 -0.1504
 2283SOL    HW118482   3.473   3.353   3.031  1.3384  0.3315  2.3449
 2283SOL    HW218483   3.518   3.276   2.914 -0.6244  1.0535 -0.5553
 2284SOL     OW18484   2.240   1.627   9.508  0.2575 -0.0284  0.2086
 2284SOL    HW118485   2.258   1.607   9.416 -5.8382 -1.7080 -0.6274
 2284SOL    HW218486   2.227   1.721   9.507 -2.6005 -0.4183  0.7275
 2285SOL     OW18487   2.343   2.286   6.055 -0.5354 -0.2051  0.3692
 2285SOL    HW118488   2.248   2.301   6.047 -0.1798  1.9508  0.0528
 2285SOL    HW218489   2.369   2.377   6.068 -0.9478  0.0105 -0.2598
 2286SOL     OW18490   2.441   3.037   0.603 -0.0819  0.3432  0.4764
 2286SOL    HW118491   2.518   3.018   0.656  0.1026  0.7271  0.3394
 2286SOL    HW218492   2.380   2.983   0.653 -1.8276 -0.0166 -2.0565
 2287SOL     OW18493   0.753   1.127   0.792 -0.4860  0.2472 -0.2087
 2287SOL    HW118494   0.667   1.156   0.824 -0.3752 -1.1649  1.3853
 2287SOL    HW218495   0.725   1.056   0.734 -0.5166  0.5128 -0.5154
 2288SOL     OW18496   3.164   2.843   0.748  0.8726 -0.1999 -0.3386
 2288SOL    HW118497   3.233   2.889   0.795 -1.0818  0.7991  1.5637
 2288SOL    HW218498   3.127   2.917   0.700 -0.2917 -1.4934 -1.4082
 2289SOL     OW18499   4.049   3.087   9.135 -0.6097 -0.8331 -0.2699
 2289SOL    HW118500   4.012   3.129   9.057 -0.1082 -0.0359 -0.0698
 2289SOL    HW218501   4.143   3.068   9.127 -0.5752 -0.2108 -1.4155
 2290SOL     OW18502   2.304   0.414   2.672  0.2528 -0.7890  0.4441
 2290SOL    HW118503   2.355   0.495   2.673 -1.4446  0.3146 -0.8687
 2290SOL    HW218504   2.215   0.444   2.651  0.4039  0.1894  1.1843
 2291SOL     OW18505   1.831   4.118  10.078  0.0932  0.0570 -0.5448
 2291SOL    HW118506   1.891   4.182  10.041  0.4081  0.2621  0.3184
 2291SOL    HW218507   1.787   4.175  10.142  0.3868  0.7305 -0.9401
 2292SOL     OW18508   2.488   1.245   2.216 -0.3918 -0.3262  0.0786
 2292SOL    HW118509   2.493   1.268   2.123 -0.7350 -0.4996  0.0168
 2292SOL    HW218510   2.404   1.199   2.212  0.1987 -1.3177 -0.9248
 2293SOL     OW18511   0.094   3.728   2.108  0.6455  0.3318 -0.6284
 2293SOL    HW118512   0.158   3.666   2.146  0.1890 -0.6412 -1.4631
 2293SOL    HW218513   0.051   3.767   2.184  1.2764  1.2253 -0.7206
 2294SOL     OW18514   3.505   2.500   1.687 -0.5871  0.2943  0.2165
 2294SOL    HW118515   3.475   2.535   1.771  0.0283 -1.1174  1.0160
 2294SOL    HW218516   3.446   2.551   1.632  1.1843  0.3663 -1.6169
 2295SOL     OW18517   2.322   0.450   6.736  0.4996  0.5042 -0.3169
 2295SOL    HW118518   2.377   0.410   6.669  0.3102  1.3292 -0.9798
 2295SOL    HW218519   2.342   0.544   6.725 -5.6245  1.6861 -1.1924
 2296SOL     OW18520   1.523   1.821   3.854 -0.3484  0.1885  0.3162
 2296SOL    HW118521   1.511   1.747   3.913 -3.8314  1.7053  1.5444
 2296SOL    HW218522   1.612   1.844   3.880 -0.3856 -1.2122  1.6601
 2297SOL     OW18523   2.545   3.227   2.405  0.2240 -0.0473 -0.2220
 2297SOL    HW118524   2.559   3.170   2.480 -1.9731  1.3131  1.2542
 2297SOL    HW218525   2.558   3.162   2.336 -1.0513  0.2786 -0.7805
 2298SOL     OW18526   1.548   1.815   4.724 -0.4760 -0.0056  0.0345
 2298SOL    HW118527   1.624   1.864   4.755  0.0806 -0.8191 -0.0475
 2298SOL    HW218528   1.586   1.731   4.698 -1.2787 -0.3140 -0.1274
 2299SOL     OW18529   0.259   1.413   2.139  0.0642 -0.6084 -0.6249
 2299SOL    HW118530   0.237   1.455   2.223  1.4019  0.3772 -0.7692
 2299SOL    HW218531   0.190   1.347   2.134 -2.5604  2.2003 -1.5807
 2300SOL     OW18532   1.338   1.482   4.245 -0.1843 -0.1867 -0.6674
 2300SOL    HW118533   1.318   1.413   4.310  0.0487  0.8361  0.4854
 2300SOL    HW218534   1.256   1.490   4.196  0.3515  0.9244 -1.3788
 2301SOL     OW18535   2.248   4.558  16.579  0.5028  0.1053 -0.3647
 2301SOL    HW118536   2.183   4.629  16.574 -1.1089 -1.4512 -1.3861
 2301SOL    HW218537   2.309   4.587  16.510  0.7092  0.4024 -0.0598
 2302SOL     OW18538   1.821   2.619   9.627  0.0123  0.4919 -0.5551
 2302SOL    HW118539   1.898   2.594   9.678 -0.7445 -0.0295  0.3674
 2302SOL    HW218540   1.759   2.550   9.653  0.5170 -0.0964 -0.9149
 2303SOL     OW18541   4.122   3.181   6.969 -0.2454  0.1622 -0.1123
 2303SOL    HW118542   4.155   3.268   6.992 -0.8597  0.6765 -1.1594
 2303SOL    HW218543   4.192   3.126   7.003 -1.7304 -0.1760  2.4325
 2304SOL     OW18544   3.685   3.882  13.506 -0.3165  0.4715  0.2279
 2304SOL    HW118545   3.740   3.913  13.434  1.6785 -3.0324  0.2416
 2304SOL    HW218546   3.652   3.795  13.480 -0.5792  0.7686 -0.4476
 2305SOL     OW18547   3.009   2.377  15.627  0.2040  0.5888  0.2090
 2305SOL    HW118548   3.079   2.435  15.659 -1.7358  3.3149 -0.5156
 2305SOL    HW218549   2.994   2.327  15.708 -3.5383  0.3145 -0.6404
 2306SOL     OW18550   4.608   1.765   4.760  0.6875  0.1625  0.0089
 2306SOL    HW118551   4.601   1.680   4.804 -0.7014 -0.1840 -0.8957
 2306SOL    HW218552   4.598   1.825   4.834  1.0436  1.5150 -1.0409
 2307SOL     OW18553   3.255   0.967  14.258  0.5273  0.0134  0.1768
 2307SOL    HW118554   3.238   1.035  14.193  1.0290 -0.9098 -0.9119
 2307SOL    HW218555   3.165   0.950  14.286  0.6737 -1.8355 -0.5173
 2308SOL     OW18556   2.478   3.160   4.092 -0.3336  0.5528  0.3563
 2308SOL    HW118557   2.437   3.236   4.133 -2.5312  0.3767 -1.4886
 2308SOL    HW218558   2.527   3.210   4.026  1.2820 -0.3182  0.9021
 2309SOL     OW18559   3.741   2.039   4.305 -0.6578  0.2607 -0.9726
 2309SOL    HW118560   3.647   2.049   4.298 -0.6202  0.9295 -0.5786
 2309SOL    HW218561   3.772   2.112   4.251 -2.6666  2.1036  0.3221
 2310SOL     OW18562   1.877   2.197   8.124  0.7693  0.2235  0.0241
 2310SOL    HW118563   1.923   2.255   8.185  0.2775 -2.4084  2.9001
 2310SOL    HW218564   1.910   2.225   8.039 -1.1178 -0.0223 -0.7868
 2311SOL     OW18565   1.538   2.779   7.046  0.5975  0.2543 -0.1592
 2311SOL    HW118566   1.591   2.839   7.099  2.2058 -0.8245 -0.5720
 2311SOL    HW218567   1.583   2.773   6.962  0.7710  2.1157 -0.1968
 2312SOL     OW18568   2.456   0.665   2.302  0.0255  0.3037 -0.3400
 2312SOL    HW118569   2.453   0.760   2.290  2.4562  0.5802  1.1666
 2312SOL    HW218570   2.446   0.634   2.211 -1.1390  0.0526 -0.1316
 2313SOL     OW18571   1.868   2.353   1.888  0.0172  0.6422 -0.7740
 2313SOL    HW118572   1.941   2.413   1.871  1.3537 -0.9422 -0.6228
 2313SOL    HW218573   1.813   2.392   1.955 -0.9496  0.4197 -1.4473
 2314SOL     OW18574   0.913   0.634   0.763  0.5140  0.3137  0.0197
 2314SOL    HW118575   0.888   0.551   0.804  1.9730 -1.1480 -2.0579
 2314SOL    HW218576   0.840   0.689   0.790 -0.7760 -1.4430  0.1273
 2315SOL     OW18577   0.088   2.266   7.477 -0.9091 -0.0476 -0.3862
 2315SOL    HW118578   0.049   2.194   7.427 -1.8351 -0.2479  0.6053
 2315SOL    HW218579   0.173   2.288   7.440 -1.2254 -1.6839 -2.0786
 2316SOL     OW18580   2.249   3.034   6.828  0.9441 -0.1310 -0.0433
 2316SOL    HW118581   2.182   2.974   6.859  1.2613 -0.0983  0.7112
 2316SOL    HW218582   2.225   3.117   6.869 -2.4069 -1.0245 -0.2041
 2317SOL     OW18583   3.051   0.372   4.868  0.7836  0.6277 -0.0816
 2317SOL    HW118584   3.049   0.291   4.817 -2.4166  0.4275  0.3808
 2317SOL    HW218585   2.957   0.392   4.864  0.8571  0.8430 -0.7366
 2318SOL     OW18586   2.475   3.073   5.689  0.0885  0.0642 -0.0983
 2318SOL    HW118587   2.459   3.167   5.702  0.8634  0.3680 -1.3105
 2318SOL    HW218588   2.388   3.039   5.671 -0.1909 -0.3357  2.0466
 2319SOL     OW18589   3.393   4.588   3.224 -0.3493  0.2553  0.0790
 2319SOL    HW118590   3.367   4.678   3.202  0.4854  0.1276 -1.4375
 2319SOL    HW218591   3.337   4.544   3.160  0.7575  0.5516 -1.1021
 2320SOL     OW18592   2.931   0.297  13.668 -0.5810  0.2237  0.8976
 2320SOL    HW118593   2.959   0.222  13.721  1.7793 -0.0207 -0.7076
 2320SOL    HW218594   3.013   0.321  13.625 -1.4721  0.8626 -0.4275
 2321SOL     OW18595   3.608   4.041   7.706 -0.3503  0.2062  0.1381
 2321SOL    HW118596   3.625   4.103   7.776 -0.7762  1.5820 -0.9727
 2321SOL    HW218597   3.622   3.955   7.747  0.1220 -0.1813 -0.8319
 2322SOL     OW18598   2.776   4.642   4.919  0.2560  0.2227  0.5145
 2322SOL    HW118599   2.749   4.583   4.990  0.1871 -2.0110 -1.3641
 2322SOL    HW218600   2.764   4.579   4.847  2.8177  0.3416 -0.0143
 2323SOL     OW18601   1.257   0.796  16.220 -0.4840  0.8426  0.0526
 2323SOL    HW118602   1.339   0.752  16.196 -1.8577 -2.2069  0.9831
 2323SOL    HW218603   1.262   0.848  16.300 -0.1473  0.6763  0.1447
 2324SOL     OW18604   1.248   1.297   4.459 -0.5968 -0.0033 -0.1704
 2324SOL    HW118605   1.164   1.262   4.488 -0.9849  0.7457 -0.4120
 2324SOL    HW218606   1.299   1.222   4.429 -1.9757 -0.2224 -1.9392
 2325SOL     OW18607   3.618   1.953   6.411 -0.3677 -0.2308  0.1632
 2325SOL    HW118608   3.576   1.953   6.497 -0.4752 -1.6766  0.1228
 2325SOL    HW218609   3.568   1.887   6.363  1.5060 -1.7071  0.2176
 2326SOL     OW18610   2.691   0.518   1.533 -0.2719  0.5104  0.3878
 2326SOL    HW118611   2.703   0.587   1.467 -3.2805  2.2806  1.6773
 2326SOL    HW218612   2.597   0.504   1.536 -0.2484  0.2001 -0.5957
 2327SOL     OW18613   3.408   3.125  11.891 -0.3112  0.2366 -0.3120
 2327SOL    HW118614   3.448   3.199  11.936 -1.9942  1.7970 -1.3743
 2327SOL    HW218615   3.479   3.062  11.898  0.1583  0.6260 -1.5952
 2328SOL     OW18616   0.999   3.816   5.479  0.2181  0.2254  0.3725
 2328SOL    HW118617   1.077   3.857   5.442 -0.3461 -0.4323 -1.5716
 2328SOL    HW218618   0.937   3.881   5.447 -0.6887 -0.0462  1.5695
 2329SOL     OW18619   3.396   2.457  15.210  0.5005  0.4764 -0.0247
 2329SOL    HW118620   3.371   2.531  15.155  1.2637  0.2287 -0.7096
 2329SOL    HW218621   3.458   2.505  15.265  1.3630  0.7633 -1.2424
 2330SOL     OW18622   2.799   4.575   4.487  0.2305  0.1317 -0.4218
 2330SOL    HW118623   2.875   4.561   4.544 -1.3084  0.6078  1.7463
 2330SOL    HW218624   2.770   4.661   4.519 -0.6550 -0.4388  0.3110
 2331SOL     OW18625   3.476   4.676   4.056  0.1682 -0.4046  0.5332
 2331SOL    HW118626   3.513   4.610   4.115  0.4181 -0.2588  0.5384
 2331SOL    HW218627   3.452   4.622   3.981  1.1571  0.2064 -0.2246
 2332SOL     OW18628   3.420   0.572   5.027 -0.3818  0.3346 -0.6491
 2332SOL    HW118629   3.373   0.577   4.944 -0.0424  0.9235 -0.8043
 2332SOL    HW218630   3.359   0.626   5.076 -1.0963 -1.1751  0.1454
 2333SOL     OW18631   2.893   3.874   5.857 -0.1899 -0.6044  0.0963
 2333SOL    HW118632   2.976   3.920   5.847 -1.6654  1.5552 -2.2195
 2333SOL    HW218633   2.887   3.845   5.948 -0.0294 -1.4526 -0.1683
 2334SOL     OW18634   0.835   1.625   4.870  0.4764  0.2905 -0.2941
 2334SOL    HW118635   0.861   1.667   4.787 -0.9911 -0.7767 -1.2874
 2334SOL    HW218636   0.783   1.694   4.911  1.3102  2.4204 -2.7854
 2335SOL     OW18637   0.082   2.641   3.927 -0.1392 -0.4312 -0.0722
 2335SOL    HW118638   0.165   2.686   3.908 -1.3103  2.1493  0.9929
 2335SOL    HW218639   0.052   2.697   3.999  0.5518  1.1105 -0.9658
 2336SOL     OW18640   0.182   1.879  16.895  0.0494  0.1712 -0.1336
 2336SOL    HW118641   0.199   1.842  16.809 -0.3701  1.4702 -0.7777
 2336SOL    HW218642   0.103   1.930  16.875 -0.7241 -0.7547  0.6005
 2337SOL     OW18643   0.551   0.998  12.160 -0.4770 -0.2371 -0.5376
 2337SOL    HW118644   0.626   1.053  12.180 -0.8929  0.7577 -1.7590
 2337SOL    HW218645   0.571   0.988  12.068 -0.5277  0.7058 -0.6488
 2338SOL     OW18646   2.469   0.750   7.166 -0.0492 -0.5594  0.6207
 2338SOL    HW118647   2.519   0.704   7.233  2.0328  1.1754  0.2541
 2338SOL    HW218648   2.517   0.726   7.087  0.7379 -1.7128  1.4501
 2339SOL     OW18649   4.057   2.516  13.004  0.2655 -0.2540 -0.0549
 2339SOL    HW118650   4.028   2.607  13.002 -1.1414 -0.6879  0.3062
 2339SOL    HW218651   4.089   2.494  12.917  2.0411  0.3820  0.4518
 2340SOL     OW18652   2.197   3.704   1.221  0.0320 -0.1425  0.4556
 2340SOL    HW118653   2.147   3.679   1.143  0.1223  2.2899 -0.3980
 2340SOL    HW218654   2.270   3.643   1.216 -2.7456 -3.4210  0.0263
 2341SOL     OW18655   4.491   4.303  16.086 -0.1524  0.3853  0.1316
 2341SOL    HW118656   4.503   4.211  16.061  1.0090  0.3571  0.7859
 2341SOL    HW218657   4.560   4.354  16.043  0.0794  1.7152  2.0791
 2342SOL     OW18658   4.291   2.861   6.854 -0.5036 -0.3081 -0.3483
 2342SOL    HW118659   4.298   2.903   6.940  1.1176 -1.6425  0.1631
 2342SOL    HW218660   4.345   2.921   6.805 -0.0268  1.4891  2.3630
 2343SOL     OW18661   1.957   4.300   9.947  0.6435 -0.1297  0.5142
 2343SOL    HW118662   1.936   4.380   9.995  0.4326  0.7350 -1.0226
 2343SOL    HW218663   1.907   4.309   9.866  0.2717  2.3399  1.0132
 2344SOL     OW18664   3.136   2.628   3.934  0.5968 -0.0285 -0.2559
 2344SOL    HW118665   3.088   2.636   4.017 -0.3674  2.1373 -1.0031
 2344SOL    HW218666   3.075   2.569   3.891 -1.4453  1.6725  0.2596
 2345SOL     OW18667   1.069   2.960  16.135 -0.1313  0.6809  0.2791
 2345SOL    HW118668   0.992   2.999  16.177 -1.6865 -0.2326 -1.7061
 2345SOL    HW218669   1.053   2.867  16.151  0.7741  0.3116 -0.9922
 2346SOL     OW18670   2.950   3.524  15.505  0.2449  0.1010 -0.1769
 2346SOL    HW118671   2.861   3.538  15.537  0.5257 -1.6837  1.4073
 2346SOL    HW218672   2.970   3.433  15.527  0.2845  1.0340  3.5871
 2347SOL     OW18673   1.224   0.549   4.999  0.5073 -0.1818 -0.2253
 2347SOL    HW118674   1.236   0.583   4.910 -0.0569  0.4092 -0.0770
 2347SOL    HW218675   1.235   0.625   5.056  2.9128 -1.4273  0.9544
 2348SOL     OW18676   3.904   1.066   8.746  0.1890  0.1066 -0.1154
 2348SOL    HW118677   3.925   1.093   8.657  1.1728  2.0259  0.6952
 2348SOL    HW218678   3.943   1.140   8.792  2.9108 -0.6533 -1.1954
 2349SOL     OW18679   3.428   2.340   3.832  0.4981  0.2042  0.7110
 2349SOL    HW118680   3.441   2.251   3.799  0.4524  1.0601 -1.6091
 2349SOL    HW218681   3.338   2.342   3.800  0.8558  2.3863 -0.1693
 2350SOL     OW18682   3.694   1.990  11.510 -0.3101  0.1459  0.5880
 2350SOL    HW118683   3.669   1.950  11.426  3.0174  1.0398 -0.8386
 2350SOL    HW218684   3.757   1.925  11.541 -0.7033  0.2968  1.6806
 2351SOL     OW18685   3.918   3.352   8.695  0.4958 -0.3857 -0.1726
 2351SOL    HW118686   3.991   3.333   8.636  0.6426  0.0234 -0.1204
 2351SOL    HW218687   3.959   3.364   8.781  2.6710  0.1960 -1.2846
 2352SOL     OW18688   1.370   3.249   8.325  0.2947 -0.3722 -0.9825
 2352SOL    HW118689   1.302   3.266   8.390  0.7420 -2.1286 -0.0677
 2352SOL    HW218690   1.384   3.330   8.275 -2.6393  0.6291 -0.1789
 2353SOL     OW18691   0.719   4.066  12.540 -0.0737  0.3449  0.2111
 2353SOL    HW118692   0.690   3.981  12.505  0.3256  0.3182 -0.0593
 2353SOL    HW218693   0.786   4.058  12.607  0.8872 -2.6982 -1.1007
 2354SOL     OW18694   2.502   4.226   8.984  0.3254  0.4909 -0.0292
 2354SOL    HW118695   2.524   4.301   9.039 -0.4468 -0.0261  0.9946
 2354SOL    HW218696   2.513   4.253   8.893 -2.2128  1.8861  0.0768
 2355SOL     OW18697   3.703   2.701   6.973  0.1549  0.2504  0.3721
 2355SOL    HW118698   3.622   2.738   7.006 -0.9651 -2.2070  0.3692
 2355SOL    HW218699   3.757   2.772   6.940  0.2650  0.3886  0.8507
 2356SOL     OW18700   4.226   3.944   5.285  0.2946  0.1230  0.2045
 2356SOL    HW118701   4.136   3.957   5.256  0.7543 -2.4031 -2.3264
 2356SOL    HW218702   4.265   4.029   5.264  0.8038 -0.2191 -0.2233
 2357SOL     OW18703   1.049   4.351   2.375 -0.9339  0.1848 -0.0971
 2357SOL    HW118704   1.085   4.430   2.336  0.6526 -0.7749 -0.5973
 2357SOL    HW218705   0.959   4.358   2.344 -0.8716  1.3178  0.0002
 2358SOL     OW18706   1.650   1.899  12.500  0.1905 -0.4957 -0.5232
 2358SOL    HW118707   1.687   1.975  12.545 -0.6534 -0.1455 -0.4047
 2358SOL    HW218708   1.556   1.914  12.513 -0.1626 -0.8841 -2.5978
 2359SOL     OW18709   4.477   4.160   5.735 -0.0870 -0.1918  1.1512
 2359SOL    HW118710   4.482   4.133   5.827 -0.1862 -1.1619  0.8718
 2359SOL    HW218711   4.430   4.242   5.749 -1.2619 -0.6624 -0.0440
 2360SOL     OW18712   0.010   4.173   7.723  0.1632  0.3348 -0.5620
 2360SOL    HW118713   0.028   4.219   7.641 -0.8527 -0.7709 -1.4034
 2360SOL    HW218714   0.032   4.084   7.696  1.2319  0.9534 -1.7340
 2361SOL     OW18715   2.925   4.018   9.160 -0.9486 -0.0652  0.4449
 2361SOL    HW118716   2.881   3.974   9.087 -2.6566  1.6549  0.4345
 2361SOL    HW218717   2.854   4.082   9.171 -1.0768 -0.0925 -0.1910
 2362SOL     OW18718   1.560   3.115  10.966  0.3748 -0.2081 -0.1886
 2362SOL    HW118719   1.525   3.083  10.882 -1.9145  0.9325  0.3553
 2362SOL    HW218720   1.627   3.180  10.945  0.2609 -0.4949 -1.4708
 2363SOL     OW18721   3.001   2.682   1.814 -0.4315  0.1508 -0.0939
 2363SOL    HW118722   3.039   2.598   1.838  1.7331  1.0783 -0.3127
 2363SOL    HW218723   3.011   2.733   1.894  0.9811 -1.7106  0.9118
 2364SOL     OW18724   3.721   1.652   1.561 -0.5305 -0.0418  0.2459
 2364SOL    HW118725   3.739   1.720   1.497  1.0092  0.3490  1.1019
 2364SOL    HW218726   3.644   1.687   1.605 -0.0641  2.1398 -0.6826
 2365SOL     OW18727   0.347   3.135   5.605 -0.4563 -0.6501  0.2464
 2365SOL    HW118728   0.374   3.224   5.581 -3.8609  1.0161  2.4822
 2365SOL    HW218729   0.299   3.109   5.526  1.6109 -2.3194 -0.4483
 2366SOL     OW18730   4.121   1.986  12.482 -0.6691 -0.0322 -0.4600
 2366SOL    HW118731   4.044   1.969  12.536 -0.4620  1.7022  0.3809
 2366SOL    HW218732   4.185   1.957  12.548 -0.1608  2.7566  0.2728
 2367SOL     OW18733   1.647   4.053   1.975  0.1277  0.4469  0.3411
 2367SOL    HW118734   1.714   4.088   1.916  0.7857 -0.8390  0.3205
 2367SOL    HW218735   1.702   4.042   2.052 -0.9621 -0.0560  1.0362
 2368SOL     OW18736   1.317   4.510  14.128  0.2828 -0.1962 -0.2773
 2368SOL    HW118737   1.232   4.512  14.084  1.4839  1.0975 -2.5735
 2368SOL    HW218738   1.341   4.602  14.118 -0.6294  0.1594  0.9347
 2369SOL     OW18739   4.199   2.736  15.491  0.3727  0.3018 -0.3540
 2369SOL    HW118740   4.256   2.785  15.550 -0.8688  0.4585  0.7114
 2369SOL    HW218741   4.264   2.681  15.445  0.8793  1.4044 -0.9486
 2370SOL     OW18742   1.899   1.019   9.675 -0.1135  0.0730 -0.4643
 2370SOL    HW118743   1.988   1.000   9.645  0.0639 -0.0918  0.1764
 2370SOL    HW218744   1.884   0.932   9.714 -0.4080  0.7834  0.9927
 2371SOL     OW18745   2.988   0.627   9.865  0.0414 -0.3462  0.1184
 2371SOL    HW118746   3.069   0.598   9.907  0.4154 -1.4170 -1.3241
 2371SOL    HW218747   2.973   0.557   9.800 -0.7795  0.8237 -0.9625
 2372SOL     OW18748   0.359   4.042   0.763 -0.1262 -0.7462  0.1849
 2372SOL    HW118749   0.444   4.006   0.788  1.3265  0.2843 -3.1966
 2372SOL    HW218750   0.333   3.977   0.697  0.3330 -3.4730  2.7220
 2373SOL     OW18751   1.087   1.896  16.526  0.0755 -0.5462  0.6539
 2373SOL    HW118752   1.034   1.893  16.446 -1.9023  3.7546  1.7658
 2373SOL    HW218753   1.043   1.828  16.576  0.4514 -1.8905 -0.8506
 2374SOL     OW18754   2.928   0.489   3.924 -0.4857  0.3416  0.1493
 2374SOL    HW118755   2.933   0.577   3.961  4.3048  0.3589 -0.4920
 2374SOL    HW218756   2.854   0.504   3.865 -1.0478  2.9226  1.4918
 2375SOL     OW18757   0.132   0.074   0.240  0.6437  0.7943  0.0167
 2375SOL    HW118758   0.050   0.113   0.208  0.2477 -1.6723 -1.9411
 2375SOL    HW218759   0.116   4.719   0.249 -0.8830  1.2437  1.8885
 2376SOL     OW18760   4.679   1.983   1.065  0.2151  0.4533 -0.4802
 2376SOL    HW118761   4.614   1.921   1.099  0.8358  0.3658  0.5603
 2376SOL    HW218762   4.668   1.972   0.971  0.7280  0.4627 -0.5398
 2377SOL     OW18763   3.055   2.834  16.613  0.2378 -0.4346 -0.1699
 2377SOL    HW118764   3.101   2.849  16.696  2.8857 -0.1532 -1.6837
 2377SOL    HW218765   3.124   2.842  16.547 -0.1295 -1.2859 -0.6532
 2378SOL     OW18766   0.876   0.208   9.081  0.1715 -0.4097 -0.0150
 2378SOL    HW118767   0.934   0.139   9.049 -0.8741 -1.4139  0.2775
 2378SOL    HW218768   0.883   0.197   9.176 -0.2285  0.6408  0.1432
 2379SOL     OW18769   2.995   0.271   1.928  0.2248  0.2977  0.6325
 2379SOL    HW118770   3.068   0.234   1.879  0.7571 -0.0733  1.7215
 2379SOL    HW218771   2.957   0.325   1.858 -0.3333 -0.3241  0.4521
 2380SOL     OW18772   4.023   0.373   8.210  0.3950 -0.5720  0.2430
 2380SOL    HW118773   4.085   0.406   8.275 -1.5675  0.3075  1.6520
 2380SOL    HW218774   4.080   0.351   8.135 -0.9308 -1.8149 -0.3969
 2381SOL     OW18775   3.307   3.291   7.870 -0.0577  1.1593  0.0016
 2381SOL    HW118776   3.221   3.323   7.900 -0.4828  1.0167 -1.0746
 2381SOL    HW218777   3.338   3.286   7.961  1.6238  2.1356 -0.5340
 2382SOL     OW18778   0.047   3.016  11.438  0.2338  0.1903 -0.1235
 2382SOL    HW118779   4.736   3.012  11.520 -0.3121 -0.4921 -0.4863
 2382SOL    HW218780   4.721   3.067  11.388 -0.5754  0.3015  1.0468
 2383SOL     OW18781   2.655   3.258  10.614  0.5249 -0.0798 -0.6759
 2383SOL    HW118782   2.748   3.260  10.637  0.3778  0.5489 -0.1692
 2383SOL    HW218783   2.658   3.174  10.568  1.2858  0.6070 -1.8644
 2384SOL     OW18784   2.242   2.799   2.689 -0.3442  0.4474 -0.5572
 2384SOL    HW118785   2.241   2.877   2.633 -0.6171  0.7553 -0.1213
 2384SOL    HW218786   2.307   2.740   2.650  2.3857  1.4324  2.4668
 2385SOL     OW18787   1.389   1.169   6.685 -0.6274  0.3475 -0.4964
 2385SOL    HW118788   1.484   1.157   6.683 -0.7157 -0.4807  0.4252
 2385SOL    HW218789   1.364   1.093   6.633 -1.2056  0.3314 -0.1961
 2386SOL     OW18790   3.698   2.359   5.340 -0.3931  0.0391  0.3306
 2386SOL    HW118791   3.625   2.305   5.309  0.5278 -0.8735 -0.2473
 2386SOL    HW218792   3.778   2.309   5.325  0.7539  1.9701 -0.0592
 2387SOL     OW18793   2.512   4.357  15.421  0.0135 -0.5080 -0.0099
 2387SOL    HW118794   2.583   4.406  15.380 -1.5470  1.1498 -0.6975
 2387SOL    HW218795   2.557   4.283  15.462  2.0522 -0.4114 -2.0674
 2388SOL     OW18796   2.414   3.326   5.066 -0.1721 -0.4016 -0.4923
 2388SOL    HW118797   2.501   3.333   5.106 -0.7785 -2.1197  1.1354
 2388SOL    HW218798   2.427   3.370   4.982  0.3903 -0.3178 -0.3620
 2389SOL     OW18799   4.209   2.611   5.073 -0.1139  0.5223 -0.2837
 2389SOL    HW118800   4.139   2.570   5.022 -0.0420 -1.1464  0.9531
 2389SOL    HW218801   4.179   2.641   5.159 -2.8243 -0.9731 -0.6909
 2390SOL     OW18802   4.207   1.733   0.897  0.1101 -0.4174  0.4730
 2390SOL    HW118803   4.157   1.680   0.835 -0.0004 -0.5704  0.6927
 2390SOL    HW218804   4.290   1.684   0.897 -1.1226 -2.4952 -0.6912
 2391SOL     OW18805   2.436   0.706  13.252  0.3337 -0.3754 -0.2356
 2391SOL    HW118806   2.450   0.799  13.235 -3.8213  0.4609  0.6860
 2391SOL    HW218807   2.527   0.695  13.280  0.9834 -0.6681 -2.4892
 2392SOL     OW18808   4.106   3.827  16.645 -0.1858  0.3174 -0.3144
 2392SOL    HW118809   4.064   3.860  16.724 -0.4646  0.0847 -0.3698
 2392SOL    HW218810   4.187   3.793  16.684 -0.3565  0.5260  0.2221
 2393SOL     OW18811   2.133   2.547   3.828  0.6721  0.1127  0.3606
 2393SOL    HW118812   2.100   2.474   3.881 -1.1502 -1.7930 -3.3579
 2393SOL    HW218813   2.225   2.555   3.851  1.0399  0.3324 -1.2114
 2394SOL     OW18814   0.091   2.490   3.346 -0.4030 -0.0584 -0.5183
 2394SOL    HW118815   0.009   2.485   3.394  0.3989  1.6930  1.0058
 2394SOL    HW218816   0.158   2.510   3.411 -2.5414  0.5392  1.4800
 2395SOL     OW18817   2.395   2.113  10.038  0.1640  0.1146  0.6496
 2395SOL    HW118818   2.435   2.090  10.122 -0.0292  0.0825  0.7335
 2395SOL    HW218819   2.305   2.082  10.044  0.5284 -1.0258  0.2901
 2396SOL     OW18820   3.933   4.262   7.582 -0.2361 -0.4056  0.0797
 2396SOL    HW118821   3.873   4.203   7.536 -1.5696  1.7681 -1.0083
 2396SOL    HW218822   3.882   4.298   7.655 -0.6481 -1.8287  0.4796
 2397SOL     OW18823   4.462   3.594   1.312 -0.2570 -0.3729  0.6469
 2397SOL    HW118824   4.539   3.627   1.359  1.3488 -1.7692 -0.9699
 2397SOL    HW218825   4.486   3.612   1.221  1.9897 -0.4195  1.2328
 2398SOL     OW18826   2.391   1.231   9.437 -0.4802  0.0362  0.0391
 2398SOL    HW118827   2.360   1.249   9.526  1.4703 -0.5661  0.8498
 2398SOL    HW218828   2.308   1.234   9.390 -0.8528 -0.5562  0.6582
 2399SOL     OW18829   3.206   0.584  15.834 -0.0924 -0.3698 -0.2356
 2399SOL    HW118830   3.295   0.602  15.803  0.1399 -1.0179  0.0451
 2399SOL    HW218831   3.160   0.571  15.751  1.2505  0.1019 -1.0473
 2400SOL     OW18832   3.614   2.390   4.646 -0.3643  0.0725  0.1684
 2400SOL    HW118833   3.585   2.299   4.644  2.4710 -0.8117 -2.1454
 2400SOL    HW218834   3.708   2.383   4.628 -0.4636 -0.8217 -0.0148
 2401SOL     OW18835   1.354   2.675   4.663 -0.3166  0.2607 -0.4049
 2401SOL    HW118836   1.387   2.730   4.593 -1.0095  1.9437  0.5935
 2401SOL    HW218837   1.275   2.653   4.613  0.5217  1.1101 -2.0761
 2402SOL     OW18838   4.525   0.614   0.901  0.1074  0.1335 -0.0549
 2402SOL    HW118839   4.584   0.637   0.973  1.2375  0.3124 -1.0233
 2402SOL    HW218840   4.493   0.529   0.930  1.5055 -0.0747  0.8982
 2403SOL     OW18841   1.513   1.033   3.765 -0.5066 -0.2608  0.5179
 2403SOL    HW118842   1.480   1.093   3.698  1.9562  2.0192  1.3421
 2403SOL    HW218843   1.523   1.096   3.837  0.3998 -1.0916  1.1159
 2404SOL     OW18844   3.127   1.919   7.686  0.0032  0.0051 -0.2075
 2404SOL    HW118845   3.131   1.825   7.703 -2.6846 -0.2869 -1.2909
 2404SOL    HW218846   3.042   1.939   7.725 -0.3401 -0.9143 -0.4965
 2405SOL     OW18847   0.724   4.504   3.647  0.0622 -0.2519 -0.2472
 2405SOL    HW118848   0.692   4.578   3.699  1.7274  1.2566 -1.4011
 2405SOL    HW218849   0.811   4.536   3.625 -0.2102 -0.5857 -1.8024
 2406SOL     OW18850   3.940   0.194   8.429  0.8987  0.2724  0.5048
 2406SOL    HW118851   4.032   0.213   8.448  0.6113  0.2329  1.9624
 2406SOL    HW218852   3.901   0.280   8.441  1.5104  0.2878  2.4125
 2407SOL     OW18853   0.219   4.615  14.824 -0.2178 -0.6407  0.1547
 2407SOL    HW118854   0.205   4.566  14.905 -0.1280 -0.3407  0.3508
 2407SOL    HW218855   0.286   4.559  14.784  1.3225  0.3729  1.3341
 2408SOL     OW18856   2.560   3.700   5.542  0.3586  0.3996 -0.1175
 2408SOL    HW118857   2.639   3.683   5.593 -0.5316 -2.5435  0.2627
 2408SOL    HW218858   2.571   3.790   5.510  0.9053  0.1722 -0.5693
 2409SOL     OW18859   4.061   2.571   4.640 -0.1614 -0.2308 -0.1188
 2409SOL    HW118860   4.061   2.593   4.547 -1.2221 -0.1670 -0.1016
 2409SOL    HW218861   4.012   2.648   4.670  0.6138  0.7555 -1.4110
 2410SOL     OW18862   1.165   3.803  11.288  0.1851 -0.7166  0.0179
 2410SOL    HW118863   1.109   3.845  11.222 -1.3994 -0.7124  1.3840
 2410SOL    HW218864   1.109   3.822  11.363  0.7824 -0.2695  0.3556
 2411SOL     OW18865   0.449   4.732   8.643 -0.2550 -0.3700 -0.9622
 2411SOL    HW118866   0.513   0.033   8.583 -1.7834  3.1375 -0.2336
 2411SOL    HW218867   0.387   0.061   8.669 -0.8486 -0.6154 -1.7551
 2412SOL     OW18868   2.068   0.011  16.545  0.3646  0.0929  0.6457
 2412SOL    HW118869   2.086   0.098  16.512 -2.9321  0.8586  0.8137
 2412SOL    HW218870   1.978   0.029  16.574  0.5671  0.8060  0.8154
 2413SOL     OW18871   0.976   4.655   2.491  0.8093  0.1448  0.4478
 2413SOL    HW118872   1.035   4.625   2.560 -0.5305 -0.6166  1.2583
 2413SOL    HW218873   1.035   4.655   2.415 -1.7342 -0.5499 -1.4948
 2414SOL     OW18874   1.244   0.950   8.247  0.4286 -0.6462  0.0286
 2414SOL    HW118875   1.187   1.025   8.231 -0.5781 -1.2470  0.7845
 2414SOL    HW218876   1.183   0.886   8.286 -0.6522  0.6676  0.5005
 2415SOL     OW18877   0.336   2.921   3.223 -0.6252  0.2096 -0.1670
 2415SOL    HW118878   0.367   2.833   3.200  2.0628  1.4063 -1.0936
 2415SOL    HW218879   0.321   2.963   3.138  1.5907  1.6634  0.1626
 2416SOL     OW18880   4.114   1.440   2.793 -0.5599  0.2261 -0.0346
 2416SOL    HW118881   4.182   1.377   2.817 -2.4189 -1.2883  1.2990
 2416SOL    HW218882   4.130   1.506   2.860  1.0100 -1.0568  0.8481
 2417SOL     OW18883   0.440   1.204   4.613 -0.0552 -0.3167  0.4180
 2417SOL    HW118884   0.522   1.201   4.663 -0.9544  0.3472  1.9247
 2417SOL    HW218885   0.404   1.289   4.638 -0.4454 -0.2071 -0.5459
 2418SOL     OW18886   3.749   4.085   0.089 -0.7336 -0.5940 -0.3263
 2418SOL    HW118887   3.820   4.056   0.032  0.6545  2.1746 -0.0426
 2418SOL    HW218888   3.796   4.163   0.121 -1.9006 -0.1320  0.2737
 2419SOL     OW18889   4.400   4.288   3.883  0.0133  0.1308  0.0594
 2419SOL    HW118890   4.370   4.291   3.974  1.3823  0.5047  0.4815
 2419SOL    HW218891   4.474   4.231   3.905  1.2338  1.1970 -1.2908
 2420SOL     OW18892   2.036   2.873   6.884  0.3517 -0.1530  0.6430
 2420SOL    HW118893   1.980   2.831   6.819  0.1583 -0.9485  1.3340
 2420SOL    HW218894   1.985   2.868   6.965  1.0918 -3.2582  0.8971
 2421SOL     OW18895   3.586   1.896   8.190 -0.0237  0.4221  0.2101
 2421SOL    HW118896   3.621   1.922   8.104 -0.1129 -1.2265 -0.3077
 2421SOL    HW218897   3.657   1.862   8.244  0.9238 -1.7554 -2.4470
 2422SOL     OW18898   2.368   2.127   4.557  0.1521  0.2715  0.0905
 2422SOL    HW118899   2.298   2.163   4.503  0.9637  0.1622 -1.0280
 2422SOL    HW218900   2.424   2.204   4.564  0.6001 -0.0943  0.5739
 2423SOL     OW18901   2.988   3.095   0.405  0.2961 -0.0393  0.0493
 2423SOL    HW118902   3.019   3.135   0.324 -0.0125  2.6602  1.2490
 2423SOL    HW218903   3.068   3.100   0.457  0.6261 -1.5637 -0.3143
 2424SOL     OW18904   0.633   2.952   4.570  0.4669 -0.0424  0.0140
 2424SOL    HW118905   0.677   3.029   4.533 -0.5508  1.2082  1.3807
 2424SOL    HW218906   0.614   2.985   4.658  1.1286  0.4847 -0.0403
 2425SOL     OW18907   4.231   2.089   3.072 -0.1659 -0.1532 -0.1223
 2425SOL    HW118908   4.264   2.051   3.153  0.5430 -1.8408 -1.1971
 2425SOL    HW218909   4.180   2.164   3.101 -3.5651 -2.8934  0.9939
 2426SOL     OW18910   1.856   1.676   4.613  0.0174 -0.1447  0.1995
 2426SOL    HW118911   1.778   1.623   4.600  3.0196 -4.2473 -1.1530
 2426SOL    HW218912   1.930   1.633   4.571 -0.6478 -0.9115 -0.1930
 2427SOL     OW18913   0.899   1.361  14.170  0.3652  0.4059 -0.4768
 2427SOL    HW118914   0.938   1.340  14.085 -0.1253 -1.6795 -0.1661
 2427SOL    HW218915   0.814   1.320  14.162  1.6972 -1.9719 -2.4616
 2428SOL     OW18916   3.853   0.651  11.805 -0.0527  0.1344 -0.6146
 2428SOL    HW118917   3.904   0.608  11.737  1.4028 -0.8269  1.0904
 2428SOL    HW218918   3.841   0.740  11.771 -2.3004 -0.1522 -0.6233
 2429SOL     OW18919   2.833   1.572   5.937 -0.2375  0.0447 -0.2054
 2429SOL    HW118920   2.838   1.615   5.852  1.8649  1.1258  0.4647
 2429SOL    HW218921   2.828   1.479   5.912  1.1052  0.2003 -1.0582
 2430SOL     OW18922   0.758   3.567   6.624 -0.3117  0.1764 -0.0504
 2430SOL    HW118923   0.849   3.581   6.600  0.3456 -1.3119  1.6065
 2430SOL    HW218924   0.726   3.518   6.548  2.6363  1.9208 -2.3917
 2431SOL     OW18925   0.959   2.453   3.228  0.0104  0.1599  0.3417
 2431SOL    HW118926   0.985   2.538   3.263 -0.9561  0.2709  0.7864
 2431SOL    HW218927   1.038   2.425   3.183  0.8531  1.5387  0.9558
 2432SOL     OW18928   1.681   1.552   1.408  0.1886 -0.4740  0.5501
 2432SOL    HW118929   1.610   1.528   1.349  0.4354  3.5006 -1.3748
 2432SOL    HW218930   1.630   1.605   1.470  0.4321 -0.5451  0.8109
 2433SOL     OW18931   3.384   0.715   6.059 -0.1464 -0.0847  0.4032
 2433SOL    HW118932   3.436   0.783   6.103  0.0292  1.2855 -1.9560
 2433SOL    HW218933   3.388   0.647   6.126  3.5446  0.1189  0.3913
 2434SOL     OW18934   1.862   3.571   9.757 -0.3093  0.5667 -0.7182
 2434SOL    HW118935   1.890   3.483   9.782  0.4316  1.5173  1.8133
 2434SOL    HW218936   1.937   3.616   9.718 -1.0080  2.1160 -0.2859
 2435SOL     OW18937   4.473   0.715   8.072 -0.1931  0.2332 -0.1053
 2435SOL    HW118938   4.457   0.627   8.105 -0.6771  0.5064  0.3735
 2435SOL    HW218939   4.548   0.737   8.127  0.2526  1.0501 -1.0326
 2436SOL     OW18940   1.740   0.627   2.716  0.0780  0.2469  0.4085
 2436SOL    HW118941   1.814   0.652   2.770 -0.6891  0.4290  1.3860
 2436SOL    HW218942   1.685   0.704   2.726  1.4712  1.3618 -0.6193
 2437SOL     OW18943   0.115   1.932   8.239 -0.4732  0.3549 -0.2767
 2437SOL    HW118944   0.156   1.853   8.274  2.8086  2.0329 -0.3033
 2437SOL    HW218945   0.102   1.902   8.149  1.3562  2.2306 -1.1648
 2438SOL     OW18946   1.567   4.109   8.723 -0.0547 -0.0848 -0.7087
 2438SOL    HW118947   1.614   4.082   8.801 -0.6702  0.3247 -0.1975
 2438SOL    HW218948   1.632   4.173   8.695  0.8323 -1.2198 -1.2859
 2439SOL     OW18949   1.467   2.270  13.335  0.4753  0.2573 -1.0191
 2439SOL    HW118950   1.383   2.231  13.310  0.4708 -0.8722  0.7123
 2439SOL    HW218951   1.520   2.191  13.349 -1.0320 -0.8163 -1.4421
 2440SOL     OW18952   2.901   0.886   6.783  0.2348  0.2164 -0.2449
 2440SOL    HW118953   2.993   0.901   6.759  0.6235 -0.6164  0.7019
 2440SOL    HW218954   2.904   0.790   6.788 -0.8321  0.2423  0.8848
 2441SOL     OW18955   3.473   1.851  14.565 -0.1481  0.3166 -0.1766
 2441SOL    HW118956   3.427   1.781  14.519 -1.0571  1.6794 -1.3588
 2441SOL    HW218957   3.562   1.863  14.533  0.7728 -3.5329  0.9816
 2442SOL     OW18958   4.239   0.232   6.928  0.3122  0.1898  0.1536
 2442SOL    HW118959   4.298   0.249   7.001  0.1933  1.8806 -0.1433
 2442SOL    HW218960   4.209   0.147   6.962 -0.8479  0.8881  0.8575
 2443SOL     OW18961   1.826   3.741   1.119 -0.2931 -0.4429  0.5022
 2443SOL    HW118962   1.804   3.819   1.069  1.5088 -1.1475 -1.3620
 2443SOL    HW218963   1.841   3.675   1.052  2.6501  1.5788 -0.8453
 2444SOL     OW18964   1.717   2.516   7.687 -0.0831 -0.0466 -0.2487
 2444SOL    HW118965   1.712   2.451   7.618 -1.9319 -1.1122  0.8796
 2444SOL    HW218966   1.672   2.592   7.650 -0.3451 -1.2048 -2.2991
 2445SOL     OW18967   4.646   1.430   1.489  0.0656 -0.2498  0.1257
 2445SOL    HW118968   4.624   1.342   1.518  1.5467 -1.0199 -1.1399
 2445SOL    HW218969   4.666   1.477   1.570  0.0356 -1.2519  0.7002
 2446SOL     OW18970   4.534   0.402   6.271  0.1513 -0.2158  0.5656
 2446SOL    HW118971   4.468   0.376   6.335  1.2050  0.5629  1.9468
 2446SOL    HW218972   4.551   0.494   6.289 -0.3071 -0.2592  1.1944
 2447SOL     OW18973   2.553   2.068   1.397  0.7587  0.4108 -0.2262
 2447SOL    HW118974   2.498   2.136   1.437 -0.1541 -0.2266 -0.3986
 2447SOL    HW218975   2.485   2.006   1.371  1.4239 -0.3614 -0.0930
 2448SOL     OW18976   2.579   0.640   6.930  0.3424  0.5872 -0.2182
 2448SOL    HW118977   2.543   0.654   6.842  0.9093  3.0918 -0.0329
 2448SOL    HW218978   2.664   0.605   6.905 -0.1236 -0.0678 -0.9011
 2449SOL     OW18979   1.114   3.804  14.146 -1.0674 -0.2761 -0.1837
 2449SOL    HW118980   1.202   3.769  14.139 -0.6102  0.4087  2.1949
 2449SOL    HW218981   1.125   3.892  14.110  0.7115 -0.3833  0.1328
 2450SOL     OW18982   3.818   3.651  10.453  0.1400  0.4291 -0.7371
 2450SOL    HW118983   3.844   3.732  10.496  0.7270  0.7147 -1.6474
 2450SOL    HW218984   3.830   3.683  10.364 -5.3995 -0.4376 -1.8046
 2451SOL     OW18985   3.694   4.513   3.153  0.7932  0.5122  0.4177
 2451SOL    HW118986   3.647   4.490   3.073  1.1904  1.1587 -0.0046
 2451SOL    HW218987   3.637   4.490   3.226  1.3139  1.3991  1.0972
 2452SOL     OW18988   0.622   3.718   4.769  0.0723 -0.0867 -0.0988
 2452SOL    HW118989   0.598   3.630   4.742 -2.2494 -0.1228  2.1567
 2452SOL    HW218990   0.703   3.698   4.816 -0.0169  0.0197  0.1037
 2453SOL     OW18991   2.253   4.144  15.685  0.3561 -0.1284  0.1795
 2453SOL    HW118992   2.304   4.100  15.616 -0.7043 -1.0890 -0.0015
 2453SOL    HW218993   2.167   4.149  15.644 -0.0497  2.4790  1.3692
 2454SOL     OW18994   2.992   3.255   8.244 -0.2848  0.6865 -0.4473
 2454SOL    HW118995   3.072   3.217   8.281  1.0260 -0.0555 -3.9919
 2454SOL    HW218996   3.021   3.346   8.245 -1.6186  1.0356  3.3210
 2455SOL     OW18997   2.987   3.149   6.827 -0.0013  0.3416 -0.5413
 2455SOL    HW118998   2.907   3.131   6.777  0.3970 -2.4788 -0.1647
 2455SOL    HW218999   3.045   3.094   6.775 -1.0590  0.2359 -1.6043
 2456SOL     OW19000   1.151   0.132   0.306 -0.2438  0.4795  0.1141
 2456SOL    HW119001   1.242   0.144   0.280  0.3741 -0.4573  1.8475
 2456SOL    HW219002   1.124   0.065   0.243 -2.5544  0.0650  1.5222
 2457SOL     OW19003   4.371   0.729  11.431 -0.2915  0.4286 -0.2477
 2457SOL    HW119004   4.452   0.779  11.425 -0.4627  0.7673  0.3475
 2457SOL    HW219005   4.386   0.688  11.516  3.3725 -0.4857 -1.3196
 2458SOL     OW19006   1.560   2.681   5.587 -0.1590  0.5158 -0.3612
 2458SOL    HW119007   1.636   2.687   5.529  0.4777 -1.8179  0.2214
 2458SOL    HW219008   1.576   2.607   5.646  1.0456  0.7475 -0.3822
 2459SOL     OW19009   0.560   0.966  10.089  0.1755 -0.4797 -0.1389
 2459SOL    HW119010   0.535   0.989  10.179 -0.6617  2.7820 -1.1935
 2459SOL    HW219011   0.495   1.018  10.040 -1.7410 -2.6913  0.0511
 2460SOL     OW19012   1.675   4.450   6.771 -0.0366  0.5276 -0.3258
 2460SOL    HW119013   1.585   4.483   6.773 -0.5855 -0.7950 -3.1815
 2460SOL    HW219014   1.705   4.479   6.685  0.8542  0.6624  0.0321
 2461SOL     OW19015   2.755   0.198   8.947 -0.2126 -0.1852 -0.3803
 2461SOL    HW119016   2.835   0.248   8.965 -0.3461  0.5456 -1.8149
 2461SOL    HW219017   2.698   0.266   8.911 -0.3166  0.1539  0.4308
 2462SOL     OW19018   4.281   0.411  13.812 -0.3286  0.0094  0.2634
 2462SOL    HW119019   4.196   0.441  13.845 -0.3035 -1.4497  1.6322
 2462SOL    HW219020   4.298   0.486  13.755 -0.8633 -2.2734 -2.8936
 2463SOL     OW19021   1.602   4.273   2.488 -0.1961 -0.5281 -0.1670
 2463SOL    HW119022   1.559   4.306   2.409  1.2667  0.3953 -0.5775
 2463SOL    HW219023   1.527   4.271   2.547  0.0601  0.8621  0.2176
 2464SOL     OW19024   4.331   0.827   0.757 -0.0567 -0.5192  0.5024
 2464SOL    HW119025   4.374   0.798   0.838 -0.3376 -0.5787  0.6325
 2464SOL    HW219026   4.402   0.814   0.695 -0.2253 -0.7246  0.3561
 2465SOL     OW19027   2.094   0.326  10.427 -0.6076  0.3662  0.5974
 2465SOL    HW119028   2.026   0.266  10.458 -0.0757  0.0231  1.1084
 2465SOL    HW219029   2.158   0.269  10.385 -2.1140  0.1261 -1.3395
 2466SOL     OW19030   0.256   2.623  16.809  0.4425  0.8350  0.0172
 2466SOL    HW119031   0.298   2.543  16.778  0.2554  0.7703 -0.0640
 2466SOL    HW219032   0.212   2.598  16.890 -0.3747 -0.6786 -0.9087
 2467SOL     OW19033   2.494   4.443  10.407  0.0662 -0.3619  0.1567
 2467SOL    HW119034   2.491   4.530  10.446 -0.7571  0.1493 -1.0583
 2467SOL    HW219035   2.520   4.389  10.482 -1.3519  0.4671  1.2446
 2468SOL     OW19036   3.197   0.239  11.199 -0.5604  0.2344 -0.0298
 2468SOL    HW119037   3.203   0.326  11.159 -0.3028  0.6597  0.9557
 2468SOL    HW219038   3.266   0.241  11.265 -1.2577  1.1069  0.6678
 2469SOL     OW19039   3.417   4.409   5.183 -0.3020 -0.3271  0.3024
 2469SOL    HW119040   3.508   4.436   5.192  0.1843 -2.2084  0.9659
 2469SOL    HW219041   3.378   4.497   5.185 -2.0203 -1.0808  0.2696
 2470SOL     OW19042   0.719   4.026   5.106  0.3625  0.3057  0.4055
 2470SOL    HW119043   0.697   3.982   5.024  0.9352  1.5117 -0.3960
 2470SOL    HW219044   0.745   4.111   5.070  1.2075 -0.8602 -1.7967
 2471SOL     OW19045   4.403   3.616   4.032 -0.2540  0.8677 -0.4491
 2471SOL    HW119046   4.462   3.633   4.106  0.2174  0.8110 -0.8118
 2471SOL    HW219047   4.339   3.554   4.067 -0.4757  0.2724 -1.9114
 2472SOL     OW19048   0.576   0.550  11.863 -0.1693 -0.5881  0.3592
 2472SOL    HW119049   0.662   0.508  11.866  0.5489  0.8962  0.8780
 2472SOL    HW219050   0.528   0.519  11.940 -1.2236  0.2764  0.0404
 2473SOL     OW19051   1.625   2.764   6.780 -0.4009 -0.0024 -0.3896
 2473SOL    HW119052   1.610   2.853   6.750  1.5577 -0.1159 -1.7389
 2473SOL    HW219053   1.576   2.714   6.714  1.2488  0.5646 -2.0643
 2474SOL     OW19054   3.371   0.826   2.544 -0.0374 -0.6473 -0.4620
 2474SOL    HW119055   3.452   0.873   2.525  0.1200 -0.7853 -0.1419
 2474SOL    HW219056   3.387   0.802   2.635  0.3618 -2.8093 -1.1133
 2475SOL     OW19057   0.248   1.480   6.443 -0.6195  0.0814 -0.4763
 2475SOL    HW119058   0.248   1.387   6.424 -0.3110 -0.2439  1.1374
 2475SOL    HW219059   0.327   1.510   6.398 -1.1100 -2.2640 -2.8573
 2476SOL     OW19060   0.932   2.948   8.806  0.2015 -0.1846 -0.7467
 2476SOL    HW119061   0.840   2.928   8.825  0.0399  0.2821 -1.0434
 2476SOL    HW219062   0.942   2.892   8.729  0.7574 -3.0910  1.4085
 2477SOL     OW19063   4.509   3.224   8.946 -0.2844  0.4884  0.4317
 2477SOL    HW119064   4.459   3.301   8.920 -0.0754  0.2502 -0.6458
 2477SOL    HW219065   4.435   3.170   8.974 -0.2846 -0.2401 -0.9725
 2478SOL     OW19066   0.589   2.171  16.970  0.0778  0.3188 -0.0765
 2478SOL    HW119067   0.570   2.091  16.921 -0.8114  0.6239 -0.2281
 2478SOL    HW219068   0.500   2.207  16.963  0.2847  1.2602  1.9488
 2479SOL     OW19069   2.299   3.802   4.991  0.4390  0.0012 -0.6138
 2479SOL    HW119070   2.368   3.796   5.057  0.0452 -0.4837 -0.2394
 2479SOL    HW219071   2.250   3.881   5.015  1.0679  0.0767  0.4388
 2480SOL     OW19072   4.090   1.828   3.226  0.2840 -0.0331 -0.0476
 2480SOL    HW119073   4.108   1.791   3.312 -0.3128 -0.4213 -0.0946
 2480SOL    HW219074   4.156   1.897   3.230  1.6224 -1.2601 -1.2655
 2481SOL     OW19075   0.813   2.823  13.885 -0.8390 -0.3232  0.2145
 2481SOL    HW119076   0.729   2.850  13.923 -0.0769  3.6383 -0.9626
 2481SOL    HW219077   0.798   2.757  13.818 -0.6198  0.8082 -0.9454
 2482SOL     OW19078   1.346   2.200   9.399  0.1258 -0.2344 -0.2594
 2482SOL    HW119079   1.287   2.253   9.453 -0.2065  1.0687 -1.8953
 2482SOL    HW219080   1.337   2.227   9.307  1.4304 -0.8316 -0.5549
 2483SOL     OW19081   4.017   4.601  13.575  0.5266 -0.1578 -0.1993
 2483SOL    HW119082   4.075   4.525  13.573  1.4336  0.4824  1.6056
 2483SOL    HW219083   4.054   4.661  13.509 -0.2700  0.5798  0.0252
 2484SOL     OW19084   0.427   0.495  17.371  0.4300 -0.7195 -0.2165
 2484SOL    HW119085   0.428   0.576  17.421 -1.1654 -0.0754 -1.2049
 2484SOL    HW219086   0.346   0.449  17.396 -0.6866  1.4764  0.2250
 2485SOL     OW19087   0.079   2.079  15.207  0.1920  0.0810  0.6186
 2485SOL    HW119088   0.103   1.988  15.191 -1.5681  0.0746 -1.9815
 2485SOL    HW219089   0.160   2.124  15.183 -0.1536  1.6296  2.4475
 2486SOL     OW19090   3.064   0.297   0.311  0.1911 -0.1389  0.1962
 2486SOL    HW119091   3.086   0.294   0.404 -1.2402 -0.3208  0.5223
 2486SOL    HW219092   3.146   0.260   0.278 -0.2627  0.9715 -2.1752
 2487SOL     OW19093   2.972   1.632  13.663 -0.3186  0.2023  0.0980
 2487SOL    HW119094   2.899   1.607  13.719  0.4277  0.9705  1.4235
 2487SOL    HW219095   2.943   1.721  13.642  0.4738  1.0564  2.6419
 2488SOL     OW19096   1.409   1.349   1.619 -0.3785  0.6964 -0.9823
 2488SOL    HW119097   1.367   1.380   1.699  0.3208  0.7783 -0.6458
 2488SOL    HW219098   1.361   1.399   1.554 -3.1082  0.0445  0.5128
 2489SOL     OW19099   1.031   2.845   2.810 -0.4458 -0.7708  0.4181
 2489SOL    HW119100   1.076   2.918   2.851 -2.6053 -1.9219  4.8900
 2489SOL    HW219101   0.952   2.886   2.775  0.2552  0.4009  0.2452
 2490SOL     OW19102   4.680   1.917   8.476 -0.5155  0.2493 -0.3655
 2490SOL    HW119103   4.638   1.833   8.492 -1.7778  0.9848  0.2012
 2490SOL    HW219104   4.700   1.910   8.383 -1.5034  1.1922 -0.6510
 2491SOL     OW19105   1.311   4.293   6.350 -0.1502  0.3791 -0.5708
 2491SOL    HW119106   1.313   4.352   6.425 -0.4649 -0.9090  0.4289
 2491SOL    HW219107   1.239   4.236   6.375  0.4233  0.3639  1.0365
 2492SOL     OW19108   4.522   2.796   2.693  0.2481  0.1743 -0.7382
 2492SOL    HW119109   4.460   2.777   2.623 -0.6296  0.0439  0.0635
 2492SOL    HW219110   4.458   2.809   2.763 -0.5603  1.5764 -1.7323
 2493SOL     OW19111   4.171   2.008  14.704  0.3861 -0.1740 -0.2208
 2493SOL    HW119112   4.143   2.037  14.617  0.0111 -1.7722 -0.6176
 2493SOL    HW219113   4.256   2.051  14.719  1.8350 -2.8975 -0.6167
 2494SOL     OW19114   2.107   4.417   9.052  0.1269 -0.4659 -0.1465
 2494SOL    HW119115   2.156   4.483   9.002 -0.8085 -1.5625 -2.5184
 2494SOL    HW219116   2.148   4.336   9.022  2.2415  0.4785  0.1159
 2495SOL     OW19117   0.190   2.028   9.396 -0.1744 -0.0997  0.4354
 2495SOL    HW119118   0.101   2.036   9.428  0.2511 -0.6745  1.7452
 2495SOL    HW219119   0.204   2.111   9.351  2.0327 -0.9808 -0.5465
 2496SOL     OW19120   3.298   2.469  16.078 -0.5778 -0.0518  0.1139
 2496SOL    HW119121   3.290   2.418  16.159  0.6220 -0.1118  0.1885
 2496SOL    HW219122   3.393   2.480  16.081 -0.5841  0.4477 -1.9946
 2497SOL     OW19123   3.164   0.185  14.458 -0.5546 -0.2985 -0.3122
 2497SOL    HW119124   3.258   0.167  14.460 -0.6987 -0.8021  1.9738
 2497SOL    HW219125   3.144   0.107  14.407 -2.7914  0.4735 -0.6180
 2498SOL     OW19126   1.941   4.237   7.305 -0.2620  0.2219  0.1266
 2498SOL    HW119127   1.918   4.181   7.379  0.4639  1.5876  1.3906
 2498SOL    HW219128   1.865   4.215   7.250 -0.6499 -0.6142  0.9823
 2499SOL     OW19129   2.456   2.139   9.650 -0.2765 -0.3698  0.2503
 2499SOL    HW119130   2.511   2.202   9.696 -1.4994  0.9702 -0.1143
 2499SOL    HW219131   2.374   2.186   9.668  0.1919 -1.0508  4.2784
 2500SOL     OW19132   1.021   0.574   4.212  0.4995 -0.2082 -0.2682
 2500SOL    HW119133   0.943   0.529   4.244  2.1161 -2.4231  0.6211
 2500SOL    HW219134   1.046   0.625   4.289 -1.4839  0.6966 -0.2294
 2501SOL     OW19135   1.475   1.058   2.479  0.5945 -0.1763 -0.0785
 2501SOL    HW119136   1.488   0.972   2.439 -1.0868 -0.6607  0.4066
 2501SOL    HW219137   1.561   1.064   2.520  0.9583  1.6610 -1.0985
 2502SOL     OW19138   0.453   4.610   9.331  0.2098  0.1092  0.2927
 2502SOL    HW119139   0.540   4.642   9.305  0.3021 -0.8321 -0.5520
 2502SOL    HW219140   0.421   4.678   9.391  0.1499 -1.4086  1.9667
 2503SOL     OW19141   1.507   4.142   4.361  0.0622  0.3320 -0.5126
 2503SOL    HW119142   1.561   4.188   4.298  1.1622  0.4308  0.5060
 2503SOL    HW219143   1.576   4.112   4.421 -0.7923  0.2881  0.4622
 2504SOL     OW19144   2.941   1.873   1.423  0.3043 -0.7268  0.3230
 2504SOL    HW119145   3.008   1.841   1.483  1.2661 -0.0742 -0.3906
 2504SOL    HW219146   2.860   1.853   1.469  1.4603 -2.1712  1.7183
 2505SOL     OW19147   2.893   1.662   5.679 -0.4388 -0.0575 -0.1400
 2505SOL    HW119148   2.832   1.626   5.615  0.3189  1.2358 -1.5806
 2505SOL    HW219149   2.924   1.744   5.640  0.8031 -0.7590 -0.6064
 2506SOL     OW19150   3.651   1.860   6.974  0.0559 -0.3702  0.2258
 2506SOL    HW119151   3.611   1.946   6.964  1.3788  0.3315  1.0272
 2506SOL    HW219152   3.669   1.864   7.068 -0.6683  4.9968  0.1205
 2507SOL     OW19153   0.824   1.584   2.365  0.0131 -0.2517  0.2381
 2507SOL    HW119154   0.781   1.572   2.280  0.6916 -0.9095 -0.0127
 2507SOL    HW219155   0.890   1.515   2.353 -0.6247 -0.4291 -2.4042
 2508SOL     OW19156   0.965   2.806   3.522 -0.3980  0.0744 -0.3416
 2508SOL    HW119157   1.027   2.832   3.454  1.0767 -0.7198  0.6897
 2508SOL    HW219158   0.885   2.853   3.500 -0.1587  1.5833  2.0188
 2509SOL     OW19159   4.279   0.851  16.951 -0.1461  0.0878  0.0727
 2509SOL    HW119160   4.188   0.865  16.977 -0.5902 -1.7100 -0.5357
 2509SOL    HW219161   4.257   0.822  16.863  0.1572  1.6810 -0.5203
 2510SOL     OW19162   3.433   4.202  12.504 -0.1030 -0.5040  0.4044
 2510SOL    HW119163   3.343   4.233  12.514 -0.0725 -0.0477 -0.6928
 2510SOL    HW219164   3.475   4.210  12.590  2.9966  0.5014 -1.1843
 2511SOL     OW19165   3.637   0.537   8.714 -0.4451 -0.0998  0.4087
 2511SOL    HW119166   3.558   0.558   8.664 -0.7375 -2.6098 -0.2173
 2511SOL    HW219167   3.655   0.629   8.730  0.9791 -0.3247  0.0858
 2512SOL     OW19168   0.480   2.105   2.388 -0.3270  0.8847  0.3513
 2512SOL    HW119169   0.542   2.086   2.318 -1.2836  0.7113 -0.4502
 2512SOL    HW219170   0.442   2.175   2.335  0.3945  0.6329 -0.4874
 2513SOL     OW19171   2.409   0.135   5.346  0.4817 -0.1918  0.0835
 2513SOL    HW119172   2.483   0.075   5.333  0.7495  0.4032 -1.1410
 2513SOL    HW219173   2.448   0.222   5.334  1.0265 -0.5947 -1.0825
 2514SOL     OW19174   1.162   4.448   7.056 -0.0822 -0.0223 -0.0081
 2514SOL    HW119175   1.126   4.466   6.969  0.5642 -0.7556 -0.4291
 2514SOL    HW219176   1.248   4.473   7.022 -0.1477  0.5674  0.2656
 2515SOL     OW19177   3.792   0.777   5.217 -0.0349 -0.0555  0.7698
 2515SOL    HW119178   3.726   0.740   5.159  1.0373 -0.8425  0.0604
 2515SOL    HW219179   3.827   0.703   5.266  1.0892 -0.2825 -0.3809
 2516SOL     OW19180   3.533   3.903   2.032  0.8602 -0.0701 -0.3340
 2516SOL    HW119181   3.595   3.831   2.045 -0.2636 -1.0520 -0.4173
 2516SOL    HW219182   3.581   3.944   1.959 -0.2146  0.7837 -0.5632
 2517SOL     OW19183   2.966   2.700   8.455 -0.1806 -0.4910  0.0554
 2517SOL    HW119184   2.994   2.623   8.504  1.1567 -0.0653 -0.0534
 2517SOL    HW219185   2.874   2.682   8.477 -0.9546  1.7636 -1.2796
 2518SOL     OW19186   3.301   0.542   3.440  0.1562  0.8285 -0.0653
 2518SOL    HW119187   3.379   0.511   3.394  0.7931  0.2966  1.3488
 2518SOL    HW219188   3.235   0.541   3.371 -0.4348  1.9968  0.4912
 2519SOL     OW19189   3.684   3.434   6.168 -0.3526  0.0639  0.5311
 2519SOL    HW119190   3.716   3.372   6.233 -1.7177 -1.7920 -0.5620
 2519SOL    HW219191   3.594   3.402   6.158 -1.1454  3.1362 -1.9739
 2520SOL     OW19192   2.320   0.305   8.376  0.0468 -0.8411 -0.1646
 2520SOL    HW119193   2.321   0.373   8.309 -1.0503 -3.1151 -2.4855
 2520SOL    HW219194   2.413   0.308   8.399 -0.4966  1.2440  1.6712
 2521SOL     OW19195   1.965   0.913   0.794 -0.4785  0.0760 -0.8244
 2521SOL    HW119196   1.897   0.933   0.859  0.2000 -0.6094  0.1035
 2521SOL    HW219197   2.041   0.949   0.840  0.6671 -0.4906 -2.2879
 2522SOL     OW19198   4.206   3.920  12.296 -0.4031 -0.4831 -0.0859
 2522SOL    HW119199   4.115   3.905  12.270 -1.4077  1.7505  2.2395
 2522SOL    HW219200   4.215   3.847  12.358 -1.7794  0.9038  1.7364
 2523SOL     OW19201   2.727   0.837   6.509 -0.1299 -0.2362 -0.0294
 2523SOL    HW119202   2.815   0.818   6.542  0.3467 -2.0186 -2.3292
 2523SOL    HW219203   2.740   0.812   6.417 -0.4094  0.9174 -0.3864
 2524SOL     OW19204   3.028   2.788   4.464 -0.2526 -0.0186  0.1854
 2524SOL    HW119205   2.983   2.783   4.379  0.0242  0.9291 -0.0205
 2524SOL    HW219206   3.060   2.877   4.474 -1.3921  0.5627 -1.3505
 2525SOL     OW19207   4.154   0.093   6.268  0.0416  0.6574 -0.0451
 2525SOL    HW119208   4.186   0.003   6.274 -1.4461  0.1522  0.3586
 2525SOL    HW219209   4.075   0.068   6.221 -0.1987  0.2818  0.5603
 2526SOL     OW19210   2.668   3.038   5.249 -0.0167 -1.0141  0.2087
 2526SOL    HW119211   2.740   2.986   5.215 -0.2571 -1.5742  0.5572
 2526SOL    HW219212   2.711   3.115   5.285  0.5540 -0.3095 -1.9603
 2527SOL     OW19213   2.332   1.612   4.680 -0.5818 -0.0764 -0.0371
 2527SOL    HW119214   2.336   1.699   4.641 -0.9914 -0.1555 -0.2530
 2527SOL    HW219215   2.400   1.618   4.747  0.2441 -0.5936 -0.8196
 2528SOL     OW19216   0.019   2.621   2.456 -0.4565 -0.3609 -0.6717
 2528SOL    HW119217   0.108   2.620   2.491 -0.8787 -1.8615  0.3442
 2528SOL    HW219218   0.009   2.710   2.422 -3.0530  0.7472  2.9588
 2529SOL     OW19219   0.049   1.311   9.130 -0.4801 -0.3019  0.0799
 2529SOL    HW119220   0.062   1.251   9.203  0.2143 -1.4699 -1.0012
 2529SOL    HW219221   4.718   1.272   9.076  0.5347  3.2494 -3.7631
 2530SOL     OW19222   2.031   2.959   9.413  0.0015 -0.2586  0.4776
 2530SOL    HW119223   1.954   2.904   9.398  0.5079 -0.4880 -1.2140
 2530SOL    HW219224   1.993   3.029   9.359 -0.9707  0.0303  1.5261
 2531SOL     OW19225   3.392   0.981   7.142  0.3685  0.1540 -0.4931
 2531SOL    HW119226   3.427   1.051   7.086  3.0337 -1.9443 -1.4449
 2531SOL    HW219227   3.313   0.951   7.098 -0.8763  0.2112  1.7223
 2532SOL     OW19228   2.111   2.190   9.479 -0.7666 -0.2614 -0.0210
 2532SOL    HW119229   2.028   2.208   9.523 -0.7206 -2.5708  0.9532
 2532SOL    HW219230   2.162   2.254   9.529 -1.1428  1.0138 -1.2629
 2533SOL     OW19231   1.181   0.711  17.404  0.3127  0.1307  0.0464
 2533SOL    HW119232   1.141   0.724  17.490  0.2322  1.6296 -0.2188
 2533SOL    HW219233   1.255   0.771  17.414  0.8287 -0.4703 -0.1822
 2534SOL     OW19234   4.398   1.851   8.628 -0.6412  0.1785 -0.3286
 2534SOL    HW119235   4.344   1.803   8.565  0.6387 -0.9551 -0.5716
 2534SOL    HW219236   4.442   1.923   8.581 -0.0034  0.0483  0.0670
 2535SOL     OW19237   2.666   3.052   2.189 -0.3747 -0.2720 -0.1735
 2535SOL    HW119238   2.658   2.958   2.173  0.6725 -0.4874  0.5891
 2535SOL    HW219239   2.755   3.075   2.162  0.2598 -0.6843  1.5684
 2536SOL     OW19240   1.359   0.666   7.367  0.1418 -0.1230 -0.1038
 2536SOL    HW119241   1.423   0.736   7.374 -2.1168  1.9623 -0.4290
 2536SOL    HW219242   1.422   0.595   7.357 -2.1368 -2.1399 -0.1335
 2537SOL     OW19243   2.261   0.374   2.280  0.2185 -0.5386  0.0352
 2537SOL    HW119244   2.193   0.432   2.316  0.4918 -0.5798  0.6224
 2537SOL    HW219245   2.314   0.442   2.239 -0.1923  1.4217  2.7089
 2538SOL     OW19246   4.585   3.832   3.220 -0.7981 -0.2910  0.1313
 2538SOL    HW119247   4.550   3.875   3.299 -2.8876  0.9339 -1.4643
 2538SOL    HW219248   4.530   3.754   3.230 -0.5761 -0.1753  2.2506
 2539SOL     OW19249   2.361   3.887   1.334  0.3793  0.3564 -0.0687
 2539SOL    HW119250   2.313   3.951   1.387 -0.1611  0.0811 -0.2256
 2539SOL    HW219251   2.295   3.829   1.297  0.6039  0.7478 -1.0921
 2540SOL     OW19252   3.555   1.133   7.834 -0.3458 -0.6584 -0.2854
 2540SOL    HW119253   3.547   1.175   7.920  2.2027  0.6473 -0.6891
 2540SOL    HW219254   3.587   1.203   7.778  0.2859 -0.5268  0.2341
 2541SOL     OW19255   0.745   2.566   6.499  0.2850  0.0361 -0.5802
 2541SOL    HW119256   0.679   2.626   6.464  1.1202 -0.0721 -2.3433
 2541SOL    HW219257   0.821   2.624   6.510 -0.0617  0.1416  1.3594
 2542SOL     OW19258   1.244   0.880  11.525  0.2405 -0.6666  0.1356
 2542SOL    HW119259   1.193   0.950  11.485  5.0367  1.9927 -1.3325
 2542SOL    HW219260   1.242   0.921  11.611  1.4770  1.2953 -0.7616
 2543SOL     OW19261   0.933   2.059   7.618  0.1413 -0.6274  0.4080
 2543SOL    HW119262   0.989   2.133   7.593  1.1807 -1.1475  1.2211
 2543SOL    HW219263   0.983   2.023   7.690  0.2085 -1.0935  0.1286
 2544SOL     OW19264   1.826   2.764   9.330  0.1832 -0.0757  0.1161
 2544SOL    HW119265   1.739   2.768   9.291 -0.0051  0.8748  0.6221
 2544SOL    HW219266   1.821   2.682   9.380 -1.9161 -1.1462 -1.8338
 2545SOL     OW19267   0.089   1.894   0.253 -0.2371  0.0943 -0.8235
 2545SOL    HW119268   0.008   1.937   0.226 -0.4298  0.9484  1.1405
 2545SOL    HW219269   0.121   1.963   0.310 -1.8503 -1.6126  2.1366
 2546SOL     OW19270   0.905   1.456   9.665  0.2655 -0.2838  0.1731
 2546SOL    HW119271   0.845   1.438   9.592  1.3181 -0.9492 -0.5199
 2546SOL    HW219272   0.990   1.414   9.651 -0.0209  0.2008 -2.9971
 2547SOL     OW19273   4.456   2.340   3.842  0.2364  0.5280 -0.0473
 2547SOL    HW119274   4.482   2.395   3.768  0.1371 -1.5539 -1.6590
 2547SOL    HW219275   4.536   2.338   3.894  0.7359 -0.7884 -0.8454
 2548SOL     OW19276   0.465   4.634  12.967  0.1378  0.0165 -0.2868
 2548SOL    HW119277   0.412   4.682  12.903 -0.9053  1.7693  1.8913
 2548SOL    HW219278   0.431   4.656  13.053 -0.7873 -0.0010 -0.6458
 2549SOL     OW19279   0.556   0.595  11.583  0.0753 -0.1554  0.7144
 2549SOL    HW119280   0.581   0.505  11.564 -1.3236 -0.8431  2.0817
 2549SOL    HW219281   0.568   0.594  11.678  0.8748  1.1975  0.6257
 2550SOL     OW19282   2.865   3.662  10.519  0.1453  0.2931 -0.0862
 2550SOL    HW119283   2.945   3.613  10.536  1.9201  2.3773 -2.4284
 2550SOL    HW219284   2.877   3.696  10.430  1.6834  0.4173  0.1654
 2551SOL     OW19285   2.184   4.294   6.020 -0.4933  0.2240  0.7115
 2551SOL    HW119286   2.128   4.330   5.951  0.8715 -1.7734 -1.4241
 2551SOL    HW219287   2.122   4.233   6.060 -0.0947  0.4927  1.7585
 2552SOL     OW19288   0.613   0.175   9.131 -0.5892 -0.0658  0.8877
 2552SOL    HW119289   0.645   0.182   9.220  0.9154 -1.5519  0.4710
 2552SOL    HW219290   0.689   0.192   9.076 -1.4282  0.0344 -0.2453
 2553SOL     OW19291   0.898   0.674   5.013 -0.4749 -0.5204  0.2931
 2553SOL    HW119292   0.849   0.594   5.033 -0.9887  0.7068  4.0922
 2553SOL    HW219293   0.894   0.714   5.100 -2.0750  1.5608 -0.7591
 2554SOL     OW19294   1.120   2.604   4.541  0.2566 -0.7068 -0.8741
 2554SOL    HW119295   1.047   2.636   4.487  0.7326  1.2362 -0.3648
 2554SOL    HW219296   1.121   2.518   4.500 -3.2262 -1.7252  1.2448
 2555SOL     OW19297   3.831   2.324   2.486 -0.4413  0.4151 -0.3338
 2555SOL    HW119298   3.925   2.309   2.484 -0.0956  2.4849  0.3047
 2555SOL    HW219299   3.826   2.371   2.569  0.1706  2.0303 -1.2123
 2556SOL     OW19300   3.748   0.119  17.157  0.5038 -0.5325  0.2240
 2556SOL    HW119301   3.837   0.097  17.184  0.9789 -1.5224 -2.1055
 2556SOL    HW219302   3.745   0.211  17.183 -2.0550 -0.4894 -0.2799
 2557SOL     OW19303   4.201   1.727   3.463 -0.5355 -0.3080 -0.0637
 2557SOL    HW119304   4.284   1.768   3.490 -0.7752  0.3270 -0.2862
 2557SOL    HW219305   4.168   1.726   3.553  1.9211 -2.4532  0.8296
 2558SOL     OW19306   2.338   4.606   5.225  0.2112 -0.5919  0.2163
 2558SOL    HW119307   2.419   4.556   5.227  0.4432 -0.2231 -0.1613
 2558SOL    HW219308   2.317   4.596   5.318 -1.3815  4.1130  0.3567
 2559SOL     OW19309   0.705   0.369  13.900  1.0380 -0.3630 -0.7050
 2559SOL    HW119310   0.745   0.304  13.958  1.0388 -0.2740 -0.6045
 2559SOL    HW219311   0.642   0.317  13.850  0.2518  0.0785 -0.1792
 2560SOL     OW19312   0.730   1.995   5.586  0.0433 -0.4317 -0.0244
 2560SOL    HW119313   0.723   1.901   5.600 -2.0382 -0.4349 -1.0830
 2560SOL    HW219314   0.802   2.001   5.523 -1.9416 -0.7327 -2.3319
 2561SOL     OW19315   4.621   3.436  15.842  0.0728 -0.2146  0.8830
 2561SOL    HW119316   4.679   3.462  15.914 -0.5624  1.6295  0.7396
 2561SOL    HW219317   4.625   3.341  15.843  0.1387 -0.2286 -0.8382
 2562SOL     OW19318   0.489   1.238  10.204 -0.1668  0.3031  0.1782
 2562SOL    HW119319   0.443   1.234  10.120  1.2036  1.3117 -0.6125
 2562SOL    HW219320   0.465   1.327  10.230  1.9706  1.2669 -1.1046
 2563SOL     OW19321   2.001   2.405   8.356 -0.5408  0.4072 -0.0885
 2563SOL    HW119322   1.935   2.431   8.292  0.1219  1.0208 -0.5268
 2563SOL    HW219323   1.963   2.429   8.440  1.0523  0.3837  0.6494
 2564SOL     OW19324   0.903   0.925   9.256  0.4250 -0.0807 -0.2839
 2564SOL    HW119325   0.891   0.851   9.317 -2.4783 -0.4667 -1.3295
 2564SOL    HW219326   0.893   0.888   9.169 -0.1796 -0.6324  0.0191
 2565SOL     OW19327   1.761   0.945   4.574  0.6227  0.3516  0.2035
 2565SOL    HW119328   1.849   0.919   4.600  1.0221 -1.1793 -2.6203
 2565SOL    HW219329   1.718   0.983   4.651  0.7585  2.0137 -0.5285
 2566SOL     OW19330   2.175   1.841   6.574 -0.5424  0.7235 -0.1446
 2566SOL    HW119331   2.210   1.756   6.603 -0.5633  0.4444 -0.9259
 2566SOL    HW219332   2.222   1.847   6.491 -0.1590 -0.8230 -0.0435
 2567SOL     OW19333   1.541   1.303   4.557  0.2131 -0.4384  0.5516
 2567SOL    HW119334   1.635   1.290   4.575  0.2660 -1.5354 -0.5958
 2567SOL    HW219335   1.518   1.221   4.514  2.1581 -0.3549 -0.6723
 2568SOL     OW19336   3.835   2.341  10.024 -0.2755  0.6079  0.3936
 2568SOL    HW119337   3.877   2.366   9.941  1.3895  1.9399  1.6435
 2568SOL    HW219338   3.915   2.336  10.075 -1.5066 -0.9373  2.1473
 2569SOL     OW19339   1.986   0.236   8.462 -0.5780  0.0555  0.4905
 2569SOL    HW119340   1.930   0.232   8.385  0.1665 -2.6362  0.0889
 2569SOL    HW219341   1.922   0.227   8.533  0.3518  0.2985  1.3553
 2570SOL     OW19342   4.139   4.458   6.420  0.4283  0.5678 -0.2644
 2570SOL    HW119343   4.166   4.511   6.495 -1.5203  2.6514 -1.0183
 2570SOL    HW219344   4.148   4.368   6.451  0.6073  1.0427  1.0786
 2571SOL     OW19345   3.504   3.776   7.012  1.2244  0.2656  0.1431
 2571SOL    HW119346   3.431   3.716   7.025 -0.2854  2.1230  0.1470
 2571SOL    HW219347   3.460   3.858   7.030  1.0379 -0.0589  1.1764
 2572SOL     OW19348   0.978   2.480   2.209 -0.1732 -0.0979  0.4972
 2572SOL    HW119349   0.955   2.446   2.295 -1.1724 -2.1604 -0.6122
 2572SOL    HW219350   1.023   2.406   2.169  2.2606  0.3166  2.4559
 2573SOL     OW19351   0.346   3.856   4.017 -0.1174 -0.0560 -0.3606
 2573SOL    HW119352   0.257   3.822   4.025  0.8168 -1.8664  2.0597
 2573SOL    HW219353   0.383   3.873   4.103  1.0295 -0.5987 -0.7512
 2574SOL     OW19354   0.149   4.488   3.634  0.2163 -0.3231 -0.4989
 2574SOL    HW119355   0.224   4.437   3.603  0.1324  0.3086 -1.7102
 2574SOL    HW219356   0.192   4.525   3.712  0.6715  1.2816 -1.5133
 2575SOL     OW19357   3.135   1.498   1.931  0.7178  0.1333 -0.3423
 2575SOL    HW119358   3.116   1.544   2.013 -0.9093  0.7125 -1.0412
 2575SOL    HW219359   3.108   1.572   1.877  0.3026 -0.0956 -0.4539
 2576SOL     OW19360   0.014   3.835   0.769 -0.2145  0.4068  0.0214
 2576SOL    HW119361   4.687   3.889   0.722 -0.0334  1.9247  1.5158
 2576SOL    HW219362   0.099   3.855   0.731  0.8859 -1.2651  1.6279
 2577SOL     OW19363   0.518   4.303   6.828 -0.0103 -0.1235  0.5345
 2577SOL    HW119364   0.460   4.265   6.894 -1.5506  2.4693  0.6696
 2577SOL    HW219365   0.521   4.392   6.862  1.0177  0.7099 -1.7481
 2578SOL     OW19366   0.734   4.194  15.443 -0.1052  0.3549 -0.3189
 2578SOL    HW119367   0.790   4.249  15.498 -0.3739  0.4873 -0.1762
 2578SOL    HW219368   0.717   4.118  15.499  0.6662  0.1587 -0.3499
 2579SOL     OW19369   4.091   3.064  10.970 -0.1367 -0.1468  0.3679
 2579SOL    HW119370   4.186   3.080  10.976 -0.1280 -0.6605  1.7491
 2579SOL    HW219371   4.095   2.973  10.940 -0.5844  0.1718 -0.6337
 2580SOL     OW19372   2.118   4.250   6.561  0.1904  0.0638 -0.4174
 2580SOL    HW119373   2.139   4.197   6.484 -1.0823 -1.3845  0.2206
 2580SOL    HW219374   2.192   4.308   6.579  0.5518  0.0417 -1.7820
 2581SOL     OW19375   2.339   4.084   5.923 -0.0735 -0.3713  0.1172
 2581SOL    HW119376   2.314   4.100   5.832 -0.1042 -2.5961 -0.2664
 2581SOL    HW219377   2.293   4.154   5.971 -0.1561  0.1846 -0.7802
 2582SOL     OW19378   2.754   2.163   9.034  0.2634  0.0720 -0.1374
 2582SOL    HW119379   2.804   2.099   8.982 -0.1544  0.3041 -0.8260
 2582SOL    HW219380   2.720   2.107   9.104 -0.8667  0.1800 -0.6055
 2583SOL     OW19381   2.583   1.730   5.223  0.5905  1.0507  0.0307
 2583SOL    HW119382   2.539   1.668   5.164 -1.7475 -0.0384  2.9280
 2583SOL    HW219383   2.509   1.787   5.246  0.0588  0.2199  0.3916
 2584SOL     OW19384   2.600   2.845  11.801 -0.3711  0.1647  0.5907
 2584SOL    HW119385   2.659   2.786  11.848  0.2760 -1.2198 -1.9600
 2584SOL    HW219386   2.613   2.918  11.862  0.0568  2.3115 -2.0520
 2585SOL     OW19387   2.213   3.511   6.236 -0.2660 -0.3342 -0.6976
 2585SOL    HW119388   2.184   3.420   6.242  1.8495 -1.0555 -1.3290
 2585SOL    HW219389   2.285   3.516   6.299 -0.5309 -0.6267 -0.3718
 2586SOL     OW19390   0.988   2.274  10.086  0.0568 -0.0845 -0.6705
 2586SOL    HW119391   0.902   2.251  10.052 -1.3416  2.4978  1.1730
 2586SOL    HW219392   1.018   2.190  10.121 -1.9016  0.0808  1.3685
 2587SOL     OW19393   1.910   2.303   1.295  0.3612 -0.2502  0.2980
 2587SOL    HW119394   1.879   2.233   1.237 -0.1480  1.1733 -1.1547
 2587SOL    HW219395   1.963   2.348   1.229  0.8912 -1.1472  0.1187
 2588SOL     OW19396   0.262   2.026   2.556  0.2453 -0.2383 -0.6606
 2588SOL    HW119397   0.265   1.931   2.562  2.7570 -0.0946  0.4603
 2588SOL    HW219398   0.339   2.026   2.499  0.5491  0.6529 -0.2541
 2589SOL     OW19399   1.230   3.266   6.908 -0.3843  0.3044 -0.6534
 2589SOL    HW119400   1.256   3.325   6.837 -0.7389 -0.7487 -1.6685
 2589SOL    HW219401   1.218   3.188   6.853 -0.2043  0.9643 -1.6213
 2590SOL     OW19402   2.746   2.005   5.230 -0.4857 -0.0914  0.4196
 2590SOL    HW119403   2.730   1.977   5.320  1.8055  0.5966  1.0539
 2590SOL    HW219404   2.660   2.044   5.216  0.7654  2.1481 -1.1081
 2591SOL     OW19405   1.184   3.745   1.730 -0.0642 -0.1006 -0.0193
 2591SOL    HW119406   1.176   3.652   1.751 -1.0962 -0.3947 -1.7398
 2591SOL    HW219407   1.203   3.733   1.637 -1.4057  0.2608 -0.3432
 2592SOL     OW19408   0.414   1.619   5.589 -0.3925  0.0857  0.3316
 2592SOL    HW119409   0.475   1.691   5.574 -0.2719 -0.1595 -0.3246
 2592SOL    HW219410   0.332   1.666   5.577 -0.8041 -0.8992 -0.6741
 2593SOL     OW19411   2.454   3.391   4.285  0.5491  0.2007  0.4338
 2593SOL    HW119412   2.514   3.369   4.356  1.8751  1.2052 -0.3807
 2593SOL    HW219413   2.402   3.463   4.320  1.0300  0.5702  0.3705
 2594SOL     OW19414   4.048   3.479   5.933 -0.6386 -0.5959 -0.1208
 2594SOL    HW119415   4.042   3.508   6.024 -0.9076  0.7836 -0.5730
 2594SOL    HW219416   4.120   3.530   5.896  1.4764 -1.7403  2.3971
 2595SOL     OW19417   2.595   3.738  10.557 -0.2678  0.9377 -0.3156
 2595SOL    HW119418   2.562   3.682  10.487 -2.8531  0.2429  1.4723
 2595SOL    HW219419   2.688   3.716  10.547 -0.7531 -0.2771 -2.3267
 2596SOL     OW19420   3.163   3.207   5.725  0.6217  0.2598 -0.1858
 2596SOL    HW119421   3.129   3.151   5.655  1.7078 -0.7271  0.0811
 2596SOL    HW219422   3.189   3.278   5.667  0.4986  0.4153 -0.0517
 2597SOL     OW19423   3.319   4.486   2.333  0.2517  0.2850 -0.1212
 2597SOL    HW119424   3.273   4.403   2.351 -0.6901  0.6580 -0.8405
 2597SOL    HW219425   3.308   4.527   2.419  2.3721 -1.4671  0.9846
 2598SOL     OW19426   1.240   1.607   8.311  0.8807 -0.1337 -0.1611
 2598SOL    HW119427   1.223   1.683   8.368  2.4610  0.0603  0.0334
 2598SOL    HW219428   1.220   1.638   8.222 -1.6024  0.0233  0.4373
 2599SOL     OW19429   1.934   3.971  10.288  0.0028  0.0529 -0.5241
 2599SOL    HW119430   1.919   3.997  10.197 -2.3154  2.1018  0.4472
 2599SOL    HW219431   2.012   4.018  10.318 -0.0395  0.8538 -1.6788
 2600SOL     OW19432   2.584   1.476   4.028 -0.3361  0.6137 -0.4836
 2600SOL    HW119433   2.541   1.441   3.950  1.1450 -2.4882  0.0844
 2600SOL    HW219434   2.509   1.489   4.086  1.2193  3.0248  1.0194
 2601SOL     OW19435   1.403   3.169   6.150  0.1408 -0.0914 -0.0750
 2601SOL    HW119436   1.331   3.164   6.088 -1.0688  1.3678  1.2288
 2601SOL    HW219437   1.392   3.253   6.192  1.9586 -0.2864  0.8094
 2602SOL     OW19438   0.094   2.248  17.020  0.2279 -0.2506 -0.3302
 2602SOL    HW119439   0.064   2.230  17.109 -0.1963 -2.9781 -1.0213
 2602SOL    HW219440   0.053   2.176  16.972  0.9946 -0.6141 -0.4477
 2603SOL     OW19441   3.097   3.630   1.451 -0.2111 -0.1465  0.0557
 2603SOL    HW119442   3.081   3.654   1.542  2.1557 -0.7523  0.6332
 2603SOL    HW219443   3.158   3.557   1.467  1.3578  1.0864 -0.3485
 2604SOL     OW19444   2.873   3.485   1.334 -0.9353 -0.1481  0.0976
 2604SOL    HW119445   2.934   3.463   1.263 -0.1345  0.1882  0.6745
 2604SOL    HW219446   2.929   3.544   1.384  0.2432 -1.8383  0.7903
 2605SOL     OW19447   0.369   4.301   8.123 -0.0973  0.4369 -0.1264
 2605SOL    HW119448   0.335   4.231   8.067 -1.1267  0.4423  0.4954
 2605SOL    HW219449   0.387   4.373   8.063 -0.0122  0.1341 -0.4628
 2606SOL     OW19450   1.587   3.132   3.282 -0.3835  0.1889 -0.0663
 2606SOL    HW119451   1.616   3.041   3.287 -0.8417 -0.0793 -2.4266
 2606SOL    HW219452   1.653   3.175   3.228  1.2274 -1.1276  0.8599
 2607SOL     OW19453   3.688   2.547  11.064  0.5734 -0.2206  0.7857
 2607SOL    HW119454   3.766   2.575  11.112  0.6020 -1.9841  1.7612
 2607SOL    HW219455   3.637   2.507  11.135 -2.5015  1.4060 -0.5322
 2608SOL     OW19456   0.999   2.953   4.409  0.0559 -0.3244  0.0650
 2608SOL    HW119457   1.081   2.921   4.372  0.1450 -0.7362  0.6198
 2608SOL    HW219458   1.013   3.047   4.407 -0.5013 -0.2256  1.0327
 2609SOL     OW19459   1.380   2.766   2.553  0.6377 -0.1878  0.4233
 2609SOL    HW119460   1.403   2.730   2.467 -2.5916  0.0254 -0.5295
 2609SOL    HW219461   1.292   2.729   2.555  0.5279 -0.0260 -1.5987
 2610SOL     OW19462   4.498   0.305   5.543 -0.2859 -0.6609 -0.5502
 2610SOL    HW119463   4.542   0.345   5.468  1.2597 -1.9085 -0.3225
 2610SOL    HW219464   4.571   0.258   5.584  0.0525  0.5687  0.2845
 2611SOL     OW19465   1.258   1.586   9.395 -0.0598  0.5129 -0.4249
 2611SOL    HW119466   1.240   1.576   9.302 -3.7715 -1.3660  0.5090
 2611SOL    HW219467   1.242   1.497   9.425  3.0017 -0.1719 -0.7672
 2612SOL     OW19468   1.871   1.252   2.669  0.1211  0.5922  0.2656
 2612SOL    HW119469   1.802   1.196   2.704  0.2071  2.3073  3.1221
 2612SOL    HW219470   1.889   1.212   2.584  2.1938  5.5410 -1.6530
 2613SOL     OW19471   0.104   1.039   0.750  0.1796  0.6401  0.0803
 2613SOL    HW119472   0.122   0.965   0.808  1.1064  1.0372  0.2957
 2613SOL    HW219473   0.086   0.994   0.668  1.0851 -0.4389  0.4753
 2614SOL     OW19474   2.723   3.574   4.405  0.1997 -0.2157 -0.1990
 2614SOL    HW119475   2.693   3.621   4.483 -0.8214 -1.3561  0.0902
 2614SOL    HW219476   2.703   3.488   4.441 -0.7749 -0.5066 -1.4419
 2615SOL     OW19477   1.892   2.355  11.974  0.5208 -0.3242 -0.3844
 2615SOL    HW119478   1.828   2.348  12.044 -0.2296  0.7113 -0.9588
 2615SOL    HW219479   1.833   2.340  11.899  0.2675  3.4086 -0.9129
 2616SOL     OW19480   0.853   0.316   3.488 -0.1661 -0.5641  0.1225
 2616SOL    HW119481   0.931   0.341   3.537  0.0365  0.6681 -0.8229
 2616SOL    HW219482   0.786   0.378   3.519  0.2427  0.2484 -0.6207
 2617SOL     OW19483   1.700   3.002  11.332 -0.3538  0.4461  0.0697
 2617SOL    HW119484   1.698   2.930  11.394 -1.0461 -0.6429 -1.2281
 2617SOL    HW219485   1.620   2.990  11.281 -1.5166  0.5007  1.8968
 2618SOL     OW19486   1.515   1.548   6.456 -0.3378 -0.7500 -0.1515
 2618SOL    HW119487   1.502   1.554   6.551  0.8808 -1.2067  0.0477
 2618SOL    HW219488   1.560   1.630   6.439 -2.9510  0.2206 -2.3985
 2619SOL     OW19489   3.852   0.806   6.318  0.0118  0.3364 -0.0959
 2619SOL    HW119490   3.906   0.884   6.330  1.0494 -0.4227  0.1577
 2619SOL    HW219491   3.826   0.825   6.228  0.1092  2.4880  0.3313
 2620SOL     OW19492   3.871   4.576   7.038  0.7294  0.4313 -0.1489
 2620SOL    HW119493   3.778   4.601   7.037  0.5357 -0.2538  0.7518
 2620SOL    HW219494   3.878   4.578   6.943 -0.1664 -1.4185 -0.2654
 2621SOL     OW19495   3.010   1.003  10.558 -0.4811  0.0950 -0.0836
 2621SOL    HW119496   2.985   0.918  10.523 -3.3381  0.5017  0.9911
 2621SOL    HW219497   3.104   0.986  10.560 -0.5836 -0.7389 -2.6730
 2622SOL     OW19498   0.369   3.155   4.606 -0.0446 -0.6809 -0.2679
 2622SOL    HW119499   0.426   3.108   4.667  0.6532  0.3483 -0.1332
 2622SOL    HW219500   0.284   3.121   4.633  0.3156 -0.7756  0.7486
 2623SOL     OW19501   1.537   2.000   8.473  0.2046  0.4466  0.1492
 2623SOL    HW119502   1.476   2.069   8.445  2.1345  1.5757 -1.3105
 2623SOL    HW219503   1.518   1.921   8.423  0.3814  0.4608  0.0595
 2624SOL     OW19504   0.268   4.089   2.195 -0.3400  0.3232  0.0055
 2624SOL    HW119505   0.291   4.066   2.285 -0.3118 -1.2517 -0.4165
 2624SOL    HW219506   0.174   4.076   2.196 -0.2476 -0.3777 -0.8512
 2625SOL     OW19507   3.191   1.365   2.459 -0.2948  0.0995  0.2316
 2625SOL    HW119508   3.208   1.294   2.397 -1.4190 -0.2315  0.3013
 2625SOL    HW219509   3.177   1.442   2.404 -1.3839  1.1233  1.9020
 2626SOL     OW19510   3.708   3.672   4.223 -0.2228  0.2954 -0.1633
 2626SOL    HW119511   3.789   3.713   4.196  1.1734 -3.4338 -1.6502
 2626SOL    HW219512   3.678   3.737   4.286  0.5659  1.9656 -1.5226
 2627SOL     OW19513   2.321   3.111   8.639 -0.2990  0.0168 -0.3199
 2627SOL    HW119514   2.411   3.103   8.672 -0.1695 -3.3722 -1.5754
 2627SOL    HW219515   2.299   3.018   8.641  0.9495 -0.2973 -1.1772
 2628SOL     OW19516   4.313   2.064   5.278  0.3688 -0.3281  0.5810
 2628SOL    HW119517   4.347   2.049   5.190 -0.1182  0.2902  0.2910
 2628SOL    HW219518   4.231   2.016   5.279 -0.3784  0.9562  0.7588
 2629SOL     OW19519   3.051   2.187   4.449 -0.1008  0.1761  0.0212
 2629SOL    HW119520   3.088   2.099   4.439 -1.0557 -0.2683  0.4496
 2629SOL    HW219521   3.044   2.214   4.358 -1.0409 -0.8185 -0.2079
 2630SOL     OW19522   1.828   1.339   9.112 -0.0654  0.4308 -0.1127
 2630SOL    HW119523   1.877   1.359   9.192 -0.0561 -2.3253  0.5757
 2630SOL    HW219524   1.863   1.400   9.047 -0.3526 -2.6422 -3.1606
 2631SOL     OW19525   0.914   2.862   0.389  0.1065  0.5932  0.3431
 2631SOL    HW119526   0.954   2.927   0.332  0.5910 -0.4666 -0.5289
 2631SOL    HW219527   0.829   2.850   0.345  0.9081  3.3212 -1.9345
 2632SOL     OW19528   2.589   1.950   9.128 -0.7122 -0.0134 -0.0223
 2632SOL    HW119529   2.543   2.034   9.128  0.7111  0.7651 -1.7583
 2632SOL    HW219530   2.548   1.911   9.051 -0.7698 -0.2401  0.1231
 2633SOL     OW19531   3.359   0.035   9.921 -0.0672  0.3695  0.0660
 2633SOL    HW119532   3.283   4.715   9.925 -0.2151  0.7219  2.5223
 2633SOL    HW219533   3.417   4.701   9.898 -1.6979 -1.1428  0.7249
 2634SOL     OW19534   0.626   3.482  16.574 -0.7339  0.1959  0.1588
 2634SOL    HW119535   0.596   3.399  16.536 -0.5501  0.4393 -0.5229
 2634SOL    HW219536   0.669   3.447  16.651  0.6373  0.7664 -0.3579
 2635SOL     OW19537   3.926   0.764   3.690  0.4278  0.3140 -0.2972
 2635SOL    HW119538   3.884   0.678   3.698 -0.4941  0.8949  1.1101
 2635SOL    HW219539   3.996   0.743   3.628  0.0547 -2.2219  0.1280
 2636SOL     OW19540   1.108   2.822   6.710 -0.3168 -0.8250 -0.1998
 2636SOL    HW119541   1.031   2.849   6.759 -0.5665 -0.1256 -0.9572
 2636SOL    HW219542   1.166   2.793   6.780  0.7151  0.9030 -0.3365
 2637SOL     OW19543   0.421   0.997   5.088 -0.1626  0.1628 -0.0174
 2637SOL    HW119544   0.495   1.047   5.057 -0.5075 -0.5252 -1.9419
 2637SOL    HW219545   0.352   1.060   5.109 -0.8673 -0.0326 -1.7306
 2638SOL     OW19546   1.546   4.230  15.778  0.1571  0.1184 -0.4362
 2638SOL    HW119547   1.618   4.180  15.739  0.3387  0.2801 -0.3038
 2638SOL    HW219548   1.502   4.160  15.826 -0.4321  0.3491 -0.6392
 2639SOL     OW19549   0.160   0.916   9.568  0.4513  0.3583 -0.2771
 2639SOL    HW119550   0.253   0.894   9.570  0.4131  0.1410 -1.0112
 2639SOL    HW219551   0.128   0.868   9.644  0.4059 -2.1226 -1.8797
 2640SOL     OW19552   0.324   4.466   9.761  0.1556  0.4112  0.1080
 2640SOL    HW119553   0.282   4.477   9.847  1.6265  0.5702  0.8032
 2640SOL    HW219554   0.265   4.524   9.714 -1.7388 -1.9086 -0.4033
 2641SOL     OW19555   1.643   2.291  17.139  0.4023 -0.1296  0.4485
 2641SOL    HW119556   1.689   2.269  17.220  0.1191 -0.9222  0.3968
 2641SOL    HW219557   1.591   2.211  17.129  2.1679 -1.0159 -1.4793
 2642SOL     OW19558   2.821   0.497  15.606  0.1931 -0.3074  0.4436
 2642SOL    HW119559   2.759   0.444  15.557  0.9968  0.6454 -1.6306
 2642SOL    HW219560   2.789   0.493  15.696  0.8011  0.2382  0.6839
 2643SOL     OW19561   0.405   3.738  14.976  0.5832 -0.3242  0.8649
 2643SOL    HW119562   0.432   3.676  15.043 -0.2445 -0.1112  1.3946
 2643SOL    HW219563   0.473   3.737  14.909  1.3278 -4.1192  1.6509
 2644SOL     OW19564   0.996   2.284  17.110 -0.7210  0.2073 -0.0169
 2644SOL    HW119565   0.954   2.245  17.187  2.0971 -2.2729  0.2581
 2644SOL    HW219566   0.968   2.216  17.049 -0.2021  1.6053 -1.8064
 2645SOL     OW19567   2.813   0.579   3.117 -0.3692  0.0480 -0.2692
 2645SOL    HW119568   2.818   0.673   3.135 -1.6564 -0.0754  0.7218
 2645SOL    HW219569   2.775   0.551   3.200 -0.5606 -0.4242 -0.5244
 2646SOL     OW19570   3.560   0.674  12.816 -0.2091  0.5173  0.2871
 2646SOL    HW119571   3.606   0.701  12.736  1.8377  0.2308  1.3649
 2646SOL    HW219572   3.607   0.595  12.842  1.1911  1.1660 -0.2375
 2647SOL     OW19573   2.331   0.844   6.758 -0.0942  0.2879  0.1137
 2647SOL    HW119574   2.408   0.864   6.706 -0.5860 -0.4010 -0.8693
 2647SOL    HW219575   2.373   0.853   6.844  1.7356  0.2674 -0.7819
 2648SOL     OW19576   2.157   1.719   5.965 -0.2204 -0.4991 -0.6874
 2648SOL    HW119577   2.092   1.689   6.029 -0.8185  0.6321 -0.7655
 2648SOL    HW219578   2.222   1.649   5.964  0.8698  0.4947 -0.3933
 2649SOL     OW19579   2.956   3.648   6.697  0.0616 -0.2625  0.2444
 2649SOL    HW119580   2.969   3.709   6.625  3.2109 -1.7214 -0.4050
 2649SOL    HW219581   2.868   3.617   6.678  0.4249  1.0739 -3.5103
 2650SOL     OW19582   4.339   3.590   6.019 -0.0736 -0.0808  0.1050
 2650SOL    HW119583   4.424   3.595   6.063  1.2494  1.3946 -2.6189
 2650SOL    HW219584   4.343   3.665   5.960  2.3475  1.1927  1.8869
 2651SOL     OW19585   4.516   1.644   9.364 -0.2267  0.1058  0.4869
 2651SOL    HW119586   4.609   1.626   9.373 -0.7183 -0.7665  3.7911
 2651SOL    HW219587   4.505   1.673   9.274  1.2007  1.9311  0.9019
 2652SOL     OW19588   4.202   0.712   9.709 -0.0760  0.3677 -0.0621
 2652SOL    HW119589   4.180   0.754   9.792 -0.0158  0.4322 -0.0782
 2652SOL    HW219590   4.241   0.786   9.662  0.3581 -0.5729 -1.2000
 2653SOL     OW19591   1.489   0.669   9.115  0.0657  0.2091 -1.0331
 2653SOL    HW119592   1.442   0.712   9.043  1.2340 -1.2694 -2.6948
 2653SOL    HW219593   1.531   0.748   9.148  1.2194 -1.8115  2.3443
 2654SOL     OW19594   2.047   3.030   0.569  0.0005  0.1216  0.0552
 2654SOL    HW119595   1.971   2.985   0.606  1.6677 -2.7192  0.0040
 2654SOL    HW219596   2.049   3.118   0.607  0.4758 -0.9992  2.6245
 2655SOL     OW19597   2.920   2.516   2.380  0.2023  0.1777  0.1247
 2655SOL    HW119598   2.907   2.463   2.302 -0.8971 -0.6516  0.8766
 2655SOL    HW219599   2.961   2.596   2.347  0.0099  1.0093  1.9190
 2656SOL     OW19600   3.733   0.354   4.443  0.0996  0.3765  0.1866
 2656SOL    HW119601   3.712   0.261   4.439 -0.4254  0.4719  0.9257
 2656SOL    HW219602   3.814   0.351   4.392  0.6309  1.3119  0.9843
 2657SOL     OW19603   4.325   1.285   0.476 -0.0338  0.0726  1.0651
 2657SOL    HW119604   4.285   1.258   0.560  1.4659 -1.5956  1.2410
 2657SOL    HW219605   4.390   1.343   0.516 -0.4291  0.4889  1.1028
 2658SOL     OW19606   1.165   0.230   4.228 -0.0288  0.0293  0.2441
 2658SOL    HW119607   1.248   0.184   4.238  0.9645  1.2866 -2.0704
 2658SOL    HW219608   1.182   0.316   4.266  1.0435  0.3490 -0.9672
 2659SOL     OW19609   2.243   0.805  10.195 -0.3464 -0.0713  0.1066
 2659SOL    HW119610   2.268   0.886  10.238 -1.3989  1.6245 -2.4703
 2659SOL    HW219611   2.148   0.812  10.195 -0.2754  0.8378  0.1989
 2660SOL     OW19612   4.161   4.575   2.537  0.1589  0.3464  0.1262
 2660SOL    HW119613   4.073   4.598   2.565 -0.6781 -0.0534 -2.1952
 2660SOL    HW219614   4.136   4.543   2.450  1.0739  1.7198 -0.6382
 2661SOL     OW19615   0.401   0.858   3.119  0.3689 -0.2929 -0.0601
 2661SOL    HW119616   0.367   0.946   3.135 -1.5078 -0.5516 -2.4399
 2661SOL    HW219617   0.338   0.802   3.164  0.1505  0.1754  0.2098
 2662SOL     OW19618   0.257   2.865  17.650 -0.4390 -0.6400 -0.2912
 2662SOL    HW119619   0.299   2.951  17.650  0.2213 -0.9649  0.7931
 2662SOL    HW219620   0.171   2.889  17.615  0.1587  0.9864 -0.6592
 2663SOL     OW19621   0.076   2.980  12.264 -0.5365  0.2058  0.0007
 2663SOL    HW119622   0.112   2.937  12.186 -0.7102  2.6947 -1.4482
 2663SOL    HW219623   4.721   2.964  12.249 -0.6285  0.4387  0.3309
 2664SOL     OW19624   1.771   2.063  13.133 -0.4840  0.2478 -0.0372
 2664SOL    HW119625   1.733   2.051  13.220  2.4651  1.0131  1.3519
 2664SOL    HW219626   1.802   2.153  13.137  1.5824 -0.4942  0.7363
 2665SOL     OW19627   4.598   4.690  17.223 -0.0852  1.0762  0.7152
 2665SOL    HW119628   4.616   4.646  17.140  1.4684  0.5190  1.3619
 2665SOL    HW219629   4.579   0.041  17.194  0.1724  0.9283  0.0887
 2666SOL     OW19630   1.394   3.789   1.320 -0.4202 -0.4322 -0.1013
 2666SOL    HW119631   1.336   3.753   1.387 -0.0309  0.9160  0.9706
 2666SOL    HW219632   1.456   3.715   1.318  1.3248  1.0656 -1.2005
 2667SOL     OW19633   2.493   1.877   6.792  0.1297 -0.8832  0.3658
 2667SOL    HW119634   2.553   1.944   6.760 -1.2601 -0.3122 -1.0660
 2667SOL    HW219635   2.501   1.810   6.724 -1.4069 -1.0145  0.3072
 2668SOL     OW19636   4.693   4.687   5.039 -0.1147  0.1009 -0.0199
 2668SOL    HW119637   4.608   4.693   4.996 -0.0395  2.1205  0.1193
 2668SOL    HW219638   4.668   4.666   5.129 -2.8206 -0.9610 -1.0116
 2669SOL     OW19639   0.069   1.654   6.553  0.3392  0.2581  0.0251
 2669SOL    HW119640   0.129   1.594   6.509 -2.7781 -2.6576 -0.2417
 2669SOL    HW219641   0.109   1.680   6.637 -1.2363  2.1927  0.1725
 2670SOL     OW19642   1.512   1.944  17.367  0.3353 -0.3822  0.4677
 2670SOL    HW119643   1.430   1.943  17.318 -0.2530 -0.3712  1.4586
 2670SOL    HW219644   1.488   1.911  17.453 -0.6208 -0.7891  0.0490
 2671SOL     OW19645   4.137   1.281   1.475 -0.0131 -0.1972  0.3226
 2671SOL    HW119646   4.135   1.268   1.569 -0.3998 -0.0811  0.3293
 2671SOL    HW219647   4.196   1.356   1.459  0.8456 -0.6952  1.2003
 2672SOL     OW19648   0.555   4.675   3.300  0.0537  0.2500 -0.0322
 2672SOL    HW119649   0.626   4.719   3.347 -0.1392 -2.9058  3.2304
 2672SOL    HW219650   0.585   4.585   3.315 -3.7163 -1.1553 -1.0007
 2673SOL     OW19651   1.633   2.541   4.456  0.4081 -0.0508  0.0239
 2673SOL    HW119652   1.714   2.502   4.491  0.8786  0.0862 -0.8999
 2673SOL    HW219653   1.617   2.598   4.531 -1.0651  0.7872 -0.9185
 2674SOL     OW19654   3.420   4.651  13.507  0.4207  0.1057  0.0242
 2674SOL    HW119655   3.516   4.649  13.502  0.3917 -0.5261 -0.3514
 2674SOL    HW219656   3.408   4.704  13.586  1.0480  0.1784  0.0687
 2675SOL     OW19657   2.978   2.637   9.556  0.2877  0.0114 -0.2905
 2675SOL    HW119658   2.932   2.553   9.551  1.5779 -0.5926 -2.4238
 2675SOL    HW219659   2.931   2.678   9.627  0.1336  1.3954 -1.1916
 2676SOL     OW19660   2.269   3.477   7.218  0.4493 -0.2452  0.8314
 2676SOL    HW119661   2.240   3.466   7.308 -1.9398 -0.4285  0.0518
 2676SOL    HW219662   2.298   3.568   7.207  0.0959 -0.2402 -0.0509
 2677SOL     OW19663   4.099   3.246   6.072 -0.3050  0.0674  0.1901
 2677SOL    HW119664   4.067   3.318   6.018  0.1332  0.7135  0.7928
 2677SOL    HW219665   4.171   3.284   6.123  1.5048 -2.8776 -0.1206
 2678SOL     OW19666   0.171   4.247   0.345  0.0618  0.1644  0.1016
 2678SOL    HW119667   0.177   4.245   0.440  1.0177 -1.5632  0.0060
 2678SOL    HW219668   0.244   4.303   0.319  1.6386 -1.1502  1.6900
 2679SOL     OW19669   3.273   2.073  15.153 -0.1869  0.0547 -0.5019
 2679SOL    HW119670   3.183   2.067  15.121 -0.5760 -0.3247  0.6652
 2679SOL    HW219671   3.306   2.121  15.076  0.3667 -0.0484 -0.3314
 2680SOL     OW19672   3.813   2.382   0.736  0.2740  0.4479 -0.0791
 2680SOL    HW119673   3.908   2.386   0.747  0.3755 -0.3879 -0.6682
 2680SOL    HW219674   3.781   2.411   0.822  0.6368  3.2603 -0.8856
 2681SOL     OW19675   1.453   3.477   4.329 -0.3151  0.4469  0.6438
 2681SOL    HW119676   1.548   3.481   4.313 -0.4943  1.4579 -0.1747
 2681SOL    HW219677   1.430   3.406   4.269  0.5795  1.2190 -0.5959
 2682SOL     OW19678   0.329   2.826   1.475  0.1367  0.0542  0.5074
 2682SOL    HW119679   0.278   2.883   1.532 -0.2461 -0.2614  0.4846
 2682SOL    HW219680   0.256   2.779   1.433  1.0012 -1.3784  0.5985
 2683SOL     OW19681   0.491   4.593   7.679 -0.2498 -0.5260 -0.1178
 2683SOL    HW119682   0.495   4.619   7.587  0.8176  2.3337  0.7405
 2683SOL    HW219683   0.397   4.575   7.685 -0.5733  2.2370  3.1714
 2684SOL     OW19684   3.879   2.953   2.055  0.2703 -0.6479 -1.0021
 2684SOL    HW119685   3.958   2.904   2.081 -0.2101 -0.7432  0.2691
 2684SOL    HW219686   3.912   2.969   1.967 -0.5840  1.0519 -1.0088
 2685SOL     OW19687   4.195   2.339   8.471  0.1405  0.1401 -0.6610
 2685SOL    HW119688   4.283   2.364   8.441  0.3651  1.8451  1.4815
 2685SOL    HW219689   4.160   2.323   8.383 -2.9001 -1.6646  0.8937
 2686SOL     OW19690   1.742   0.679   7.642  0.1967 -0.5758 -0.1082
 2686SOL    HW119691   1.745   0.668   7.737 -0.4607 -1.3741 -0.1863
 2686SOL    HW219692   1.833   0.704   7.623  0.5964 -2.5835 -0.7668
 2687SOL     OW19693   3.650   1.290   7.464 -0.0733  0.1704 -0.2453
 2687SOL    HW119694   3.720   1.316   7.524 -0.2050  1.4213 -0.6434
 2687SOL    HW219695   3.668   1.197   7.448  2.5981  1.3336 -3.9877
 2688SOL     OW19696   0.204   0.687   7.118  0.4504 -0.5755 -0.4316
 2688SOL    HW119697   0.296   0.687   7.144  0.3526  0.6446 -0.0702
 2688SOL    HW219698   0.169   0.772   7.145 -1.7058 -1.2908 -0.9579
 2689SOL     OW19699   3.857   1.875   3.596  0.3933 -0.1668  0.3928
 2689SOL    HW119700   3.795   1.945   3.617  1.4199  0.8756 -0.0754
 2689SOL    HW219701   3.906   1.914   3.524 -1.6944  1.0208 -0.3842
 2690SOL     OW19702   4.540   3.010   7.608  0.1691  0.0185  0.0349
 2690SOL    HW119703   4.515   3.062   7.532 -2.7851 -0.3018  0.7854
 2690SOL    HW219704   4.452   2.978   7.630  0.5833 -0.8120  0.4785
 2691SOL     OW19705   1.032   2.015   4.273 -0.4693 -0.4240  0.3884
 2691SOL    HW119706   0.984   2.095   4.253  0.2101  0.2216  1.3252
 2691SOL    HW219707   0.962   1.951   4.285  0.2436 -1.0954  0.9461
 2692SOL     OW19708   3.420   3.080   7.580 -0.9485  0.9554 -0.2296
 2692SOL    HW119709   3.443   3.004   7.527  2.1569  2.4342 -1.0635
 2692SOL    HW219710   3.506   3.106   7.615 -0.0013  0.6281 -2.3008
 2693SOL     OW19711   4.726   2.384   4.029  0.1649  0.0352  0.5380
 2693SOL    HW119712   0.017   2.437   3.956  1.7813 -0.4505  0.8342
 2693SOL    HW219713   0.046   2.309   4.015 -0.9777 -0.8297  0.4396
 2694SOL     OW19714   2.232   2.587   8.113 -0.0173  0.4458 -0.3795
 2694SOL    HW119715   2.243   2.680   8.097  0.6609  0.5369  0.5655
 2694SOL    HW219716   2.142   2.583   8.146  0.1565 -2.0558 -0.1909
 2695SOL     OW19717   3.383   0.377   3.637 -0.0297  0.0641 -0.1237
 2695SOL    HW119718   3.338   0.441   3.582 -0.2822 -0.6125 -0.7111
 2695SOL    HW219719   3.452   0.432   3.675  0.2388 -0.8687  0.7135
 2696SOL     OW19720   4.177   0.410   4.537  0.4583 -0.1531 -0.4128
 2696SOL    HW119721   4.159   0.321   4.506  1.8683  0.4458 -2.9399
 2696SOL    HW219722   4.168   0.400   4.632  1.2401  1.6421 -0.1552
 2697SOL     OW19723   2.604   0.962   6.709 -0.3903 -0.2189 -0.5252
 2697SOL    HW119724   2.654   0.898   6.659 -0.6502 -0.6265 -0.2566
 2697SOL    HW219725   2.601   1.035   6.646  0.8221  0.8772  0.6796
 2698SOL     OW19726   4.313   0.031   8.984  0.1323  0.4904  0.1218
 2698SOL    HW119727   4.296   0.063   8.895  2.3430  1.3708  0.0134
 2698SOL    HW219728   4.226   4.736   9.006 -0.9144  1.1406 -2.9935
 2699SOL     OW19729   1.004   3.073   7.047 -0.4471  0.0308  0.2714
 2699SOL    HW119730   1.085   3.067   7.097  1.5610  0.2248 -2.9570
 2699SOL    HW219731   1.003   2.990   6.999 -2.4403 -1.9666  3.7768
 2700SOL     OW19732   4.710   4.186   5.616 -0.5732  0.7456  0.6554
 2700SOL    HW119733   4.625   4.219   5.645 -0.5809  0.7169  0.6657
 2700SOL    HW219734   4.708   4.095   5.646 -1.8478  0.1155 -1.3615
 2701SOL     OW19735   2.524   1.964  14.355  0.3238 -0.2017 -0.1785
 2701SOL    HW119736   2.457   1.916  14.306  0.4022 -2.3375  1.8260
 2701SOL    HW219737   2.523   1.917  14.439 -0.5686  0.4043  0.1437
 2702SOL     OW19738   3.573   2.526  16.093  0.0242 -0.6237 -0.5433
 2702SOL    HW119739   3.563   2.543  15.999 -0.6235  1.3777 -0.1055
 2702SOL    HW219740   3.628   2.448  16.081  1.2980  0.3436 -0.9313
 2703SOL     OW19741   2.177   4.646   5.986 -0.8365 -0.3020 -0.0651
 2703SOL    HW119742   2.098   4.676   6.031 -1.2232 -0.1300 -0.8666
 2703SOL    HW219743   2.226   4.613   6.061 -2.6762  3.2890  2.7553
 2704SOL     OW19744   0.874   1.676   5.206  0.0294  0.2939 -0.0239
 2704SOL    HW119745   0.928   1.727   5.145 -2.0924  0.6890 -1.6061
 2704SOL    HW219746   0.888   1.714   5.293  0.7654 -0.2306  0.0865
 2705SOL     OW19747   1.755   3.919   8.136  0.3809 -0.3097  0.1404
 2705SOL    HW119748   1.737   3.858   8.064 -0.5707 -0.2463  0.3134
 2705SOL    HW219749   1.680   3.979   8.125  0.7754  0.1196 -0.2094
 2706SOL     OW19750   3.457   2.492   8.770 -0.1715  0.2644 -0.5712
 2706SOL    HW119751   3.378   2.452   8.806  0.6323  0.2146  1.1280
 2706SOL    HW219752   3.508   2.415   8.742  1.5051  0.6285  1.5294
 2707SOL     OW19753   3.427   3.581  16.282  0.2565  0.2729 -0.2206
 2707SOL    HW119754   3.491   3.619  16.341 -0.8087  0.2918  0.9356
 2707SOL    HW219755   3.353   3.642  16.288  2.2701  2.4763  1.8283
 2708SOL     OW19756   2.974   3.837  13.432  0.5349 -0.1548  0.1138
 2708SOL    HW119757   2.901   3.899  13.440 -0.5885 -1.2925 -1.2701
 2708SOL    HW219758   3.004   3.870  13.347  1.2200 -0.6344  0.1710
 2709SOL     OW19759   4.540   2.189   6.361  0.1345  0.6124 -0.1030
 2709SOL    HW119760   4.605   2.178   6.292  0.5887 -0.0804  0.4278
 2709SOL    HW219761   4.598   2.220   6.431 -1.2002  1.8190  0.4737
 2710SOL     OW19762   0.943   0.443  17.125 -0.3583  0.2916 -0.0328
 2710SOL    HW119763   1.014   0.448  17.189  0.3756  0.8426 -0.9025
 2710SOL    HW219764   0.868   0.467  17.179  1.2355  1.4357  1.6741
 2711SOL     OW19765   0.117   2.608   1.853 -0.5472 -0.0653  0.3597
 2711SOL    HW119766   0.078   2.559   1.926  0.4822 -0.0600  0.9160
 2711SOL    HW219767   0.191   2.548   1.845  0.1787  0.6063  1.9275
 2712SOL     OW19768   4.663   3.408   7.823 -0.1063 -0.5379  0.0231
 2712SOL    HW119769   0.007   3.438   7.860 -0.2909 -0.4266  0.3424
 2712SOL    HW219770   4.699   3.331   7.778  0.1547 -0.4559  0.0942
 2713SOL     OW19771   3.298   0.080   1.911  0.0842 -0.3505 -1.0947
 2713SOL    HW119772   3.332   0.168   1.924 -1.2729  0.0519 -0.2610
 2713SOL    HW219773   3.378   0.029   1.898  0.8392  0.8153 -0.9686
 2714SOL     OW19774   3.738   1.122  13.755 -0.6062 -0.2614 -0.1931
 2714SOL    HW119775   3.643   1.130  13.748 -0.5060  1.0547 -0.1640
 2714SOL    HW219776   3.769   1.201  13.711 -2.7453  0.5493 -0.2675
 2715SOL     OW19777   4.436   3.351   1.608  0.2264  0.2945  0.0144
 2715SOL    HW119778   4.425   3.259   1.632  1.7521  0.4305  1.2336
 2715SOL    HW219779   4.344   3.369   1.587  0.0145 -0.5187  0.2394
 2716SOL     OW19780   4.311   1.660   4.316  0.3238  0.1535 -0.2975
 2716SOL    HW119781   4.281   1.570   4.330  0.6120 -0.6419 -4.8592
 2716SOL    HW219782   4.341   1.680   4.405  0.7650 -3.4861  0.3633
 2717SOL     OW19783   1.170   2.839   9.619  0.1082 -0.2050  0.0434
 2717SOL    HW119784   1.231   2.816   9.690  0.1264  1.3267  0.5244
 2717SOL    HW219785   1.094   2.785   9.640  1.6341 -1.8455  1.4174
 2718SOL     OW19786   4.231   3.533   8.704  0.0707  0.1148 -0.2233
 2718SOL    HW119787   4.279   3.539   8.787 -0.0158  0.0038 -0.1646
 2718SOL    HW219788   4.250   3.625   8.687  3.2050 -0.5504 -0.2353
 2719SOL     OW19789   1.234   1.214  15.467  0.3060  0.2453  0.4721
 2719SOL    HW119790   1.220   1.230  15.560  2.2506 -0.4514  0.8889
 2719SOL    HW219791   1.203   1.123  15.462  1.3549 -0.0828 -0.3442
 2720SOL     OW19792   0.615   0.722  12.960  0.0685  0.8796 -0.2386
 2720SOL    HW119793   0.678   0.661  12.922  1.6705  1.4068  1.5804
 2720SOL    HW219794   0.592   0.685  13.045 -0.8401 -0.0991 -0.9042
 2721SOL     OW19795   1.406   2.087   5.452  0.1998  0.4793 -0.3972
 2721SOL    HW119796   1.360   2.119   5.374  0.7459 -0.5867 -1.1692
 2721SOL    HW219797   1.448   2.167   5.483 -0.7357  0.1800  1.6468
 2722SOL     OW19798   4.286   3.286   7.507 -0.9429 -0.0182 -0.0907
 2722SOL    HW119799   4.307   3.223   7.575 -0.0499  1.0454  0.6166
 2722SOL    HW219800   4.224   3.232   7.458  0.4639  0.9005 -2.9224
 2723SOL     OW19801   0.805   0.578   2.265 -0.7022 -0.0636 -0.4097
 2723SOL    HW119802   0.715   0.574   2.297 -0.9495  1.3211 -0.9649
 2723SOL    HW219803   0.852   0.619   2.338 -0.6412  0.2342 -0.6151
 2724SOL     OW19804   1.237   3.153  10.095 -0.1053  0.1688 -0.3401
 2724SOL    HW119805   1.175   3.105  10.040 -0.6622 -0.3557  0.7414
 2724SOL    HW219806   1.229   3.241  10.060  2.3199  0.2185 -0.7557
 2725SOL     OW19807   1.211   3.812   4.873 -1.3052 -0.1199 -0.1186
 2725SOL    HW119808   1.284   3.843   4.820 -1.7265  2.0844  0.5897
 2725SOL    HW219809   1.253   3.745   4.927  1.7398  0.2873 -2.0021
 2726SOL     OW19810   3.996   1.698   2.479 -0.0132 -0.0995  0.0780
 2726SOL    HW119811   3.929   1.632   2.494  0.7061 -0.7669  0.3442
 2726SOL    HW219812   3.945   1.766   2.433 -1.7390  1.1070  3.8234
 2727SOL     OW19813   3.192   2.433   3.523 -0.5664 -0.4000 -0.2333
 2727SOL    HW119814   3.183   2.381   3.602  1.1818  0.0879  0.2796
 2727SOL    HW219815   3.225   2.515   3.561 -0.4282 -0.4826 -0.1738
 2728SOL     OW19816   0.660   0.049   8.808  0.0017  0.1155 -0.1028
 2728SOL    HW119817   0.671   0.145   8.808  0.3209  0.0814 -0.3081
 2728SOL    HW219818   0.566   0.036   8.795  0.0707  1.4961 -2.0752
 2729SOL     OW19819   0.785   0.476  10.271 -0.2367 -0.3049  0.3180
 2729SOL    HW119820   0.826   0.562  10.282  1.0536 -1.0129  1.1365
 2729SOL    HW219821   0.836   0.413  10.322 -1.1267  0.1491  1.7913
 2730SOL     OW19822   0.908   0.913   5.628  0.1631 -0.2505 -0.2686
 2730SOL    HW119823   0.825   0.913   5.581  0.1339  0.7916 -0.2039
 2730SOL    HW219824   0.963   0.967   5.572  0.2364  0.4257  0.4492
 2731SOL     OW19825   3.407   2.731  11.531 -0.1600  0.3002 -0.3558
 2731SOL    HW119826   3.365   2.787  11.466  1.7586  0.8574 -1.1287
 2731SOL    HW219827   3.423   2.788  11.607  1.0390 -1.1307  0.4659
 2732SOL     OW19828   4.115   2.544  11.772 -0.4580  0.0668 -0.3607
 2732SOL    HW119829   4.156   2.606  11.832 -1.7685  0.3478  0.2508
 2732SOL    HW219830   4.068   2.601  11.711  0.9268  1.1533 -0.4205
 2733SOL     OW19831   1.732   4.627   2.295  0.4297 -0.5895  0.3534
 2733SOL    HW119832   1.825   4.629   2.275  0.2983 -2.6131 -0.4505
 2733SOL    HW219833   1.695   4.674   2.219 -0.4920  0.3467  1.3738
 2734SOL     OW19834   3.458   2.529   8.156 -0.6596 -0.2349 -0.0726
 2734SOL    HW119835   3.387   2.472   8.127 -0.3744 -0.9803  0.6558
 2734SOL    HW219836   3.468   2.495   8.246 -2.6590  0.4743  0.4013
 2735SOL     OW19837   2.270   0.791  11.724 -0.2079  0.1525 -0.2579
 2735SOL    HW119838   2.309   0.814  11.808  2.4752 -1.7829 -0.9947
 2735SOL    HW219839   2.237   0.876  11.693 -0.1710  0.4589  0.5541
 2736SOL     OW19840   2.021   4.111   4.669 -0.8561 -0.2128 -0.9636
 2736SOL    HW119841   1.936   4.155   4.668  0.5291  2.5192 -0.2500
 2736SOL    HW219842   2.076   4.186   4.694 -0.9651  0.2480 -2.1101
 2737SOL     OW19843   3.253   4.722  11.321 -0.0526  0.0478 -0.5425
 2737SOL    HW119844   3.253   4.673  11.239  0.6479  0.3866 -0.7387
 2737SOL    HW219845   3.345   4.733  11.345  0.1594 -3.4570  0.2304
 2738SOL     OW19846   2.650   3.064  17.411  0.3238 -0.3883 -0.5298
 2738SOL    HW119847   2.568   3.084  17.456  0.9080 -0.8793  0.7517
 2738SOL    HW219848   2.699   3.146  17.423  0.4527 -0.6015  0.3855
 2739SOL     OW19849   2.176   1.612   8.522  0.1673 -0.0406 -0.1045
 2739SOL    HW119850   2.251   1.666   8.548 -2.1862  2.6634  1.1028
 2739SOL    HW219851   2.119   1.679   8.484  0.8838  0.6419  0.0104
 2740SOL     OW19852   2.502   3.450  10.510  0.0206  0.5516 -0.1743
 2740SOL    HW119853   2.562   3.389  10.553 -2.2433 -2.3211 -1.1690
 2740SOL    HW219854   2.419   3.406  10.527  0.4805 -0.4421 -0.4962
 2741SOL     OW19855   4.635   3.011   2.982  0.0311  0.1258 -0.0986
 2741SOL    HW119856   4.724   3.047   2.983 -0.4737  1.3584  2.0549
 2741SOL    HW219857   4.578   3.089   2.986 -0.1349  0.0055 -0.1156
 2742SOL     OW19858   2.283   3.686   6.720 -0.0303 -0.1550  0.3733
 2742SOL    HW119859   2.191   3.712   6.725 -0.4120 -1.4354  0.1512
 2742SOL    HW219860   2.284   3.625   6.794 -0.1297 -0.3293  0.2306
 2743SOL     OW19861   0.346   1.521   7.138  0.0659  0.2722 -0.7604
 2743SOL    HW119862   0.379   1.558   7.220 -1.7662  0.2554 -0.0139
 2743SOL    HW219863   0.334   1.599   7.084  0.5392  1.2452  0.5310
 2744SOL     OW19864   2.823   2.260   8.723  0.2355  0.4929  0.5314
 2744SOL    HW119865   2.841   2.213   8.642 -1.5050  2.1242 -0.8170
 2744SOL    HW219866   2.850   2.197   8.789 -1.1702  0.5246  1.1526
 2745SOL     OW19867   2.570   0.194  12.444 -0.2687 -0.4031 -0.0696
 2745SOL    HW119868   2.528   0.120  12.401 -1.2604  0.4050 -0.5098
 2745SOL    HW219869   2.550   0.179  12.536  0.2109  0.2605  0.1442
 2746SOL     OW19870   1.671   2.833   5.107 -0.1941  0.3446  0.2600
 2746SOL    HW119871   1.589   2.786   5.093 -1.3760  1.9337  1.8035
 2746SOL    HW219872   1.649   2.889   5.182 -0.3050  0.1605  0.3655
 2747SOL     OW19873   2.853   2.468   6.060  0.3238  0.3371  0.0339
 2747SOL    HW119874   2.788   2.441   6.125 -0.1260 -1.4139 -1.1596
 2747SOL    HW219875   2.929   2.418   6.090 -0.7578 -1.3987 -0.1435
 2748SOL     OW19876   3.180   4.586  13.929  0.2960 -0.7536  0.2965
 2748SOL    HW119877   3.151   4.544  13.848  0.3894  2.7989 -1.5665
 2748SOL    HW219878   3.237   4.653  13.891 -1.8885  0.7316 -0.3785
 2749SOL     OW19879   4.140   0.059   7.497 -0.3055  0.1856 -0.0396
 2749SOL    HW119880   4.098   4.716   7.470 -0.6473 -0.2940  1.9311
 2749SOL    HW219881   4.205   0.066   7.427 -0.6036 -0.5182 -0.3956
 2750SOL     OW19882   2.323   0.888   9.094 -0.4828 -0.2628  0.2816
 2750SOL    HW119883   2.354   0.817   9.036  0.8052 -0.9112  1.7552
 2750SOL    HW219884   2.228   0.880   9.102 -0.3890  1.9939  3.3846
 2751SOL     OW19885   0.534   3.527   8.511  0.4006 -0.4455  0.4205
 2751SOL    HW119886   0.614   3.531   8.564  0.9443  1.2951 -0.5330
 2751SOL    HW219887   0.460   3.569   8.554 -1.8846 -1.2870 -2.6609
 2752SOL     OW19888   4.549   0.161   2.196 -0.2125  0.2525 -0.0389
 2752SOL    HW119889   4.547   0.254   2.220 -1.3185 -0.0255  0.9306
 2752SOL    HW219890   4.633   0.135   2.234 -0.4583 -1.9540 -1.0234
 2753SOL     OW19891   0.902   1.523  15.785 -0.6161  1.1243 -0.3479
 2753SOL    HW119892   0.811   1.530  15.755 -0.2780  0.5963 -1.5178
 2753SOL    HW219893   0.945   1.528  15.700  0.4341 -1.3746  0.0403
 2754SOL     OW19894   2.050   0.799  13.603  0.1474 -0.4989  0.6635
 2754SOL    HW119895   1.994   0.721  13.596  0.8261 -1.1817  2.8585
 2754SOL    HW219896   2.130   0.754  13.575  0.3071  0.2906 -0.1431
 2755SOL     OW19897   2.875   4.602   2.667  0.3770  0.0553  0.5286
 2755SOL    HW119898   2.847   4.674   2.609  2.3987 -0.4069 -1.0182
 2755SOL    HW219899   2.898   4.544   2.595 -1.5587 -0.0217 -0.0393
 2756SOL     OW19900   1.573   4.473  14.226 -0.6057  0.1860 -0.0843
 2756SOL    HW119901   1.496   4.432  14.186 -0.3965 -1.1106  0.8616
 2756SOL    HW219902   1.527   4.510  14.302  1.7441 -0.6295  1.7064
 2757SOL     OW19903   1.916   1.122   2.365 -0.2550  0.3210 -0.0926
 2757SOL    HW119904   1.844   1.147   2.308  1.9494  1.1362 -2.5339
 2757SOL    HW219905   1.890   1.031   2.379  1.5537 -0.1895 -0.0551
 2758SOL     OW19906   4.542   2.564   3.445 -0.1208  0.2654 -0.2598
 2758SOL    HW119907   4.546   2.631   3.377  0.2875 -0.4435 -0.9357
 2758SOL    HW219908   4.531   2.619   3.522 -3.6261  1.0362 -1.3221
 2759SOL     OW19909   4.668   2.431   6.893 -0.5686  0.2019 -0.4047
 2759SOL    HW119910   4.626   2.355   6.852  0.8865 -1.3977  1.0933
 2759SOL    HW219911   4.589   2.481   6.915  0.6632  0.5370  3.2369
 2760SOL     OW19912   3.453   3.806   2.327  0.1728 -0.2576 -0.1623
 2760SOL    HW119913   3.448   3.829   2.234  3.6876  1.2684  0.0360
 2760SOL    HW219914   3.393   3.871   2.363  1.4570  0.1702  1.1455
 2761SOL     OW19915   0.044   2.844   7.303  0.4067 -0.2032  0.3580
 2761SOL    HW119916   4.695   2.809   7.323  0.3731 -0.6531 -0.5941
 2761SOL    HW219917   0.089   2.768   7.265 -0.9371  1.2067 -4.0317
 2762SOL     OW19918   0.618   3.158   8.796 -0.3184 -0.2562  0.3016
 2762SOL    HW119919   0.639   3.208   8.875  1.0768 -1.3833  0.6517
 2762SOL    HW219920   0.558   3.215   8.749  1.8709  1.8728  0.0567
 2763SOL     OW19921   2.433   1.938   7.978  0.6120 -0.0016 -0.0653
 2763SOL    HW119922   2.347   1.963   7.944 -0.3451 -0.9801  1.6457
 2763SOL    HW219923   2.480   1.903   7.903  0.0495  0.3303 -0.5693
 2764SOL     OW19924   1.903   3.907   9.724 -0.2210  0.3644  0.0771
 2764SOL    HW119925   1.962   3.835   9.700 -0.5581 -0.1220  0.7146
 2764SOL    HW219926   1.956   3.980   9.755 -0.5744  0.1386  1.2234
 2765SOL     OW19927   0.964   3.511  17.406 -0.5354  0.0166  0.0393
 2765SOL    HW119928   0.936   3.560  17.482  0.9417  1.1234 -0.1308
 2765SOL    HW219929   0.927   3.560  17.333  1.5639  1.0218 -0.3630
 2766SOL     OW19930   2.617   0.462   2.095 -0.1796 -0.2728 -0.4618
 2766SOL    HW119931   2.598   0.542   2.045  3.5241  1.1110  0.3026
 2766SOL    HW219932   2.713   0.461   2.093 -0.1714 -0.5222 -0.0445
 2767SOL     OW19933   3.271   3.192   7.319  0.0673 -0.2706 -0.4540
 2767SOL    HW119934   3.275   3.238   7.403 -1.8172  0.3066 -0.6807
 2767SOL    HW219935   3.205   3.239   7.268 -1.3864 -0.9143  0.8248
 2768SOL     OW19936   2.404   2.912   2.378 -0.2826  0.1301  0.3005
 2768SOL    HW119937   2.489   2.899   2.421 -1.2514 -2.2941  1.4806
 2768SOL    HW219938   2.411   2.887   2.286 -0.5428  0.6233  0.1414
 2769SOL     OW19939   2.554   3.474   8.925  1.5482  0.5060  0.0803
 2769SOL    HW119940   2.501   3.401   8.954 -0.3967  1.5552 -0.8742
 2769SOL    HW219941   2.613   3.491   8.999 -0.7159 -0.4606  2.0620
 2770SOL     OW19942   3.355   1.264   0.329 -0.5264  0.0057 -0.2676
 2770SOL    HW119943   3.398   1.331   0.277 -0.2196  0.4796  0.5852
 2770SOL    HW219944   3.407   1.278   0.409 -0.1041 -0.4690 -0.4550
 2771SOL     OW19945   0.934   4.299   4.622 -0.0668  0.3317  0.8563
 2771SOL    HW119946   0.848   4.331   4.595  0.2165 -0.5251 -1.0875
 2771SOL    HW219947   0.909   4.211   4.650 -0.5777  0.3673  0.5108
 2772SOL     OW19948   1.370   1.887   7.312  0.7449  0.5057 -0.6820
 2772SOL    HW119949   1.351   1.846   7.228  0.0378 -0.4326 -0.0516
 2772SOL    HW219950   1.465   1.870   7.314  0.7378  0.5950  0.4196
 2773SOL     OW19951   3.536   3.910   8.145  0.0425  0.3286 -0.3264
 2773SOL    HW119952   3.521   3.879   8.234  0.3085  1.2081  0.0298
 2773SOL    HW219953   3.461   3.970   8.141 -0.5830 -0.4823 -0.6548
 2774SOL     OW19954   2.092   3.089   8.900 -0.3500 -0.3216 -0.1461
 2774SOL    HW119955   2.169   3.043   8.932 -0.5541 -1.3903 -1.2218
 2774SOL    HW219956   2.028   3.067   8.967 -2.6853 -0.7635 -2.5074
 2775SOL     OW19957   0.214   4.205   8.494 -0.1014 -0.9869  0.1644
 2775SOL    HW119958   0.261   4.154   8.427 -2.6952 -1.0797 -1.5653
 2775SOL    HW219959   0.271   4.280   8.510 -1.4730  0.2142 -0.6049
 2776SOL     OW19960   3.381   0.150   3.482 -0.0111 -0.4868  0.1929
 2776SOL    HW119961   3.362   0.234   3.523 -2.1846 -1.6308  1.5082
 2776SOL    HW219962   3.458   0.174   3.431 -0.3152 -0.2501 -0.1519
 2777SOL     OW19963   3.466   1.725   6.771 -0.3317  0.0137  0.2238
 2777SOL    HW119964   3.412   1.710   6.850 -2.5234  1.2588 -1.0407
 2777SOL    HW219965   3.462   1.640   6.727 -1.3223  1.1233 -1.8064
 2778SOL     OW19966   0.437   4.629   4.462  0.4191  0.1278  0.5471
 2778SOL    HW119967   0.382   4.560   4.427  0.0473  1.3328 -1.2606
 2778SOL    HW219968   0.517   4.586   4.491  1.3934  1.5776  0.0436
 2779SOL     OW19969   0.243   3.520   2.286 -1.1529  0.2525 -0.1986
 2779SOL    HW119970   0.238   3.446   2.346  0.7500 -2.0425 -2.8499
 2779SOL    HW219971   0.215   3.590   2.345  0.1214  0.6511 -0.0793
 2780SOL     OW19972   1.326   4.721   1.350  0.0884 -0.2719  0.4251
 2780SOL    HW119973   1.246   0.017   1.388 -0.3251  0.0578 -0.7460
 2780SOL    HW219974   1.296   4.683   1.268 -2.3777  0.6814  0.8914
 2781SOL     OW19975   0.491   0.181   7.917 -1.4617 -0.1221  0.6986
 2781SOL    HW119976   0.480   0.174   7.822 -0.0596  0.3587  0.5008
 2781SOL    HW219977   0.579   0.219   7.923 -1.6736  0.8476 -2.2653
 2782SOL     OW19978   2.564   4.577   6.542 -0.2801  0.0855  0.1037
 2782SOL    HW119979   2.629   4.624   6.490 -1.6688  0.7368 -1.0614
 2782SOL    HW219980   2.602   4.574   6.629  1.4721 -3.8150 -0.7850
 2783SOL     OW19981   2.400   0.698   8.906  0.0886  0.4197  0.1124
 2783SOL    HW119982   2.428   0.616   8.946  0.1990  0.1149 -0.5834
 2783SOL    HW219983   2.313   0.672   8.874  0.2502  0.1066 -0.0663
 2784SOL     OW19984   0.190   2.378   4.811 -0.0428 -0.4402  0.4430
 2784SOL    HW119985   0.193   2.284   4.830  0.6468 -0.8828 -1.8246
 2784SOL    HW219986   0.103   2.397   4.846 -0.3196 -0.7619 -0.0674
 2785SOL     OW19987   4.295   4.228   7.759 -0.2599 -0.0445 -0.1221
 2785SOL    HW119988   4.243   4.151   7.736  0.9068 -0.9421  0.2385
 2785SOL    HW219989   4.292   4.281   7.679  0.2932 -0.3519 -0.3490
 2786SOL     OW19990   1.058   3.031   0.246  0.8154  0.7777  0.3537
 2786SOL    HW119991   1.055   3.009   0.153 -1.7517  0.5483  0.5053
 2786SOL    HW219992   1.133   3.090   0.239  0.8824  0.5773 -0.6824
 2787SOL     OW19993   2.837   4.561   9.383 -0.8512 -0.4108  0.0514
 2787SOL    HW119994   2.751   4.549   9.423 -0.6220  1.0041  0.9493
 2787SOL    HW219995   2.841   4.492   9.316 -0.9380 -0.0578 -0.3209
 2788SOL     OW19996   2.950   0.071   1.717  0.2077 -0.3225 -0.0329
 2788SOL    HW119997   2.873   0.070   1.774  0.7310  0.1635  0.6748
 2788SOL    HW219998   2.996   4.729   1.743  0.0770  0.3963  2.3887
 2789SOL     OW19999   2.564   3.097  16.123 -0.5603  0.6034 -0.2745
 2789SOL    HW120000   2.520   3.018  16.154  0.5408 -0.7397 -2.1450
 2789SOL    HW220001   2.619   3.112  16.200 -2.2028 -0.2232  1.0544
 2790SOL     OW20002   1.308   2.287   2.852  0.0997 -0.3981 -0.2698
 2790SOL    HW120003   1.354   2.371   2.854  1.1238 -0.9532 -0.6268
 2790SOL    HW220004   1.366   2.242   2.791  0.3409  0.3288 -0.5739
 2791SOL     OW20005   2.440   1.819   3.814  0.0637 -0.1907 -0.2326
 2791SOL    HW120006   2.472   1.875   3.743  0.4409 -1.6677 -1.2359
 2791SOL    HW220007   2.459   1.877   3.887  2.0452  1.3816 -1.9878
 2792SOL     OW20008   3.660   2.063   0.528 -0.1275  0.3845  0.4975
 2792SOL    HW120009   3.615   2.117   0.594  0.2243  1.2599  0.0304
 2792SOL    HW220010   3.736   2.025   0.574 -0.5429  0.3151  1.1291
 2793SOL     OW20011   0.335   4.387   9.398  0.0271  0.3110  0.3163
 2793SOL    HW120012   0.397   4.445   9.355 -0.9644 -0.1256 -1.6813
 2793SOL    HW220013   0.251   4.400   9.354 -0.0610 -1.5714 -0.0326
 2794SOL     OW20014   2.254   4.363   4.004 -0.3488 -0.1606 -0.8536
 2794SOL    HW120015   2.310   4.420   3.952  0.9778 -0.8072 -0.1367
 2794SOL    HW220016   2.227   4.428   4.069 -1.8420 -0.8062 -0.8370
 2795SOL     OW20017   4.721   1.948   9.147 -0.4914  0.4371 -0.0037
 2795SOL    HW120018   4.692   1.998   9.223  0.0342 -0.6263  0.9041
 2795SOL    HW220019   4.675   1.864   9.146  0.6332 -0.1879  1.8076
 2796SOL     OW20020   1.408   0.233   8.965 -0.1136 -0.0971 -0.6830
 2796SOL    HW120021   1.396   0.315   9.013 -0.0839  0.3374 -1.4167
 2796SOL    HW220022   1.338   0.234   8.899  0.3707 -0.6976 -1.2134
 2797SOL     OW20023   3.240   1.052  11.667 -0.1124  0.3266  0.2757
 2797SOL    HW120024   3.219   1.124  11.608  2.3031  1.2654  0.5656
 2797SOL    HW220025   3.297   1.004  11.607 -0.1718 -1.6717  1.7876
 2798SOL     OW20026   2.214   1.077   6.112  0.3778  0.0206  0.3197
 2798SOL    HW120027   2.174   0.992   6.129 -2.1395  0.7418 -2.0122
 2798SOL    HW220028   2.278   1.085   6.182  0.1227 -0.6691  0.6344
 2799SOL     OW20029   0.925   0.612   8.280  0.4391  0.5859 -0.3842
 2799SOL    HW120030   0.847   0.580   8.326  0.2223  1.6044 -0.0446
 2799SOL    HW220031   0.908   0.706   8.274 -0.2964  0.5045  0.4268
 2800SOL     OW20032   4.381   3.328   5.895 -0.4364 -0.4162 -1.0776
 2800SOL    HW120033   4.326   3.403   5.919 -0.3730  0.0082 -2.2593
 2800SOL    HW220034   4.462   3.352   5.941 -1.4122  0.0992  0.3891
 2801SOL     OW20035   0.704   2.088   7.804  0.5102  0.0317  0.0077
 2801SOL    HW120036   0.743   2.029   7.739 -1.1176  0.8748 -1.7345
 2801SOL    HW220037   0.780   2.127   7.847  1.5013 -1.3056 -0.5211
 2802SOL     OW20038   3.191   4.246   2.175  0.1547 -0.3946  0.9335
 2802SOL    HW120039   3.197   4.318   2.113 -2.0787 -1.9734 -1.1200
 2802SOL    HW220040   3.246   4.183   2.128 -0.6998 -0.9234  0.6482
 2803SOL     OW20041   3.756   2.353   8.058  0.3455  0.5088 -0.3317
 2803SOL    HW120042   3.802   2.364   8.142  0.7118  2.4412 -0.7721
 2803SOL    HW220043   3.692   2.423   8.070 -2.3434 -1.8375 -1.2749
 2804SOL     OW20044   0.178   4.086   3.623  0.3797 -0.5377  0.2830
 2804SOL    HW120045   0.137   4.086   3.537  0.8253 -1.5419  0.0753
 2804SOL    HW220046   0.117   4.135   3.679  0.3550 -1.5832  1.1591
 2805SOL     OW20047   0.711   0.383   9.752 -0.1364 -0.0558  0.1215
 2805SOL    HW120048   0.617   0.383   9.769 -0.3622  1.2999 -1.1698
 2805SOL    HW220049   0.742   0.397   9.841 -1.3963 -1.5672  0.7866
 2806SOL     OW20050   4.091   3.225   9.381 -0.0147  0.4623 -0.5774
 2806SOL    HW120051   4.097   3.223   9.285  1.3102 -3.5978 -0.4104
 2806SOL    HW220052   4.037   3.147   9.393 -0.4065  0.8498  0.1459
 2807SOL     OW20053   1.646   3.556  15.630  0.3641  0.1225 -0.7742
 2807SOL    HW120054   1.659   3.608  15.710 -0.2680 -2.1448  0.7998
 2807SOL    HW220055   1.593   3.624  15.587  1.5141 -0.2962 -2.8554
 2808SOL     OW20056   3.255   2.894   7.973 -0.2870  0.1549 -0.3082
 2808SOL    HW120057   3.207   2.950   7.912 -1.0532 -0.1591  0.0010
 2808SOL    HW220058   3.316   2.856   7.909 -0.2860  1.4038 -1.0524
 2809SOL     OW20059   1.349   3.175  17.378 -0.1434 -0.0530  0.1251
 2809SOL    HW120060   1.327   3.107  17.442  0.8350 -3.7820 -3.5496
 2809SOL    HW220061   1.285   3.240  17.407 -0.2003  1.0396 -2.4878
 2810SOL     OW20062   3.259   1.646   2.982  0.1008  0.4011 -0.5931
 2810SOL    HW120063   3.218   1.650   3.069  0.0306 -0.5796 -0.5903
 2810SOL    HW220064   3.320   1.578   3.009 -0.7484  0.0956  0.5403
 2811SOL     OW20065   3.145   1.521  15.541 -0.1537 -0.2062 -0.6088
 2811SOL    HW120066   3.188   1.436  15.533 -1.6590 -0.8975 -1.3422
 2811SOL    HW220067   3.175   1.560  15.623 -0.3711 -0.3303 -0.4734
 2812SOL     OW20068   3.811   2.616  13.371  0.2657 -0.0866 -0.4377
 2812SOL    HW120069   3.773   2.671  13.303 -1.1961 -0.5771 -0.0203
 2812SOL    HW220070   3.905   2.612  13.352  0.3964  0.6604  0.0400
 2813SOL     OW20071   0.569   2.481   7.309 -0.0133 -0.0697  0.3031
 2813SOL    HW120072   0.543   2.469   7.217  0.0054 -0.4073  0.3430
 2813SOL    HW220073   0.489   2.444   7.347 -1.7118 -0.7354 -3.8914
 2814SOL     OW20074   2.014   3.375  11.260 -0.2939 -0.1905 -0.1688
 2814SOL    HW120075   1.924   3.344  11.249 -0.1623 -0.4529 -0.4884
 2814SOL    HW220076   2.075   3.302  11.260 -1.5271 -1.2211  0.0637
 2815SOL     OW20077   1.359   3.036   3.782  0.6031  0.1602  0.1930
 2815SOL    HW120078   1.403   3.051   3.698  1.4313  0.3502  0.6635
 2815SOL    HW220079   1.272   3.037   3.744  0.0661 -0.9171  1.4063
 2816SOL     OW20080   1.660   3.404  16.945  0.6975 -0.0760  0.3451
 2816SOL    HW120081   1.654   3.500  16.938 -1.5476 -0.3082 -0.7935
 2816SOL    HW220082   1.753   3.398  16.966  0.3559  1.3692  2.3214
 2817SOL     OW20083   0.822   3.737   7.431  0.6616  0.1404  0.0678
 2817SOL    HW120084   0.811   3.832   7.442 -0.3688 -0.0992  1.1047
 2817SOL    HW220085   0.864   3.718   7.347  0.7104 -1.0693  0.3666
 2818SOL     OW20086   2.984   0.888  14.294 -0.1729  0.0202  0.9728
 2818SOL    HW120087   2.890   0.883  14.314  0.0675 -2.7493  1.3713
 2818SOL    HW220088   2.990   0.793  14.293  3.3197  0.2986 -1.4694
 2819SOL     OW20089   1.571   0.525   0.260  0.2092 -0.2612 -0.6215
 2819SOL    HW120090   1.484   0.493   0.235 -0.4889  1.6413 -0.7019
 2819SOL    HW220091   1.548   0.563   0.345  2.6129 -1.2060  0.4452
 2820SOL     OW20092   2.788   1.570   2.111 -0.0098 -0.0387 -0.1853
 2820SOL    HW120093   2.723   1.556   2.180  0.6746 -2.0186  0.0579
 2820SOL    HW220094   2.747   1.625   2.044  1.2105  0.1432 -0.7723
 2821SOL     OW20095   3.567   2.056   1.577 -0.3619 -0.1548 -0.5028
 2821SOL    HW120096   3.583   2.144   1.541  0.5066 -0.0317  0.1797
 2821SOL    HW220097   3.554   2.006   1.496 -0.7957  0.4538 -0.8134
 2822SOL     OW20098   1.791   1.119   3.676 -0.0636 -0.0432  0.3649
 2822SOL    HW120099   1.724   1.113   3.744 -1.0945 -3.6595 -0.9522
 2822SOL    HW220100   1.751   1.087   3.595 -0.6350 -0.7224  0.9104
 2823SOL     OW20101   0.285   2.725   3.667  0.3094 -0.0134  0.5424
 2823SOL    HW120102   0.320   2.684   3.588 -0.1119 -1.8629  1.3100
 2823SOL    HW220103   0.341   2.677   3.729  0.8217 -1.0723 -0.7377
 2824SOL     OW20104   2.694   1.507   1.576  0.3823  0.0001 -0.7915
 2824SOL    HW120105   2.646   1.518   1.659  1.2644 -0.3839 -0.2361
 2824SOL    HW220106   2.781   1.500   1.613  0.4083  0.0430 -0.8448
 2825SOL     OW20107   0.487   1.793   5.843 -0.0996  0.0659 -0.2361
 2825SOL    HW120108   0.557   1.798   5.777 -0.9845  3.6826 -0.8968
 2825SOL    HW220109   0.495   1.872   5.895  1.4981 -0.2994  0.0571
 2826SOL     OW20110   2.652   3.976   5.454  0.1286 -0.1982  0.3620
 2826SOL    HW120111   2.673   3.985   5.361  0.7121  0.1788  0.5304
 2826SOL    HW220112   2.735   4.010   5.487  0.0263 -1.1472  1.6005
 2827SOL     OW20113   2.091   3.338   4.716  0.3563  0.2932  0.6055
 2827SOL    HW120114   2.165   3.281   4.737 -1.2021 -1.7134  0.6362
 2827SOL    HW220115   2.101   3.357   4.623 -0.9915  3.2563  1.0675
 2828SOL     OW20116   1.413   2.509   2.697 -0.5656  0.1601 -0.5537
 2828SOL    HW120117   1.479   2.479   2.634  0.7531 -0.4244  1.1116
 2828SOL    HW220118   1.389   2.593   2.658 -0.5710  1.4476  2.2861
 2829SOL     OW20119   3.326   0.712   4.538 -0.1309  0.8902  0.1378
 2829SOL    HW120120   3.366   0.753   4.615 -0.9145  2.7026 -0.4347
 2829SOL    HW220121   3.404   0.681   4.492 -0.2157  2.2172 -0.8792
 2830SOL     OW20122   4.016   3.079   7.203  0.4897  0.5753  0.4181
 2830SOL    HW120123   4.073   3.006   7.179  0.1839 -0.0721  1.6367
 2830SOL    HW220124   4.037   3.138   7.131 -3.3376  1.7158  0.2137
 2831SOL     OW20125   1.324   2.257   4.738  0.8012  0.1679  0.3872
 2831SOL    HW120126   1.228   2.248   4.734  0.9672 -1.8174  1.3086
 2831SOL    HW220127   1.348   2.297   4.654 -1.9118 -0.7144 -0.8429
 2832SOL     OW20128   2.478   1.647  17.629 -0.6055  0.2436  0.1128
 2832SOL    HW120129   2.432   1.584  17.685 -0.8662 -0.8950 -1.3828
 2832SOL    HW220130   2.473   1.729  17.679  2.0925 -0.0828  0.9593
 2833SOL     OW20131   3.244   4.617   7.949 -0.4631 -0.8026  0.0685
 2833SOL    HW120132   3.269   4.573   8.030  0.6207  2.2238  1.3726
 2833SOL    HW220133   3.284   4.701   7.970  0.2336 -1.1801  0.2376
 2834SOL     OW20134   1.554   1.359   9.129  0.1998  0.2304  0.4850
 2834SOL    HW120135   1.642   1.328   9.107  0.1829  0.8948 -0.4782
 2834SOL    HW220136   1.524   1.400   9.048  0.7057  0.7982  0.5833
 2835SOL     OW20137   4.266   2.643   4.017  0.1552 -0.7949  0.6489
 2835SOL    HW120138   4.218   2.709   3.968 -0.2608 -0.5052  1.4476
 2835SOL    HW220139   4.335   2.690   4.063  0.9040 -0.3551 -0.9179
 2836SOL     OW20140   2.932   1.715   7.289  0.5571 -0.6407  0.3129
 2836SOL    HW120141   2.840   1.706   7.266  0.1943  0.0470  1.5060
 2836SOL    HW220142   2.961   1.730   7.199 -2.8103 -0.0604 -0.6773
 2837SOL     OW20143   2.797   4.187   5.988  0.0481 -0.0055 -0.0354
 2837SOL    HW120144   2.808   4.192   6.083  0.8436  0.6977 -0.1683
 2837SOL    HW220145   2.707   4.155   5.994  0.3883 -1.0067 -0.1394
 2838SOL     OW20146   1.760   0.241   4.478 -0.4741  0.4176 -0.0734
 2838SOL    HW120147   1.817   0.261   4.552  1.0975  0.2137 -1.2352
 2838SOL    HW220148   1.675   0.274   4.509 -1.2372 -1.5109 -0.1266
 2839SOL     OW20149   0.050   1.607   4.487  0.2943 -0.2245 -0.2275
 2839SOL    HW120150   0.038   1.698   4.514  0.3896 -0.5585  0.9103
 2839SOL    HW220151   4.698   1.575   4.478  0.3199 -0.1778 -0.6720
 2840SOL     OW20152   4.716   1.131   7.532 -0.1152 -0.1479  0.3405
 2840SOL    HW120153   4.657   1.204   7.552 -1.1958 -0.6099 -1.1263
 2840SOL    HW220154   0.055   1.167   7.574  0.3209  1.0451 -1.5047
 2841SOL     OW20155   0.583   3.929   0.864 -0.6645  0.1427 -0.1303
 2841SOL    HW120156   0.638   3.937   0.786  0.0549  1.1494  0.4799
 2841SOL    HW220157   0.637   3.867   0.913  1.6111 -0.0459 -2.8845
 2842SOL     OW20158   0.870   2.956   3.098  0.5156  0.2521 -0.0192
 2842SOL    HW120159   0.909   2.954   3.011  0.0041 -2.5728 -0.2043
 2842SOL    HW220160   0.927   3.025   3.131  1.4550 -0.5537  0.0747
 2843SOL     OW20161   1.542   0.665   6.334  0.2969 -0.2402 -0.1389
 2843SOL    HW120162   1.559   0.747   6.289 -0.4716  1.2464  2.2895
 2843SOL    HW220163   1.500   0.609   6.268  0.2886 -0.4634  0.0554
 2844SOL     OW20164   3.430   2.762   3.266  0.1252 -0.1122 -0.0428
 2844SOL    HW120165   3.414   2.839   3.322  2.3909  0.5248 -0.2730
 2844SOL    HW220166   3.466   2.817   3.196  1.7386 -0.6553  0.3613
 2845SOL     OW20167   1.117   3.782  10.149 -0.3158  0.2145 -0.0889
 2845SOL    HW120168   1.191   3.812  10.096  0.1298 -0.0272  0.3892
 2845SOL    HW220169   1.139   3.807  10.239 -0.1078  0.5961 -0.2451
 2846SOL     OW20170   3.863   4.700   3.026 -0.0470  0.2338 -0.7031
 2846SOL    HW120171   3.946   4.707   3.074  0.8117  0.1902 -2.2003
 2846SOL    HW220172   3.815   4.634   3.076 -0.2677  1.9656  1.3789
 2847SOL     OW20173   0.367   3.912   6.081 -0.2964  0.3419 -0.0235
 2847SOL    HW120174   0.359   3.817   6.070  1.1083  0.3796 -1.4237
 2847SOL    HW220175   0.282   3.955   6.083 -0.6511 -0.4283  1.7964
 2848SOL     OW20176   2.224   0.790  12.354  0.5954 -0.2164 -0.2117
 2848SOL    HW120177   2.239   0.796  12.449  0.1168  0.2495 -0.1648
 2848SOL    HW220178   2.284   0.721  12.326  1.0839  0.9262 -1.9557
 2849SOL     OW20179   0.156   2.809  14.407  0.2751 -0.1147 -0.5564
 2849SOL    HW120180   0.192   2.739  14.462 -2.1825 -0.6991  0.2660
 2849SOL    HW220181   0.228   2.829  14.347  2.2111  1.3890  2.2681
 2850SOL     OW20182   0.862   3.766   2.497  0.3526 -0.0591  0.2765
 2850SOL    HW120183   0.900   3.803   2.417 -1.1490  2.8040  0.8670
 2850SOL    HW220184   0.880   3.830   2.566 -0.5900  0.0014  0.4729
 2851SOL     OW20185   1.203   4.077  13.248 -0.1231  0.1944  0.6669
 2851SOL    HW120186   1.177   4.040  13.333 -1.1841 -0.5677  0.0080
 2851SOL    HW220187   1.274   4.020  13.219 -0.9694  0.0205 -1.1074
 2852SOL     OW20188   1.003   1.602   7.094  0.1643 -0.5346  0.6224
 2852SOL    HW120189   1.086   1.577   7.135  0.5223 -1.4569 -0.6761
 2852SOL    HW220190   1.013   1.548   7.016  2.2660  0.0867  0.4572
 2853SOL     OW20191   2.566   1.937   4.058 -0.5106  0.2038  0.2615
 2853SOL    HW120192   2.532   2.013   4.106 -0.2476 -1.1405  2.5910
 2853SOL    HW220193   2.502   1.870   4.084  0.0998 -1.0173 -1.4061
 2854SOL     OW20194   0.703   3.429   5.965  0.2863 -0.5072  0.0971
 2854SOL    HW120195   0.629   3.386   6.008 -0.3685 -0.4766 -0.9745
 2854SOL    HW220196   0.742   3.359   5.912  0.6156  0.7504 -1.3233
 2855SOL     OW20197   0.567   1.333   7.462 -0.0410  0.0488  0.4105
 2855SOL    HW120198   0.635   1.276   7.426  0.1538  1.4092 -1.4221
 2855SOL    HW220199   0.498   1.320   7.397  0.4875 -1.8310  0.2439
 2856SOL     OW20200   1.663   0.830   4.350 -0.1622  0.0000  0.4955
 2856SOL    HW120201   1.668   0.884   4.429  1.0553 -0.1197  0.4891
 2856SOL    HW220202   1.709   0.878   4.282  2.3180 -2.3954  0.5023
 2857SOL     OW20203   2.908   3.808   2.259 -0.4572  0.1661 -0.2931
 2857SOL    HW120204   2.871   3.782   2.343  0.0947  1.5781  0.3802
 2857SOL    HW220205   2.949   3.894   2.273  1.6755 -0.9317  0.1729
 2858SOL     OW20206   1.251   4.054   7.899  0.4596 -0.3112 -0.1805
 2858SOL    HW120207   1.329   4.109   7.908 -0.5442  1.1393 -0.2798
 2858SOL    HW220208   1.187   4.098   7.956  2.5837  1.7376  0.6027
 2859SOL     OW20209   0.771   1.390  10.397 -0.1300  0.1930 -0.0726
 2859SOL    HW120210   0.692   1.444  10.385 -1.0069 -1.6537 -2.5878
 2859SOL    HW220211   0.777   1.365  10.305  2.2006 -0.3299  0.2360
 2860SOL     OW20212   4.170   1.045   0.378  0.8179  0.5082 -0.6344
 2860SOL    HW120213   4.079   1.057   0.352  0.0192 -0.6716  1.5986
 2860SOL    HW220214   4.203   1.135   0.383 -0.0120  0.7158  1.1815
 2861SOL     OW20215   2.640   3.286   3.912  0.1561  0.3334 -0.0171
 2861SOL    HW120216   2.678   3.259   3.828  1.9890  0.9808  0.6049
 2861SOL    HW220217   2.582   3.357   3.882 -1.3489  0.1358  2.4349
 2862SOL     OW20218   4.479   2.173   5.959  0.0143  0.4566 -0.7026
 2862SOL    HW120219   4.442   2.119   5.889 -0.7976 -1.7234  1.4006
 2862SOL    HW220220   4.406   2.192   6.018 -0.0256 -0.5583 -0.4222
 2863SOL     OW20221   3.595   3.014   8.655  0.2035  0.5100  0.2725
 2863SOL    HW120222   3.537   2.988   8.726 -0.2202 -1.2340 -0.7151
 2863SOL    HW220223   3.679   2.974   8.678  0.8528  2.0202  0.5200
 2864SOL     OW20224   1.921   1.820   9.987 -0.4415  0.0583 -0.0155
 2864SOL    HW120225   1.955   1.755  10.048  0.0322 -1.2708 -1.6916
 2864SOL    HW220226   2.002   1.837   9.939  0.0515  0.5920  1.0054
 2865SOL     OW20227   1.370   2.464   0.716 -0.1196 -0.8187 -0.0080
 2865SOL    HW120228   1.285   2.508   0.715 -1.0790 -2.7387 -1.4572
 2865SOL    HW220229   1.366   2.408   0.639 -0.1024 -0.3060 -0.3840
 2866SOL     OW20230   3.562   2.164  12.946 -0.0174  0.6076 -0.8747
 2866SOL    HW120231   3.486   2.161  12.887  0.5176 -1.5187 -1.4524
 2866SOL    HW220232   3.506   2.152  13.023 -0.3927  0.7927 -1.1212
 2867SOL     OW20233   1.412   4.539   9.165  0.3477 -0.1748 -0.4804
 2867SOL    HW120234   1.445   4.456   9.200  0.1021  1.3986  3.3726
 2867SOL    HW220235   1.439   4.542   9.073  0.1222 -0.2950 -0.5489
 2868SOL     OW20236   4.369   2.393   2.352  0.3347 -0.2352 -0.1600
 2868SOL    HW120237   4.454   2.438   2.355  0.0497  0.1454  2.0220
 2868SOL    HW220238   4.329   2.440   2.424  3.3791  1.8686  0.1760
 2869SOL     OW20239   0.330   3.516   4.298  0.4503  0.3283  0.3884
 2869SOL    HW120240   0.373   3.466   4.367  0.3337 -1.3765 -0.7639
 2869SOL    HW220241   0.399   3.524   4.231  2.1314  1.5703  2.2709
 2870SOL     OW20242   0.307   2.687  14.619 -0.7191 -0.1650 -0.0026
 2870SOL    HW120243   0.373   2.627  14.584  2.0831  1.8352  1.8871
 2870SOL    HW220244   0.361   2.714  14.693  1.4571 -0.8556 -1.3309
 2871SOL     OW20245   0.193   2.487   6.896  0.4079  0.0726  0.2950
 2871SOL    HW120246   0.104   2.472   6.863  0.3294 -0.5900  0.8065
 2871SOL    HW220247   0.234   2.501   6.810 -0.1930  1.6055  0.2503
 2872SOL     OW20248   2.112   3.790   0.681 -0.1003 -0.2621 -0.1776
 2872SOL    HW120249   2.033   3.843   0.687 -0.5270 -0.7595 -1.5383
 2872SOL    HW220250   2.097   3.736   0.604 -0.3285 -0.7383  0.2040
 2873SOL     OW20251   2.827   2.220   6.451 -0.7085 -0.4573  0.0712
 2873SOL    HW120252   2.892   2.289   6.463  1.7852 -2.6791 -0.5024
 2873SOL    HW220253   2.882   2.141   6.444 -2.2316 -1.5400  0.2797
 2874SOL     OW20254   2.155   1.116   8.744  0.0022 -0.0662 -0.0385
 2874SOL    HW120255   2.131   1.032   8.704  0.6934 -0.0363 -0.5192
 2874SOL    HW220256   2.235   1.103   8.795  0.8772  0.3615 -1.3082
 2875SOL     OW20257   2.960   3.647   8.809  0.7172  0.1871  0.2497
 2875SOL    HW120258   3.011   3.572   8.837 -1.3041 -0.2237  2.7778
 2875SOL    HW220259   2.929   3.624   8.721  2.1458  1.2181 -0.5384
 2876SOL     OW20260   3.410   1.896   7.217 -0.1760  0.3046  0.7904
 2876SOL    HW120261   3.472   1.968   7.209  0.4918 -0.5073 -1.2190
 2876SOL    HW220262   3.340   1.925   7.159  1.7842  0.5110 -1.4413
 2877SOL     OW20263   2.591   1.600   7.994 -0.0651 -0.2163  0.2061
 2877SOL    HW120264   2.517   1.543   8.014 -0.1566 -0.1989 -0.0906
 2877SOL    HW220265   2.559   1.682   8.032 -0.1853 -0.0045 -0.3508
 2878SOL     OW20266   3.753   0.927   8.494  0.0765  0.0080  0.3776
 2878SOL    HW120267   3.750   0.895   8.585  0.9035  1.4296  0.9092
 2878SOL    HW220268   3.763   0.846   8.444 -2.0078  0.3240 -0.5535
 2879SOL     OW20269   2.157   4.597   4.825 -0.0229 -0.6045  0.3585
 2879SOL    HW120270   2.103   4.663   4.783  0.5530 -1.2256 -1.3517
 2879SOL    HW220271   2.114   4.554   4.900 -0.2056  0.1656  0.6936
 2880SOL     OW20272   3.094   4.088   1.596  0.1262 -0.4604  0.4224
 2880SOL    HW120273   3.101   4.179   1.625  1.5013 -0.9678  1.6764
 2880SOL    HW220274   3.090   4.103   1.501  0.1600 -0.0395  0.4895
 2881SOL     OW20275   2.017   0.696  11.886  0.3430 -0.0845 -0.4209
 2881SOL    HW120276   2.110   0.715  11.888 -0.2020  2.6392  0.2302
 2881SOL    HW220277   2.016   0.606  11.917  2.2734  0.2456  0.5623
 2882SOL     OW20278   0.241   2.331   6.640  0.8327  0.8195 -0.7142
 2882SOL    HW120279   0.292   2.274   6.697 -0.3668  0.0396 -0.4210
 2882SOL    HW220280   0.286   2.416   6.635  0.2650  1.1377 -0.4908
 2883SOL     OW20281   0.144   1.142  17.654  0.3957 -0.8198  0.1686
 2883SOL    HW120282   0.088   1.066  17.639 -1.8779  0.5284  1.9501
 2883SOL    HW220283   0.107   1.206  17.594 -0.9620 -0.5945  1.2557
 2884SOL     OW20284   3.632   1.176   0.099 -0.0830 -0.0916  0.3933
 2884SOL    HW120285   3.632   1.188   0.004 -1.7943  2.9152  0.7505
 2884SOL    HW220286   3.584   1.253   0.131  0.2658  0.2901 -0.0194
 2885SOL     OW20287   1.226   4.444   1.309 -0.6499  0.0930 -0.1668
 2885SOL    HW120288   1.167   4.505   1.355 -0.9636  0.3000 -0.8340
 2885SOL    HW220289   1.235   4.491   1.226  0.0679  3.3411  1.7284
 2886SOL     OW20290   4.167   4.193   6.559  0.2829 -0.4821  0.1225
 2886SOL    HW120291   4.147   4.220   6.649  0.4977  1.1986 -0.3203
 2886SOL    HW220292   4.101   4.124   6.553  0.7372 -0.8884 -0.1626
 2887SOL     OW20293   1.187   2.758   8.753  0.2395  0.1896  0.7350
 2887SOL    HW120294   1.146   2.712   8.826 -0.0026  1.8096  1.6063
 2887SOL    HW220295   1.224   2.835   8.796 -2.5572  1.0981  1.4598
 2888SOL     OW20296   0.619   2.755  14.315  0.0737 -0.3751 -0.8235
 2888SOL    HW120297   0.712   2.764  14.334 -0.0917  0.7649 -0.5620
 2888SOL    HW220298   0.624   2.671  14.269  0.2829 -0.9214  0.2155
 2889SOL     OW20299   1.768   3.353   8.098 -0.2173  0.2974  0.4724
 2889SOL    HW120300   1.783   3.403   8.178  4.0724  1.0177 -0.7459
 2889SOL    HW220301   1.674   3.362   8.084 -0.1032  0.7461 -0.0373
 2890SOL     OW20302   3.657   3.296   3.571 -0.0670  0.4006  0.1790
 2890SOL    HW120303   3.660   3.316   3.665  1.5367  1.0104 -0.0003
 2890SOL    HW220304   3.736   3.242   3.566  0.0806  0.4749  1.5522
 2891SOL     OW20305   0.180   3.741   2.421 -0.2899  0.5126 -0.1106
 2891SOL    HW120306   0.235   3.819   2.424 -1.8059  1.6289 -1.8970
 2891SOL    HW220307   0.202   3.705   2.507 -1.7358  0.7591  0.3450
 2892SOL     OW20308   1.444   1.448   9.523 -0.0723 -0.3347 -0.2431
 2892SOL    HW120309   1.419   1.366   9.482 -1.9678  0.4246 -0.5759
 2892SOL    HW220310   1.393   1.514   9.476  1.2260 -0.3163 -1.6391
 2893SOL     OW20311   0.996   3.778  14.649 -1.0025  0.1388 -0.0288
 2893SOL    HW120312   1.023   3.710  14.587  0.5713  2.1055 -1.4815
 2893SOL    HW220313   1.030   3.856  14.604  0.4626 -0.9212 -0.7525
 2894SOL     OW20314   2.576   3.572  17.059 -0.0164 -0.2190 -0.3028
 2894SOL    HW120315   2.513   3.614  17.000 -2.1393 -0.2463  1.9070
 2894SOL    HW220316   2.642   3.640  17.071 -0.9794  0.7103 -0.2503
 2895SOL     OW20317   2.197   3.813  17.623  0.2945  0.3919 -0.4221
 2895SOL    HW120318   2.208   3.864  17.703  0.8201  2.0438 -1.5551
 2895SOL    HW220319   2.195   3.725  17.661  0.4709  0.4076 -0.3764
 2896SOL     OW20320   2.225   0.399   1.672 -0.0930 -0.3774  0.3294
 2896SOL    HW120321   2.133   0.417   1.649 -0.0908 -0.6835  0.0687
 2896SOL    HW220322   2.263   0.486   1.685 -2.0498  0.6555 -0.8524
 2897SOL     OW20323   2.075   4.414   5.036  0.7701  0.2372  0.2425
 2897SOL    HW120324   2.069   4.436   5.129 -2.3141 -0.3535  0.1938
 2897SOL    HW220325   2.161   4.374   5.030  1.1250  0.8266  1.3286
 2898SOL     OW20326   0.922   0.289   3.212 -0.5712 -0.8779  1.0130
 2898SOL    HW120327   1.007   0.255   3.242  0.5378 -0.6015 -1.8397
 2898SOL    HW220328   0.884   0.309   3.297 -0.5224  1.0023  0.5999
 2899SOL     OW20329   4.726   4.504   0.574  0.3411  0.8615 -0.3863
 2899SOL    HW120330   4.659   4.445   0.539 -1.4772  0.4051  3.9229
 2899SOL    HW220331   4.719   4.480   0.666  0.8225  0.0753 -0.5536
 2900SOL     OW20332   0.330   0.783   2.262 -0.0003  0.0046  0.0907
 2900SOL    HW120333   0.242   0.807   2.292 -0.5487  0.0813 -1.5266
 2900SOL    HW220334   0.318   0.690   2.282 -1.4618  0.1916  0.1286
 2901SOL     OW20335   3.575   1.252   3.787 -0.9968 -0.0485  0.4212
 2901SOL    HW120336   3.659   1.242   3.832 -0.3739  1.3162 -0.4543
 2901SOL    HW220337   3.520   1.263   3.865 -0.2516 -0.5536  1.0225
 2902SOL     OW20338   3.750   0.091   2.611  0.0647 -0.2458 -0.2778
 2902SOL    HW120339   3.688   0.020   2.596 -1.0819  0.5663  0.5729
 2902SOL    HW220340   3.712   0.134   2.688 -0.7822 -2.7260  0.6906
 2903SOL     OW20341   4.669   1.835   3.537 -0.0741  0.7091 -0.1854
 2903SOL    HW120342   4.684   1.929   3.527  0.7249  0.5130 -0.8309
 2903SOL    HW220343   0.016   1.801   3.564  0.3891  1.0356 -1.2483
 2904SOL     OW20344   0.825   4.120   8.757  0.1882  0.1703  0.3577
 2904SOL    HW120345   0.778   4.037   8.767 -0.4578  0.4345 -0.4802
 2904SOL    HW220346   0.918   4.100   8.764  0.0661  1.1961  4.7357
 2905SOL     OW20347   1.417   4.695   4.578  0.2929 -0.2013  0.4057
 2905SOL    HW120348   1.440   4.632   4.510 -0.9632 -1.3083  1.0086
 2905SOL    HW220349   1.402   0.031   4.520  2.8624  0.3352  0.4107
 2906SOL     OW20350   3.429   0.832  15.920 -0.7328  0.3386  0.2023
 2906SOL    HW120351   3.375   0.846  15.842  0.1426 -0.5728 -0.5485
 2906SOL    HW220352   3.356   0.829  15.983 -0.1962  1.9930  0.9125
 2907SOL     OW20353   4.051   1.328   8.209 -0.2473 -0.2119  0.3212
 2907SOL    HW120354   4.071   1.367   8.124  1.4442  0.5282  1.0708
 2907SOL    HW220355   4.060   1.234   8.191 -1.7082 -0.1580 -0.6830
 2908SOL     OW20356   2.348   1.489   1.010  0.0927  0.4792 -0.2940
 2908SOL    HW120357   2.270   1.540   0.988 -1.4035 -0.7600  2.0412
 2908SOL    HW220358   2.319   1.430   1.080  0.4282  1.1703  0.4311
 2909SOL     OW20359   0.735   0.266   1.545 -0.0002 -0.0884  0.3968
 2909SOL    HW120360   0.665   0.207   1.571 -0.1093 -0.6819 -1.2170
 2909SOL    HW220361   0.816   0.221   1.567  0.4941  0.0260 -1.1344
 2910SOL     OW20362   4.272   2.922   5.082 -0.1551 -0.4741  0.0795
 2910SOL    HW120363   4.233   2.837   5.103 -1.1003  0.2317  1.1566
 2910SOL    HW220364   4.196   2.974   5.055  0.1568 -0.4185 -0.6947
 2911SOL     OW20365   2.883   0.606   6.905 -0.1212  0.7033  0.0252
 2911SOL    HW120366   2.950   0.572   6.964  0.5829  1.2609 -0.4569
 2911SOL    HW220367   2.865   0.530   6.849  0.4417 -0.0051  0.8014
 2912SOL     OW20368   1.854   3.662  13.859 -0.2491  0.1177  0.1944
 2912SOL    HW120369   1.805   3.596  13.810  1.4059  0.8982 -2.5068
 2912SOL    HW220370   1.938   3.652  13.815 -0.6037 -1.0355 -0.2154
 2913SOL     OW20371   3.772   3.287   3.188 -0.0618  0.1529  0.2898
 2913SOL    HW120372   3.703   3.318   3.130  0.8087  0.5242 -0.5576
 2913SOL    HW220373   3.725   3.227   3.246 -0.4385 -1.4570 -1.6958
 2914SOL     OW20374   0.287   2.354  12.401  0.1661  0.1539 -0.2580
 2914SOL    HW120375   0.360   2.378  12.344 -1.1442  1.5103 -1.3946
 2914SOL    HW220376   0.226   2.428  12.389  0.5272  0.3932 -0.6539
 2915SOL     OW20377   2.549   3.141   2.700 -0.3961  0.4724  0.0443
 2915SOL    HW120378   2.608   3.071   2.729  0.0009  0.7841 -0.0109
 2915SOL    HW220379   2.485   3.149   2.771  1.9595 -3.3032  2.5784
 2916SOL     OW20380   0.988   3.745  12.650 -0.0306 -0.2628 -0.2779
 2916SOL    HW120381   0.974   3.660  12.608  1.3694 -0.6984  0.1578
 2916SOL    HW220382   1.076   3.742  12.687 -0.3193  1.4558  0.5427
 2917SOL     OW20383   0.859   0.708   1.212  0.6898 -0.5318  0.1767
 2917SOL    HW120384   0.795   0.671   1.151  0.3198  1.2563 -0.5494
 2917SOL    HW220385   0.911   0.635   1.243  0.5322 -1.1291 -0.9470
 2918SOL     OW20386   0.399   3.103   1.703 -0.2606  0.9884  0.0501
 2918SOL    HW120387   0.335   3.173   1.693  0.0940  1.1577 -1.1058
 2918SOL    HW220388   0.345   3.025   1.715  1.1016  0.2450  1.3763
 2919SOL     OW20389   0.316   3.511   8.340  0.2941 -0.7432 -0.2052
 2919SOL    HW120390   0.398   3.496   8.387  0.0199 -2.2735 -0.2116
 2919SOL    HW220391   0.335   3.503   8.247 -0.6026  0.8764 -0.5120
 2920SOL     OW20392   1.604   4.167   7.324 -0.4382  0.6994  0.5627
 2920SOL    HW120393   1.660   4.113   7.268 -0.6574 -1.4418  2.4011
 2920SOL    HW220394   1.557   4.103   7.377 -0.4887  0.5988  0.3969
 2921SOL     OW20395   0.780   0.435   5.420  0.3000 -0.4104  0.4847
 2921SOL    HW120396   0.707   0.484   5.383 -0.2177 -0.4160  1.4998
 2921SOL    HW220397   0.849   0.467   5.362  1.3411 -2.0885  0.7805
 2922SOL     OW20398   2.670   0.673   4.374  0.5751  0.0488  0.0896
 2922SOL    HW120399   2.738   0.696   4.437  1.0527  1.8781 -1.0898
 2922SOL    HW220400   2.644   0.763   4.354  2.4223  0.6614  0.4843
 2923SOL     OW20401   1.317   2.706   6.848  0.4060  0.1753 -0.1659
 2923SOL    HW120402   1.301   2.612   6.834 -1.1321  0.4548 -0.3203
 2923SOL    HW220403   1.358   2.706   6.934  0.9956 -0.7278 -0.4448
 2924SOL     OW20404   0.172   3.683   6.057  0.1367  0.1964  0.3748
 2924SOL    HW120405   0.104   3.684   5.990  0.0639  1.7608  0.4750
 2924SOL    HW220406   0.120   3.631   6.119  0.4328 -0.7758 -0.1892
 2925SOL     OW20407   1.959   4.062   3.342 -1.0053  0.3633  0.3028
 2925SOL    HW120408   1.970   3.984   3.397 -1.7148 -0.1603 -0.3047
 2925SOL    HW220409   2.024   4.122   3.378  0.7000 -0.2227 -1.7646
 2926SOL     OW20410   2.649   3.549  10.752 -0.5401  0.0531 -0.1904
 2926SOL    HW120411   2.706   3.473  10.736 -0.0961  0.0863  1.2509
 2926SOL    HW220412   2.633   3.594  10.669  0.5571  0.8795  0.0356
 2927SOL     OW20413   1.518   4.341   9.876 -0.0604 -0.1383  0.0162
 2927SOL    HW120414   1.571   4.390   9.939 -1.2951  2.1883 -0.7565
 2927SOL    HW220415   1.432   4.382   9.887 -0.3174 -0.9974  1.2364
 2928SOL     OW20416   2.964   2.280  17.253  0.0738  0.1424  0.1359
 2928SOL    HW120417   2.923   2.294  17.168 -0.7651  0.3040  0.5646
 2928SOL    HW220418   3.025   2.209  17.234  0.6389  0.6931 -0.1138
 2929SOL     OW20419   3.727   0.960   7.675  0.3005 -0.1633 -0.3451
 2929SOL    HW120420   3.651   0.947   7.619  1.1389 -0.3211 -1.4418
 2929SOL    HW220421   3.681   0.985   7.755  3.1308 -1.6514  1.7526
 2930SOL     OW20422   3.023   0.209   5.783 -0.4473  0.4036 -0.4663
 2930SOL    HW120423   3.085   0.282   5.778 -1.2263  1.0637 -0.6390
 2930SOL    HW220424   2.981   0.229   5.700 -0.3398  1.3643 -0.2900
 2931SOL     OW20425   4.738   0.564   8.889 -0.3703 -0.5787  0.4752
 2931SOL    HW120426   4.646   0.571   8.862 -0.3817  0.2793  0.7375
 2931SOL    HW220427   4.722   0.518   8.972 -0.0665  1.5455  1.7027
 2932SOL     OW20428   0.722   3.186   2.287 -0.1493  0.0256 -0.0566
 2932SOL    HW120429   0.672   3.178   2.206  1.2481  1.3320 -1.0598
 2932SOL    HW220430   0.811   3.175   2.252 -0.1091 -1.1811  0.4436
 2933SOL     OW20431   3.406   1.566   5.394  0.5322  0.5020  0.4255
 2933SOL    HW120432   3.401   1.557   5.299 -1.1246  2.0960  0.3628
 2933SOL    HW220433   3.405   1.479   5.434  2.1795  0.0250 -0.5877
 2934SOL     OW20434   0.330   4.586   1.920 -0.7924 -0.2242  0.4420
 2934SOL    HW120435   0.256   4.531   1.894 -0.0895 -1.0142  0.1041
 2934SOL    HW220436   0.383   4.575   1.840  0.7803 -0.9843  1.5873
 2935SOL     OW20437   0.790   1.122   9.585 -0.3951  0.4223  0.2123
 2935SOL    HW120438   0.735   1.043   9.579 -0.0132  0.2890 -1.4861
 2935SOL    HW220439   0.786   1.164   9.499 -1.1653 -1.2380 -0.5742
 2936SOL     OW20440   3.589   2.308   1.481 -0.0234 -0.6297  0.0185
 2936SOL    HW120441   3.569   2.357   1.561  1.8601  0.7393 -0.3521
 2936SOL    HW220442   3.539   2.360   1.418 -2.8567 -1.9086  1.1857
 2937SOL     OW20443   2.797   4.417   5.060 -0.3634  0.1159 -0.1560
 2937SOL    HW120444   2.802   4.332   5.102  2.0691  0.6981  0.7483
 2937SOL    HW220445   2.892   4.425   5.047 -0.4245  0.3078 -0.4787
 2938SOL     OW20446   0.764   4.023   1.236  0.4125 -0.0017  0.3460
 2938SOL    HW120447   0.737   4.099   1.288  0.4578 -0.2536  0.7398
 2938SOL    HW220448   0.843   4.048   1.187  1.2032 -2.3372  0.4186
 2939SOL     OW20449   3.607   1.724   9.914  0.2314  0.7120 -0.5261
 2939SOL    HW120450   3.618   1.819   9.913 -0.0508  0.7586  0.8721
 2939SOL    HW220451   3.694   1.696   9.886  0.2325 -1.7797  1.9146
 2940SOL     OW20452   4.289   4.191   2.165 -0.0065 -0.0031  0.5640
 2940SOL    HW120453   4.301   4.174   2.258  0.9433 -0.1369  0.4150
 2940SOL    HW220454   4.209   4.144   2.141 -1.7036  2.9955  0.3792
 2941SOL     OW20455   2.105   1.475   5.397 -0.1531  0.5995  0.7398
 2941SOL    HW120456   2.034   1.414   5.420  1.5280 -2.0867 -1.1309
 2941SOL    HW220457   2.086   1.555   5.444  0.1481  1.4945 -0.6634
 2942SOL     OW20458   4.416   0.349   0.637 -0.0223  0.0444 -0.6649
 2942SOL    HW120459   4.377   0.262   0.629  0.3801 -0.5284  3.7646
 2942SOL    HW220460   4.501   0.331   0.676 -0.6761 -1.9080 -0.1594
 2943SOL     OW20461   1.594   0.789   8.631 -0.2873 -0.3469 -0.0031
 2943SOL    HW120462   1.683   0.754   8.634 -0.0609  0.0753 -1.7580
 2943SOL    HW220463   1.575   0.800   8.538 -0.7542  0.8303  0.2326
 2944SOL     OW20464   1.028   3.237   4.389 -0.7368 -0.0476 -0.1662
 2944SOL    HW120465   1.106   3.249   4.444 -0.4335 -0.6755 -0.4588
 2944SOL    HW220466   1.065   3.248   4.302  0.6047 -0.6429  0.3238
 2945SOL     OW20467   4.048   2.749   6.971 -0.5476 -0.3484 -1.0027
 2945SOL    HW120468   4.028   2.836   6.936  0.1539 -0.0541 -0.6826
 2945SOL    HW220469   4.086   2.703   6.897  0.3988  1.8541 -1.9038
 2946SOL     OW20470   2.188   2.590   9.043 -0.2505 -0.2457  0.5595
 2946SOL    HW120471   2.204   2.610   8.951 -0.8720 -1.3662  0.2043
 2946SOL    HW220472   2.092   2.584   9.050 -0.3266  0.8998  0.3999
 2947SOL     OW20473   3.073   0.111   3.290 -0.0096 -0.0299 -0.3796
 2947SOL    HW120474   3.036   0.028   3.318  0.3149 -0.4474 -1.1838
 2947SOL    HW220475   3.030   0.168   3.354  2.1606 -1.3428  2.2048
 2948SOL     OW20476   4.575   0.521   8.249 -0.2881 -0.1840 -0.1006
 2948SOL    HW120477   4.500   0.487   8.199  0.6395  0.3025 -1.8336
 2948SOL    HW220478   4.627   0.441   8.243  0.7638  0.5448 -0.5582
 2949SOL     OW20479   0.445   0.275   0.389  0.3267  0.5378  0.3576
 2949SOL    HW120480   0.377   0.262   0.455 -0.0149  2.0956  0.3324
 2949SOL    HW220481   0.511   0.212   0.415  0.5464 -0.1885 -1.9033
 2950SOL     OW20482   2.741   0.699   9.660 -0.8506  0.2067  0.0370
 2950SOL    HW120483   2.800   0.758   9.612  2.2917 -1.8352  1.3807
 2950SOL    HW220484   2.668   0.707   9.599  0.4280 -0.6941 -1.6161
 2951SOL     OW20485   4.570   4.310  12.499 -0.4973  0.1379 -0.7893
 2951SOL    HW120486   4.648   4.257  12.480 -0.7864 -0.7867  0.6859
 2951SOL    HW220487   4.536   4.336  12.413 -1.2011 -0.4873 -0.6950
 2952SOL     OW20488   1.281   1.781   6.388  0.1267  0.4216  0.3865
 2952SOL    HW120489   1.372   1.785   6.416  0.6809  0.1648 -1.3810
 2952SOL    HW220490   1.275   1.689   6.362  0.0258  0.9116 -1.2793
 2953SOL     OW20491   1.077   1.697   2.404 -0.2551 -0.5005  0.2799
 2953SOL    HW120492   0.985   1.689   2.430 -0.8870  1.6285 -1.2344
 2953SOL    HW220493   1.104   1.773   2.456 -0.4594  0.6957 -1.3539
 2954SOL     OW20494   4.107   0.895   2.688  0.9579  0.1722  0.0288
 2954SOL    HW120495   4.035   0.949   2.720  1.3528 -0.4784  2.0107
 2954SOL    HW220496   4.180   0.952   2.710  0.7402 -0.7037  3.0265
 2955SOL     OW20497   1.371   0.055   4.243  0.6630 -0.0541  0.2390
 2955SOL    HW120498   1.434   4.727   4.214  0.3607 -0.0878 -0.3261
 2955SOL    HW220499   1.306   0.007   4.294  0.4180  0.2618  0.2263
 2956SOL     OW20500   0.731   0.440   5.051  0.0924 -0.0497  0.0942
 2956SOL    HW120501   0.790   0.371   5.024  0.3582  0.1645  0.1241
 2956SOL    HW220502   0.655   0.420   4.995  0.3771  1.3018 -0.7817
 2957SOL     OW20503   1.252   1.609   3.724  0.5421 -0.4373  0.2319
 2957SOL    HW120504   1.189   1.681   3.719  0.3163 -0.4539  2.8020
 2957SOL    HW220505   1.194   1.553   3.776 -0.8868  0.3597 -0.4949
 2958SOL     OW20506   4.640   1.960  13.316  0.2879 -0.2669 -0.4562
 2958SOL    HW120507   4.556   1.927  13.283 -0.9880  0.3054  2.2177
 2958SOL    HW220508   4.690   1.970  13.235  0.0908 -1.6399 -0.7439
 2959SOL     OW20509   2.828   3.416  14.292 -0.3187 -0.1048  0.4032
 2959SOL    HW120510   2.788   3.466  14.363  0.5939 -0.9763  1.5445
 2959SOL    HW220511   2.770   3.411  14.216  0.6050  0.3777 -0.3301
 2960SOL     OW20512   3.755   3.941   8.010 -0.3441  0.0633 -0.0362
 2960SOL    HW120513   3.799   4.020   8.040  0.9305 -0.6400 -0.0691
 2960SOL    HW220514   3.675   3.930   8.062  0.3396 -2.5146  0.4400
 2961SOL     OW20515   0.527   1.487  16.515 -0.1548  0.3088 -0.4003
 2961SOL    HW120516   0.526   1.442  16.599 -0.4573  1.1532  0.0533
 2961SOL    HW220517   0.539   1.415  16.454  2.8000 -0.2174  0.7780
 2962SOL     OW20518   3.977   2.403   9.517  0.3134  0.5891  0.9545
 2962SOL    HW120519   3.923   2.386   9.440  0.2630 -1.6383  1.4819
 2962SOL    HW220520   4.043   2.460   9.479  1.1248 -1.6450 -0.9764
 2963SOL     OW20521   0.704   1.581   5.991 -0.0039  0.2219  0.1468
 2963SOL    HW120522   0.644   1.525   5.943 -0.1873 -0.5278  1.2673
 2963SOL    HW220523   0.785   1.533   5.971  0.9971  3.0342 -2.5142
 2964SOL     OW20524   2.925   4.685   5.763 -0.1548 -0.3038  0.4865
 2964SOL    HW120525   2.946   0.037   5.788 -1.1653  0.2086 -0.5192
 2964SOL    HW220526   2.997   4.671   5.701 -0.5238 -3.3555  0.7700
 2965SOL     OW20527   2.860   0.552   4.227  0.0786 -0.2397 -0.1602
 2965SOL    HW120528   2.785   0.579   4.279 -1.2702 -3.3514 -0.5116
 2965SOL    HW220529   2.844   0.599   4.144 -2.7802 -0.4664  0.2854
 2966SOL     OW20530   3.500   0.031   2.219  0.3294  0.0311  0.1984
 2966SOL    HW120531   3.542   0.107   2.179 -0.1578 -0.2008 -0.7486
 2966SOL    HW220532   3.552   4.692   2.197 -0.1016 -0.2425  0.1304
 2967SOL     OW20533   3.750   2.331   1.868 -0.0033  0.1868  1.0865
 2967SOL    HW120534   3.697   2.298   1.941 -2.0531 -1.0167 -0.9371
 2967SOL    HW220535   3.825   2.360   1.920  1.9233 -0.5767 -1.2409
 2968SOL     OW20536   3.154   1.178   5.562 -0.0017 -0.4751 -0.2092
 2968SOL    HW120537   3.094   1.134   5.621 -0.5050 -0.7933 -0.9598
 2968SOL    HW220538   3.156   1.268   5.594 -4.5798 -0.6575  0.5886
 2969SOL     OW20539   0.774   3.292   6.515 -0.4534 -0.1087 -0.0362
 2969SOL    HW120540   0.818   3.208   6.527  0.8470  0.2009 -2.6592
 2969SOL    HW220541   0.710   3.269   6.448  0.1443 -0.3800 -0.5147
 2970SOL     OW20542   3.654   2.302   7.801  0.2767  0.2866  0.1146
 2970SOL    HW120543   3.690   2.329   7.886  3.0814 -1.4537 -0.5199
 2970SOL    HW220544   3.709   2.227   7.781 -0.1163  0.2578 -0.8288
 2971SOL     OW20545   0.060   1.990   7.725  0.2472 -0.4377 -0.7209
 2971SOL    HW120546   0.106   1.986   7.642 -1.2696  0.4269 -1.6164
 2971SOL    HW220547   4.722   1.935   7.711 -1.1537  0.4993  3.2388
 2972SOL     OW20548   4.620   4.682   3.378  0.1346  0.2058  0.1898
 2972SOL    HW120549   4.555   4.676   3.447  0.0273 -0.9682 -0.0172
 2972SOL    HW220550   4.569   4.649   3.304 -1.4220 -2.0370  2.2977
 2973SOL     OW20551   2.031   1.336   3.244  0.2671 -0.1956 -0.2157
 2973SOL    HW120552   2.086   1.262   3.220  3.0645  2.7038 -2.6839
 2973SOL    HW220553   1.993   1.349   3.157  2.2663  2.2976 -0.6871
 2974SOL     OW20554   4.199   0.713   0.164 -0.1900 -0.0588  0.5864
 2974SOL    HW120555   4.149   0.643   0.122  0.3437 -1.2977  2.0121
 2974SOL    HW220556   4.292   0.692   0.158  0.7885  4.2821  0.7671
 2975SOL     OW20557   3.946   3.064   4.663 -0.3433 -0.4327  0.0455
 2975SOL    HW120558   3.901   3.075   4.580 -0.9480  0.6875  0.5279
 2975SOL    HW220559   4.038   3.069   4.638  0.0313  1.0615  1.7421
 2976SOL     OW20560   1.177   1.523  10.532  0.6245  0.2836  0.5795
 2976SOL    HW120561   1.211   1.492  10.616  3.1168  0.0433 -0.5335
 2976SOL    HW220562   1.082   1.516  10.539  0.4296 -0.4537 -2.7794
 2977SOL     OW20563   0.400   3.984   7.032  0.6463 -0.5544 -0.2808
 2977SOL    HW120564   0.388   3.970   7.126 -1.1067  0.4385 -0.3453
 2977SOL    HW220565   0.379   4.076   7.022  0.0104 -0.4436  1.9585
 2978SOL     OW20566   2.083   3.580   2.092 -0.4070 -0.5016  0.1779
 2978SOL    HW120567   2.142   3.522   2.139  1.8581  2.3848  0.8876
 2978SOL    HW220568   2.039   3.524   2.028  1.8870  0.4668 -2.2524
 2979SOL     OW20569   3.842   1.792   2.761 -0.0519 -0.0934  0.1834
 2979SOL    HW120570   3.837   1.870   2.816 -0.4697  0.5536 -0.7584
 2979SOL    HW220571   3.812   1.729   2.826  1.8818  0.3666  1.4976
 2980SOL     OW20572   3.656   1.903   5.599 -0.0547  0.6772  0.3618
 2980SOL    HW120573   3.749   1.916   5.619 -0.4343  0.9594  1.9017
 2980SOL    HW220574   3.614   1.954   5.668  0.1614  0.2982  0.7736
 2981SOL     OW20575   3.496   0.868   7.576  0.0273 -0.1040  0.1529
 2981SOL    HW120576   3.485   0.779   7.543 -2.1015  0.5575 -0.9748
 2981SOL    HW220577   3.422   0.877   7.636 -0.6416 -0.2953 -0.6276
 2982SOL     OW20578   1.220   2.268  13.027 -0.1412  0.0238 -0.1132
 2982SOL    HW120579   1.302   2.313  13.009 -0.9341  1.3820 -0.3806
 2982SOL    HW220580   1.235   2.240  13.117 -1.1091  2.3318  0.7520
 2983SOL     OW20581   0.046   0.089  17.688 -0.1975  0.4301  0.0769
 2983SOL    HW120582   0.129   0.131  17.711 -1.3290  1.8678  1.4675
 2983SOL    HW220583   4.727   0.120   0.005 -0.2683  0.1319  0.1537
 2984SOL     OW20584   0.557   1.353   3.998  0.0998 -0.3942 -0.1384
 2984SOL    HW120585   0.650   1.332   3.987  0.3225  1.5503 -1.9796
 2984SOL    HW220586   0.544   1.429   3.941  1.3240 -0.0363  0.0649
 2985SOL     OW20587   3.849   3.799   7.781  0.7047 -0.7864  0.5896
 2985SOL    HW120588   3.804   3.844   7.852  1.1099  0.2216  0.2036
 2985SOL    HW220589   3.825   3.711   7.809 -2.8387  0.9220  2.9288
 2986SOL     OW20590   0.793   4.737   3.429  0.1952 -0.0253  0.3857
 2986SOL    HW120591   0.865   4.712   3.487 -1.4993 -1.6326  1.7922
 2986SOL    HW220592   0.804   0.093   3.437  2.0172 -0.1404 -0.6979
 2987SOL     OW20593   0.365   2.785  14.236 -0.2551  0.6339 -0.6250
 2987SOL    HW120594   0.458   2.763  14.241 -0.2639  0.5703 -0.7417
 2987SOL    HW220595   0.367   2.876  14.205  1.9127  1.1971  1.1215
 2988SOL     OW20596   1.989   0.822  16.936 -0.5548 -0.2742  0.3646
 2988SOL    HW120597   2.000   0.912  16.964 -1.4493  0.2692 -1.0487
 2988SOL    HW220598   1.935   0.838  16.858  0.4453 -3.1199 -0.9309
 2989SOL     OW20599   4.458   1.341   4.685  0.0805 -0.1979  0.2483
 2989SOL    HW120600   4.396   1.296   4.626 -1.1777 -1.5967  2.6195
 2989SOL    HW220601   4.540   1.314   4.643 -1.4220 -1.7347 -1.7396
 2990SOL     OW20602   2.163   3.620   0.455 -0.5591 -0.1240 -0.3247
 2990SOL    HW120603   2.198   3.662   0.377 -1.3763 -0.1142 -0.6804
 2990SOL    HW220604   2.155   3.527   0.431  0.7834  0.4285 -2.9313
 2991SOL     OW20605   4.262   2.189   6.792 -0.0075  0.3005 -0.0963
 2991SOL    HW120606   4.299   2.255   6.734 -1.7948  0.9260 -0.5453
 2991SOL    HW220607   4.183   2.225   6.832 -0.1254 -0.7477  0.6266
 2992SOL     OW20608   1.406   2.721   5.089  0.6372  0.0042 -0.3142
 2992SOL    HW120609   1.358   2.750   5.167  1.1627 -0.9273  0.3548
 2992SOL    HW220610   1.364   2.779   5.026 -1.9631  0.1325  1.5483
 2993SOL     OW20611   4.736   1.297  12.738 -0.0788  0.2156  0.3914
 2993SOL    HW120612   4.679   1.324  12.810  2.4529  0.1803  2.4489
 2993SOL    HW220613   4.737   1.201  12.735 -2.1992  0.2664 -1.5086
 2994SOL     OW20614   4.215   1.478   9.623  0.0834 -0.1506  0.0889
 2994SOL    HW120615   4.149   1.416   9.653  2.1441 -2.3641  0.1532
 2994SOL    HW220616   4.162   1.527   9.560  0.3748 -0.0447 -0.0774
 2995SOL     OW20617   4.242   2.888   5.845  0.1010 -0.4682  0.2335
 2995SOL    HW120618   4.241   2.840   5.928 -0.6628 -0.5981  0.1499
 2995SOL    HW220619   4.232   2.821   5.777  1.2593  0.1760 -0.5669
 2996SOL     OW20620   4.566   0.044   7.899  0.0250 -0.3501 -0.4320
 2996SOL    HW120621   4.566   4.727   7.977 -2.1019  0.5207  0.1738
 2996SOL    HW220622   4.576   4.714   7.832  1.4901 -1.8198  1.2958
 2997SOL     OW20623   2.241   2.835   4.084  1.0433  0.1616  0.0811
 2997SOL    HW120624   2.236   2.798   4.172 -4.0636 -1.2405 -0.7651
 2997SOL    HW220625   2.152   2.864   4.061 -0.2346 -2.0613  2.1448
 2998SOL     OW20626   0.982   1.373   8.096 -0.1517  0.9826  0.7541
 2998SOL    HW120627   0.893   1.405   8.113 -0.9254  0.5021 -2.4672
 2998SOL    HW220628   0.994   1.321   8.175  0.5563 -1.6859 -1.1394
 2999SOL     OW20629   4.141   1.235   6.116 -0.2243 -0.0152  0.0901
 2999SOL    HW120630   4.125   1.243   6.022  3.0803  2.3989 -0.2776
 2999SOL    HW220631   4.105   1.316   6.149 -1.1412 -0.8806  1.1967
 3000SOL     OW20632   2.668   0.697  10.327  0.3162  0.0776  0.1598
 3000SOL    HW120633   2.648   0.610  10.362  2.7496  0.1275  1.6584
 3000SOL    HW220634   2.720   0.667  10.251 -1.3158 -0.6410 -0.6740
 3001SOL     OW20635   3.305   2.015  10.191  0.3038 -0.4181 -0.0612
 3001SOL    HW120636   3.385   2.063  10.211 -1.5469  2.8459 -0.4868
 3001SOL    HW220637   3.347   1.937  10.154  0.8394  0.8357 -2.1477
 3002SOL     OW20638   2.195   1.803   4.815  0.7230 -0.3561 -0.5398
 3002SOL    HW120639   2.215   1.716   4.780  0.2666 -0.0565 -1.5428
 3002SOL    HW220640   2.199   1.779   4.908 -2.2815  1.3145  0.0134
 3003SOL     OW20641   2.576   1.032  14.780  1.0040  0.1475 -0.7788
 3003SOL    HW120642   2.546   1.120  14.758  0.3094  0.1736  0.2652
 3003SOL    HW220643   2.570   1.035  14.875 -1.1465  2.8982 -0.9786
 3004SOL     OW20644   2.396   1.560   7.747 -0.1577  0.9994 -0.0978
 3004SOL    HW120645   2.398   1.619   7.823  1.5530 -0.3634  0.9399
 3004SOL    HW220646   2.480   1.588   7.709  0.0133 -0.8626 -1.0838
 3005SOL     OW20647   0.295   4.494   6.405 -0.7469  0.0315 -0.1391
 3005SOL    HW120648   0.210   4.459   6.431  0.2911 -1.9770  0.5884
 3005SOL    HW220649   0.310   4.450   6.321  1.8319 -2.2760  1.5337
 3006SOL     OW20650   2.728   1.118   5.352 -0.2182  0.4248  0.4147
 3006SOL    HW120651   2.732   1.084   5.442  1.7307  0.4828  0.3404
 3006SOL    HW220652   2.718   1.029   5.318  2.4762 -0.5239  2.1186
 3007SOL     OW20653   0.967   3.386   8.126  0.0001  0.3675 -0.6228
 3007SOL    HW120654   0.998   3.471   8.158  0.6289  0.2396 -0.8926
 3007SOL    HW220655   0.929   3.352   8.207  0.0454 -0.4131 -0.9291
 3008SOL     OW20656   4.581   4.353   1.513  0.3135 -0.0480  0.2666
 3008SOL    HW120657   4.659   4.357   1.569 -1.2384  0.1226  2.4289
 3008SOL    HW220658   4.536   4.278   1.552 -1.0080  0.0388 -1.0917
 3009SOL     OW20659   1.732   1.090   6.664 -0.2065  0.3829  0.5103
 3009SOL    HW120660   1.777   1.022   6.615  0.2782 -0.3737  2.0011
 3009SOL    HW220661   1.741   1.047   6.749  1.4451  1.3642  0.8480
 3010SOL     OW20662   2.300   2.143   8.705 -0.4816 -0.6350 -0.2434
 3010SOL    HW120663   2.377   2.194   8.733 -0.1720 -0.4923 -1.3735
 3010SOL    HW220664   2.334   2.120   8.619 -1.1559  0.3968 -0.7858
 3011SOL     OW20665   1.198   3.192  13.047 -0.4473  0.2698 -0.1026
 3011SOL    HW120666   1.291   3.207  13.063 -0.1395 -0.0676 -1.5407
 3011SOL    HW220667   1.192   3.160  12.957  0.2918 -2.0710  0.6824
 3012SOL     OW20668   2.697   4.671   3.869  0.2581  0.0516  0.0428
 3012SOL    HW120669   2.711   4.605   3.936 -2.4211  1.2507  1.8030
 3012SOL    HW220670   2.662   0.012   3.909  0.0762  0.1895 -0.3897
 3013SOL     OW20671   1.287   1.824   1.429 -0.4289 -0.7355  0.1310
 3013SOL    HW120672   1.255   1.858   1.346 -0.3198 -0.1216  0.3432
 3013SOL    HW220673   1.207   1.816   1.482 -0.2969 -0.7944  0.3228
 3014SOL     OW20674   0.083   1.926  17.719  0.2431 -0.6844 -0.2738
 3014SOL    HW120675   0.131   1.918   0.050  1.2229  0.4027 -0.7400
 3014SOL    HW220676   0.073   2.021  17.713  2.6719 -0.5648 -2.3486
 3015SOL     OW20677   1.876   3.138   6.494 -0.4382 -0.0243  0.1840
 3015SOL    HW120678   1.843   3.123   6.582 -3.1421  2.1268 -0.4881
 3015SOL    HW220679   1.847   3.069   6.434 -2.5566  0.8096  0.2710
 3016SOL     OW20680   4.372   4.493   3.446 -0.3290 -0.8861  0.1092
 3016SOL    HW120681   4.373   4.535   3.361  0.8709  0.1694  0.6393
 3016SOL    HW220682   4.410   4.562   3.501  0.5747 -1.3294  0.0489
 3017SOL     OW20683   2.289   1.114   4.782  0.1423  0.0248 -0.1861
 3017SOL    HW120684   2.261   1.180   4.845 -1.1169 -1.3834  0.7148
 3017SOL    HW220685   2.381   1.138   4.772  0.0805 -0.6777 -2.5511
 3018SOL     OW20686   0.521   3.218   6.058  0.2966 -0.3655  0.3606
 3018SOL    HW120687   0.563   3.183   5.979 -1.6257  1.5247 -1.5132
 3018SOL    HW220688   0.441   3.260   6.025  2.7865  2.5358 -1.9074
 3019SOL     OW20689   1.129   1.741   6.123 -0.3135  0.2956 -0.1438
 3019SOL    HW120690   1.098   1.714   6.209  0.8140  0.0504  0.1972
 3019SOL    HW220691   1.072   1.817   6.114  0.3241  0.7260 -0.5560
 3020SOL     OW20692   1.854   1.002  10.856  0.2845  0.2305 -0.1201
 3020SOL    HW120693   1.909   0.965  10.787 -2.2831 -0.8558 -1.6173
 3020SOL    HW220694   1.911   1.016  10.932 -1.6827  0.9205  1.2335
 3021SOL     OW20695   2.532   3.867   7.341  0.0052  0.3363  0.5453
 3021SOL    HW120696   2.480   3.870   7.421 -1.2491  0.9013 -0.2884
 3021SOL    HW220697   2.569   3.779   7.333  2.1926  1.2397  0.5150
 3022SOL     OW20698   2.775   2.904  17.234  0.6941 -0.3056 -0.1156
 3022SOL    HW120699   2.722   2.916  17.155  0.1866 -0.8667  0.1417
 3022SOL    HW220700   2.735   2.970  17.291  0.5905 -0.4715  0.0018
 3023SOL     OW20701   3.230   0.900   4.332  0.3992  0.2834 -0.1081
 3023SOL    HW120702   3.139   0.922   4.312 -0.0591 -0.0368  1.5990
 3023SOL    HW220703   3.216   0.840   4.405  0.3504  0.9628  0.4415
 3024SOL     OW20704   1.107   3.781   3.926  0.1149  0.0027 -0.0618
 3024SOL    HW120705   1.077   3.741   3.844  1.0489 -3.4417  1.2532
 3024SOL    HW220706   1.186   3.824   3.894  0.6579  0.1270  1.4309
 3025SOL     OW20707   1.379   0.633   7.886 -0.1090 -0.5137 -0.3030
 3025SOL    HW120708   1.404   0.707   7.942 -0.2537  1.5653 -2.9398
 3025SOL    HW220709   1.393   0.565   7.951  2.5052  1.5395  1.2996
 3026SOL     OW20710   4.449   0.014   7.429 -0.2063 -0.0561  0.4064
 3026SOL    HW120711   4.520   0.007   7.365 -2.7449 -2.1450 -2.1693
 3026SOL    HW220712   4.408   4.667   7.413  0.2978 -0.3109  0.4757
 3027SOL     OW20713   1.511   1.511   8.890 -0.2478  0.3629 -0.3673
 3027SOL    HW120714   1.573   1.514   8.817  0.6260  0.7961  0.3954
 3027SOL    HW220715   1.483   1.603   8.895  1.8661  0.9415  0.7187
 3028SOL     OW20716   0.368   0.681   2.662 -0.0892 -0.1115  0.1446
 3028SOL    HW120717   0.304   0.630   2.612 -2.5190  2.1912  0.9696
 3028SOL    HW220718   0.438   0.705   2.602  0.0274  1.2644  0.8335
 3029SOL     OW20719   0.949   4.289   7.162  0.2529  0.3075 -0.0282
 3029SOL    HW120720   0.912   4.342   7.233  0.9061  0.2012  0.3970
 3029SOL    HW220721   1.017   4.347   7.129  1.7377 -1.4917 -0.1090
 3030SOL     OW20722   0.647   1.287   1.668  0.4336  0.5470  0.2587
 3030SOL    HW120723   0.719   1.250   1.718 -1.0236  1.1286  2.8069
 3030SOL    HW220724   0.676   1.305   1.579 -0.3813 -0.1655 -0.1522
 3031SOL     OW20725   3.397   2.462  11.019 -0.4376  0.0675 -0.4593
 3031SOL    HW120726   3.426   2.540  10.970 -0.3991 -0.8426 -1.8713
 3031SOL    HW220727   3.396   2.512  11.101  0.1829  1.3474 -1.2288
 3032SOL     OW20728   2.442   3.275  16.342 -0.9203  0.2299  0.6442
 3032SOL    HW120729   2.533   3.250  16.329 -1.0164 -0.3806  1.1388
 3032SOL    HW220730   2.448   3.371  16.348  0.0565  0.2998 -1.8053
 3033SOL     OW20731   4.335   0.899   3.524  0.4229 -0.1338  0.1042
 3033SOL    HW120732   4.414   0.942   3.490  0.1278  0.5561  0.2792
 3033SOL    HW220733   4.354   0.909   3.618 -0.5440  0.1614  0.2648
 3034SOL     OW20734   3.252   3.656   5.935 -0.1989  0.2638  0.5576
 3034SOL    HW120735   3.243   3.704   5.853 -0.9379 -2.3936 -0.9480
 3034SOL    HW220736   3.332   3.693   5.971 -0.1198  0.7236 -0.1035
 3035SOL     OW20737   2.951   4.399   3.589  0.0534 -0.3085 -0.6446
 3035SOL    HW120738   2.962   4.355   3.504 -0.6618  1.2880 -1.5521
 3035SOL    HW220739   3.044   4.398   3.612 -0.0744  2.4639  0.0122
 3036SOL     OW20740   2.792   4.404   5.368 -0.1904 -0.2579 -0.1193
 3036SOL    HW120741   2.760   4.372   5.453  2.4044 -3.0825 -0.2255
 3036SOL    HW220742   2.818   4.324   5.323 -1.8938 -0.0800 -1.4169
 3037SOL     OW20743   0.263   0.343   4.620  0.5556 -0.3375  0.0361
 3037SOL    HW120744   0.328   0.413   4.612  0.3955 -0.1889  0.0114
 3037SOL    HW220745   0.295   0.275   4.561  0.7350 -1.7315  1.7423
 3038SOL     OW20746   3.049   4.271   7.167  0.3781 -0.3267 -1.1657
 3038SOL    HW120747   3.036   4.305   7.256  0.2101  0.8964 -1.6588
 3038SOL    HW220748   3.012   4.343   7.117  0.3243  1.7761  1.9424
 3039SOL     OW20749   1.572   2.898   1.458 -0.2089  0.5110  0.2188
 3039SOL    HW120750   1.661   2.917   1.430 -0.5792  2.1860  0.1866
 3039SOL    HW220751   1.543   2.984   1.487  0.5404  1.3615 -1.5488
 3040SOL     OW20752   1.531   3.486   1.583  0.0270  0.4752 -0.0057
 3040SOL    HW120753   1.571   3.565   1.547  0.2059  0.4860  0.2217
 3040SOL    HW220754   1.497   3.441   1.506 -0.6198 -0.4655  0.8263
 3041SOL     OW20755   3.245   2.989   3.128 -0.0218 -0.0558 -0.2644
 3041SOL    HW120756   3.171   2.936   3.156 -1.0769  0.4506 -2.0902
 3041SOL    HW220757   3.232   2.999   3.034  1.8625 -1.8611 -0.7416
 3042SOL     OW20758   3.416   1.171  13.001  0.0486  0.0968 -0.6592
 3042SOL    HW120759   3.500   1.139  13.031 -1.1744 -2.1971  0.3280
 3042SOL    HW220760   3.446   1.250  12.956 -1.5416  1.3631  0.5043
 3043SOL     OW20761   1.197   2.338   7.938  0.2921 -0.1552  0.5403
 3043SOL    HW120762   1.238   2.274   7.995 -1.2547 -1.2016  0.4839
 3043SOL    HW220763   1.269   2.376   7.888  0.0152 -2.8746 -1.9473
 3044SOL     OW20764   1.900   4.074  10.893 -0.0683  0.1082 -0.2188
 3044SOL    HW120765   1.950   4.046  10.816 -3.7748 -1.8756 -1.8718
 3044SOL    HW220766   1.842   4.136  10.850 -3.1614 -0.9439  2.4721
 3045SOL     OW20767   1.818   3.058   6.765 -0.1959  0.0633 -0.1297
 3045SOL    HW120768   1.858   3.071   6.851  0.7829  3.3792 -1.0977
 3045SOL    HW220769   1.728   3.038   6.789 -0.4332 -0.3538 -1.3407
 3046SOL     OW20770   4.226   1.075   0.715  0.1711  0.0562  0.3709
 3046SOL    HW120771   4.145   1.028   0.695  0.3330 -0.0864  0.0481
 3046SOL    HW220772   4.281   1.001   0.740 -0.6763 -0.4961  0.6200
 3047SOL     OW20773   3.113   4.592   2.808 -0.3779 -0.0603 -0.4268
 3047SOL    HW120774   3.125   4.681   2.844 -0.4691 -1.1605  2.3614
 3047SOL    HW220775   3.033   4.599   2.757 -0.7157  0.0910  0.1184
 3048SOL     OW20776   3.928   3.930   4.996 -0.7710  0.2450 -0.1486
 3048SOL    HW120777   3.835   3.946   5.015 -0.5052  1.3615  0.2366
 3048SOL    HW220778   3.978   3.993   5.049 -1.7810  0.8029  0.1456
 3049SOL     OW20779   0.490   2.321   5.507  0.1657 -0.1858  0.5772
 3049SOL    HW120780   0.404   2.310   5.467 -0.1493 -1.4628  1.6363
 3049SOL    HW220781   0.478   2.389   5.574 -0.5578 -0.8932  1.1570
 3050SOL     OW20782   2.250   0.144   2.172 -0.6448 -0.0129 -0.1303
 3050SOL    HW120783   2.164   0.163   2.133 -0.6363  2.5263  1.0935
 3050SOL    HW220784   2.267   0.232   2.205  1.3018  0.0113 -1.2127
 3051SOL     OW20785   0.688   2.338  10.306  0.0264  0.2657 -0.1077
 3051SOL    HW120786   0.739   2.417  10.285 -0.8233  0.8050 -0.1829
 3051SOL    HW220787   0.709   2.323  10.398  0.4409  0.7309 -0.1273
 3052SOL     OW20788   2.232   2.501  10.033  0.1971  0.1788 -0.5340
 3052SOL    HW120789   2.198   2.578  10.078 -1.8594 -1.3177  0.4764
 3052SOL    HW220790   2.156   2.498   9.974  0.0542 -2.8031 -0.2072
 3053SOL     OW20791   2.492   1.383   9.241  0.4696 -0.4933 -0.3151
 3053SOL    HW120792   2.448   1.323   9.301  2.1641 -0.9481  0.4840
 3053SOL    HW220793   2.458   1.470   9.261  2.6558 -0.2261  2.3690
 3054SOL     OW20794   3.192   3.285   6.335  0.1619  1.0875  0.7415
 3054SOL    HW120795   3.162   3.331   6.414 -0.2963  1.0397  0.5937
 3054SOL    HW220796   3.249   3.216   6.370 -1.3705 -0.6371 -0.2032
 3055SOL     OW20797   2.049   0.718  12.900  0.1864  0.3205 -0.6194
 3055SOL    HW120798   2.121   0.669  12.940 -0.9036  0.2360  1.2530
 3055SOL    HW220799   2.014   0.758  12.980  1.7798  0.0120  0.2342
 3056SOL     OW20800   1.265   1.504   9.095  0.9061 -0.1066  0.1308
 3056SOL    HW120801   1.261   1.409   9.094  1.4864 -0.1276 -1.5756
 3056SOL    HW220802   1.343   1.519   9.042  0.7302 -1.6684 -0.5787
 3057SOL     OW20803   1.878   0.434   9.098 -0.4259  0.3157  0.3999
 3057SOL    HW120804   1.800   0.409   9.147 -0.9684 -0.9249 -1.0970
 3057SOL    HW220805   1.917   0.495   9.161 -1.6906 -0.3149  1.7807
 3058SOL     OW20806   1.620   3.891  16.726  0.1248  0.7228 -0.1185
 3058SOL    HW120807   1.587   3.976  16.755  1.2414  0.7089  1.2204
 3058SOL    HW220808   1.613   3.840  16.807  2.1649  1.3921  0.4810
 3059SOL     OW20809   0.236   3.593   4.623  1.5231 -0.2122  0.4145
 3059SOL    HW120810   0.322   3.552   4.629  1.3790 -0.4489  0.8164
 3059SOL    HW220811   0.211   3.610   4.714  0.1999  0.7038 -0.1101
 3060SOL     OW20812   0.338   0.248   3.982 -0.5718 -0.2745  0.0691
 3060SOL    HW120813   0.303   0.215   3.899 -1.7916 -0.3032  0.6081
 3060SOL    HW220814   0.414   0.193   4.002 -2.9954 -3.6464 -0.1044
 3061SOL     OW20815   1.308   2.485   9.656  0.0150 -1.0306  0.4645
 3061SOL    HW120816   1.258   2.451   9.730 -0.9017 -0.2317  0.2199
 3061SOL    HW220817   1.337   2.570   9.688 -0.9779 -0.3657 -0.3861
 3062SOL     OW20818   0.518   0.214   6.108 -0.3392 -0.0358 -0.3373
 3062SOL    HW120819   0.539   0.148   6.173 -1.0181  0.6635  0.5991
 3062SOL    HW220820   0.578   0.204   6.034 -1.4044  0.2498 -1.2351
 3063SOL     OW20821   3.531   1.036   9.703  0.4198 -0.0854  0.1253
 3063SOL    HW120822   3.565   1.076   9.783 -0.8015  0.2182  0.4954
 3063SOL    HW220823   3.437   1.030   9.721  0.2856 -0.7400 -0.7939
 3064SOL     OW20824   4.086   1.932   7.990 -0.2412 -0.0292 -0.7523
 3064SOL    HW120825   4.037   2.013   7.979 -0.8586 -0.4289 -0.9716
 3064SOL    HW220826   4.164   1.968   8.033  0.1720 -1.9886  0.1750
 3065SOL     OW20827   4.440   4.708   6.898 -0.3242 -0.3020 -0.7766
 3065SOL    HW120828   4.485   4.658   6.829  0.9766  2.0874 -1.6812
 3065SOL    HW220829   4.504   0.041   6.898  0.6814 -1.1952 -0.5634
 3066SOL     OW20830   3.326   3.627   3.598 -0.0120 -0.2084 -0.1637
 3066SOL    HW120831   3.257   3.683   3.561  0.1987 -1.1927 -2.0814
 3066SOL    HW220832   3.391   3.635   3.528 -1.9520  2.4461 -1.6697
 3067SOL     OW20833   1.468   3.749   8.783 -0.3686 -0.3560  0.2866
 3067SOL    HW120834   1.513   3.785   8.707 -1.0793 -0.9074 -0.3875
 3067SOL    HW220835   1.543   3.728   8.839 -0.7525 -0.1238  0.8957
 3068SOL     OW20836   3.708   0.745  15.690  0.9262 -0.0215  0.0647
 3068SOL    HW120837   3.761   0.794  15.628  1.9355 -1.5486 -0.2893
 3068SOL    HW220838   3.752   0.660  15.695  0.2088 -0.4247 -0.4215
 3069SOL     OW20839   2.644   2.822   9.184  0.0360 -0.0341  0.3048
 3069SOL    HW120840   2.634   2.903   9.235 -0.1915  1.8208 -2.6794
 3069SOL    HW220841   2.553   2.793   9.195  0.0729 -0.2279  0.0934
 3070SOL     OW20842   0.620   4.561  10.387 -0.4307  0.5159  0.0776
 3070SOL    HW120843   0.602   4.583  10.296 -1.2477  0.8543  0.3238
 3070SOL    HW220844   0.716   4.568  10.392 -0.2930 -1.1483 -0.2761
 3071SOL     OW20845   1.788   1.939   2.092  0.2514 -0.3931 -0.5386
 3071SOL    HW120846   1.811   1.847   2.081  1.2789 -0.3830  1.5503
 3071SOL    HW220847   1.694   1.927   2.079  0.1984  2.3435 -2.6555
 3072SOL     OW20848   1.290   0.396   3.476 -0.0343  0.2713  0.1207
 3072SOL    HW120849   1.375   0.375   3.516 -0.7356  1.0826  2.0026
 3072SOL    HW220850   1.303   0.491   3.476 -0.6841  0.3535  2.0040
 3073SOL     OW20851   2.586   2.738   3.799 -0.4552 -0.4416 -0.3716
 3073SOL    HW120852   2.663   2.775   3.757 -2.2843  0.7541 -2.6383
 3073SOL    HW220853   2.532   2.813   3.826  0.8963 -0.0077  1.1054
 3074SOL     OW20854   3.351   1.191   6.284 -0.3907  0.4063 -0.7081
 3074SOL    HW120855   3.317   1.268   6.328  0.5406  0.0210  0.7151
 3074SOL    HW220856   3.294   1.126   6.326 -0.8480  3.1649  2.9703
 3075SOL     OW20857   1.791   0.800   3.933 -0.0347 -0.7177  0.4692
 3075SOL    HW120858   1.822   0.884   3.897 -3.1156 -0.1399 -0.7544
 3075SOL    HW220859   1.708   0.831   3.969 -0.3517 -2.6909  1.4188
 3076SOL     OW20860   2.554   0.094   4.189  0.3130 -0.1941 -0.4202
 3076SOL    HW120861   2.616   0.150   4.143 -1.0870  1.2102 -0.5906
 3076SOL    HW220862   2.469   0.136   4.174  1.0650  1.9043  1.2677
 3077SOL     OW20863   3.517   0.015   9.605 -0.0279  0.4388 -0.4579
 3077SOL    HW120864   3.534   4.722   9.516 -1.3892 -0.4726 -0.3880
 3077SOL    HW220865   3.451   4.691   9.634  0.7733 -0.4410 -0.5233
 3078SOL     OW20866   0.750   2.839   9.421  0.3057  0.2227  0.5231
 3078SOL    HW120867   0.711   2.760   9.459  0.6844 -0.9510 -1.5624
 3078SOL    HW220868   0.836   2.804   9.399 -0.3705 -1.3245  0.3829
 3079SOL     OW20869   1.099   0.688   2.817  0.0863 -0.1314 -0.3433
 3079SOL    HW120870   1.108   0.632   2.740 -2.7850  0.5545 -1.2068
 3079SOL    HW220871   1.069   0.624   2.882 -1.7282 -0.4779 -1.5060
 3080SOL     OW20872   0.392   4.129   1.692 -0.2313 -0.3866  0.0733
 3080SOL    HW120873   0.330   4.127   1.765  0.7108 -1.5063  0.8436
 3080SOL    HW220874   0.479   4.128   1.732 -0.1513  1.0356 -0.0815
 3081SOL     OW20875   4.432   0.012   1.974  0.2197 -0.1444 -0.3143
 3081SOL    HW120876   4.469   0.066   2.044 -0.1535 -0.3271  0.0223
 3081SOL    HW220877   4.337   0.010   1.988  0.0264 -0.3737 -1.6757
 3082SOL     OW20878   0.233   1.841  16.122  0.3294  0.5852  0.1156
 3082SOL    HW120879   0.281   1.793  16.055  0.7060 -1.2071  1.6562
 3082SOL    HW220880   0.286   1.921  16.125  0.5738  0.3600  1.9288
 3083SOL     OW20881   0.556   3.762   0.238 -0.2867 -0.0327  0.0005
 3083SOL    HW120882   0.572   3.811   0.157 -0.0198  0.8012  0.5497
 3083SOL    HW220883   0.485   3.702   0.215 -0.8992 -0.0933  2.0731
 3084SOL     OW20884   2.255   0.475  17.468  0.8328  0.0403 -0.6962
 3084SOL    HW120885   2.204   0.457  17.389 -0.3269  0.2599 -0.0002
 3084SOL    HW220886   2.198   0.544  17.503 -1.3786 -2.2472  0.2957
 3085SOL     OW20887   3.331   3.906   7.220 -1.1683 -0.2695  0.1308
 3085SOL    HW120888   3.239   3.927   7.207 -0.4096  2.1228 -1.4470
 3085SOL    HW220889   3.333   3.852   7.299  1.4201 -2.7256 -1.5892
 3086SOL     OW20890   1.914   0.626  17.749  0.0385  0.1343  0.2221
 3086SOL    HW120891   1.996   0.659   0.035  0.4520  1.6029 -1.9567
 3086SOL    HW220892   1.936   0.651  17.659 -1.0646  0.6479  0.0926
 3087SOL     OW20893   1.265   0.498   5.338 -0.5840 -0.6863 -0.2704
 3087SOL    HW120894   1.230   0.471   5.423  2.7015  0.4119  1.4302
 3087SOL    HW220895   1.198   0.457   5.283 -0.7953 -0.8621  0.1167
 3088SOL     OW20896   1.443   0.615   3.827 -0.5091  0.6386  0.2092
 3088SOL    HW120897   1.397   0.584   3.905  2.4949 -2.1409  0.8993
 3088SOL    HW220898   1.479   0.686   3.881  1.0987  0.6472 -0.8745
 3089SOL     OW20899   2.357   2.546   2.011  0.1463  0.5332  0.7498
 3089SOL    HW120900   2.439   2.512   2.046 -0.7177 -0.2202  2.0657
 3089SOL    HW220901   2.356   2.524   1.918  0.6590 -1.7298  1.2879
 3090SOL     OW20902   1.302   0.271  10.577 -0.1552  0.2885 -0.3488
 3090SOL    HW120903   1.242   0.222  10.520  1.9548 -0.4109 -1.9618
 3090SOL    HW220904   1.248   0.257  10.656 -1.1368 -1.9742 -1.3990
 3091SOL     OW20905   2.102   2.569   7.044 -0.3307 -1.0719  1.1280
 3091SOL    HW120906   2.083   2.663   7.042  1.1458 -0.7685  1.4929
 3091SOL    HW220907   2.191   2.569   7.010 -0.0570 -0.9051  1.8584
 3092SOL     OW20908   2.119   0.540  10.074 -0.2419  0.0447 -0.7197
 3092SOL    HW120909   2.084   0.557  10.162 -0.2604 -3.3002 -0.0978
 3092SOL    HW220910   2.208   0.517  10.102  0.7357  0.0430 -3.8603
 3093SOL     OW20911   3.612   0.046  10.843  0.3658  0.8508  0.4785
 3093SOL    HW120912   3.569   0.082  10.765 -0.9118 -0.6925  0.4866
 3093SOL    HW220913   3.534   0.039  10.898 -0.9000  1.4604 -1.2668
 3094SOL     OW20914   2.897   1.051   2.092  0.6029 -0.5145 -0.4195
 3094SOL    HW120915   2.862   1.074   2.178 -0.9642  0.6733 -1.3885
 3094SOL    HW220916   2.882   0.957   2.107  0.1830 -0.2692  0.6727
 3095SOL     OW20917   1.006   4.027   1.074 -0.0468  0.9174 -0.5546
 3095SOL    HW120918   1.054   3.949   1.102  1.9038  2.8574  1.5388
 3095SOL    HW220919   1.070   4.096   1.090 -1.5197  1.3498  3.5888
 3096SOL     OW20920   1.913   2.657  11.066 -0.7192  0.0547  0.4443
 3096SOL    HW120921   1.953   2.610  11.139 -0.1908  0.6358  0.5289
 3096SOL    HW220922   1.986   2.694  11.017 -1.9480  0.4066 -1.1063
 3097SOL     OW20923   0.965   0.053  13.529  0.0523 -0.3903  0.2943
 3097SOL    HW120924   1.035   0.116  13.511 -0.0881 -0.5558 -0.8332
 3097SOL    HW220925   0.911   0.061  13.450 -0.8489 -0.4880  0.9068
 3098SOL     OW20926   3.847   1.322  11.985  0.1432 -0.1995 -0.5410
 3098SOL    HW120927   3.779   1.267  11.947  0.7924  0.4276 -2.5674
 3098SOL    HW220928   3.845   1.300  12.079 -1.0245  1.0317 -0.2716
 3099SOL     OW20929   1.217   1.636  12.076  0.0339 -0.7645  0.8782
 3099SOL    HW120930   1.212   1.730  12.092 -0.7367 -0.4733 -1.0590
 3099SOL    HW220931   1.301   1.626  12.032  0.2220 -1.7640  1.4672
 3100SOL     OW20932   2.471   0.309  15.691 -0.4393  0.2760 -0.6089
 3100SOL    HW120933   2.427   0.386  15.655  2.1557  1.2841 -1.5914
 3100SOL    HW220934   2.492   0.265  15.609  0.5010  0.0172 -0.2272
 3101SOL     OW20935   0.521   0.949   1.032 -0.2856  0.3940  0.2304
 3101SOL    HW120936   0.539   0.996   0.950 -1.6726  2.6181  1.1891
 3101SOL    HW220937   0.607   0.966   1.069 -0.1604 -0.0138  0.1277
 3102SOL     OW20938   0.098   3.165   4.241 -0.1052  0.6955  0.2563
 3102SOL    HW120939   0.155   3.104   4.288  0.1229  0.3303 -0.5005
 3102SOL    HW220940   0.039   3.189   4.312 -0.4978  0.1498  0.1165
 3103SOL     OW20941   4.680   2.759   7.632  0.6035  0.1629  0.0468
 3103SOL    HW120942   0.034   2.778   7.621  0.5919  0.1469 -0.0739
 3103SOL    HW220943   4.642   2.846   7.642  1.6153  0.9016 -2.6250
 3104SOL     OW20944   4.738   1.559   1.992 -0.4129  0.0394 -0.1684
 3104SOL    HW120945   4.720   1.652   2.008 -0.8359 -0.4912  2.5281
 3104SOL    HW220946   4.675   1.515   2.050 -1.1263 -0.2559 -1.1641
 3105SOL     OW20947   0.053   0.231  15.807  0.3520  0.8926 -0.1775
 3105SOL    HW120948   0.044   0.248  15.714 -1.2322  1.2677  0.0544
 3105SOL    HW220949   0.012   0.310  15.842  0.2572  1.1324 -0.8318
 3106SOL     OW20950   1.228   0.895   9.955  0.7882  0.1240 -0.1279
 3106SOL    HW120951   1.224   0.989   9.969 -0.6315  0.0057  0.2437
 3106SOL    HW220952   1.135   0.872   9.956  0.8652 -0.1777  0.2325
 3107SOL     OW20953   0.945   4.111  11.272  0.1195  0.0831 -0.2401
 3107SOL    HW120954   0.969   4.137  11.183  1.2839  1.2395  0.4034
 3107SOL    HW220955   0.915   4.196  11.305  0.3824 -0.0386  0.3064
 3108SOL     OW20956   1.209   2.880  10.259  0.4466  0.2250 -0.2098
 3108SOL    HW120957   1.153   2.838  10.194  4.1298  2.0037 -4.5717
 3108SOL    HW220958   1.222   2.965  10.215  0.1036  0.1911 -0.3746
 3109SOL     OW20959   2.817   0.696   9.041  0.9053  0.0979 -0.1298
 3109SOL    HW120960   2.766   0.760   8.991  0.3805  1.3369  2.0019
 3109SOL    HW220961   2.881   0.661   8.978 -2.5192 -2.0174 -2.4462
 3110SOL     OW20962   0.341   1.500  15.607  0.3845 -0.1509  0.2987
 3110SOL    HW120963   0.329   1.408  15.628 -1.9460  0.1277  0.2443
 3110SOL    HW220964   0.324   1.501  15.513  1.7322  0.5302  0.0634
 3111SOL     OW20965   0.571   4.289   7.885 -0.2028  0.0137 -0.0806
 3111SOL    HW120966   0.514   4.364   7.902 -0.8857 -0.8281  1.3553
 3111SOL    HW220967   0.513   4.214   7.899  0.6695 -0.2541  2.1080
 3112SOL     OW20968   1.651   0.387  14.467 -0.0797  0.4893 -0.3722
 3112SOL    HW120969   1.741   0.354  14.459  0.5312  1.5971  1.7996
 3112SOL    HW220970   1.629   0.390  14.374  0.6166  2.3056 -0.4614
 3113SOL     OW20971   2.450   0.535   5.455 -0.1877  0.4279 -0.1424
 3113SOL    HW120972   2.475   0.485   5.377  1.4923  0.8209  0.1428
 3113SOL    HW220973   2.416   0.610   5.407  2.5525  0.3776 -2.1946
 3114SOL     OW20974   0.579   2.319  17.191 -0.3934 -0.1959  0.0090
 3114SOL    HW120975   0.579   2.245  17.252 -0.3817 -1.3719 -1.4210
 3114SOL    HW220976   0.602   2.268  17.113 -0.9178 -0.2915 -0.0829
 3115SOL     OW20977   0.525   0.696   4.475 -0.5544  0.6104  0.1879
 3115SOL    HW120978   0.548   0.771   4.531 -0.3780  0.3322  0.4850
 3115SOL    HW220979   0.594   0.700   4.410  1.1574  0.2725  1.9925
 3116SOL     OW20980   1.877   3.096   3.519  0.3252  0.0799 -0.0475
 3116SOL    HW120981   1.870   3.008   3.555  0.1385 -0.8728 -2.4246
 3116SOL    HW220982   1.928   3.142   3.585 -0.1434  0.7935 -0.1771
 3117SOL     OW20983   3.602   2.673  14.919  0.4544  0.3757  0.2115
 3117SOL    HW120984   3.571   2.737  14.983 -0.8004  0.5646 -0.5783
 3117SOL    HW220985   3.683   2.646  14.963  0.0836 -1.1976 -0.0748
 3118SOL     OW20986   2.912   3.357   4.928 -0.2630 -0.1358  0.8559
 3118SOL    HW120987   2.957   3.329   5.008 -0.8411 -1.7514  0.6109
 3118SOL    HW220988   2.957   3.438   4.903 -1.5735  0.2730 -0.1836
 3119SOL     OW20989   4.697   0.144   9.007  0.1880 -0.0823  0.1246
 3119SOL    HW120990   4.658   0.056   9.008  1.5420 -0.6918 -1.9089
 3119SOL    HW220991   4.642   0.196   8.948  0.6569  0.6873  0.3690
 3120SOL     OW20992   1.281   3.431   8.073  0.0868  0.0758  0.1324
 3120SOL    HW120993   1.208   3.482   8.109  0.5914  0.7554  0.1876
 3120SOL    HW220994   1.351   3.466   8.129 -0.2387 -0.9112  1.1646
 3121SOL     OW20995   3.273   0.064   6.075 -0.2798 -0.0134  0.4752
 3121SOL    HW120996   3.279   0.143   6.129  0.7587 -0.0958  0.4906
 3121SOL    HW220997   3.185   0.030   6.089  0.4026 -2.3556 -0.9519
 3122SOL     OW20998   1.394   3.933   6.747  0.3716 -0.1382  0.1146
 3122SOL    HW120999   1.457   3.973   6.807  1.1704 -2.8773  1.0833
 3122SOL    HW221000   1.346   4.008   6.711  0.8242 -0.9549 -2.2266
 3123SOL     OW21001   0.666   3.949  11.541  0.5102  0.4168  0.5782
 3123SOL    HW121002   0.759   3.966  11.526  0.9932 -2.7830 -0.0195
 3123SOL    HW221003   0.680   3.872  11.595 -1.5328 -0.7928 -0.6080
 3124SOL     OW21004   1.271   3.372  15.389  0.3383 -0.2871  0.2568
 3124SOL    HW121005   1.237   3.461  15.384 -1.4613 -1.0145 -0.3773
 3124SOL    HW221006   1.350   3.375  15.334 -0.6056 -1.5149 -1.1460
 3125SOL     OW21007   0.120   0.772  14.513 -0.0271  0.0374  0.0789
 3125SOL    HW121008   0.173   0.726  14.448 -0.4746 -1.3396  0.6777
 3125SOL    HW221009   0.053   0.709  14.539  1.6490 -2.2186 -1.0450
 3126SOL     OW21010   3.380   2.662   4.234  0.5649  0.2887  0.1634
 3126SOL    HW121011   3.460   2.698   4.196  1.4215 -0.1449  1.5527
 3126SOL    HW221012   3.366   2.582   4.184 -0.3962  1.9666 -2.2437
 3127SOL     OW21013   4.469   3.271   3.051  0.0573  0.2457  0.4824
 3127SOL    HW121014   4.377   3.243   3.047 -0.3225  1.5297  0.3651
 3127SOL    HW221015   4.497   3.235   3.135 -0.7607 -0.0571  0.6258
 3128SOL     OW21016   3.112   2.546  11.157  0.4568  0.1379  0.7721
 3128SOL    HW121017   3.056   2.539  11.235 -2.1460 -0.3568 -1.1444
 3128SOL    HW221018   3.193   2.556  11.207  0.7124 -1.1631  0.6158
 3129SOL     OW21019   1.707   1.772  17.751  0.6137 -0.9771  0.0329
 3129SOL    HW121020   1.761   1.835   0.047 -0.9592 -0.8641  1.6740
 3129SOL    HW221021   1.772   1.717  17.707 -0.5676 -2.8024  0.5575
 3130SOL     OW21022   3.639   0.915   2.533 -0.4254 -0.4204 -0.1775
 3130SOL    HW121023   3.653   0.931   2.627 -1.5440 -1.0111  0.0975
 3130SOL    HW221024   3.631   0.821   2.519 -0.9033 -0.1459 -1.7432
 3131SOL     OW21025   0.711   3.568   3.070 -0.2821  0.2914  0.4050
 3131SOL    HW121026   0.769   3.523   3.131  0.3951  1.6113  0.7133
 3131SOL    HW221027   0.669   3.494   3.027  1.6693  0.2226 -1.3553
 3132SOL     OW21028   2.016   1.787   3.720 -0.4949 -0.4911  0.3836
 3132SOL    HW121029   2.022   1.819   3.810 -0.3391  0.7348 -0.0480
 3132SOL    HW221030   2.097   1.816   3.677 -0.3268 -0.4661  0.7151
 3133SOL     OW21031   2.090   1.592   2.436  0.5074  0.1665  0.6580
 3133SOL    HW121032   2.056   1.512   2.476  0.8556  1.7461  4.0912
 3133SOL    HW221033   2.122   1.634   2.515  1.3961  0.1491  0.3172
 3134SOL     OW21034   2.647   3.165   5.896 -0.3257 -0.1123  0.1603
 3134SOL    HW121035   2.586   3.137   5.828 -0.4266 -0.5762  0.4349
 3134SOL    HW221036   2.724   3.202   5.852 -0.8166 -0.1210 -0.6993
 3135SOL     OW21037   1.881   4.537   7.310  0.1249  0.5241 -0.1484
 3135SOL    HW121038   1.790   4.534   7.280  0.1378 -1.6038  0.0475
 3135SOL    HW221039   1.876   4.460   7.366 -0.3812  0.6678  0.0065
 3136SOL     OW21040   2.960   3.184   2.066 -0.4521  0.0358 -0.2486
 3136SOL    HW121041   2.986   3.203   1.976  1.8531 -0.0016  0.4201
 3136SOL    HW221042   2.966   3.269   2.110 -1.7593 -0.2783  0.5266
 3137SOL     OW21043   0.979   2.712   9.324  0.3220 -0.1954 -0.3413
 3137SOL    HW121044   1.028   2.753   9.253 -0.6440 -1.1154 -1.5563
 3137SOL    HW221045   1.042   2.662   9.375 -1.0269 -0.0449  1.5134
 3138SOL     OW21046   2.296   3.659   5.691 -0.4076  0.5104 -0.2632
 3138SOL    HW121047   2.375   3.696   5.652  0.7644 -2.0104 -0.2269
 3138SOL    HW221048   2.259   3.617   5.613  1.3974  0.5603 -1.1515
 3139SOL     OW21049   4.689   2.093   2.205 -0.8916  0.3474  0.2589
 3139SOL    HW121050   0.029   2.123   2.160 -0.5320 -0.8494  0.0665
 3139SOL    HW221051   4.720   2.076   2.294  3.2724  1.8590 -0.9008
 3140SOL     OW21052   1.898   0.922   8.456  0.3380 -0.4363 -0.1428
 3140SOL    HW121053   1.913   0.876   8.539 -0.6847 -0.1917  0.1682
 3140SOL    HW221054   1.814   0.883   8.431 -0.0635  0.0491  0.4781
 3141SOL     OW21055   0.260   1.916   4.394  0.0479  0.1936 -0.2889
 3141SOL    HW121056   0.193   1.915   4.463  0.2311 -1.9692 -0.1503
 3141SOL    HW221057   0.195   1.899   4.326 -0.7877 -0.2931  0.6362
 3142SOL     OW21058   3.657   3.238   3.873 -0.3339 -0.5374  0.1519
 3142SOL    HW121059   3.589   3.304   3.860  1.6306  0.9094 -2.8820
 3142SOL    HW221060   3.714   3.266   3.944 -0.9557 -0.6647  0.6989
 3143SOL     OW21061   1.693   0.327  16.957  0.2066 -0.0509  0.5513
 3143SOL    HW121062   1.666   0.235  16.959  1.7719 -0.5055  0.5044
 3143SOL    HW221063   1.703   0.340  17.052  3.1775 -2.2435  0.5293
 3144SOL     OW21064   2.963   1.288   8.394 -0.1917  0.7358 -0.1761
 3144SOL    HW121065   2.898   1.357   8.411  0.5365  1.1767  0.8072
 3144SOL    HW221066   2.910   1.235   8.335 -1.1821  1.4360  0.0846
 3145SOL     OW21067   3.767   0.706   2.789 -0.4246 -0.4457  0.0664
 3145SOL    HW121068   3.674   0.701   2.770 -0.3326  0.1324 -0.5774
 3145SOL    HW221069   3.763   0.788   2.839  2.5762  0.4020 -1.0302
 3146SOL     OW21070   0.178   3.230   3.366  0.1547  0.3579 -0.1977
 3146SOL    HW121071   0.183   3.232   3.270  2.0206 -0.8995 -0.1188
 3146SOL    HW221072   0.240   3.298   3.392  0.7169 -0.2163 -0.0493
 3147SOL     OW21073   4.373   1.666  10.631  0.2506  0.4152 -0.3917
 3147SOL    HW121074   4.407   1.665  10.721 -0.0464  1.4635 -0.2607
 3147SOL    HW221075   4.367   1.760  10.613 -1.5541  0.0494 -1.6278
 3148SOL     OW21076   1.161   3.516   2.381  0.1289 -0.5912  0.3858
 3148SOL    HW121077   1.076   3.482   2.355 -0.1054 -0.6857  1.2804
 3148SOL    HW221078   1.186   3.464   2.458  1.4621  0.7518  0.8527
 3149SOL     OW21079   1.171   2.360   4.395  1.0072  0.1499 -0.4812
 3149SOL    HW121080   1.195   2.391   4.307  1.2359  1.1050 -0.0803
 3149SOL    HW221081   1.259   2.335   4.423  1.4379 -0.7217 -2.5866
 3150SOL     OW21082   0.491   1.063  11.377 -0.0065 -0.3158  0.9516
 3150SOL    HW121083   0.482   0.970  11.355  1.5223 -0.3984  0.6678
 3150SOL    HW221084   0.583   1.073  11.351 -0.0969 -0.9885  0.3592
 3151SOL     OW21085   1.152   4.466   3.704  0.3061 -0.2771 -0.7357
 3151SOL    HW121086   1.090   4.404   3.742  1.0609 -2.2256 -2.7037
 3151SOL    HW221087   1.207   4.500   3.774 -2.5232  0.0287  1.3581
 3152SOL     OW21088   1.041   3.631   9.924 -0.3111 -0.0086  0.3881
 3152SOL    HW121089   0.956   3.636   9.881 -0.3560  0.0922  0.4932
 3152SOL    HW221090   1.029   3.665  10.012 -1.9943 -0.3326  0.2850
 3153SOL     OW21091   4.339   3.953   3.687 -0.0383  0.5501  0.0289
 3153SOL    HW121092   4.260   3.912   3.723 -0.0659  0.5521 -0.0291
 3153SOL    HW221093   4.385   3.968   3.770 -0.5233  1.3289  0.1614
 3154SOL     OW21094   1.025   4.554   1.442 -0.4007 -0.4438  0.3579
 3154SOL    HW121095   0.961   4.611   1.399 -0.3960 -0.7206 -0.0095
 3154SOL    HW221096   1.004   4.468   1.406  0.1894 -0.0066 -1.0443
 3155SOL     OW21097   4.310   0.504   9.576  0.7650 -0.2527 -0.5118
 3155SOL    HW121098   4.232   0.494   9.521 -1.1239 -0.3247  2.1310
 3155SOL    HW221099   4.287   0.589   9.614  1.3734 -1.0832  1.6969
 3156SOL     OW21100   0.276   0.460   0.753 -0.5663  0.0606  0.2747
 3156SOL    HW121101   0.279   0.487   0.845  0.6804  0.3050  0.1500
 3156SOL    HW221102   0.276   0.369   0.782 -1.8857 -0.2646 -0.7060
 3157SOL     OW21103   2.086   3.187   0.944 -0.4301  0.0670 -0.8727
 3157SOL    HW121104   2.098   3.095   0.919 -0.7653 -0.5479  1.1923
 3157SOL    HW221105   2.044   3.180   1.029  0.8139 -0.8598 -0.3173
 3158SOL     OW21106   0.919   4.194  10.846  0.3235 -0.1817 -0.5042
 3158SOL    HW121107   0.968   4.208  10.927  1.2177  1.1908 -1.2756
 3158SOL    HW221108   0.992   4.202  10.784 -0.3243 -1.3463 -1.4383
 3159SOL     OW21109   1.177   3.037   4.643 -0.6323  0.3993 -0.0215
 3159SOL    HW121110   1.120   3.084   4.704  0.8973  1.6549  0.4400
 3159SOL    HW221111   1.115   2.969   4.615 -1.1354  0.9567 -0.2561
 3160SOL     OW21112   4.689   4.431  10.429 -0.3804 -0.0353  0.0741
 3160SOL    HW121113   4.728   4.505  10.476 -1.7743  0.3077  0.6995
 3160SOL    HW221114   4.714   4.350  10.474 -1.1504 -0.8929 -1.0446
 3161SOL     OW21115   1.620   2.024  13.367  0.5385  0.3349 -0.5315
 3161SOL    HW121116   1.636   2.032  13.461  1.1671  0.1147 -0.6193
 3161SOL    HW221117   1.580   1.938  13.364  0.8787  0.1285  1.4637
 3162SOL     OW21118   0.977   1.941   3.527 -0.2816 -0.4981  0.4789
 3162SOL    HW121119   1.016   1.951   3.440 -1.5255 -0.4867 -0.0767
 3162SOL    HW221120   0.884   1.935   3.508 -0.8080 -0.8037  3.1218
 3163SOL     OW21121   1.493   3.427   8.928  0.7505  0.0901  0.5330
 3163SOL    HW121122   1.568   3.371   8.909  0.3560 -0.4458  0.5779
 3163SOL    HW221123   1.528   3.497   8.983  0.3747  0.2282  0.5975
 3164SOL     OW21124   0.066   1.265   8.118  0.8786  0.2066 -0.1553
 3164SOL    HW121125   0.097   1.353   8.140  0.2081  0.1412  1.0546
 3164SOL    HW221126   4.735   1.282   8.054  0.6355  2.2845  0.6699
 3165SOL     OW21127   2.101   4.337  16.044  0.3913 -0.0384  0.3888
 3165SOL    HW121128   2.178   4.289  16.073  0.8098  0.8543  0.7714
 3165SOL    HW221129   2.029   4.277  16.064 -0.9856  1.0727 -1.2296
 3166SOL     OW21130   3.350   2.002   8.884 -0.5304  0.0844  0.5863
 3166SOL    HW121131   3.271   1.995   8.937  0.7708  0.2513  2.5357
 3166SOL    HW221132   3.319   1.963   8.803 -0.4270 -1.7553  1.4428
 3167SOL     OW21133   1.008   0.993   6.125 -0.2506 -0.6644 -0.0351
 3167SOL    HW121134   1.004   0.897   6.130  1.2096 -0.6951  0.5816
 3167SOL    HW221135   0.951   1.013   6.200  0.9931  0.2629  0.6631
 3168SOL     OW21136   3.532   3.736  14.693 -0.0885 -0.6658  0.4394
 3168SOL    HW121137   3.628   3.744  14.694 -0.0189 -1.4908  0.6373
 3168SOL    HW221138   3.525   3.641  14.685  1.6757 -0.5424 -2.6977
 3169SOL     OW21139   2.235   2.284  11.472  0.3145 -0.5698  0.6863
 3169SOL    HW121140   2.253   2.283  11.378 -1.1031  2.7410  0.3827
 3169SOL    HW221141   2.319   2.258  11.509  0.6565  2.0369  1.7304
 3170SOL     OW21142   1.170   1.627   8.053 -0.3324 -0.3526 -0.1769
 3170SOL    HW121143   1.099   1.577   8.092  0.4517 -1.0210  0.3899
 3170SOL    HW221144   1.116   1.697   8.016 -0.2945 -0.6028 -0.7076
 3171SOL     OW21145   2.609   0.570   0.560  0.3631  0.1062  0.2154
 3171SOL    HW121146   2.672   0.588   0.490 -0.7159  0.7674 -0.5693
 3171SOL    HW221147   2.575   0.486   0.528  1.2225 -0.4110  0.6401
 3172SOL     OW21148   2.657   1.061  17.024 -0.1371 -0.1501 -0.5575
 3172SOL    HW121149   2.604   1.029  16.951 -1.9514 -1.0608  1.1683
 3172SOL    HW221150   2.734   1.104  16.986  0.2959  1.2188  1.8645
 3173SOL     OW21151   2.789   3.889   3.736  0.3580  0.0549 -0.3030
 3173SOL    HW121152   2.806   3.980   3.712  1.2087  0.5592  2.2373
 3173SOL    HW221153   2.797   3.898   3.831  1.3461  0.1311 -0.3970
 3174SOL     OW21154   4.397   1.808   3.885  0.5425 -0.2182 -0.2569
 3174SOL    HW121155   4.375   1.814   3.792  1.4797 -1.1466 -0.5400
 3174SOL    HW221156   4.392   1.901   3.907  1.8409 -0.1794 -0.1073
 3175SOL     OW21157   4.299   2.280   7.395 -0.1924  0.4592  0.2171
 3175SOL    HW121158   4.336   2.220   7.460 -1.1124 -1.5554 -1.1285
 3175SOL    HW221159   4.337   2.364   7.420 -0.7120  0.1728  1.9666
 3176SOL     OW21160   1.698   3.464  15.902 -0.2475  0.1062 -0.3637
 3176SOL    HW121161   1.740   3.380  15.922 -0.4413  0.4577  1.5481
 3176SOL    HW221162   1.666   3.451  15.813 -1.9791  1.5699  0.0362
 3177SOL     OW21163   3.113   4.149   8.463 -0.1304  0.2046 -0.0245
 3177SOL    HW121164   3.166   4.212   8.510 -0.5768  0.0293  0.7232
 3177SOL    HW221165   3.075   4.098   8.535  1.3415 -0.0704  0.5633
 3178SOL     OW21166   2.962   1.287   0.044 -0.2237 -0.3549 -0.1271
 3178SOL    HW121167   2.892   1.352   0.046  0.2553  0.1873 -0.7627
 3178SOL    HW221168   2.980   1.253   0.131 -0.2299  0.4153  0.1774
 3179SOL     OW21169   2.442   2.552   8.869 -0.6152  0.2825 -0.2181
 3179SOL    HW121170   2.451   2.518   8.957  3.4749 -1.0132 -1.1207
 3179SOL    HW221171   2.511   2.496   8.834 -0.4446  0.7170 -0.5913
 3180SOL     OW21172   3.146   2.747   6.699 -0.0062 -0.1965 -0.1626
 3180SOL    HW121173   3.129   2.751   6.605 -1.2068  0.2235  0.0741
 3180SOL    HW221174   3.201   2.669   6.703 -1.8851 -1.3928  2.2082
 3181SOL     OW21175   3.321   0.166   4.085  0.0424 -0.4840 -0.2406
 3181SOL    HW121176   3.347   0.075   4.069 -0.1493 -0.4917 -0.4927
 3181SOL    HW221177   3.298   0.200   3.999  0.9137 -0.0905 -0.3185
 3182SOL     OW21178   3.725   3.259   9.015  0.5887 -0.0729 -0.0329
 3182SOL    HW121179   3.686   3.329   9.067  0.9045  0.4626 -0.5149
 3182SOL    HW221180   3.654   3.196   9.001  0.5063 -0.2960  1.3554
 3183SOL     OW21181   2.731   3.776   2.474  0.1715  0.7557  0.5633
 3183SOL    HW121182   2.644   3.739   2.460 -1.7849  4.8969  1.9205
 3183SOL    HW221183   2.778   3.698   2.506  0.2844  0.4582 -0.3278
 3184SOL     OW21184   4.335   1.696  16.306  0.1787  0.1569 -0.4308
 3184SOL    HW121185   4.319   1.611  16.265  1.0431  0.6550 -1.8171
 3184SOL    HW221186   4.372   1.730  16.224 -1.0256  4.3181  0.7813
 3185SOL     OW21187   2.921   4.702   7.309 -0.0607  0.3104  0.1666
 3185SOL    HW121188   2.859   0.003   7.371 -0.7732 -0.5404 -0.0005
 3185SOL    HW221189   2.945   0.043   7.261 -1.3600  1.0094  0.6485
 3186SOL     OW21190   3.427   0.972  17.395 -0.0191  0.0781 -0.4575
 3186SOL    HW121191   3.341   1.014  17.390  0.1150  0.5621  1.1173
 3186SOL    HW221192   3.441   0.981  17.489  1.2005 -2.2419 -0.4195
 3187SOL     OW21193   0.512   3.961   8.962 -0.3282  0.2996  0.1893
 3187SOL    HW121194   0.460   3.880   8.963  0.8843 -0.4772  0.4283
 3187SOL    HW221195   0.604   3.938   8.951  0.0930  1.2206  1.7854
 3188SOL     OW21196   0.278   1.858   5.574  0.1041 -0.7216  0.1921
 3188SOL    HW121197   0.350   1.920   5.578 -1.4817  1.0137  1.5329
 3188SOL    HW221198   0.199   1.910   5.560 -0.9743 -2.0301  1.4680
 3189SOL     OW21199   2.296   1.830   7.210 -0.6540 -0.2850 -0.2536
 3189SOL    HW121200   2.272   1.862   7.123 -0.0378  0.0627 -0.2983
 3189SOL    HW221201   2.287   1.911   7.259 -1.3714 -1.5018  1.6142
 3190SOL     OW21202   1.006   0.714  13.859 -0.1536 -0.4494 -0.9995
 3190SOL    HW121203   0.913   0.723  13.882  0.1380 -0.3065  0.1371
 3190SOL    HW221204   1.010   0.757  13.774 -0.0896  0.1798 -0.6797
 3191SOL     OW21205   2.624   1.832   2.434 -0.3202  0.6582  0.1113
 3191SOL    HW121206   2.560   1.857   2.501 -0.1560  0.9923  0.1453
 3191SOL    HW221207   2.677   1.767   2.481 -0.1872 -0.4679 -1.6246
 3192SOL     OW21208   1.894   1.557   9.500  0.6727 -0.3465  0.3220
 3192SOL    HW121209   1.810   1.562   9.547  0.8325  2.0126  0.3517
 3192SOL    HW221210   1.935   1.635   9.537 -0.9747  0.9089 -0.5305
 3193SOL     OW21211   2.336   4.545   2.671 -0.5759  0.3059  0.6728
 3193SOL    HW121212   2.420   4.507   2.696 -0.7194 -0.6572 -0.3384
 3193SOL    HW221213   2.300   4.464   2.636  1.0740 -0.6434  1.1616
 3194SOL     OW21214   0.035   4.483   4.204  0.2131  0.3665  0.0104
 3194SOL    HW121215   0.099   4.541   4.245 -0.1714  0.4346  0.5136
 3194SOL    HW221216   4.727   4.543   4.146  1.3822  0.3175 -0.9816
 3195SOL     OW21217   3.868   1.204  15.246 -0.1408 -0.0208  0.1033
 3195SOL    HW121218   3.939   1.243  15.196 -1.3292 -1.2750 -2.5590
 3195SOL    HW221219   3.800   1.272  15.243  0.5784  0.7112  0.3712
 3196SOL     OW21220   3.010   2.514  14.662 -0.2153 -0.2868 -0.0123
 3196SOL    HW121221   2.944   2.543  14.598 -0.5606  1.4707  1.1507
 3196SOL    HW221222   3.055   2.598  14.660  0.3379 -0.5716  0.4718
 3197SOL     OW21223   0.622   1.390   4.296 -0.3495  0.1072  0.0825
 3197SOL    HW121224   0.620   1.486   4.303 -1.7759 -0.0860  2.5294
 3197SOL    HW221225   0.628   1.379   4.201 -0.6820  0.1225  0.0572
 3198SOL     OW21226   2.970   4.529  11.229 -0.0294 -0.8580  0.3822
 3198SOL    HW121227   3.011   4.547  11.144  1.3119  0.6811  1.3623
 3198SOL    HW221228   2.993   4.436  11.237 -0.8083 -0.9243  1.8424
 3199SOL     OW21229   2.285   1.106  13.599 -0.4848  0.6037  0.1112
 3199SOL    HW121230   2.270   1.198  13.576 -0.0214  0.5725 -0.3173
 3199SOL    HW221231   2.194   1.086  13.623 -0.3554  0.3962  0.4232
 3200SOL     OW21232   0.854   4.358   7.869  0.3592 -0.4187  0.1685
 3200SOL    HW121233   0.762   4.363   7.843  0.4189 -0.5672 -0.0730
 3200SOL    HW221234   0.854   4.396   7.957 -2.9932  0.7431 -0.3417
 3201SOL     OW21235   2.968   2.152   3.673  0.3673  0.2828 -0.1565
 3201SOL    HW121236   2.945   2.133   3.582  3.3811  4.1198 -1.7079
 3201SOL    HW221237   2.919   2.088   3.726  0.8661  2.0127  2.4332
 3202SOL     OW21238   4.097   2.959   6.079 -0.0273  0.1065  0.1195
 3202SOL    HW121239   4.091   3.040   6.029 -1.5164 -0.1454 -0.1080
 3202SOL    HW221240   4.010   2.920   6.086  1.1986 -2.6918 -0.3602
 3203SOL     OW21241   1.517   2.089   3.759 -0.0108 -0.2106  0.0199
 3203SOL    HW121242   1.491   2.004   3.795 -0.4570 -0.0902 -0.0195
 3203SOL    HW221243   1.470   2.077   3.677 -4.1277  0.9324  2.2117
 3204SOL     OW21244   4.704   4.600   7.666 -0.2160  0.1585  0.1698
 3204SOL    HW121245   4.704   4.596   7.570 -1.5963  1.1051  0.1229
 3204SOL    HW221246   4.625   4.551   7.687  1.3284 -3.4781 -2.5301
 3205SOL     OW21247   2.757   0.090   9.299  0.8258  0.1038  0.2116
 3205SOL    HW121248   2.726   0.155   9.362  0.3386 -0.8787  0.9872
 3205SOL    HW221249   2.750   0.014   9.357  0.9726 -0.1944 -0.1601
 3206SOL     OW21250   1.616   4.201   6.368  0.4769  0.4641 -0.1392
 3206SOL    HW121251   1.534   4.200   6.417 -0.0025 -0.8678 -0.9715
 3206SOL    HW221252   1.686   4.194   6.433  1.8080  0.5356 -1.5595
 3207SOL     OW21253   1.148   3.512  11.979 -0.5379 -0.5827 -0.1097
 3207SOL    HW121254   1.095   3.546  11.906  0.5957 -1.0611 -1.1515
 3207SOL    HW221255   1.129   3.587  12.035 -2.4420 -1.2437  0.1397
 3208SOL     OW21256   3.894   0.009   4.186  0.0771  0.2070  0.0545
 3208SOL    HW121257   3.814   4.717   4.229 -0.4050  1.2420 -0.1408
 3208SOL    HW221258   3.917   4.658   4.160  1.4860  0.5638  0.0854
 3209SOL     OW21259   1.718   0.144   4.137  0.0120 -0.2860 -0.3499
 3209SOL    HW121260   1.802   0.118   4.100  1.0190  0.4881  1.3717
 3209SOL    HW221261   1.719   0.240   4.141 -1.9791 -0.2057 -1.5946
 3210SOL     OW21262   0.403   1.835   6.679  0.3419  0.2284  0.4434
 3210SOL    HW121263   0.418   1.836   6.585  0.2079 -2.7556  0.3879
 3210SOL    HW221264   0.477   1.890   6.706  1.0596 -0.5935  0.1395
 3211SOL     OW21265   3.954   3.079  12.926 -0.0711  0.0921  0.5193
 3211SOL    HW121266   3.947   3.062  12.832 -2.1840 -1.9524  1.0495
 3211SOL    HW221267   3.864   3.095  12.953 -0.5761  0.0389 -1.1507
 3212SOL     OW21268   1.735   3.888   9.949  0.7949  0.3196  0.0561
 3212SOL    HW121269   1.799   3.871   9.880 -1.9157 -1.4591 -2.0204
 3212SOL    HW221270   1.772   3.967   9.988 -0.8784  0.9930  0.2682
 3213SOL     OW21271   2.124   3.137   5.457 -0.0577  0.2651  0.3075
 3213SOL    HW121272   2.113   3.216   5.511 -1.9863 -0.8748  1.5944
 3213SOL    HW221273   2.199   3.166   5.405  0.1933 -0.6816  0.1458
 3214SOL     OW21274   1.718   2.877  10.132  0.1419  0.4287  0.0280
 3214SOL    HW121275   1.776   2.871  10.208 -0.0248  1.0607  0.1998
 3214SOL    HW221276   1.647   2.830  10.177  0.4814 -2.1366 -2.1079
 3215SOL     OW21277   0.917   1.789   4.647  0.0405  0.4365  0.3651
 3215SOL    HW121278   0.979   1.733   4.600 -0.3222 -0.9288  1.5033
 3215SOL    HW221279   0.973   1.864   4.668 -2.2106  2.3312 -0.4716
 3216SOL     OW21280   4.559   0.285   8.821 -0.2476 -0.0671  0.1000
 3216SOL    HW121281   4.492   0.281   8.753 -1.1468 -1.4363  1.0756
 3216SOL    HW221282   4.617   0.355   8.789  4.1254 -3.7712 -0.0666
 3217SOL     OW21283   3.738   1.011   0.271  0.5787 -0.0765 -0.4359
 3217SOL    HW121284   3.689   1.059   0.204 -1.5524  0.7026  1.6869
 3217SOL    HW221285   3.798   1.082   0.292 -1.0866  0.7392  1.5684
 3218SOL     OW21286   2.655   0.247  16.398 -0.1352  0.2847 -0.6628
 3218SOL    HW121287   2.669   0.179  16.333  2.6440  1.6187 -1.4772
 3218SOL    HW221288   2.747   0.270  16.416 -0.6368 -0.7191  3.0701
 3219SOL     OW21289   4.644   0.487   7.036  0.0105  0.4964 -0.1292
 3219SOL    HW121290   4.696   0.516   6.961 -0.8642 -0.8586 -1.2859
 3219SOL    HW221291   4.655   0.551   7.106 -1.0215 -0.0158  0.5069
 3220SOL     OW21292   3.994   3.310   8.948  0.1373 -0.5543  0.3708
 3220SOL    HW121293   3.909   3.279   8.979 -0.9668  0.6418 -1.3962
 3220SOL    HW221294   3.984   3.401   8.978  4.2588  0.1081 -0.2582
 3221SOL     OW21295   0.777   0.116   5.189 -0.9659  0.4908  0.2373
 3221SOL    HW121296   0.686   0.118   5.158 -1.4969 -0.3421  1.7518
 3221SOL    HW221297   0.794   0.028   5.222 -1.0173  0.5638  0.4546
 3222SOL     OW21298   1.309   1.232   0.152 -0.1278 -0.3843  0.1352
 3222SOL    HW121299   1.388   1.230   0.206  0.7442 -0.8292 -1.1371
 3222SOL    HW221300   1.244   1.272   0.209  0.0902 -0.6165  0.5528
 3223SOL     OW21301   0.881   0.201  14.495  0.2043  0.5776 -0.4910
 3223SOL    HW121302   0.954   0.179  14.554  0.5167  5.5317  0.9515
 3223SOL    HW221303   0.936   0.238  14.426 -0.0315  0.2984 -0.8288
 3224SOL     OW21304   0.030   0.191   4.677 -0.1120 -0.3155 -0.4838
 3224SOL    HW121305   0.115   0.231   4.660 -0.2048 -0.3803 -1.1240
 3224SOL    HW221306   0.041   0.105   4.636  2.9636  0.4993 -1.3474
 3225SOL     OW21307   2.455   2.142  14.575 -0.1395 -0.4874  0.1607
 3225SOL    HW121308   2.458   2.099  14.490 -0.0941  0.4582 -0.3155
 3225SOL    HW221309   2.394   2.089  14.627 -3.3997  3.1184  0.0780
 3226SOL     OW21310   2.902   2.844  11.172  0.0998 -0.4474 -0.3975
 3226SOL    HW121311   2.839   2.906  11.134 -0.6561 -0.3405  1.0289
 3226SOL    HW221312   2.957   2.835  11.095  3.0697  0.2632  1.6448
 3227SOL     OW21313   1.641   4.680  14.579  0.1368 -0.0663  0.0943
 3227SOL    HW121314   1.685   4.598  14.558 -1.7564 -1.3845  1.3287
 3227SOL    HW221315   1.563   4.681  14.522  0.0725  0.5785  0.1934
 3228SOL     OW21316   1.939   4.363   6.210  0.4625  0.5086  0.1770
 3228SOL    HW121317   1.885   4.370   6.132  2.0196  2.0505 -0.7592
 3228SOL    HW221318   1.967   4.271   6.210 -1.5475 -0.1016  0.8371
 3229SOL     OW21319   0.256   0.578   8.225 -0.4506 -0.1774  0.5605
 3229SOL    HW121320   0.348   0.555   8.208 -0.6869 -0.9567  0.3669
 3229SOL    HW221321   0.244   0.556   8.317 -0.1843 -0.9418  0.4136
 3230SOL     OW21322   4.016   2.745   3.566 -0.4035  0.4577  0.6677
 3230SOL    HW121323   4.051   2.657   3.555 -0.9705  0.2965  0.1999
 3230SOL    HW221324   3.960   2.757   3.489  0.0160 -3.3668 -0.2353
 3231SOL     OW21325   1.323   3.538   8.709  0.3351 -0.1487 -0.1513
 3231SOL    HW121326   1.245   3.500   8.748 -0.0028 -1.2242 -1.8811
 3231SOL    HW221327   1.378   3.559   8.785  0.8618 -1.5681 -0.1402
 3232SOL     OW21328   2.531   2.117   2.939  0.3352 -0.7192 -0.4884
 3232SOL    HW121329   2.531   2.211   2.920  1.9759 -0.2226  2.0602
 3232SOL    HW221330   2.606   2.105   2.997 -0.0070  0.0099  0.1077
 3233SOL     OW21331   3.875   0.350   2.894 -0.3227 -0.2319 -0.3048
 3233SOL    HW121332   3.834   0.389   2.971  0.4757 -0.5685  0.2933
 3233SOL    HW221333   3.968   0.358   2.913 -0.2724 -0.9408 -0.2485
 3234SOL     OW21334   2.087   1.546  13.806  0.3048 -0.4148 -0.1864
 3234SOL    HW121335   2.085   1.460  13.849 -1.5404  0.2710  1.0980
 3234SOL    HW221336   2.100   1.510  13.718  2.7435  0.8899 -0.3361
 3235SOL     OW21337   4.586   1.033   1.392  0.5233 -0.5658  0.6519
 3235SOL    HW121338   4.528   1.097   1.350  0.5889 -0.7451  0.2905
 3235SOL    HW221339   4.592   1.065   1.482 -0.8735  0.0433  0.5385
 3236SOL     OW21340   3.300   2.132  12.053 -0.4473  0.0961  0.0828
 3236SOL    HW121341   3.343   2.055  12.016  2.4754  0.8172  1.9873
 3236SOL    HW221342   3.235   2.092  12.111 -0.1652  0.6356  0.7697
 3237SOL     OW21343   2.519   1.388   2.906  0.6686 -0.3798  0.0745
 3237SOL    HW121344   2.558   1.431   2.982  0.3297 -2.5831  1.4811
 3237SOL    HW221345   2.595   1.409   2.851  0.0225 -0.0405 -0.6929
 3238SOL     OW21346   4.297   2.761  13.753 -0.4445 -0.4118 -0.2136
 3238SOL    HW121347   4.327   2.822  13.686 -1.4952 -1.5636 -1.7248
 3238SOL    HW221348   4.249   2.816  13.815  0.8128  0.8616 -0.3729
 3239SOL     OW21349   2.898   1.991   0.316 -0.0901 -1.0060  0.6468
 3239SOL    HW121350   2.803   1.990   0.320 -0.1008  0.2375  0.7480
 3239SOL    HW221351   2.921   1.899   0.333  1.8523 -0.7942 -0.8631
 3240SOL     OW21352   3.402   2.955   0.827 -0.0294  0.2646 -0.1763
 3240SOL    HW121353   3.450   2.958   0.910 -1.1276  1.1276  0.4162
 3240SOL    HW221354   3.466   2.988   0.763  1.0358  0.2042  0.8567
 3241SOL     OW21355   4.650   1.460  11.210 -0.0882 -0.2636  0.6287
 3241SOL    HW121356   4.556   1.476  11.216 -0.5340 -2.0863 -1.3474
 3241SOL    HW221357   4.681   1.541  11.249 -4.8462  0.8284  2.1355
 3242SOL     OW21358   0.393   2.679   3.081  0.3047  0.9351  0.4049
 3242SOL    HW121359   0.431   2.700   2.995  0.0485  0.7457  0.2461
 3242SOL    HW221360   0.447   2.604   3.107 -2.6550 -1.8563 -1.4362
 3243SOL     OW21361   0.488   3.890   4.289 -0.7852  0.9184 -0.0077
 3243SOL    HW121362   0.456   3.910   4.378 -1.2845  0.9880 -0.1996
 3243SOL    HW221363   0.522   3.803   4.309  0.4544  1.8180  1.7456
 3244SOL     OW21364   1.035   3.772  13.221  0.1243  0.7387  0.2049
 3244SOL    HW121365   1.109   3.721  13.255 -0.6172  0.7988  1.9259
 3244SOL    HW221366   0.982   3.703  13.183 -0.7249  2.0331 -0.9496
 3245SOL     OW21367   0.376   1.768   3.401 -0.1745  0.1085  0.2741
 3245SOL    HW121368   0.370   1.743   3.309  2.7313 -1.2537  0.4829
 3245SOL    HW221369   0.448   1.711   3.426 -1.6495 -2.2362 -0.7876
 3246SOL     OW21370   0.975   3.610  11.757  0.5407 -0.1819 -0.5548
 3246SOL    HW121371   0.951   3.590  11.667  0.0112 -0.0530 -0.4407
 3246SOL    HW221372   1.056   3.658  11.736  1.0030  0.0195  1.7013
 3247SOL     OW21373   3.053   1.301   0.316 -0.0206 -0.2341  0.0329
 3247SOL    HW121374   3.025   1.349   0.394  0.2609 -1.8178  1.0943
 3247SOL    HW221375   3.144   1.278   0.336  0.1084 -1.2589 -1.7213
 3248SOL     OW21376   3.068   0.804   3.195 -0.1277 -0.0423 -0.2052
 3248SOL    HW121377   3.089   0.894   3.220 -2.2312  0.1461  0.9128
 3248SOL    HW221378   2.985   0.820   3.149  0.3155  0.3788 -0.8484
 3249SOL     OW21379   0.687   1.921   3.440 -0.4374 -0.0216 -0.1659
 3249SOL    HW121380   0.612   1.893   3.492 -1.4670  0.0207 -1.6374
 3249SOL    HW221381   0.645   1.993   3.394  2.2117  1.5603 -0.1192
 3250SOL     OW21382   2.301   0.056   3.887  0.0161  0.3060 -0.2736
 3250SOL    HW121383   2.339   0.140   3.860  1.2547  0.8090  3.0643
 3250SOL    HW221384   2.318   0.010   3.805  0.1729 -0.5237  0.2308
 3251SOL     OW21385   3.700   0.364   0.655 -0.0622 -0.6839  0.0993
 3251SOL    HW121386   3.726   0.453   0.630 -0.5012 -0.8195 -0.8347
 3251SOL    HW221387   3.605   0.362   0.658  0.2196 -4.4145  4.9623
 3252SOL     OW21388   3.495   1.883  11.036  0.2869 -0.2774  0.2639
 3252SOL    HW121389   3.401   1.869  11.048 -0.3839  3.3380 -0.7691
 3252SOL    HW221390   3.509   1.812  10.974 -2.1405  0.5534 -1.2319
 3253SOL     OW21391   0.126   0.992   6.697 -0.4382 -0.1815 -0.4846
 3253SOL    HW121392   0.069   0.923   6.664  2.3943 -2.9445  0.2663
 3253SOL    HW221393   0.199   0.993   6.635 -0.5378 -2.0192 -0.6471
 3254SOL     OW21394   1.539   1.710  17.187  0.2430  0.2797 -0.2462
 3254SOL    HW121395   1.624   1.697  17.144 -0.3976  2.4658 -2.1868
 3254SOL    HW221396   1.550   1.772  17.260 -0.5777  0.0269  0.0840
 3255SOL     OW21397   0.980   3.434   1.362  0.7812 -0.4529  0.2728
 3255SOL    HW121398   0.996   3.357   1.416  2.4387  0.7695  1.5614
 3255SOL    HW221399   0.898   3.469   1.398  1.7064  1.4043  0.5769
 3256SOL     OW21400   1.491   3.354   5.469 -0.4388  0.0708 -0.4019
 3256SOL    HW121401   1.459   3.428   5.521 -0.3076 -0.4158  0.3683
 3256SOL    HW221402   1.454   3.371   5.382  1.0290 -1.9980 -1.4305
 3257SOL     OW21403   1.311   3.703  13.856 -0.2397  0.8394 -0.1902
 3257SOL    HW121404   1.377   3.675  13.919 -3.0860 -0.1941  2.3265
 3257SOL    HW221405   1.310   3.797  13.873  2.6824  0.7435  0.4972
 3258SOL     OW21406   1.874   2.060   3.097  0.3240 -0.0020  0.1088
 3258SOL    HW121407   1.849   2.147   3.066 -1.0211 -0.0818  0.9388
 3258SOL    HW221408   1.790   2.018   3.116  0.0591  0.3549 -0.2489
 3259SOL     OW21409   1.391   3.807   6.036  0.3368  0.2647  0.4693
 3259SOL    HW121410   1.441   3.860   6.099  0.5495  0.8764 -0.2154
 3259SOL    HW221411   1.318   3.866   6.017  0.2830  0.1564  0.3458
 3260SOL     OW21412   1.596   3.618   1.977  0.2079  0.1083 -0.0112
 3260SOL    HW121413   1.545   3.693   2.008 -1.8923 -1.3173 -0.0525
 3260SOL    HW221414   1.614   3.576   2.061 -3.5317  0.5652  1.0197
 3261SOL     OW21415   1.124   3.660   0.549  0.3048 -0.1113  0.1134
 3261SOL    HW121416   1.080   3.735   0.510  0.9154  0.4806  0.5854
 3261SOL    HW221417   1.057   3.647   0.616  0.6249  0.2780  0.5026
 3262SOL     OW21418   2.630   3.661   1.943 -0.4105  0.0719 -0.5311
 3262SOL    HW121419   2.723   3.679   1.928 -0.1953 -0.4488  0.2404
 3262SOL    HW221420   2.607   3.701   2.027  1.5288 -2.7319  1.3236
 3263SOL     OW21421   2.497   1.927   5.775  0.3228 -0.0029  0.5633
 3263SOL    HW121422   2.488   1.949   5.868  2.1553 -0.4708  0.8471
 3263SOL    HW221423   2.585   1.962   5.766  0.4310  0.3618  3.0132
 3264SOL     OW21424   4.181   2.829   7.381  0.3261  0.1541 -0.0073
 3264SOL    HW121425   4.212   2.893   7.444  0.1364 -0.4045  0.6537
 3264SOL    HW221426   4.096   2.803   7.417  0.3488  0.2908  0.1415
 3265SOL     OW21427   1.609   1.629  16.326 -0.2608 -0.5104 -0.4604
 3265SOL    HW121428   1.554   1.666  16.257 -0.3864 -0.2693 -0.2311
 3265SOL    HW221429   1.667   1.705  16.322 -1.9738  0.8136  0.1472
 3266SOL     OW21430   0.394   0.149  12.389  0.0872  0.0652  0.3103
 3266SOL    HW121431   0.350   0.192  12.315  1.2024  0.4995 -0.0960
 3266SOL    HW221432   0.314   0.109  12.423 -1.2281  1.5420 -1.0234
 3267SOL     OW21433   2.575   1.276   8.805  0.3407  0.0687  0.1039
 3267SOL    HW121434   2.552   1.218   8.733 -1.9578  0.4220  0.5439
 3267SOL    HW221435   2.503   1.250   8.862 -0.4197  0.5398 -0.6554
 3268SOL     OW21436   0.341   4.334   3.765 -0.1365 -0.3142  0.5939
 3268SOL    HW121437   0.362   4.240   3.763 -1.6754 -0.6102 -1.4969
 3268SOL    HW221438   0.404   4.372   3.826 -0.1090  0.8425 -0.1508
 3269SOL     OW21439   0.714   1.734   5.644  0.4504  0.5906  0.0783
 3269SOL    HW121440   0.799   1.701   5.615  1.4380  2.3795  0.9319
 3269SOL    HW221441   0.663   1.675   5.588  0.5461  1.1468 -0.6019
 3270SOL     OW21442   2.394   0.889   9.782 -0.2561 -0.5152  0.8869
 3270SOL    HW121443   2.400   0.851   9.870 -3.5165  0.2762  1.4319
 3270SOL    HW221444   2.394   0.980   9.812 -0.2756 -0.8377  1.8806
 3271SOL     OW21445   0.562   1.741  15.479 -0.6039 -0.2013  0.4448
 3271SOL    HW121446   0.625   1.698  15.537  0.9780 -0.0655 -1.1797
 3271SOL    HW221447   0.559   1.673  15.411 -0.4301  0.5851 -0.3578
 3272SOL     OW21448   2.198   3.062   7.625  0.1693 -0.2391 -0.2671
 3272SOL    HW121449   2.186   3.112   7.705  1.9601 -0.3490  0.0888
 3272SOL    HW221450   2.294   3.068   7.620 -0.1044  1.7664 -3.3555
 3273SOL     OW21451   4.677   0.785  17.488  0.8234  0.4570  0.5433
 3273SOL    HW121452   4.674   0.852  17.556 -0.6464  1.8079 -0.8485
 3273SOL    HW221453   4.586   0.757  17.478  0.5385  1.0293  1.5484
 3274SOL     OW21454   3.493   3.722   6.051  0.3603  0.2685  0.1717
 3274SOL    HW121455   3.458   3.634   6.066  1.0391 -0.3133 -1.6333
 3274SOL    HW221456   3.569   3.717   6.109  0.3695  0.4350  0.1735
 3275SOL     OW21457   3.187   2.142  17.171  0.0806 -0.1571  0.5824
 3275SOL    HW121458   3.242   2.146  17.093  2.0512 -1.2078  1.8976
 3275SOL    HW221459   3.211   2.059  17.213 -2.4133 -0.3236  1.6527
 3276SOL     OW21460   0.720   0.006   2.172  0.0656  0.8487  0.4137
 3276SOL    HW121461   0.665   0.084   2.181  1.4156  1.6936  1.2948
 3276SOL    HW221462   0.741   0.005   2.079 -0.7159 -1.6013  0.2649
 3277SOL     OW21463   1.611   1.504   2.069  0.1042  0.0464 -0.0533
 3277SOL    HW121464   1.578   1.582   2.114  1.3563 -0.4557  1.7363
 3277SOL    HW221465   1.633   1.530   1.980  0.5882  0.4930  0.1949
 3278SOL     OW21466   2.296   1.969   7.625  0.1781  0.6956 -0.7637
 3278SOL    HW121467   2.313   1.982   7.531  0.9786  0.6620 -0.6261
 3278SOL    HW221468   2.237   1.894   7.622  2.1706 -0.8571 -1.6098
 3279SOL     OW21469   3.078   3.454   2.348  0.4001 -0.3584 -0.0796
 3279SOL    HW121470   3.170   3.481   2.351  0.6065 -1.0618 -0.2520
 3279SOL    HW221471   3.087   3.359   2.348 -0.4071 -0.4328  1.2337
 3280SOL     OW21472   4.700   0.824   6.543  0.1556  0.6034  0.2516
 3280SOL    HW121473   4.709   0.734   6.574  0.5003  0.9555  1.1754
 3280SOL    HW221474   4.605   0.832   6.549 -0.0639 -2.1127  0.2933
 3281SOL     OW21475   0.247   1.787   0.969  0.1482 -0.3130 -0.4136
 3281SOL    HW121476   0.200   1.755   1.046  0.2348 -0.4419 -0.4149
 3281SOL    HW221477   0.181   1.776   0.900  0.9104  1.4179 -1.4399
 3282SOL     OW21478   4.320   3.266   6.727 -0.1584 -0.0926  0.1084
 3282SOL    HW121479   4.369   3.233   6.652 -0.4612 -0.7443  0.2031
 3282SOL    HW221480   4.379   3.238   6.797  0.3899 -1.5364 -0.9312
 3283SOL     OW21481   3.705   0.377   5.269 -0.2743  0.6821 -0.3564
 3283SOL    HW121482   3.753   0.440   5.215 -0.0577  0.3845 -0.5079
 3283SOL    HW221483   3.648   0.435   5.320  0.3618  0.5549  0.5039
 3284SOL     OW21484   0.641   3.544   1.515 -0.1488  0.3141 -0.0751
 3284SOL    HW121485   0.728   3.582   1.532  0.2678 -0.6769  0.0303
 3284SOL    HW221486   0.599   3.550   1.601 -1.9729 -2.8828 -0.7788
 3285SOL     OW21487   4.476   0.345   3.952  0.1567 -0.3414 -0.1813
 3285SOL    HW121488   4.537   0.325   4.023 -0.7796 -3.2898 -0.2435
 3285SOL    HW221489   4.440   0.427   3.988  0.1036  1.0076 -3.3333
 3286SOL     OW21490   3.461   4.350  13.206  0.0231 -0.0002 -0.3301
 3286SOL    HW121491   3.488   4.439  13.184  1.9918 -0.0472  1.9049
 3286SOL    HW221492   3.414   4.353  13.290 -0.5240  1.9222 -0.6892
 3287SOL     OW21493   3.396   3.711  12.240  0.6629 -0.3976  0.2839
 3287SOL    HW121494   3.435   3.780  12.293 -1.6580  2.3037 -1.5404
 3287SOL    HW221495   3.302   3.732  12.247  1.4968  2.6600  2.3805
 3288SOL     OW21496   3.253   4.446   3.028  0.3720 -0.3176 -0.2119
 3288SOL    HW121497   3.166   4.419   3.055  1.0889 -0.7886  1.6006
 3288SOL    HW221498   3.235   4.497   2.949  2.4465  0.2748 -0.3103
 3289SOL     OW21499   4.585   2.317  12.928 -0.2501  0.3108 -0.6203
 3289SOL    HW121500   4.573   2.393  12.871 -2.6841  0.8495  0.6159
 3289SOL    HW221501   4.660   2.339  12.984 -1.9131  1.0864  1.2972
 3290SOL     OW21502   2.625   2.513  10.909  0.5784 -0.1143  0.2231
 3290SOL    HW121503   2.633   2.570  10.985  1.1471  0.8312 -0.5501
 3290SOL    HW221504   2.714   2.480  10.895  0.6007  1.3450 -3.1238
 3291SOL     OW21505   3.051   0.148   7.157  0.3288 -0.1961  0.3340
 3291SOL    HW121506   3.136   0.172   7.194  0.7018 -3.1860  1.3972
 3291SOL    HW221507   3.049   0.190   7.071 -3.0727  2.1393  1.5594
 3292SOL     OW21508   3.341   4.475   8.166 -0.0744 -0.0228  0.0479
 3292SOL    HW121509   3.351   4.451   8.258  0.1599 -1.0827 -0.2570
 3292SOL    HW221510   3.406   4.544   8.156 -0.5979  0.6528  1.2515
 3293SOL     OW21511   4.128   3.233   1.859  0.1560 -0.0412  0.2810
 3293SOL    HW121512   4.049   3.286   1.863 -0.0055 -0.2758  0.1819
 3293SOL    HW221513   4.083   3.149   1.857  1.1330 -0.5940  1.2823
 3294SOL     OW21514   1.855   0.170  10.542  0.3034  0.6334 -0.2263
 3294SOL    HW121515   1.851   0.080  10.510  0.9964  0.9081 -1.0997
 3294SOL    HW221516   1.770   0.211  10.522  1.4447  1.5269 -3.3178
 3295SOL     OW21517   4.035   0.527   1.394  0.0843  0.4660  0.5461
 3295SOL    HW121518   4.021   0.575   1.312  2.6211  3.0053  1.6301
 3295SOL    HW221519   3.947   0.493   1.413 -0.0857  0.6415  0.0877
 3296SOL     OW21520   2.016   4.385   0.771 -0.5263 -0.1309  0.1994
 3296SOL    HW121521   2.052   4.297   0.756 -0.6060 -0.2025  0.4307
 3296SOL    HW221522   1.946   4.363   0.832 -0.0661  2.1930  1.5645
 3297SOL     OW21523   0.895   1.671  10.390 -0.6353  0.2959  0.4916
 3297SOL    HW121524   0.849   1.674  10.306  2.3001  0.5909 -1.0892
 3297SOL    HW221525   0.982   1.658  10.354 -1.0139 -3.3178  0.8698
 3298SOL     OW21526   1.846   0.517   9.966 -0.4306 -0.0067  0.4721
 3298SOL    HW121527   1.941   0.512   9.976 -0.6386 -1.4699  1.8662
 3298SOL    HW221528   1.837   0.483   9.877 -0.1242  0.6445  0.1903
 3299SOL     OW21529   0.287   0.477   9.522  0.2833  0.5933 -0.2792
 3299SOL    HW121530   0.279   0.401   9.580  2.2402  0.3076 -0.3685
 3299SOL    HW221531   0.376   0.469   9.488  0.8649 -1.5755  1.7643
 3300SOL     OW21532   0.281   3.313   2.458 -0.4947 -0.2834  0.1233
 3300SOL    HW121533   0.284   3.224   2.423  1.5026 -0.9736  2.0179
 3300SOL    HW221534   0.218   3.295   2.528 -0.1916  0.4547  0.5850
 3301SOL     OW21535   2.922   4.191   7.922  0.6198 -0.4492 -0.1407
 3301SOL    HW121536   2.965   4.206   7.838  0.8888 -0.3047  0.0220
 3301SOL    HW221537   2.997   4.207   7.980 -0.6529 -0.4087  1.4991
 3302SOL     OW21538   3.454   1.817   2.888 -0.4231 -0.0768 -0.8394
 3302SOL    HW121539   3.519   1.752   2.860  1.1807  0.2443  2.1127
 3302SOL    HW221540   3.387   1.763   2.930 -0.4678  0.3542 -0.3565
 3303SOL     OW21541   3.078   3.598  13.550 -0.0792 -0.3172 -0.0555
 3303SOL    HW121542   3.085   3.672  13.489 -0.6269 -0.2332 -0.0141
 3303SOL    HW221543   2.999   3.625  13.597 -1.6526 -1.2230 -2.1933
 3304SOL     OW21544   2.845   3.852   7.521 -0.0976  0.5557  0.5345
 3304SOL    HW121545   2.772   3.795   7.498  1.8102 -1.3042 -0.9366
 3304SOL    HW221546   2.849   3.921   7.455 -0.9635 -1.1891 -1.3451
 3305SOL     OW21547   1.791   3.492   5.067  0.4791 -0.5180 -0.2236
 3305SOL    HW121548   1.741   3.412   5.056  0.3270 -0.3781 -0.5513
 3305SOL    HW221549   1.761   3.547   4.994  0.9127 -0.1123 -0.0937
 3306SOL     OW21550   0.102   1.889   6.132 -0.5346 -0.0261  0.2166
 3306SOL    HW121551   0.120   1.800   6.162  1.5087  1.0124  2.1116
 3306SOL    HW221552   0.181   1.940   6.152 -1.0889  0.0527  2.2073
 3307SOL     OW21553   0.476   4.272   4.366  0.3122 -0.2120 -0.3758
 3307SOL    HW121554   0.415   4.224   4.309 -0.7901  0.0569  0.5802
 3307SOL    HW221555   0.548   4.292   4.306 -0.6578 -0.4511 -1.6094
 3308SOL     OW21556   1.179   1.157  10.002  0.3577 -0.3125  0.4947
 3308SOL    HW121557   1.156   1.223  10.067  0.6194 -1.6569  1.9472
 3308SOL    HW221558   1.111   1.171   9.936  2.7321 -1.3254 -2.1666
 3309SOL     OW21559   3.970   1.847   0.340  0.3897  0.0885 -0.1190
 3309SOL    HW121560   3.900   1.818   0.398  0.4578 -1.9921 -1.0860
 3309SOL    HW221561   3.913   1.848   0.263 -0.1338 -3.4172  0.2256
 3310SOL     OW21562   3.958   2.734   1.139 -0.1192  0.0656 -0.4233
 3310SOL    HW121563   3.946   2.774   1.226  0.0113 -5.0788  1.9715
 3310SOL    HW221564   3.875   2.687   1.130 -0.7440  1.0908 -0.0179
 3311SOL     OW21565   3.348   1.345  14.273 -0.1961 -0.2931 -0.4292
 3311SOL    HW121566   3.309   1.423  14.313 -0.0968 -0.2425 -0.4299
 3311SOL    HW221567   3.283   1.314  14.209  0.1331 -1.3278 -0.2615
 3312SOL     OW21568   0.058   3.893   3.803 -0.4205  0.0597  0.3371
 3312SOL    HW121569   0.131   3.869   3.746 -2.0793  0.4586 -1.9767
 3312SOL    HW221570   0.023   3.804   3.807  2.4339 -0.9789  2.0864
 3313SOL     OW21571   0.617   1.975   2.184  0.0112  0.0831  0.0916
 3313SOL    HW121572   0.541   1.948   2.132  0.5742 -1.8586  0.2542
 3313SOL    HW221573   0.666   2.041   2.136 -1.6052  0.0764 -1.5734
 3314SOL     OW21574   1.914   1.736   5.250  0.1863  0.4825  0.0719
 3314SOL    HW121575   1.911   1.828   5.277  1.0892 -0.2523  2.6740
 3314SOL    HW221576   1.822   1.711   5.261 -0.7306  3.0759 -1.8235
 3315SOL     OW21577   4.725   1.850  14.507 -0.7473  0.2785  0.2595
 3315SOL    HW121578   4.722   1.851  14.602  0.0473  0.9450  0.2740
 3315SOL    HW221579   4.632   1.873  14.499 -0.6703  0.0084 -1.5864
 3316SOL     OW21580   3.584   2.878   5.205  0.4392 -0.5428  0.2582
 3316SOL    HW121581   3.650   2.942   5.179 -0.0646 -0.2205 -0.2253
 3316SOL    HW221582   3.637   2.819   5.259  0.5084 -1.4169 -0.7728
 3317SOL     OW21583   4.604   1.334   7.958 -0.1483 -0.3155 -0.5160
 3317SOL    HW121584   4.547   1.403   7.990  2.1481  0.3294  2.2012
 3317SOL    HW221585   4.537   1.274   7.926 -0.8203  0.0868  0.1345
 3318SOL     OW21586   1.082   4.247   8.479 -0.0652 -0.3027  0.0039
 3318SOL    HW121587   1.022   4.173   8.481  1.1584 -1.3432 -1.3644
 3318SOL    HW221588   1.126   4.238   8.563  2.5225 -0.6012 -1.3794
 3319SOL     OW21589   1.660   3.460   7.481 -0.1235  0.4999 -0.1521
 3319SOL    HW121590   1.631   3.508   7.559 -0.9572 -1.0107  0.4662
 3319SOL    HW221591   1.582   3.481   7.429  1.5025  2.6330 -1.6931
 3320SOL     OW21592   2.114   2.404  14.805  0.2824  0.5913 -0.2150
 3320SOL    HW121593   2.135   2.320  14.847 -0.5689  0.3891 -0.1861
 3320SOL    HW221594   2.085   2.371  14.720  0.4699 -0.3488  0.0871
 3321SOL     OW21595   0.397   4.453   3.440 -0.3632 -0.1502  0.1927
 3321SOL    HW121596   0.421   4.534   3.485 -1.6118  0.4162 -0.1659
 3321SOL    HW221597   0.474   4.436   3.385 -1.1456 -1.0371 -0.6279
 3322SOL     OW21598   0.749   3.184   4.442 -0.2878 -0.2964 -0.4185
 3322SOL    HW121599   0.694   3.174   4.365  1.1668  0.4453 -1.5401
 3322SOL    HW221600   0.840   3.194   4.414 -0.2963  0.3725 -0.2015
 3323SOL     OW21601   1.193   4.088   3.728 -0.2400 -0.0024  0.0315
 3323SOL    HW121602   1.242   4.057   3.805 -0.1211  3.1145  1.2150
 3323SOL    HW221603   1.255   4.157   3.706 -1.5444  0.6461 -1.5524
 3324SOL     OW21604   2.542   0.033   6.783  0.0528  0.5578  0.5722
 3324SOL    HW121605   2.544   0.044   6.878  1.7331 -1.2272  0.7565
 3324SOL    HW221606   2.614   4.708   6.775 -0.5714  0.1625 -1.9725
 3325SOL     OW21607   2.327   1.012   4.172 -0.0578  0.2823 -0.2509
 3325SOL    HW121608   2.331   1.102   4.205  2.0731 -0.4346  1.4275
 3325SOL    HW221609   2.323   1.024   4.077 -1.0448 -0.0212 -0.2515
 3326SOL     OW21610   1.602   2.527   9.051 -0.0467  0.6014  0.2614
 3326SOL    HW121611   1.603   2.507   9.144 -0.6591  0.9806  0.3447
 3326SOL    HW221612   1.516   2.569   9.049 -1.2167 -1.7958 -0.8526
 3327SOL     OW21613   2.653   2.887   5.868  0.3702 -0.3346 -0.6223
 3327SOL    HW121614   2.603   2.887   5.787 -0.2304 -1.4966 -0.2504
 3327SOL    HW221615   2.677   2.976   5.893 -0.1950 -0.2633 -0.3319
 3328SOL     OW21616   4.180   1.742   7.299 -0.3244  0.1304 -0.1860
 3328SOL    HW121617   4.264   1.718   7.262 -0.7991 -2.2635  0.2629
 3328SOL    HW221618   4.198   1.835   7.314 -3.3225  1.1332 -2.7431
 3329SOL     OW21619   0.791   3.540  13.609  0.2497  0.0654  0.2025
 3329SOL    HW121620   0.853   3.543  13.537  0.5627  1.6514  0.5494
 3329SOL    HW221621   0.724   3.588  13.561  0.3182 -0.0704 -0.0328
 3330SOL     OW21622   2.526   1.115  12.659  0.9318 -0.9153  0.3225
 3330SOL    HW121623   2.438   1.123  12.621  1.9026  1.1929 -1.5327
 3330SOL    HW221624   2.551   1.036  12.612 -1.2811 -1.7512  0.5381
 3331SOL     OW21625   2.359   1.623   3.637 -0.1038 -0.4170 -0.1887
 3331SOL    HW121626   2.361   1.683   3.712 -1.3396 -2.6466  1.6145
 3331SOL    HW221627   2.329   1.680   3.566 -2.7802 -1.4478  0.1222
 3332SOL     OW21628   0.691   1.474   5.123  0.1529  0.5027  0.1224
 3332SOL    HW121629   0.751   1.544   5.148  0.8872  1.1536 -3.3455
 3332SOL    HW221630   0.683   1.442   5.213  1.7163 -1.3761 -0.3885
 3333SOL     OW21631   1.834   4.174   5.963  0.2808 -0.1568 -0.3548
 3333SOL    HW121632   1.906   4.126   6.005  0.0928 -0.6829 -0.6265
 3333SOL    HW221633   1.780   4.213   6.031  0.3117 -0.8267  0.0546
 3334SOL     OW21634   3.686   1.410  15.293  0.7800  0.5346  0.2269
 3334SOL    HW121635   3.646   1.486  15.334 -0.0172 -1.4489  3.1411
 3334SOL    HW221636   3.621   1.388  15.227 -1.0713  0.3020  2.1554
 3335SOL     OW21637   3.385   0.698   8.356 -0.5022 -0.2280 -0.2045
 3335SOL    HW121638   3.401   0.771   8.416 -1.3884  0.1198 -0.3947
 3335SOL    HW221639   3.394   0.749   8.276 -0.9287  0.2866  0.0679
 3336SOL     OW21640   1.870   3.098  11.068 -0.2224  0.3688 -0.1196
 3336SOL    HW121641   1.845   3.165  11.131 -0.3826 -0.8865  1.1454
 3336SOL    HW221642   1.793   3.041  11.072  1.0609 -1.2543  0.8456
 3337SOL     OW21643   3.177   0.095  12.304 -0.3339  1.0599 -0.0726
 3337SOL    HW121644   3.175   0.072  12.397 -1.4207  2.3500  0.2272
 3337SOL    HW221645   3.262   0.139  12.292  1.3356 -2.1573  0.0282
 3338SOL     OW21646   0.211   1.107   5.256 -0.2158 -0.2892  0.3623
 3338SOL    HW121647   0.277   1.174   5.271 -0.3140  0.0167 -0.5335
 3338SOL    HW221648   0.135   1.162   5.236  0.5348  0.2824 -0.8960
 3339SOL     OW21649   4.681   3.466   3.459 -0.1446  0.3675 -0.0244
 3339SOL    HW121650   4.611   3.468   3.392 -0.8488  0.1107  0.7079
 3339SOL    HW221651   4.729   3.389   3.430 -0.3288  0.5360 -0.7837
 3340SOL     OW21652   3.619   1.896   7.692  0.1062 -0.3875  0.2407
 3340SOL    HW121653   3.554   1.872   7.626 -1.7762  2.6635  0.9613
 3340SOL    HW221654   3.689   1.905   7.627 -0.7088  0.8244 -0.4786
 3341SOL     OW21655   0.627   2.552   3.150  0.1881 -0.1860 -0.2242
 3341SOL    HW121656   0.707   2.600   3.170  0.8406 -2.2360  1.9971
 3341SOL    HW221657   0.644   2.474   3.097 -0.8474 -0.5882  0.0358
 3342SOL     OW21658   0.870   3.291   6.903  0.2586  0.4356  0.0013
 3342SOL    HW121659   0.887   3.210   6.950  1.0882 -0.3400 -1.6237
 3342SOL    HW221660   0.790   3.267   6.856  1.3844 -0.3127 -1.5488
 3343SOL     OW21661   1.752   4.383  17.314  0.4238  0.5058 -0.0002
 3343SOL    HW121662   1.820   4.380  17.246 -0.8381 -0.0795 -1.2113
 3343SOL    HW221663   1.790   4.442  17.379  1.8537 -0.8504  0.3869
 3344SOL     OW21664   2.776   3.669   5.725  0.4924  0.2048  0.1748
 3344SOL    HW121665   2.707   3.641   5.785 -0.8703  3.1525 -0.0662
 3344SOL    HW221666   2.810   3.753   5.755  0.6100  0.9397 -1.9806
 3345SOL     OW21667   0.913   2.285   8.197 -1.5913  0.0600  0.1604
 3345SOL    HW121668   0.986   2.344   8.212  0.8769 -3.4166  1.7063
 3345SOL    HW221669   0.866   2.336   8.131 -0.5914  1.0469  0.2225
 3346SOL     OW21670   1.113   4.633  12.852  0.2631 -0.3926  0.4261
 3346SOL    HW121671   1.045   4.645  12.919 -3.6958  0.7212 -3.7465
 3346SOL    HW221672   1.090   4.702  12.791 -0.4922 -0.0977  1.0392
 3347SOL     OW21673   3.442   1.461   3.050  0.0134 -0.6143  0.4049
 3347SOL    HW121674   3.490   1.448   3.131 -1.7449  2.0075  1.8505
 3347SOL    HW221675   3.445   1.373   3.012  0.1321 -1.5930  2.6750
 3348SOL     OW21676   1.576   2.826   8.898 -0.2218 -0.2840 -0.3122
 3348SOL    HW121677   1.664   2.798   8.872 -0.2237  0.4691 -1.1370
 3348SOL    HW221678   1.524   2.758   8.856 -0.8128  0.5542 -0.9446
 3349SOL     OW21679   3.617   3.626   8.899 -0.8925 -0.4336 -0.6753
 3349SOL    HW121680   3.632   3.627   8.805  0.7178 -0.4436 -0.4222
 3349SOL    HW221681   3.617   3.720   8.917  1.0313 -0.9263  2.0178
 3350SOL     OW21682   1.048   3.914  13.450 -0.0686 -0.7169  0.4708
 3350SOL    HW121683   1.026   3.864  13.371 -1.4188  0.6449 -0.0088
 3350SOL    HW221684   0.964   3.910  13.495  0.0730 -2.9347  0.5751
 3351SOL     OW21685   2.685   2.814   8.917 -0.2716 -0.1162 -0.2398
 3351SOL    HW121686   2.654   2.800   9.007 -0.1635  2.5444  0.1877
 3351SOL    HW221687   2.713   2.724   8.900  0.4191 -0.1045  0.8325
 3352SOL     OW21688   2.650   3.114   3.153 -0.2874  0.0438  0.0739
 3352SOL    HW121689   2.642   3.187   3.214 -1.8214 -0.1918  0.1605
 3352SOL    HW221690   2.556   3.106   3.136 -0.4322 -0.3427  1.0627
 3353SOL     OW21691   0.190   2.051   7.005 -0.3755  0.3074 -0.4457
 3353SOL    HW121692   0.182   2.103   6.926 -1.2843  1.3350  0.3194
 3353SOL    HW221693   0.100   2.061   7.037 -0.5180 -2.4250  0.0129
 3354SOL     OW21694   0.174   3.544   1.715  0.8260  0.2419  0.2107
 3354SOL    HW121695   0.094   3.522   1.666  0.1767  1.4678  0.7274
 3354SOL    HW221696   0.199   3.611   1.652  1.0863  0.0481  0.1083
 3355SOL     OW21697   3.943   1.690   4.853  0.2281  0.1154 -0.4637
 3355SOL    HW121698   3.945   1.662   4.761 -1.3982 -1.0520 -0.1491
 3355SOL    HW221699   4.033   1.720   4.851 -0.2885  1.5426 -2.2673
 3356SOL     OW21700   4.713   1.893   7.336  0.6020  0.3288  0.7565
 3356SOL    HW121701   4.623   1.868   7.357 -0.1399  2.5060  0.1205
 3356SOL    HW221702   4.701   1.934   7.250 -0.6422 -1.8849 -0.1490
 3357SOL     OW21703   0.326   2.516  11.785 -0.0932  0.1934  0.1631
 3357SOL    HW121704   0.298   2.425  11.798  4.0115 -1.3969 -1.9276
 3357SOL    HW221705   0.245   2.567  11.781 -0.4521 -0.3970 -0.1159
 3358SOL     OW21706   2.865   0.206   6.532  0.1134  0.3357 -0.0565
 3358SOL    HW121707   2.914   0.124   6.528  0.3473  0.5004 -0.5358
 3358SOL    HW221708   2.788   0.190   6.478 -0.2897 -1.6670  1.1106
 3359SOL     OW21709   3.191   1.999   3.565 -0.2348  0.2938 -0.3733
 3359SOL    HW121710   3.168   1.995   3.472 -0.0127  0.1551 -0.4240
 3359SOL    HW221711   3.116   2.037   3.611 -1.2420 -2.5725  0.2973
 3360SOL     OW21712   1.333   0.484   8.450  0.1462 -0.4802  1.2106
 3360SOL    HW121713   1.378   0.513   8.530  0.0871  0.5589  0.8746
 3360SOL    HW221714   1.371   0.398   8.435  1.4232  0.0185  1.5294
 3361SOL     OW21715   2.352   4.494  12.235  0.3518  0.5345  0.2957
 3361SOL    HW121716   2.336   4.448  12.317  1.0731  0.1818  0.2382
 3361SOL    HW221717   2.399   4.432  12.179  0.0886 -0.9432  1.7352
 3362SOL     OW21718   0.391   0.744   1.848 -0.2764  0.0097  0.1077
 3362SOL    HW121719   0.415   0.829   1.811 -1.3461  0.9604  1.5657
 3362SOL    HW221720   0.316   0.727   1.791 -0.5559  5.4425 -1.1284
 3363SOL     OW21721   0.158   2.931   4.065 -0.5417  0.3522  0.3350
 3363SOL    HW121722   0.072   2.890   4.075 -0.7556  1.2123  2.0527
 3363SOL    HW221723   0.151   3.013   4.114  1.6302 -0.2308  1.6213
 3364SOL     OW21724   3.687   4.020  14.345 -0.3928 -0.0612 -0.1757
 3364SOL    HW121725   3.719   4.091  14.290  2.5216 -0.3814  1.0912
 3364SOL    HW221726   3.719   4.030  14.434  2.8644  0.5613 -1.4085
 3365SOL     OW21727   4.009   4.727   8.658  0.2249  0.4103 -0.2998
 3365SOL    HW121728   4.076   4.688   8.602 -1.0797 -0.6306 -1.1564
 3365SOL    HW221729   3.967   0.044   8.593 -2.5188 -1.1858  0.1135
 3366SOL     OW21730   3.780   0.626   4.385  0.0412  0.0080 -0.1616
 3366SOL    HW121731   3.859   0.623   4.330  0.1741  0.2685  0.0132
 3366SOL    HW221732   3.755   0.534   4.394  2.0868 -0.5801 -0.3060
 3367SOL     OW21733   0.980   1.492  15.501  0.2017  0.0420 -0.4597
 3367SOL    HW121734   0.924   1.558  15.461 -0.7414 -0.5090 -0.0519
 3367SOL    HW221735   1.062   1.540  15.509 -0.1194  0.4330  0.4962
 3368SOL     OW21736   4.643   0.136  13.273 -0.4893 -0.3844  0.2070
 3368SOL    HW121737   4.624   0.177  13.357  2.1509  1.0187  0.1158
 3368SOL    HW221738   4.688   0.203  13.221  0.9658  0.5203  2.6399
 3369SOL     OW21739   0.249   0.770   5.275  0.1873  0.9047 -0.8917
 3369SOL    HW121740   0.280   0.681   5.293 -0.8457  0.7638  0.1706
 3369SOL    HW221741   0.308   0.792   5.202  2.2107 -3.1654 -0.4738
 3370SOL     OW21742   3.135   3.545  11.114 -0.5469 -0.2314 -0.0940
 3370SOL    HW121743   3.201   3.611  11.092 -0.9539  0.0273 -0.5413
 3370SOL    HW221744   3.184   3.488  11.173 -1.5127 -0.3142  0.6159
 3371SOL     OW21745   2.004   3.369  12.442 -0.0042 -0.0568  0.3895
 3371SOL    HW121746   1.921   3.415  12.454  0.4133  0.4998  1.0925
 3371SOL    HW221747   1.967   3.288  12.406  0.5950 -0.2668  0.2593
 3372SOL     OW21748   4.389   3.237   4.483 -0.3404  0.1356  0.1780
 3372SOL    HW121749   4.381   3.246   4.388 -2.6900 -2.6740  0.1078
 3372SOL    HW221750   4.467   3.289   4.502 -0.9852  1.7127 -1.5014
 3373SOL     OW21751   2.251   4.276   3.381  0.1787  0.1175  0.1067
 3373SOL    HW121752   2.330   4.240   3.340  1.7848  2.6602  0.9327
 3373SOL    HW221753   2.186   4.281   3.311 -0.8185 -0.1322  1.0136
 3374SOL     OW21754   0.528   1.811   1.821 -0.3796 -0.2139 -0.3176
 3374SOL    HW121755   0.433   1.816   1.826 -0.3179  2.4404 -2.0180
 3374SOL    HW221756   0.540   1.724   1.859 -1.6492  0.6413  2.0025
 3375SOL     OW21757   3.701   2.591  12.946  0.0263  0.0378 -0.4711
 3375SOL    HW121758   3.653   2.586  13.029  0.2256 -1.4955 -0.4558
 3375SOL    HW221759   3.625   2.583  12.889 -0.6745 -0.2188  0.4991
 3376SOL     OW21760   4.030   2.608   2.233 -0.3635  0.1442  0.3415
 3376SOL    HW121761   3.953   2.658   2.260  0.7996  2.1843 -0.0426
 3376SOL    HW221762   4.080   2.682   2.198  0.4496  0.3369  1.9322
 3377SOL     OW21763   3.700   3.133   4.854 -0.1859  0.2799  0.6710
 3377SOL    HW121764   3.616   3.107   4.816  0.6455  0.2565 -1.1854
 3377SOL    HW221765   3.758   3.105   4.783 -0.0247  0.8493  0.5751
 3378SOL     OW21766   1.939   3.524   0.918  0.4847  0.1669 -0.0825
 3378SOL    HW121767   2.024   3.569   0.914  0.9809 -0.7713  0.0551
 3378SOL    HW221768   1.884   3.581   0.864 -0.1878 -1.9973 -1.6779
 3379SOL     OW21769   3.593   0.276   8.403  0.0831  0.9819  0.2101
 3379SOL    HW121770   3.635   0.196   8.372 -1.7018 -0.0018  0.3345
 3379SOL    HW221771   3.519   0.257   8.345  0.8797  1.1676 -0.8516
 3380SOL     OW21772   0.612   0.209  10.077  0.1996 -0.1413  0.0291
 3380SOL    HW121773   0.660   0.184  10.156 -0.3984 -2.2271 -0.2707
 3380SOL    HW221774   0.644   0.298  10.066 -0.0266  0.0849  1.2195
 3381SOL     OW21775   3.189   3.061   7.768  0.0284 -0.4010  0.1009
 3381SOL    HW121776   3.238   3.068   7.687  0.6516  1.5591  0.6338
 3381SOL    HW221777   3.204   3.146   7.810 -1.0290 -0.0187 -0.2901
 3382SOL     OW21778   1.499   3.172   9.804 -0.9952  0.1966  0.0576
 3382SOL    HW121779   1.488   3.264   9.825  0.3833  0.2653  0.5122
 3382SOL    HW221780   1.489   3.130   9.890  2.5689  1.0286  0.8852
 3383SOL     OW21781   3.572   2.941  11.981  0.5268  0.1737 -0.2430
 3383SOL    HW121782   3.645   2.897  11.936 -0.7342 -0.7122 -1.4053
 3383SOL    HW221783   3.536   2.874  12.039  0.6968  1.4444  1.3389
 3384SOL     OW21784   2.049   2.303  10.266 -0.3991  0.0875  0.2607
 3384SOL    HW121785   2.122   2.309  10.328 -0.4153  2.4424  0.0517
 3384SOL    HW221786   1.996   2.382  10.280  1.2559  1.0907  0.9613
 3385SOL     OW21787   3.433   4.564  11.063  0.7204  0.1166 -0.1960
 3385SOL    HW121788   3.379   4.559  10.984  0.2672 -2.1655  0.2406
 3385SOL    HW221789   3.455   4.657  11.060  1.8397 -0.1707 -0.7847
 3386SOL     OW21790   2.471   3.031   9.435  0.0379 -0.0531  0.6357
 3386SOL    HW121791   2.404   3.086   9.477 -2.1466 -0.5495 -2.1266
 3386SOL    HW221792   2.421   2.950   9.433  1.7815 -1.1380  2.3087
 3387SOL     OW21793   4.384   2.775   1.972 -0.5795  0.1108  0.1061
 3387SOL    HW121794   4.402   2.724   1.893  0.7098 -1.0787  1.1657
 3387SOL    HW221795   4.424   2.857   1.944  1.4053 -1.1308 -0.6814
 3388SOL     OW21796   2.628   3.363   1.224 -0.7351  0.2059  0.4697
 3388SOL    HW121797   2.634   3.407   1.139  0.7090  1.8680  1.4200
 3388SOL    HW221798   2.704   3.398   1.271  0.2096 -0.5200 -0.5145
 3389SOL     OW21799   1.577   0.426  15.710 -0.2733 -0.7639  0.0397
 3389SOL    HW121800   1.543   0.465  15.630 -2.1459 -0.3357  1.0301
 3389SOL    HW221801   1.599   0.339  15.678 -0.0215  0.4016 -2.9143
 3390SOL     OW21802   4.169   3.710   6.893  0.0751  0.1840 -0.3078
 3390SOL    HW121803   4.153   3.628   6.847 -0.4661  0.0814  0.0634
 3390SOL    HW221804   4.102   3.696   6.960 -0.4270 -0.8385 -1.0348
 3391SOL     OW21805   2.038   4.139  15.520 -0.3582  0.0793  1.0293
 3391SOL    HW121806   2.061   4.155  15.429 -0.4388 -1.2225  0.7915
 3391SOL    HW221807   1.947   4.168  15.525 -0.2835  0.7384 -1.6377
 3392SOL     OW21808   3.746   1.883   9.053  0.0723 -0.0530  0.0216
 3392SOL    HW121809   3.662   1.848   9.024  1.5268 -1.8884 -2.0174
 3392SOL    HW221810   3.777   1.807   9.102  1.1049  1.5293  1.7964
 3393SOL     OW21811   3.442   4.397   6.832 -0.1975  0.0888 -0.1117
 3393SOL    HW121812   3.383   4.378   6.905  1.2586 -2.1240  0.4827
 3393SOL    HW221813   3.390   4.349   6.767 -1.9171 -0.0424  1.3637
 3394SOL     OW21814   4.622   3.476  17.283  0.2238 -0.3076  0.4962
 3394SOL    HW121815   4.644   3.389  17.250  1.6497 -0.2469  1.2798
 3394SOL    HW221816   4.637   3.522  17.201 -1.8821 -0.5555 -0.0268
 3395SOL     OW21817   4.591   1.500  10.617  0.6270 -0.2910  0.1157
 3395SOL    HW121818   4.631   1.419  10.645  1.3298  0.2480  0.6647
 3395SOL    HW221819   4.497   1.483  10.621  0.6334 -0.3966 -0.2143
 3396SOL     OW21820   0.573   2.013   4.471 -0.5310  0.0748 -0.0346
 3396SOL    HW121821   0.590   1.940   4.530 -0.6371  0.1476  0.0857
 3396SOL    HW221822   0.531   1.968   4.397  0.4808  0.1933 -0.6847
 3397SOL     OW21823   1.426   1.631   2.613  0.6401  0.2869 -0.1950
 3397SOL    HW121824   1.373   1.571   2.560 -1.2324  0.8031  1.0904
 3397SOL    HW221825   1.378   1.634   2.696 -1.4019  3.0498 -1.4543
 3398SOL     OW21826   2.028   2.624   6.241 -0.2696 -0.0317 -0.3507
 3398SOL    HW121827   2.094   2.599   6.305 -0.6088  1.1707  0.4587
 3398SOL    HW221828   2.078   2.688   6.190  0.8389 -0.3813  0.3212
 3399SOL     OW21829   4.020   1.102   1.285  0.4570 -0.9644  0.6174
 3399SOL    HW121830   4.048   1.145   1.366 -0.6249 -3.0590  2.1099
 3399SOL    HW221831   3.935   1.064   1.308 -0.9579  2.2630  0.6187
 3400SOL     OW21832   2.157   3.149   6.473 -0.0405 -0.0173 -0.3046
 3400SOL    HW121833   2.173   3.216   6.540  0.0192  0.5555 -0.8916
 3400SOL    HW221834   2.061   3.143   6.473 -0.0133 -0.7946  2.2920
 3401SOL     OW21835   1.741   2.486  16.962  0.4823  0.3776 -0.3846
 3401SOL    HW121836   1.756   2.543  17.038  2.1761  1.2769 -1.3981
 3401SOL    HW221837   1.722   2.404  17.007 -0.3517  1.5571  1.4290
 3402SOL     OW21838   2.241   0.534   9.156  0.8247  0.0305  0.3205
 3402SOL    HW121839   2.194   0.576   9.084 -0.6921 -0.0849  1.2513
 3402SOL    HW221840   2.238   0.606   9.220  0.1919 -0.3806  0.7491
 3403SOL     OW21841   4.732   2.782   6.646 -0.0950  0.2591  0.1419
 3403SOL    HW121842   0.058   2.764   6.579 -1.1830 -0.9662 -0.5672
 3403SOL    HW221843   0.054   2.789   6.720 -0.5328  0.6137  0.4742
 3404SOL     OW21844   4.429   3.378  11.287 -0.1404 -0.3650  0.3769
 3404SOL    HW121845   4.343   3.382  11.329  0.7332  1.5880  1.9853
 3404SOL    HW221846   4.407   3.386  11.194 -1.0331  0.0641  0.6212
 3405SOL     OW21847   2.168   0.912   0.980 -0.2623 -0.3558 -0.1695
 3405SOL    HW121848   2.177   1.001   1.014  0.8901  0.1962 -1.9253
 3405SOL    HW221849   2.209   0.867   1.054  0.6277 -1.9044 -1.6269
 3406SOL     OW21850   3.391   2.346   7.782 -0.0164  0.7912 -0.3091
 3406SOL    HW121851   3.484   2.368   7.778  0.0861  0.2830 -0.7613
 3406SOL    HW221852   3.390   2.251   7.792 -0.4599  1.0791  2.3743
 3407SOL     OW21853   1.187   0.678   8.354  0.4611 -0.0950  0.4356
 3407SOL    HW121854   1.104   0.644   8.320  1.8750 -0.4962 -2.6504
 3407SOL    HW221855   1.235   0.598   8.380  1.9225 -0.1015 -2.3368
 3408SOL     OW21856   1.630   3.550  16.674  0.1490 -0.0390 -0.1638
 3408SOL    HW121857   1.595   3.601  16.747 -1.8470  4.1431 -3.9495
 3408SOL    HW221858   1.721   3.577  16.669  0.3416 -0.4551  1.2430
 3409SOL     OW21859   4.711   2.274   0.222 -0.4282 -0.4528  0.1322
 3409SOL    HW121860   4.682   2.183   0.210 -0.6020 -0.9720  4.3901
 3409SOL    HW221861   4.634   2.321   0.192  1.2322  1.6243 -0.8411
 3410SOL     OW21862   3.368   3.920   8.418 -0.0457 -0.1583 -0.0610
 3410SOL    HW121863   3.279   3.924   8.453  1.1051  0.6159  2.7370
 3410SOL    HW221864   3.403   3.975   8.488  2.9617 -2.0815 -0.0459
 3411SOL     OW21865   2.382   0.777   5.639 -0.2012  1.0006  0.3916
 3411SOL    HW121866   2.380   0.868   5.609  0.4376  0.6325 -0.7985
 3411SOL    HW221867   2.289   0.776   5.658 -0.4696  0.8183 -0.9125
 3412SOL     OW21868   0.272   2.822  17.244 -0.0571 -0.1880  0.0332
 3412SOL    HW121869   0.347   2.819  17.304  1.0231  0.1262 -1.2916
 3412SOL    HW221870   0.314   2.804  17.159  1.1640  2.2268  0.1266
 3413SOL     OW21871   0.171   0.829   1.686  0.6152 -0.2495 -0.2894
 3413SOL    HW121872   0.190   0.852   1.595 -0.3339  0.3951 -0.3201
 3413SOL    HW221873   0.100   0.765   1.682 -2.4377  3.2382 -1.4807
 3414SOL     OW21874   2.052   4.347  17.474  0.0637 -0.3299 -0.1926
 3414SOL    HW121875   2.144   4.333  17.450  0.4863  0.6456  0.8906
 3414SOL    HW221876   2.017   4.367  17.387  0.3570  1.7320  0.1837
 3415SOL     OW21877   2.818   1.917   2.660 -0.3121  0.2191 -0.2511
 3415SOL    HW121878   2.748   1.982   2.670 -0.7294 -0.6304  2.3532
 3415SOL    HW221879   2.889   1.980   2.660  1.6089 -1.9514  2.1103
 3416SOL     OW21880   0.996   3.801   8.506  0.0994  0.4410  0.4897
 3416SOL    HW121881   0.981   3.746   8.583  3.0642 -1.0372  0.0059
 3416SOL    HW221882   1.088   3.776   8.495 -0.2372 -0.8398  0.6011
 3417SOL     OW21883   4.390   0.704   8.924  0.1384 -0.3026 -1.1105
 3417SOL    HW121884   4.459   0.731   8.863  0.6903 -0.7027 -0.6585
 3417SOL    HW221885   4.319   0.688   8.862  0.0171 -0.8788 -0.8218
 3418SOL     OW21886   1.638   4.292   6.107 -0.6714 -0.0851 -0.2022
 3418SOL    HW121887   1.551   4.264   6.079  0.7691 -2.5319 -2.2155
 3418SOL    HW221888   1.631   4.312   6.200  0.3695  0.9332 -0.3462
 3419SOL     OW21889   0.334   3.013   6.882 -0.0108  0.2097  0.2512
 3419SOL    HW121890   0.410   3.072   6.881 -1.8585  2.5588  0.1616
 3419SOL    HW221891   0.266   3.068   6.920  1.9128 -0.3376  4.5179
 3420SOL     OW21892   1.459   1.018   1.804  0.1485 -0.2336  0.2484
 3420SOL    HW121893   1.469   1.032   1.898  0.2889  4.8268 -0.5269
 3420SOL    HW221894   1.364   1.005   1.803 -0.1271  1.9945 -1.0963
 3421SOL     OW21895   3.164   0.578   6.699 -0.2270  0.1414 -0.0778
 3421SOL    HW121896   3.161   0.495   6.652 -1.7814  0.5514 -0.6808
 3421SOL    HW221897   3.209   0.551   6.779  0.4006 -0.7772 -0.7374
 3422SOL     OW21898   1.139   3.901   6.022 -0.3305  0.3863  0.2892
 3422SOL    HW121899   1.151   3.843   5.947  0.5838 -0.2332  0.9004
 3422SOL    HW221900   1.147   3.837   6.094  0.8376 -0.7849 -0.8682
 3423SOL     OW21901   0.395   3.831   8.210 -0.9614 -0.2475 -0.4411
 3423SOL    HW121902   0.427   3.898   8.270 -2.2505  0.0547 -0.0945
 3423SOL    HW221903   0.450   3.763   8.249  3.0460  3.4109  0.2438
 3424SOL     OW21904   1.616   3.269   4.052 -0.6270 -0.5207 -0.2144
 3424SOL    HW121905   1.599   3.354   4.011 -3.1366  0.0969  2.0989
 3424SOL    HW221906   1.700   3.247   4.011 -0.3806 -2.4118  1.3181
 3425SOL     OW21907   4.249   0.255   2.264  0.0694 -0.5480  0.3463
 3425SOL    HW121908   4.218   0.328   2.319  1.2875 -0.8598  1.4312
 3425SOL    HW221909   4.315   0.299   2.210  0.3939  1.3708  2.2850
 3426SOL     OW21910   1.421   4.466   4.412 -0.2730  0.1121  0.1301
 3426SOL    HW121911   1.509   4.429   4.413  0.1116  1.0581  0.8951
 3426SOL    HW221912   1.366   4.399   4.452  0.8701 -1.7697 -1.4836
 3427SOL     OW21913   3.827   3.573   2.875  0.8221  0.3182  0.2726
 3427SOL    HW121914   3.872   3.489   2.883 -1.4573 -0.7870  1.7124
 3427SOL    HW221915   3.895   3.624   2.831  2.2372 -1.1980  0.6947
 3428SOL     OW21916   1.768   2.298  12.209 -0.1040  0.2803  0.6691
 3428SOL    HW121917   1.691   2.242  12.214 -1.0387  1.6912  2.1010
 3428SOL    HW221918   1.818   2.260  12.282 -0.4305  2.0189  1.7975
 3429SOL     OW21919   1.059   2.332   2.681  0.2295  0.2107 -0.0787
 3429SOL    HW121920   1.129   2.287   2.728 -0.0257 -0.6751 -0.5630
 3429SOL    HW221921   1.022   2.391   2.747 -0.4774  2.1280 -2.1344
 3430SOL     OW21922   2.163   2.779   6.525 -0.6547  0.2336  0.0356
 3430SOL    HW121923   2.069   2.789   6.539 -0.7950  0.5504 -1.1556
 3430SOL    HW221924   2.186   2.863   6.486  1.6984 -0.5120 -0.1919
 3431SOL     OW21925   4.170   3.604   3.007  0.3471  0.5069 -0.3535
 3431SOL    HW121926   4.236   3.585   2.940  0.4491  0.9343 -0.3736
 3431SOL    HW221927   4.146   3.513   3.026  0.9182  0.4922  0.3367
 3432SOL     OW21928   0.972   1.050   9.756  0.3766  0.5450 -0.2738
 3432SOL    HW121929   0.927   0.966   9.749  0.7632  0.2920  0.2096
 3432SOL    HW221930   0.902   1.098   9.714  0.2564  1.0065  0.4569
 3433SOL     OW21931   4.612   4.130  10.671 -0.4344 -0.0748  0.0913
 3433SOL    HW121932   4.704   4.156  10.667 -0.1768 -1.3112 -1.9097
 3433SOL    HW221933   4.609   4.092  10.583 -1.2552  2.1492 -0.8339
 3434SOL     OW21934   0.954   3.369   8.745  0.0450  0.2188  0.4650
 3434SOL    HW121935   0.917   3.310   8.680  0.1724  1.2092 -0.4924
 3434SOL    HW221936   0.954   3.318   8.826  3.6928 -0.1311  0.2799
 3435SOL     OW21937   2.952   1.807   6.628 -0.0602  0.0460 -0.0380
 3435SOL    HW121938   2.918   1.782   6.713  1.9860  1.9243  1.3498
 3435SOL    HW221939   2.912   1.891   6.605  0.1675  0.1324 -0.1227
 3436SOL     OW21940   1.759   2.238   4.473  0.0481 -0.0663  0.3180
 3436SOL    HW121941   1.842   2.201   4.501 -0.4773  0.2541  2.3193
 3436SOL    HW221942   1.727   2.265   4.559  0.2651  0.7498  0.1514
 3437SOL     OW21943   3.561   4.132   5.686 -0.6072  0.2062 -0.1497
 3437SOL    HW121944   3.516   4.171   5.762 -1.3215  1.9998 -1.4915
 3437SOL    HW221945   3.637   4.092   5.728 -1.0177 -1.1751 -0.7271
 3438SOL     OW21946   4.217   3.512  13.520 -0.3912  0.1395 -0.5094
 3438SOL    HW121947   4.160   3.588  13.511  1.3865  1.3692 -1.2650
 3438SOL    HW221948   4.182   3.484  13.605  0.2729 -0.3347 -0.3911
 3439SOL     OW21949   4.497   1.652   8.848 -0.3465 -0.1292 -0.2205
 3439SOL    HW121950   4.501   1.697   8.763  0.7578  2.9142  1.4380
 3439SOL    HW221951   4.589   1.626   8.858 -0.1818  0.2197 -0.8246
 3440SOL     OW21952   0.964   4.665   7.667 -0.2396  0.4547  0.4103
 3440SOL    HW121953   0.879   4.652   7.711  1.8608 -0.0439  4.3139
 3440SOL    HW221954   0.940   4.728   7.599  0.3220  1.9040  1.5607
 3441SOL     OW21955   0.125   0.049   6.781  0.3263  0.0539 -0.1634
 3441SOL    HW121956   0.112   0.071   6.873 -3.5442  0.8072 -0.8708
 3441SOL    HW221957   0.134   0.136   6.742 -3.3264  0.3708 -0.3074
 3442SOL     OW21958   1.471   0.610   1.588 -0.2228  0.4233  0.3467
 3442SOL    HW121959   1.399   0.570   1.637  1.1221 -1.6962  0.5951
 3442SOL    HW221960   1.529   0.536   1.571 -1.3710  0.1188 -2.2635
 3443SOL     OW21961   3.274   3.326  14.233 -0.7882  0.1088  0.1265
 3443SOL    HW121962   3.206   3.393  14.231  0.3500  1.2423 -0.3268
 3443SOL    HW221963   3.243   3.258  14.293  1.3788  0.6435  1.8686
 3444SOL     OW21964   3.108   2.586   9.036  0.2508  0.1837 -0.2399
 3444SOL    HW121965   3.026   2.633   9.054  0.5740  0.9524 -0.7627
 3444SOL    HW221966   3.087   2.522   9.104  1.1452  0.7286  0.5505
 3445SOL     OW21967   1.353   1.525   7.451 -0.4242 -0.1623  0.1933
 3445SOL    HW121968   1.435   1.565   7.480  0.2621 -1.0808 -0.4590
 3445SOL    HW221969   1.290   1.573   7.506  0.7159  1.2774  0.2368
 3446SOL     OW21970   2.665   2.651   3.010 -1.1041  0.0334 -0.2413
 3446SOL    HW121971   2.611   2.716   2.966 -1.2228  1.6582  2.3210
 3446SOL    HW221972   2.734   2.648   2.943 -0.8287  0.3928  0.0250
 3447SOL     OW21973   1.675   1.763   0.620 -0.5123  0.5977 -0.4265
 3447SOL    HW121974   1.716   1.839   0.578  0.6906  1.3785  2.1371
 3447SOL    HW221975   1.659   1.703   0.549  2.0056 -0.7513  0.1257
 3448SOL     OW21976   0.972   3.296   2.950 -0.3882 -0.0576  0.2154
 3448SOL    HW121977   0.997   3.369   2.894  1.6114 -1.1348 -0.2937
 3448SOL    HW221978   0.889   3.266   2.914 -1.1660  1.5883  0.6076
 3449SOL     OW21979   1.810   0.397   1.687 -0.6890  0.4085  0.1177
 3449SOL    HW121980   1.821   0.339   1.762  0.3393  1.4404  0.7615
 3449SOL    HW221981   1.715   0.386   1.676 -0.3696 -1.9224 -0.3667
 3450SOL     OW21982   4.128   0.884  17.679 -0.4805 -0.3297  0.1707
 3450SOL    HW121983   4.056   0.836  17.638 -2.1864  1.2549  1.3093
 3450SOL    HW221984   4.166   0.823  17.743 -1.7548  0.2098  1.4266
 3451SOL     OW21985   1.253   2.876   5.817 -0.3685  0.2841  0.5571
 3451SOL    HW121986   1.339   2.836   5.829  0.4651  2.3449  1.5320
 3451SOL    HW221987   1.239   2.869   5.722  0.9951 -0.3624  0.4101
 3452SOL     OW21988   1.172   1.056   9.388  0.0314  0.2933 -0.1516
 3452SOL    HW121989   1.095   1.025   9.340 -1.3072  1.9280  0.9459
 3452SOL    HW221990   1.239   1.034   9.324  0.1283 -0.6605  0.2877
 3453SOL     OW21991   0.959   1.359   0.744 -0.0751 -0.0528 -0.1791
 3453SOL    HW121992   0.998   1.369   0.832  0.5258 -1.9356 -0.2269
 3453SOL    HW221993   0.868   1.335   0.763 -0.3507  1.3599  0.2522
 3454SOL     OW21994   4.449   3.777   7.898 -0.2296 -0.4990  0.0128
 3454SOL    HW121995   4.364   3.772   7.941 -0.0543 -0.3914  0.3672
 3454SOL    HW221996   4.448   3.872   7.887 -0.4150 -0.6130 -1.0442
 3455SOL     OW21997   1.648   4.326   5.368 -0.0135 -0.0827 -0.5136
 3455SOL    HW121998   1.689   4.249   5.409 -1.0124 -0.4644 -0.2212
 3455SOL    HW221999   1.697   4.400   5.403 -2.2948  0.0600  2.4565
 3456SOL     OW22000   0.099   0.937   7.220  0.2846  0.1984  0.6231
 3456SOL    HW122001   0.049   1.019   7.212  0.8505  0.5324  0.4938
 3456SOL    HW222002   0.093   0.925   7.315  1.4309 -1.5505  0.4651
 3457SOL     OW22003   3.210   3.726   8.217 -1.1408  0.5587 -0.8162
 3457SOL    HW122004   3.149   3.789   8.256 -1.0648 -0.3420  0.7666
 3457SOL    HW222005   3.283   3.723   8.279  0.4142  1.6679 -2.5983
 3458SOL     OW22006   0.307   0.104  16.321  0.2322 -0.3682  0.2145
 3458SOL    HW122007   0.317   0.026  16.267  0.6056  0.5003 -0.9495
 3458SOL    HW222008   0.237   0.073  16.379  0.4406 -1.1209  0.0693
 3459SOL     OW22009   4.307   1.503   1.411  0.1667 -0.3577  0.6547
 3459SOL    HW122010   4.393   1.541   1.427  0.0277  0.1303  0.2851
 3459SOL    HW222011   4.259   1.570   1.361  0.3160  0.0250  1.0221
 3460SOL     OW22012   3.052   3.500   4.045  0.2263  0.0307  0.1242
 3460SOL    HW122013   3.062   3.413   4.006  1.8936 -0.0971  0.8273
 3460SOL    HW222014   3.005   3.486   4.128 -0.5998 -1.4949 -0.5943
 3461SOL     OW22015   1.614   2.327  11.100 -0.9803 -0.3995 -0.2107
 3461SOL    HW122016   1.695   2.277  11.087 -2.1175 -2.4036  0.4562
 3461SOL    HW222017   1.640   2.414  11.130 -1.4670 -0.2249 -0.3020
 3462SOL     OW22018   1.142   0.791   1.156  0.2615  0.6172  0.2147
 3462SOL    HW122019   1.048   0.778   1.169  0.4854 -1.4239 -0.1470
 3462SOL    HW222020   1.139   0.882   1.127  2.6474  0.2227 -1.2304
 3463SOL     OW22021   2.281   0.472   2.959  0.1875 -0.2405 -0.4064
 3463SOL    HW122022   2.195   0.435   2.936  0.6384 -1.9619  0.6871
 3463SOL    HW222023   2.331   0.400   2.922  1.5177  0.3619  0.2451
 3464SOL     OW22024   2.451   0.365   1.516  0.7686  0.2943  0.4305
 3464SOL    HW122025   2.355   0.365   1.512  0.8002 -1.1310 -0.3725
 3464SOL    HW222026   2.466   0.308   1.591  0.9420 -2.1029 -1.4369
 3465SOL     OW22027   4.387   2.106   7.582 -0.0187  0.1786 -0.4071
 3465SOL    HW122028   4.374   2.016   7.611 -0.3061  0.0242 -1.0070
 3465SOL    HW222029   4.427   2.148   7.658  0.9780  0.9228 -1.3395
 3466SOL     OW22030   0.337   2.092   7.270 -0.1150  0.3837  0.1194
 3466SOL    HW122031   0.392   2.015   7.255 -0.1319  0.7248 -1.7408
 3466SOL    HW222032   0.314   2.114   7.180 -0.6421  2.7786  0.8420
 3467SOL     OW22033   0.373   4.715  17.338  0.8232 -0.6109 -0.1291
 3467SOL    HW122034   0.395   0.060  17.296  1.2493  0.4842  2.2337
 3467SOL    HW222035   0.315   0.008  17.407  2.6672  1.5782  0.4388
 3468SOL     OW22036   1.379   2.040   3.527  0.4009 -0.9811 -0.3606
 3468SOL    HW122037   1.412   1.998   3.448 -0.3985  0.8657 -1.6602
 3468SOL    HW222038   1.284   2.049   3.515  0.4993  0.9092  0.2635
 3469SOL     OW22039   0.812   4.114   2.048  0.4724 -0.4380 -0.7678
 3469SOL    HW122040   0.849   4.043   2.099 -2.4329  0.1528  2.1637
 3469SOL    HW222041   0.856   4.191   2.083 -0.5233  1.2124 -3.1093
 3470SOL     OW22042   2.885   0.724   2.629  0.0680 -0.0599 -0.9715
 3470SOL    HW122043   2.839   0.710   2.546 -1.7903  1.2559 -0.1764
 3470SOL    HW222044   2.801   0.728   2.675  1.5794  0.0567  1.7100
 3471SOL     OW22045   3.012   1.939   5.853  0.0286 -0.5244 -0.3212
 3471SOL    HW122046   3.020   1.900   5.766  0.7189  0.8864 -0.8888
 3471SOL    HW222047   3.048   1.865   5.902  0.0864  0.7231  1.5549
 3472SOL     OW22048   0.220   3.692   3.386  0.4951  0.2766 -0.2112
 3472SOL    HW122049   0.189   3.704   3.297 -3.3082  2.8159  1.4371
 3472SOL    HW222050   0.149   3.665   3.444  2.6416 -2.0813  1.3398
 3473SOL     OW22051   3.517   0.050  17.346  0.5656 -0.0151  0.3111
 3473SOL    HW122052   3.575   4.723  17.386 -0.9861 -0.1058  2.3473
 3473SOL    HW222053   3.587   0.070  17.283  1.6703 -3.8027  0.3111
 3474SOL     OW22054   3.969   4.629   6.315 -0.0173  0.1285 -0.2650
 3474SOL    HW122055   4.034   4.569   6.353  0.5632 -0.3069 -1.9731
 3474SOL    HW222056   3.921   4.656   6.394  2.6569  0.2278  1.3548
 3475SOL     OW22057   1.625   2.244   8.168  0.1757 -0.3228 -0.0237
 3475SOL    HW122058   1.717   2.216   8.167 -0.1893 -1.5225  0.6363
 3475SOL    HW222059   1.626   2.296   8.087  0.5503  0.2111  0.3207
 3476SOL     OW22060   2.780   4.694  11.436 -0.0555 -0.1355  0.5642
 3476SOL    HW122061   2.871   4.723  11.441 -0.0935  0.1954 -0.6824
 3476SOL    HW222062   2.794   4.606  11.470  0.2562 -0.4673 -0.4090
 3477SOL     OW22063   4.530   4.254   6.718 -0.5066 -0.0891  0.0887
 3477SOL    HW122064   4.622   4.253   6.744 -0.6807  0.5325  0.7242
 3477SOL    HW222065   4.507   4.178   6.772 -0.1467 -1.0595 -1.1042
 3478SOL     OW22066   2.787   1.873  11.048  0.9039 -0.5245  0.3809
 3478SOL    HW122067   2.772   1.954  11.001  1.3137 -0.5406  0.2240
 3478SOL    HW222068   2.820   1.820  10.976 -2.0598  0.6412 -1.8449
 3479SOL     OW22069   3.038   1.415  15.846  0.2363  0.0883 -0.2413
 3479SOL    HW122070   3.041   1.437  15.939 -2.1679  1.1184 -0.4093
 3479SOL    HW222071   3.102   1.344  15.850  2.3034  1.7513 -3.2233
 3480SOL     OW22072   0.579   4.506   2.151  0.4852 -0.0642  0.2030
 3480SOL    HW122073   0.546   4.534   2.236  0.8253  2.0034 -0.3397
 3480SOL    HW222074   0.623   4.590   2.133 -1.7451  1.0883  0.1559
 3481SOL     OW22075   4.207   2.005   3.777 -0.3200  0.4014 -0.5283
 3481SOL    HW122076   4.133   2.048   3.819 -0.2509  0.7477 -0.7593
 3481SOL    HW222077   4.179   1.916   3.759 -0.6017  0.1916  1.0046
 3482SOL     OW22078   3.598   1.592  16.662 -0.1411  0.2578  0.3412
 3482SOL    HW122079   3.688   1.625  16.660  0.0812 -0.2524  2.7679
 3482SOL    HW222080   3.595   1.524  16.594  2.3137 -0.1737  0.6900
 3483SOL     OW22081   0.438   2.483   4.759 -0.4566 -0.8923  0.5804
 3483SOL    HW122082   0.483   2.453   4.839  1.7622 -1.5131 -0.8985
 3483SOL    HW222083   0.354   2.441   4.778 -0.6927 -0.4715  0.4433
 3484SOL     OW22084   0.641   1.297   6.155  0.1555  0.1882 -0.3583
 3484SOL    HW122085   0.668   1.316   6.065 -0.9149  0.8628 -0.5338
 3484SOL    HW222086   0.570   1.235   6.139  0.6614 -1.1875  2.8534
 3485SOL     OW22087   0.277   0.927   6.965  0.2137  0.6275  0.4438
 3485SOL    HW122088   0.222   0.946   7.041 -1.7851  0.4466 -0.9325
 3485SOL    HW222089   0.212   0.928   6.894  3.0116 -3.6905 -2.1708
 3486SOL     OW22090   1.871   2.820   3.555  0.8339  0.6027  0.0845
 3486SOL    HW122091   1.940   2.760   3.583  0.4444 -0.1279 -0.4995
 3486SOL    HW222092   1.837   2.774   3.478  0.4126  0.8521  0.1193
 3487SOL     OW22093   4.138   4.082   3.473 -0.3262 -0.0951 -0.0134
 3487SOL    HW122094   4.151   4.066   3.566  1.7490  0.0190 -0.2705
 3487SOL    HW222095   4.192   4.160   3.459 -0.3270 -0.0459  0.2605
 3488SOL     OW22096   3.744   1.220   7.071  0.3418  0.2712 -0.1600
 3488SOL    HW122097   3.745   1.304   7.117  0.3368  0.7955 -1.1364
 3488SOL    HW222098   3.798   1.234   6.994  1.1070  1.1985  0.5402
 3489SOL     OW22099   2.672   1.723   7.243  0.4608 -0.4189 -0.2515
 3489SOL    HW122100   2.599   1.720   7.305  0.5559 -0.7270 -0.1565
 3489SOL    HW222101   2.647   1.802   7.195  1.5906  1.4725  2.2134
 3490SOL     OW22102   3.429   4.440   8.438 -0.0186  0.1652 -0.2897
 3490SOL    HW122103   3.373   4.428   8.515  1.4593  1.9859  1.0733
 3490SOL    HW222104   3.503   4.488   8.475 -0.7704  1.3587 -0.3446
 3491SOL     OW22105   2.073   1.270   4.650  0.2124  0.1911 -0.0674
 3491SOL    HW122106   2.076   1.240   4.740  1.9796  1.4182  0.2703
 3491SOL    HW222107   2.164   1.277   4.624  0.4772  0.1394  0.8706
 3492SOL     OW22108   0.117   0.689   7.717  0.4354  0.0051  0.0670
 3492SOL    HW122109   0.085   0.771   7.754 -0.8743  0.1646 -1.4560
 3492SOL    HW222110   0.083   0.619   7.773 -1.6543 -0.4569 -1.7865
 3493SOL     OW22111   2.583   1.886   7.060  0.0547  0.0691 -0.1903
 3493SOL    HW122112   2.533   1.864   6.982 -0.8839 -0.2800  0.5139
 3493SOL    HW222113   2.529   1.957   7.094  0.2821 -0.2176  0.7622
 3494SOL     OW22114   2.126   3.633   0.061 -0.8191 -0.1782  0.0855
 3494SOL    HW122115   2.130   3.538   0.066 -0.5539 -0.1036  1.2106
 3494SOL    HW222116   2.032   3.643   0.072 -0.5568  1.5237  0.7263
 3495SOL     OW22117   1.987   2.637   4.796 -0.8370 -1.0045  0.3008
 3495SOL    HW122118   1.916   2.697   4.815  0.3035  0.5900 -0.4815
 3495SOL    HW222119   1.946   2.551   4.801  1.4135 -2.1243 -0.2968
 3496SOL     OW22120   0.700   4.184   8.307  0.1418  0.7721  0.4796
 3496SOL    HW122121   0.766   4.162   8.373  1.3511 -0.7322 -1.2231
 3496SOL    HW222122   0.738   4.146   8.227 -0.1020  0.1891  0.6433
 3497SOL     OW22123   1.132   1.954   7.836 -0.0084 -0.0993  0.0425
 3497SOL    HW122124   1.154   1.920   7.749 -1.4098  1.7889 -1.0519
 3497SOL    HW222125   1.203   1.924   7.893  0.5724  0.6224 -0.3027
 3498SOL     OW22126   3.281   2.737   7.567  0.8463 -0.2940 -0.1673
 3498SOL    HW122127   3.295   2.676   7.495 -1.1468 -0.5172 -0.3685
 3498SOL    HW222128   3.256   2.817   7.521 -2.5229 -1.0011  0.4426
 3499SOL     OW22129   3.745   1.922   2.531  0.0408 -0.5082 -0.1641
 3499SOL    HW122130   3.832   1.950   2.503  1.0199 -2.6689  0.7209
 3499SOL    HW222131   3.772   1.867   2.604  0.9228 -0.4963 -0.4797
 3500SOL     OW22132   0.483   3.819   3.437  0.4665  0.4808  0.5167
 3500SOL    HW122133   0.477   3.909   3.466  3.7824  1.3301 -1.4462
 3500SOL    HW222134   0.399   3.803   3.394  0.7950  1.9289 -0.6664
 3501SOL     OW22135   3.096   2.558   2.616 -0.2579 -0.3279  0.2570
 3501SOL    HW122136   3.173   2.527   2.567  0.5251 -0.9963  1.9044
 3501SOL    HW222137   3.033   2.502   2.571  1.4369 -0.5271 -1.9085
 3502SOL     OW22138   0.855   3.414   5.381 -0.3919  0.8045  0.3248
 3502SOL    HW122139   0.924   3.468   5.421 -0.0666 -0.0818  0.9486
 3502SOL    HW222140   0.873   3.327   5.416 -0.7954  1.7847  3.0329
 3503SOL     OW22141   2.646   4.632  15.987 -0.1391 -0.1056  0.0947
 3503SOL    HW122142   2.681   4.570  15.923 -1.5541 -1.4716  0.6455
 3503SOL    HW222143   2.614   4.708  15.937 -0.5951 -0.4372 -0.1149
 3504SOL     OW22144   3.281   3.539   4.339  0.5633  0.2331  0.2032
 3504SOL    HW122145   3.192   3.507   4.323  0.8211 -0.8966  1.1105
 3504SOL    HW222146   3.282   3.562   4.432  0.8368  3.1216 -0.5162
 3505SOL     OW22147   0.918   1.110   4.275 -0.3424 -0.3348  0.0546
 3505SOL    HW122148   0.952   1.025   4.246  1.8934 -0.5076  3.2681
 3505SOL    HW222149   0.827   1.092   4.299 -0.6696 -0.1793 -1.0572
 3506SOL     OW22150   3.917   3.328   5.287  0.1117  0.0402  0.4192
 3506SOL    HW122151   3.834   3.299   5.326 -0.1474  0.8684  0.4788
 3506SOL    HW222152   3.970   3.352   5.363  1.3356  0.1972 -0.4822
 3507SOL     OW22153   4.708   3.002   2.587  0.7896  0.0902 -0.4611
 3507SOL    HW122154   0.026   3.035   2.656 -0.4892 -0.4151  0.8144
 3507SOL    HW222155   4.663   2.931   2.633 -0.8471  0.8984 -0.7926
 3508SOL     OW22156   1.378   3.445   1.791 -0.0228 -0.1511 -0.1627
 3508SOL    HW122157   1.439   3.494   1.847  0.6595 -0.9853 -0.1870
 3508SOL    HW222158   1.427   3.460   1.710  1.8003  0.6294  1.0604
 3509SOL     OW22159   2.236   2.376   2.199  0.1226  0.0389 -0.3576
 3509SOL    HW122160   2.247   2.303   2.138  0.4504  1.3141 -1.8359
 3509SOL    HW222161   2.257   2.448   2.139 -2.2944  1.1119  0.0496
 3510SOL     OW22162   2.625   0.743   2.041  0.3388 -0.0779 -0.3018
 3510SOL    HW122163   2.716   0.745   2.072  0.6771 -3.1743 -1.0325
 3510SOL    HW222164   2.603   0.836   2.034 -0.4022 -0.2086  0.3202
 3511SOL     OW22165   1.805   2.503   8.209 -0.2389  0.2157  0.2286
 3511SOL    HW122166   1.826   2.589   8.244 -0.0463  0.4265 -0.3984
 3511SOL    HW222167   1.758   2.517   8.126  1.2546 -2.0865 -1.0184
 3512SOL     OW22168   4.102   4.363  14.368  0.0096  0.1203  0.0064
 3512SOL    HW122169   4.067   4.327  14.286  0.6763 -0.4767 -0.0111
 3512SOL    HW222170   4.021   4.382  14.415  0.1339  0.8154 -0.0458
 3513SOL     OW22171   2.851   0.110   8.390 -0.1401  0.2962 -0.1688
 3513SOL    HW122172   2.895   0.049   8.332  2.1711  2.7149 -0.9483
 3513SOL    HW222173   2.918   0.178   8.396 -1.5157  1.5326  1.4448
 3514SOL     OW22174   3.194   1.643  16.123 -0.3600  0.5437 -0.0253
 3514SOL    HW122175   3.183   1.685  16.037 -2.1863  4.4578  2.1283
 3514SOL    HW222176   3.111   1.595  16.130 -0.0440 -0.0660 -0.4445
 3515SOL     OW22177   4.685   2.251   4.440  0.2911 -0.0654  0.6981
 3515SOL    HW122178   4.641   2.321   4.392 -2.6001 -0.4376  2.7679
 3515SOL    HW222179   0.038   2.275   4.431  0.7011 -1.6597  0.5097
 3516SOL     OW22180   0.068   2.027   8.690  0.0861 -0.1902 -0.3921
 3516SOL    HW122181   0.043   2.119   8.697 -0.0199 -0.1591 -1.1843
 3516SOL    HW222182   0.008   1.994   8.623  0.2648  1.8132 -1.5473
 3517SOL     OW22183   0.960   3.228   5.831 -0.0063  0.0102  0.7120
 3517SOL    HW122184   0.911   3.213   5.751 -0.6700  0.3630  1.0532
 3517SOL    HW222185   1.012   3.306   5.808  1.3466 -1.7462 -2.1611
 3518SOL     OW22186   0.076   3.737   3.141  0.0656 -0.5407  0.0375
 3518SOL    HW122187   0.064   3.749   3.047  1.2999  0.9384  0.0798
 3518SOL    HW222188   4.726   3.756   3.174  0.4591 -0.6812  1.1663
 3519SOL     OW22189   4.344   4.521   7.344  0.0761 -0.0866  0.0123
 3519SOL    HW122190   4.393   4.484   7.271  0.4891  1.7588 -0.6531
 3519SOL    HW222191   4.255   4.512   7.310  0.3045  0.3798 -0.6854
 3520SOL     OW22192   2.005   3.458   6.854  0.8188  0.8168 -0.2454
 3520SOL    HW122193   2.099   3.441   6.846  0.9669  1.6477 -0.2670
 3520SOL    HW222194   1.977   3.425   6.769 -2.2080 -1.3597  1.5671
 3521SOL     OW22195   1.214   1.694  14.047 -0.9870 -0.4467  0.0776
 3521SOL    HW122196   1.267   1.653  14.116 -1.4728 -0.4733  0.4418
 3521SOL    HW222197   1.277   1.752  14.006  0.4625 -1.7178  0.5068
 3522SOL     OW22198   0.246   3.107  13.354 -0.0607  0.0768  0.4855
 3522SOL    HW122199   0.199   3.185  13.386  1.9459  0.8471  1.5473
 3522SOL    HW222200   0.223   3.047  13.425  0.6697  0.5939  1.1552
 3523SOL     OW22201   4.512   2.751   3.659  0.2339  0.1071 -0.3126
 3523SOL    HW122202   4.605   2.770   3.674  0.2435 -0.3321  0.1392
 3523SOL    HW222203   4.474   2.785   3.740 -1.0179  2.6180 -1.9324
 3524SOL     OW22204   4.613   3.030  10.897  0.0125 -0.7487  0.1797
 3524SOL    HW122205   4.634   2.978  10.819 -1.2891 -1.0000 -0.0112
 3524SOL    HW222206   4.606   2.962  10.963 -1.4577  0.0036  0.8067
 3525SOL     OW22207   2.984   4.088   4.697  0.2790  0.4110 -0.3793
 3525SOL    HW122208   2.897   4.098   4.734  0.9237  0.3388  1.1793
 3525SOL    HW222209   2.988   4.172   4.652  2.4111 -1.2785 -3.3725
 3526SOL     OW22210   0.119   4.533   5.820 -0.3862 -0.6292 -0.3923
 3526SOL    HW122211   0.172   4.589   5.764 -0.5855 -0.0270  0.0304
 3526SOL    HW222212   0.032   4.567   5.798  0.5275  0.7753 -1.8277
 3527SOL     OW22213   4.682   3.159   6.000 -0.5585 -0.2474  0.5138
 3527SOL    HW122214   0.007   3.115   6.057  0.3877 -1.9648 -1.8798
 3527SOL    HW222215   4.598   3.113   5.999 -0.2985 -0.7726  2.6420
 3528SOL     OW22216   0.648   3.205  15.982 -0.2984 -0.0920 -0.1206
 3528SOL    HW122217   0.639   3.177  16.073  0.1809  0.3746  0.0720
 3528SOL    HW222218   0.720   3.268  15.990 -0.0497 -0.2295 -1.2951
 3529SOL     OW22219   3.267   1.916  17.252  0.4970 -0.5993  0.4617
 3529SOL    HW122220   3.345   1.868  17.224  1.3971  0.2783  1.4836
 3529SOL    HW222221   3.218   1.849  17.299 -0.7683  0.9343  1.3042
 3530SOL     OW22222   0.279   1.862   8.674  0.2492 -0.3120 -0.6019
 3530SOL    HW122223   0.222   1.935   8.699  0.3616  0.0547 -1.4057
 3530SOL    HW222224   0.217   1.793   8.651 -2.0131  0.4878  3.0815
 3531SOL     OW22225   0.676   3.792  10.710 -0.2010  0.2694 -0.1600
 3531SOL    HW122226   0.742   3.745  10.657 -0.2264 -0.7377  0.6988
 3531SOL    HW222227   0.623   3.721  10.748 -0.3879 -0.5358 -1.8836
 3532SOL     OW22228   4.657   4.438   4.705  0.5864 -0.3538  0.1060
 3532SOL    HW122229   4.644   4.364   4.644  0.2972 -0.3512  0.1608
 3532SOL    HW222230   4.569   4.446   4.742 -0.8227 -1.9641 -2.8522
 3533SOL     OW22231   2.339   3.199   4.668 -1.0051 -0.2016 -0.1862
 3533SOL    HW122232   2.342   3.167   4.758 -0.5439 -1.9161 -0.8050
 3533SOL    HW222233   2.411   3.144   4.635 -0.2732 -0.0930  1.2103
 3534SOL     OW22234   1.423   4.057   4.683 -0.4532 -0.1439 -0.1094
 3534SOL    HW122235   1.364   4.080   4.611 -0.9509 -2.2712 -0.4069
 3534SOL    HW222236   1.437   3.962   4.675  2.3987  0.2547  0.2527
 3535SOL     OW22237   3.034   1.130  17.291  0.8602  0.5223 -0.5588
 3535SOL    HW122238   3.046   1.131  17.196  1.9926 -0.0266 -0.4214
 3535SOL    HW222239   3.011   1.038  17.305 -1.7161  1.0097 -1.6214
 3536SOL     OW22240   1.126   0.710   8.642  0.2765 -0.1274 -0.6179
 3536SOL    HW122241   1.178   0.642   8.684 -0.7025 -2.1087 -2.6286
 3536SOL    HW222242   1.156   0.709   8.551 -2.5004  0.7090 -1.5200
 3537SOL     OW22243   0.567   3.533   6.824 -0.3465 -0.3332  0.1871
 3537SOL    HW122244   0.616   3.560   6.746  1.4631 -0.1981  1.3960
 3537SOL    HW222245   0.568   3.620   6.865  1.1839 -0.8520  1.2292
 3538SOL     OW22246   0.270   0.271   9.698  0.2674  0.1285 -0.0081
 3538SOL    HW122247   0.216   0.196   9.724  0.5444  0.0681  0.3895
 3538SOL    HW222248   0.340   0.218   9.662 -0.8800 -0.6778 -1.0585
 3539SOL     OW22249   0.241   4.711   2.519  0.5476 -0.4982  0.2190
 3539SOL    HW122250   0.192   4.650   2.573 -0.1880  0.0816  0.1959
 3539SOL    HW222251   0.237   0.049   2.576  0.0573 -0.2985 -0.0810
 3540SOL     OW22252   1.463   1.829  17.596  0.0778  0.1188  0.5251
 3540SOL    HW122253   1.527   1.782  17.649 -1.3084 -3.8860 -1.3583
 3540SOL    HW222254   1.414   1.868  17.668 -0.7288 -0.3073  0.2136
 3541SOL     OW22255   0.889   2.149   4.694  0.5292 -0.1211  0.2535
 3541SOL    HW122256   0.948   2.079   4.666 -0.1800 -1.1160  1.2442
 3541SOL    HW222257   0.898   2.206   4.617  0.5836 -2.1511 -1.2416
 3542SOL     OW22258   3.445   1.222   2.950  0.2757 -0.0108 -0.1310
 3542SOL    HW122259   3.451   1.148   3.010  2.2157 -1.2577 -1.8454
 3542SOL    HW222260   3.365   1.207   2.901 -0.4287  2.5453  0.2237
 3543SOL     OW22261   2.628   3.878   1.381 -0.3917 -0.0762 -0.0138
 3543SOL    HW122262   2.642   3.819   1.307 -0.2591  0.2393 -0.2419
 3543SOL    HW222263   2.537   3.905   1.371 -0.7144 -0.6493  1.3699
 3544SOL     OW22264   1.779   2.436   8.851  0.3107  0.0728  0.0658
 3544SOL    HW122265   1.846   2.445   8.919  0.5883 -1.0773 -0.0460
 3544SOL    HW222266   1.696   2.451   8.894 -0.4313 -1.5567 -0.7951
 3545SOL     OW22267   4.721   3.856   9.347  0.0970  0.1361  0.4305
 3545SOL    HW122268   0.006   3.878   9.257  0.3356  3.2875  1.2316
 3545SOL    HW222269   4.638   3.903   9.358 -1.2291 -2.0580 -0.4517
 3546SOL     OW22270   0.270   3.706   9.018  0.0079  0.2230 -0.3627
 3546SOL    HW122271   0.278   3.613   8.996  0.1864  0.5980 -1.8504
 3546SOL    HW222272   0.315   3.706   9.103 -1.6534  2.5041  0.4798
 3547SOL     OW22273   3.945   2.740   7.479  0.1323 -0.0892 -0.3891
 3547SOL    HW122274   3.907   2.810   7.532  0.4370 -1.0155  1.0655
 3547SOL    HW222275   3.947   2.670   7.544 -1.8367  1.0679  0.9262
 3548SOL     OW22276   3.385   1.352   3.964  0.2696 -0.3802  0.1892
 3548SOL    HW122277   3.342   1.420   3.912 -1.8532 -0.5807  1.6914
 3548SOL    HW222278   3.316   1.313   4.018  0.7879  0.9310  1.8079
 3549SOL     OW22279   0.588   2.315   8.468  0.1926 -0.0326  0.6545
 3549SOL    HW122280   0.542   2.250   8.416  0.4040  1.0665 -0.8960
 3549SOL    HW222281   0.639   2.360   8.401  0.2404 -0.0111  0.7045
 3550SOL     OW22282   4.284   2.698   8.024 -0.1097  0.3512 -0.6150
 3550SOL    HW122283   4.284   2.606   8.049 -1.0844  0.9041  1.4883
 3550SOL    HW222284   4.378   2.719   8.029 -0.2697  1.1194 -0.8359
 3551SOL     OW22285   3.727   2.694   2.777  0.0948 -0.0912  0.5270
 3551SOL    HW122286   3.693   2.783   2.787  0.1531  0.0226 -0.2812
 3551SOL    HW222287   3.654   2.634   2.789 -0.6556  0.7133 -0.0090
 3552SOL     OW22288   4.670   1.416   3.367  0.7891  0.2681 -0.4420
 3552SOL    HW122289   4.646   1.509   3.375 -2.8327 -0.6116 -1.2360
 3552SOL    HW222290   4.623   1.390   3.288 -0.0991 -0.4238  0.3279
 3553SOL     OW22291   4.343   0.543   3.621  0.0966 -0.3147 -0.8429
 3553SOL    HW122292   4.263   0.596   3.625 -0.8507 -1.8631  0.5572
 3553SOL    HW222293   4.357   0.548   3.527  1.4630  0.4432 -0.5880
 3554SOL     OW22294   1.187   0.801   4.161  0.3622 -0.1720  0.3206
 3554SOL    HW122295   1.122   0.733   4.143  0.3732  0.0085 -0.3942
 3554SOL    HW222296   1.214   0.807   4.070  0.6254  1.3891  0.4991
 3555SOL     OW22297   2.720   0.951   5.640  0.2195  0.2437 -0.0610
 3555SOL    HW122298   2.625   0.958   5.643  0.3115  0.7596  1.5160
 3555SOL    HW222299   2.727   0.856   5.636 -2.4227 -0.0063  1.8931
 3556SOL     OW22300   3.547   0.922  16.148 -0.2274 -0.1773  0.3187
 3556SOL    HW122301   3.542   0.903  16.054 -0.3108  0.0471  0.2773
 3556SOL    HW222302   3.495   0.850  16.182  1.3125 -1.0702  0.7799
 3557SOL     OW22303   1.998   0.831   4.605  0.2313  0.2311 -0.2357
 3557SOL    HW122304   2.017   0.773   4.679 -1.4323 -1.7131 -1.3434
 3557SOL    HW222305   2.031   0.786   4.527 -2.7280 -0.3182 -1.1901
 3558SOL     OW22306   3.814   1.766  11.612 -0.1863  0.3779  0.3326
 3558SOL    HW122307   3.870   1.691  11.631 -1.2337 -0.7861 -1.1902
 3558SOL    HW222308   3.740   1.744  11.669 -1.6934 -1.0557 -2.1572
 3559SOL     OW22309   1.533   3.371  15.205 -0.1392 -0.4158  0.2882
 3559SOL    HW122310   1.574   3.284  15.205 -0.5431 -0.5865 -2.2092
 3559SOL    HW222311   1.595   3.435  15.239 -0.2046  0.9407 -2.1711
 3560SOL     OW22312   0.524   3.245  16.484 -0.2749 -0.1696  0.0321
 3560SOL    HW122313   0.549   3.169  16.536  0.0258 -0.7415 -0.9551
 3560SOL    HW222314   0.429   3.249  16.496 -0.3623  0.2359 -0.8100
 3561SOL     OW22315   3.720   3.251   5.465 -0.2746  0.3730 -1.2146
 3561SOL    HW122316   3.662   3.199   5.521 -0.0346  1.0355 -0.3625
 3561SOL    HW222317   3.720   3.340   5.499 -3.8347 -0.8108  1.8939
 3562SOL     OW22318   3.296   4.547  11.961 -0.6485 -0.0575  0.0835
 3562SOL    HW122319   3.284   4.642  11.971  1.5796 -0.0113  2.2935
 3562SOL    HW222320   3.304   4.543  11.865 -0.5703  0.5920  0.0595
 3563SOL     OW22321   3.179   2.274   9.055 -0.0949  0.6863 -0.4412
 3563SOL    HW122322   3.152   2.312   9.138  1.5254 -1.0414  0.8520
 3563SOL    HW222323   3.154   2.182   9.065  0.7461  0.6941  1.6194
 3564SOL     OW22324   1.063   1.207   8.858 -0.3597 -0.4543 -0.3884
 3564SOL    HW122325   0.976   1.213   8.899  0.4117  1.0736  1.0094
 3564SOL    HW222326   1.058   1.112   8.844  1.2312 -0.6525  0.4963
 3565SOL     OW22327   3.388   2.907  10.645  0.0752  0.4588  0.7557
 3565SOL    HW122328   3.399   2.994  10.682 -0.1202  1.2518 -1.0382
 3565SOL    HW222329   3.456   2.907  10.578  0.3856 -0.5002  1.0660
 3566SOL     OW22330   3.750   0.336   8.056  0.8550 -0.0066 -0.2419
 3566SOL    HW122331   3.828   0.307   8.009  1.4481 -1.2971  1.5397
 3566SOL    HW222332   3.778   0.426   8.067 -0.1337  0.1534  1.0762
 3567SOL     OW22333   3.131   1.667  15.286 -0.2754 -1.0212 -0.4864
 3567SOL    HW122334   3.177   1.601  15.234  2.9188  0.8146 -0.0546
 3567SOL    HW222335   3.131   1.612  15.364 -2.1380 -0.1782  0.0921
 3568SOL     OW22336   1.279   4.403   1.628 -0.0523  0.2454 -0.6643
 3568SOL    HW122337   1.190   4.390   1.662  1.1333  0.3242  2.4125
 3568SOL    HW222338   1.321   4.322   1.656 -0.1758  0.6170  0.5705
 3569SOL     OW22339   2.304   0.712  13.514 -0.2616 -0.1976  0.0549
 3569SOL    HW122340   2.305   0.705  13.418  1.0953 -0.6774  0.1073
 3569SOL    HW222341   2.363   0.640  13.535  1.2669  1.3317  0.9417
 3570SOL     OW22342   2.452   0.702  10.059  0.2244  0.0849  0.3083
 3570SOL    HW122343   2.454   0.646  10.136  2.1595 -0.4624 -0.1481
 3570SOL    HW222344   2.373   0.749  10.086 -0.1378  0.6257 -1.6812
 3571SOL     OW22345   1.606   4.054   7.658 -0.2104  0.8857 -0.2374
 3571SOL    HW122346   1.548   4.017   7.592  1.9747 -2.2072 -0.4263
 3571SOL    HW222347   1.688   4.056   7.608  0.1059  0.7492  0.2762
 3572SOL     OW22348   4.213   3.831   8.004  0.1865  0.3034 -0.2982
 3572SOL    HW122349   4.162   3.767   8.052  1.2235  0.3365  0.8615
 3572SOL    HW222350   4.201   3.918   8.043  0.5828  1.0182 -1.7661
 3573SOL     OW22351   1.636   0.921  16.405 -0.2331  0.2913  0.2895
 3573SOL    HW122352   1.561   0.968  16.368 -1.6427 -1.7557  0.5478
 3573SOL    HW222353   1.696   0.957  16.341 -0.4115  0.7026  0.3501
 3574SOL     OW22354   3.717   1.573   5.616  0.3731 -0.3602 -0.2066
 3574SOL    HW122355   3.672   1.640   5.565 -0.8359 -1.0074 -0.0117
 3574SOL    HW222356   3.655   1.558   5.687 -1.7578 -0.8496 -2.1581
 3575SOL     OW22357   2.652   1.311  10.936  0.0595 -0.1945 -0.2912
 3575SOL    HW122358   2.739   1.334  10.970 -0.5239 -0.1387  1.1846
 3575SOL    HW222359   2.595   1.388  10.944 -0.1192 -0.4979  1.4206
 3576SOL     OW22360   0.979   1.212   0.124 -0.4283  0.1974 -0.5787
 3576SOL    HW122361   1.010   1.269   0.194  2.0911 -0.7337 -0.9312
 3576SOL    HW222362   0.969   1.265   0.045 -0.6208  0.9465 -0.0497
 3577SOL     OW22363   0.745   2.001   8.099  0.3784 -0.0133 -0.2304
 3577SOL    HW122364   0.786   2.077   8.057  1.2575 -0.4186 -0.1095
 3577SOL    HW222365   0.710   2.037   8.180  1.2990  1.2866 -0.4094
 3578SOL     OW22366   3.498   0.240   3.084  0.1672  0.1476  0.3617
 3578SOL    HW122367   3.424   0.179   3.085 -0.2025  0.5747 -0.3823
 3578SOL    HW222368   3.544   0.203   3.009  1.2994 -1.6265  1.9373
 3579SOL     OW22369   3.290   3.467   3.000  0.1274 -0.6221  0.0973
 3579SOL    HW122370   3.216   3.527   3.009  0.5299 -0.2692  1.1326
 3579SOL    HW222371   3.274   3.413   3.078  3.8557 -1.5218  0.2424
 3580SOL     OW22372   1.099   2.549  17.086 -0.8423  0.2865 -0.4503
 3580SOL    HW122373   1.070   2.461  17.064  0.0909 -0.5610  1.7642
 3580SOL    HW222374   1.114   2.596  17.004 -0.4438  1.1342  0.1085
 3581SOL     OW22375   1.357   2.336   3.343  0.0959 -0.0825  0.5605
 3581SOL    HW122376   1.440   2.351   3.389  0.4704 -1.1455  0.2267
 3581SOL    HW222377   1.296   2.351   3.415  0.3660 -1.3653  1.0594
 3582SOL     OW22378   4.349   0.953   8.070  0.3823  0.1056  0.2846
 3582SOL    HW122379   4.388   0.867   8.083 -0.2486  0.1524  2.5475
 3582SOL    HW222380   4.257   0.928   8.055  0.0349  1.4722  0.1797
 3583SOL     OW22381   4.037   1.283   8.852  0.1456 -0.1001 -0.5517
 3583SOL    HW122382   4.109   1.277   8.915  1.4332 -0.4967 -2.0737
 3583SOL    HW222383   4.067   1.358   8.799 -0.2221 -2.0973 -3.5537
 3584SOL     OW22384   4.139   2.977  13.105 -0.0494 -0.3165 -0.5213
 3584SOL    HW122385   4.079   3.008  13.037 -0.5611 -0.0194  0.0597
 3584SOL    HW222386   4.168   2.903  13.053 -0.4829 -0.8597  0.0105
 3585SOL     OW22387   2.207   1.888   8.781 -0.5118  0.2049  0.1625
 3585SOL    HW122388   2.224   1.982   8.790  1.1922 -0.1996  1.0609
 3585SOL    HW222389   2.272   1.858   8.717 -1.2023 -1.9088  0.4449
 3586SOL     OW22390   1.120   1.373  10.183  0.0715 -0.3646 -0.2219
 3586SOL    HW122391   1.110   1.463  10.213 -0.9780 -0.5227 -0.0889
 3586SOL    HW222392   1.037   1.344  10.145  0.8763 -0.9223 -1.5503
 3587SOL     OW22393   3.138   3.766  10.182 -0.0068 -0.0694  0.1366
 3587SOL    HW122394   3.182   3.842  10.144  0.9943 -0.5419  0.3649
 3587SOL    HW222395   3.178   3.759  10.268  0.4998  2.1102  0.0888
 3588SOL     OW22396   1.485   2.366  13.081  0.6536 -0.1019  0.4285
 3588SOL    HW122397   1.508   2.338  13.170  0.6365 -0.0511  0.4491
 3588SOL    HW222398   1.560   2.423  13.065  1.3649 -0.8476  1.0975
 3589SOL     OW22399   4.195   4.480   1.753 -0.5274  0.0717  0.2512
 3589SOL    HW122400   4.242   4.483   1.837  1.1371 -1.7092 -0.6032
 3589SOL    HW222401   4.107   4.478   1.789 -1.2645  1.0967 -1.5195
 3590SOL     OW22402   4.005   0.865  16.702 -0.1891 -0.7726 -0.0929
 3590SOL    HW122403   4.009   0.885  16.795  0.6769 -1.8425  0.0916
 3590SOL    HW222404   4.051   0.937  16.660 -1.7159 -0.4555 -1.2463
 3591SOL     OW22405   1.818   0.027   5.381  0.0778  0.0611  0.4521
 3591SOL    HW122406   1.876   0.033   5.306  0.1496  0.3660  0.5299
 3591SOL    HW222407   1.881   0.056   5.448 -0.0197 -0.3228  0.7114
 3592SOL     OW22408   3.324   4.302   1.811  0.5419 -0.7567  0.1686
 3592SOL    HW122409   3.279   4.371   1.860 -1.5312  0.2401 -3.1517
 3592SOL    HW222410   3.389   4.267   1.872 -0.5326  0.4609  1.9881
 3593SOL     OW22411   3.393   1.851   3.864  0.0280  0.1958 -0.1964
 3593SOL    HW122412   3.389   1.907   3.941 -0.7283 -0.2812  0.1130
 3593SOL    HW222413   3.447   1.779   3.897  2.6236  2.4031  0.3649
 3594SOL     OW22414   3.430   2.211  17.020  0.2203 -0.9977  0.3070
 3594SOL    HW122415   3.474   2.126  17.016 -0.1379 -1.1479 -0.3302
 3594SOL    HW222416   3.422   2.220  16.925 -1.8875  0.7157  0.6500
 3595SOL     OW22417   1.631   4.299  14.911  0.3345 -0.0405  0.1374
 3595SOL    HW122418   1.715   4.339  14.936  0.1871 -1.0182  2.2273
 3595SOL    HW222419   1.575   4.372  14.887 -0.2611 -1.4033 -2.5694
 3596SOL     OW22420   2.351   0.718   1.474 -0.2505  0.2396 -0.1697
 3596SOL    HW122421   2.430   0.730   1.422  0.6760  0.5031  1.2994
 3596SOL    HW222422   2.287   0.713   1.403 -0.0267  2.8585 -0.5780
 3597SOL     OW22423   4.415   4.571  12.106 -0.7039  0.2187  0.2093
 3597SOL    HW122424   4.462   4.501  12.150 -0.6274  0.2732  0.2146
 3597SOL    HW222425   4.351   4.590  12.175  0.2882 -0.1202  1.2216
 3598SOL     OW22426   2.002   1.810  17.694 -0.2105  0.2691 -0.6089
 3598SOL    HW122427   2.013   1.723  17.657  1.6942  0.7085 -1.0737
 3598SOL    HW222428   2.021   1.867  17.619 -1.5949 -1.5018 -2.3066
 3599SOL     OW22429   4.544   0.693   4.575  0.3016 -0.1377 -0.0337
 3599SOL    HW122430   4.494   0.641   4.512  0.1966 -3.0665  2.4706
 3599SOL    HW222431   4.576   0.618   4.626  1.1340 -0.1565 -0.5923
 3600SOL     OW22432   4.392   2.569  13.326  0.3244  0.2001 -0.3369
 3600SOL    HW122433   4.384   2.563  13.421 -0.7770 -0.8356 -0.4915
 3600SOL    HW222434   4.470   2.623  13.310  1.0026 -1.1937 -1.8040
 3601SOL     OW22435   0.833   1.039   7.018 -0.8868  0.5083  0.0276
 3601SOL    HW122436   0.920   1.022   7.054  0.1759  0.4077 -2.5831
 3601SOL    HW222437   0.847   1.060   6.926 -2.7632  0.8646 -0.1874
 3602SOL     OW22438   2.834   0.718   8.248  0.7316  0.3242 -0.1254
 3602SOL    HW122439   2.792   0.677   8.324 -1.2908 -0.0434 -1.4549
 3602SOL    HW222440   2.757   0.745   8.198  1.4046  1.6896 -0.4150
 3603SOL     OW22441   2.891   1.100   9.745  0.2475  0.6704  0.5791
 3603SOL    HW122442   2.942   1.019   9.739 -2.2620 -0.7455 -1.9507
 3603SOL    HW222443   2.867   1.107   9.837 -2.5498 -1.5454  0.0248
 3604SOL     OW22444   0.799   4.295   1.615  0.0213 -0.2897  0.0533
 3604SOL    HW122445   0.753   4.227   1.665 -1.9374  0.5434 -0.6294
 3604SOL    HW222446   0.887   4.300   1.654  0.0354  0.5421 -0.0978
 3605SOL     OW22447   2.949   0.723   9.443  0.3656 -0.2105 -0.9950
 3605SOL    HW122448   3.033   0.738   9.487 -2.6080  3.1679  3.5203
 3605SOL    HW222449   2.909   0.810   9.448 -1.0065 -0.8427 -1.0069
 3606SOL     OW22450   1.081   0.760   0.599  0.5292 -0.2570  0.5179
 3606SOL    HW122451   1.016   0.824   0.569  1.8787  0.4217 -0.9498
 3606SOL    HW222452   1.027   0.704   0.656 -2.5229 -0.6095 -2.7202
 3607SOL     OW22453   0.579   0.540   6.719  1.2073  0.0933  0.5723
 3607SOL    HW122454   0.658   0.591   6.738  1.8696 -1.0129  0.8057
 3607SOL    HW222455   0.560   0.564   6.628  1.8197 -0.0999  0.3894
 3608SOL     OW22456   3.010   3.457   4.317 -0.5958 -0.3420 -0.1974
 3608SOL    HW122457   2.997   3.362   4.321 -2.6502  0.0242  1.3881
 3608SOL    HW222458   2.957   3.488   4.390 -3.1089 -0.1755 -2.0748
 3609SOL     OW22459   2.681   3.513   6.164  0.0743  0.1262 -0.1418
 3609SOL    HW122460   2.677   3.597   6.118  0.3729  0.8176  1.0727
 3609SOL    HW222461   2.749   3.467   6.114 -0.9479 -1.3029 -0.2085
 3610SOL     OW22462   1.322   0.625  11.591  0.2724 -0.7978 -0.4522
 3610SOL    HW122463   1.318   0.720  11.577 -2.0145 -0.8034  0.0789
 3610SOL    HW222464   1.237   0.596  11.558  0.5868 -0.3886 -1.6309
 3611SOL     OW22465   3.277   4.274   4.966 -0.0251 -0.3309  0.7109
 3611SOL    HW122466   3.319   4.197   5.003 -0.5223 -1.1024 -0.3374
 3611SOL    HW222467   3.325   4.337   5.019  0.9977 -0.2650 -0.2978
 3612SOL     OW22468   1.831   0.585  14.475 -0.1073  0.0975  0.1618
 3612SOL    HW122469   1.750   0.534  14.469  0.9137 -1.2390 -2.3720
 3612SOL    HW222470   1.874   0.556  14.555 -1.9916 -1.6494  0.5130
 3613SOL     OW22471   1.146   4.662   0.099  0.3099 -0.3868  0.5973
 3613SOL    HW122472   1.144   4.579   0.051 -0.6596 -1.4189  2.4094
 3613SOL    HW222473   1.235   4.688   0.078  0.7770  0.2468  3.3626
 3614SOL     OW22474   4.067   1.776   8.565 -0.1887  0.7864 -0.7037
 3614SOL    HW122475   4.024   1.858   8.541  0.4191  1.6165  1.0936
 3614SOL    HW222476   4.124   1.755   8.490  0.3237 -2.0740  0.4730
 3615SOL     OW22477   1.642   2.202  11.481 -0.2753 -0.0482  0.1162
 3615SOL    HW122478   1.644   2.153  11.564  0.6688 -1.3838 -0.6859
 3615SOL    HW222479   1.684   2.137  11.425 -0.3242 -1.3326  1.5656
 3616SOL     OW22480   4.219   2.544   3.681 -0.6369 -0.2647 -0.2457
 3616SOL    HW122481   4.266   2.624   3.706  0.0642 -1.4769  2.3061
 3616SOL    HW222482   4.188   2.516   3.767  1.6751 -3.2785 -0.4087
 3617SOL     OW22483   0.095   1.060   5.952 -0.5164 -0.2332  0.3449
 3617SOL    HW122484   0.003   1.058   5.926 -0.2709  2.5160 -0.7446
 3617SOL    HW222485   0.089   1.064   6.047  0.3799 -0.1804  0.3999
 3618SOL     OW22486   3.148   3.840  10.455 -0.4951 -0.4690  0.3962
 3618SOL    HW122487   3.064   3.878  10.427 -0.4366 -0.2976  0.4513
 3618SOL    HW222488   3.132   3.746  10.456 -3.2718  0.0125  0.2829
 3619SOL     OW22489   1.669   0.582  13.227 -0.2517  0.0698  0.1300
 3619SOL    HW122490   1.604   0.622  13.285  0.5711 -1.8641  2.3953
 3619SOL    HW222491   1.653   0.617  13.140  1.4438 -0.7634 -0.5085
 3620SOL     OW22492   2.052   3.407   2.683  0.0045  0.4272 -0.1533
 3620SOL    HW122493   2.011   3.427   2.599 -0.7266 -0.8062 -0.0968
 3620SOL    HW222494   2.136   3.365   2.666 -0.0731 -0.2917  1.1507
 3621SOL     OW22495   2.218   2.825   0.475  0.0603  0.4686  0.9922
 3621SOL    HW122496   2.142   2.772   0.452 -0.3851  1.8184 -0.6447
 3621SOL    HW222497   2.177   2.900   0.518 -0.8794 -0.1602  1.1873
 3622SOL     OW22498   3.932   0.266   7.864 -0.0864 -0.4755  0.1798
 3622SOL    HW122499   3.952   0.179   7.900 -1.8200 -0.7060  0.5537
 3622SOL    HW222500   3.956   0.245   7.774 -1.0209  1.3272 -0.4963
 3623SOL     OW22501   2.951   1.321   5.834  0.2511  0.0966 -0.0996
 3623SOL    HW122502   3.022   1.284   5.885  0.5308 -0.7580 -1.0981
 3623SOL    HW222503   2.924   1.245   5.782 -1.0890  0.1827  0.4652
 3624SOL     OW22504   3.134   2.474  15.012  0.0146 -0.9251  0.2502
 3624SOL    HW122505   3.210   2.515  14.971  0.1000 -0.4755  0.8457
 3624SOL    HW222506   3.173   2.420  15.081 -0.2985 -0.9009  0.4493
 3625SOL     OW22507   4.018   2.258   7.740 -0.2095  0.3226 -0.0018
 3625SOL    HW122508   4.090   2.296   7.790 -1.6824 -0.8479  3.0309
 3625SOL    HW222509   3.963   2.224   7.810 -0.0834  1.1615  0.4967
 3626SOL     OW22510   0.094   4.269  10.671  0.2685 -0.3455  0.2730
 3626SOL    HW122511   0.170   4.210  10.670  0.6726  0.1553  2.3293
 3626SOL    HW222512   0.124   4.329  10.739 -0.9430  0.1036  0.4100
 3627SOL     OW22513   2.295   3.136  10.979 -0.3541  0.0483 -0.2203
 3627SOL    HW122514   2.365   3.186  10.935 -0.3658  0.5153  0.2829
 3627SOL    HW222515   2.351   3.101  11.048 -1.2022 -0.8659  0.0043
 3628SOL     OW22516   1.753   4.250  10.314 -0.3705 -0.8414 -0.0523
 3628SOL    HW122517   1.701   4.324  10.345  0.1724  0.2569 -1.8033
 3628SOL    HW222518   1.703   4.176  10.349 -0.7396  0.5592  2.3674
 3629SOL     OW22519   0.913   4.420   9.127  0.6870  0.1883 -0.2279
 3629SOL    HW122520   1.001   4.457   9.130  1.7700 -2.2563 -2.3833
 3629SOL    HW222521   0.859   4.498   9.111  3.2164  1.9517 -0.0575
 3630SOL     OW22522   4.153   1.423  11.067 -0.2516  0.2026  0.6384
 3630SOL    HW122523   4.083   1.419  11.132 -0.3508 -0.1954  0.5104
 3630SOL    HW222524   4.196   1.338  11.081 -2.9562 -1.6080 -1.8587
 3631SOL     OW22525   0.808   2.659   5.602 -0.1054  0.2444 -0.0011
 3631SOL    HW122526   0.793   2.580   5.550  1.3614  2.2516 -3.5245
 3631SOL    HW222527   0.904   2.658   5.604 -0.1066 -1.2100 -0.3974
 3632SOL     OW22528   3.035   4.533  10.928 -0.2791 -0.3601 -0.4235
 3632SOL    HW122529   3.109   4.516  10.870  1.3102 -2.1841  2.1130
 3632SOL    HW222530   3.068   4.613  10.970 -1.3400  0.3723 -0.9951
 3633SOL     OW22531   3.909   1.261   2.969 -0.0430 -0.1675  0.3973
 3633SOL    HW122532   3.842   1.302   2.915 -0.3508 -0.4650  0.5525
 3633SOL    HW222533   3.954   1.340   3.000 -1.0632  1.1895 -1.6280
 3634SOL     OW22534   1.433   0.450  15.493 -0.0977  0.2018  0.1311
 3634SOL    HW122535   1.362   0.456  15.556  1.3363 -1.7591  1.8991
 3634SOL    HW222536   1.395   0.481  15.411 -1.3534  0.2387  0.7395
 3635SOL     OW22537   0.657   0.829   8.272 -0.5763 -0.1522  0.3368
 3635SOL    HW122538   0.659   0.924   8.260 -2.1454 -0.3163 -1.2516
 3635SOL    HW222539   0.582   0.806   8.216 -0.3681  1.9117 -0.7854
 3636SOL     OW22540   2.167   2.119   9.203 -0.5266 -0.0074  0.2684
 3636SOL    HW122541   2.158   2.171   9.282 -0.6121 -0.4848  0.5769
 3636SOL    HW222542   2.094   2.158   9.155  0.5353  1.6242  0.0017
 3637SOL     OW22543   3.404   1.789  10.110 -0.6564  0.4767  0.5535
 3637SOL    HW122544   3.405   1.695  10.128  0.7543  0.5355  0.7268
 3637SOL    HW222545   3.481   1.795  10.054 -1.8881 -1.5028 -1.3783
 3638SOL     OW22546   4.534   2.734   4.633 -0.6375 -0.0134 -0.4359
 3638SOL    HW122547   4.514   2.825   4.613 -1.2148  0.1508  0.8737
 3638SOL    HW222548   4.619   2.729   4.589 -0.1964  0.6513  0.3514
 3639SOL     OW22549   2.226   0.323  13.541  0.6323 -0.0789  0.1055
 3639SOL    HW122550   2.217   0.240  13.494  0.9474 -0.5769  0.9135
 3639SOL    HW222551   2.151   0.321  13.601  0.8943  0.8317  0.4611
 3640SOL     OW22552   2.743   1.755   1.890  0.2727  0.6512 -1.0000
 3640SOL    HW122553   2.827   1.729   1.853  0.5982  0.1390  0.0902
 3640SOL    HW222554   2.732   1.837   1.842  1.9205  1.2347 -0.3734
 3641SOL     OW22555   3.385   2.978  11.071 -0.1508  0.2346 -0.5384
 3641SOL    HW122556   3.329   3.053  11.092 -1.2025 -0.1752 -1.8877
 3641SOL    HW222557   3.463   3.013  11.029  0.1450 -1.6991 -1.5892
 3642SOL     OW22558   1.151   3.385   2.680 -0.6578  0.1286 -0.2609
 3642SOL    HW122559   1.233   3.354   2.640 -0.4622 -1.1117  1.0827
 3642SOL    HW222560   1.092   3.317   2.646 -1.4596  1.1342 -0.8783
 3643SOL     OW22561   1.609   0.515   4.777 -0.1448  0.6745 -0.2843
 3643SOL    HW122562   1.563   0.480   4.853 -0.8615  0.3099 -0.8808
 3643SOL    HW222563   1.700   0.493   4.797  0.3567  1.2083 -1.9486
 3644SOL     OW22564   3.237   4.645   4.399  0.0496  0.7088 -0.0652
 3644SOL    HW122565   3.269   4.562   4.362  1.4223  1.4076 -0.4302
 3644SOL    HW222566   3.165   4.621   4.457  0.9845 -1.4156  0.2248
 3645SOL     OW22567   1.892   1.799  13.144 -0.4099 -0.4108 -0.2605
 3645SOL    HW122568   1.918   1.789  13.236  1.0709 -1.2082 -0.7685
 3645SOL    HW222569   1.859   1.889  13.143  1.5359  0.2818 -1.4584
 3646SOL     OW22570   0.592   0.223   4.362  0.1489  0.3462  0.1871
 3646SOL    HW122571   0.559   0.301   4.317  0.9801  0.5228 -0.1219
 3646SOL    HW222572   0.664   0.195   4.305  0.8412  0.4905  0.9894
 3647SOL     OW22573   0.065   4.553  11.647 -0.5082  0.7826  0.5418
 3647SOL    HW122574   4.731   4.491  11.661  0.1662 -0.4814 -1.5351
 3647SOL    HW222575   0.124   4.485  11.613 -2.2314 -0.9620  1.0142
 3648SOL     OW22576   4.668   0.435   5.348 -0.0803  0.3907  0.1367
 3648SOL    HW122577   4.681   0.478   5.264  0.0780 -0.4281 -0.2547
 3648SOL    HW222578   4.738   0.485   5.391 -2.2333  2.3597  1.3733
 3649SOL     OW22579   3.793   2.816   6.175  0.2534 -0.0493  0.5332
 3649SOL    HW122580   3.737   2.891   6.194  0.4021 -0.3955  2.3540
 3649SOL    HW222581   3.777   2.813   6.080 -0.2691  1.1343  0.5846
 3650SOL     OW22582   0.538   0.102  15.837  0.0754 -0.0162  0.3473
 3650SOL    HW122583   0.457   0.153  15.830  0.7106  0.7379 -1.6105
 3650SOL    HW222584   0.575   0.123  15.922  0.2492 -0.6934  0.4377
 3651SOL     OW22585   4.562   2.462   2.899 -0.2100 -0.2413  0.1289
 3651SOL    HW122586   4.553   2.480   2.806 -0.0542 -0.4588  0.0727
 3651SOL    HW222587   4.562   2.550   2.937  3.4404  0.2276 -1.0172
 3652SOL     OW22588   4.650   1.719   7.056 -0.4362  0.7061  0.2690
 3652SOL    HW122589   4.728   1.763   7.091 -0.5060  2.3568 -1.6693
 3652SOL    HW222590   4.653   1.729   6.961  0.3262 -0.3251  0.1807
 3653SOL     OW22591   0.701   1.497   8.052 -0.2363 -0.1489  0.2388
 3653SOL    HW122592   0.678   1.572   7.998 -1.4660  0.2596  1.3175
 3653SOL    HW222593   0.612   1.486   8.087 -0.6183  0.3094 -0.5986
 3654SOL     OW22594   3.022   2.926   6.235 -0.0615  0.0913  0.0571
 3654SOL    HW122595   3.028   2.978   6.154 -0.4473 -0.4241 -0.3051
 3654SOL    HW222596   2.945   2.878   6.204 -0.9824  1.9019 -0.4393
 3655SOL     OW22597   1.592   3.797  10.158  0.0442  0.0145  0.6049
 3655SOL    HW122598   1.506   3.836  10.139  0.3413 -0.1722 -1.1165
 3655SOL    HW222599   1.638   3.833  10.082 -0.0085  0.0626  0.5956
 3656SOL     OW22600   2.019   4.173  11.856 -0.0105 -0.0487 -0.0224
 3656SOL    HW122601   1.928   4.161  11.884 -0.7167  1.2189 -1.7311
 3656SOL    HW222602   2.035   4.094  11.805 -0.2786 -0.9292  1.2522
 3657SOL     OW22603   3.386   3.840   8.944  0.0160  0.0784  0.6484
 3657SOL    HW122604   3.330   3.763   8.949 -0.7823  0.4262 -2.7658
 3657SOL    HW222605   3.425   3.814   8.861  0.6859  0.9758  0.6761
 3658SOL     OW22606   3.959   2.131   1.985  0.0644  0.0718 -0.0969
 3658SOL    HW122607   3.926   2.220   1.985 -1.7335 -0.5935  0.5376
 3658SOL    HW222608   3.899   2.086   1.926 -0.3544 -1.5867  1.5747
 3659SOL     OW22609   0.372   1.342   8.947 -0.0321  0.0509  0.4525
 3659SOL    HW122610   0.322   1.261   8.958  1.0412 -0.3831  2.2906
 3659SOL    HW222611   0.402   1.331   8.857 -1.6435 -0.7187  0.0028
 3660SOL     OW22612   0.521   4.092  17.576  0.5488  0.1908 -0.3730
 3660SOL    HW122613   0.534   4.176  17.620  1.0597 -0.5442  0.8820
 3660SOL    HW222614   0.446   4.110  17.520 -0.0813  0.5288  0.5749
 3661SOL     OW22615   4.484   0.853   6.046 -0.1845 -0.0296 -0.4442
 3661SOL    HW122616   4.498   0.932   5.995 -0.4836 -1.2781 -2.4923
 3661SOL    HW222617   4.497   0.896   6.130  1.2168 -0.5050 -0.4279
 3662SOL     OW22618   4.704   2.126   6.134 -0.0846 -0.7160  0.4009
 3662SOL    HW122619   4.730   2.034   6.143  2.9030  0.0379 -0.4617
 3662SOL    HW222620   4.638   2.120   6.065  0.2199 -0.5741  0.0940
 3663SOL     OW22621   4.102   4.162   3.996 -0.0441 -0.3424 -0.3166
 3663SOL    HW122622   4.102   4.248   3.953  0.4018  0.6688  1.7187
 3663SOL    HW222623   4.092   4.185   4.088  0.4915 -2.2704  0.2135
 3664SOL     OW22624   0.367   1.813   9.379  0.7994  0.8878 -0.2457
 3664SOL    HW122625   0.420   1.889   9.355  2.3671  0.5530  2.1444
 3664SOL    HW222626   0.284   1.861   9.386 -0.5783 -1.4038 -1.0514
 3665SOL     OW22627   0.678   4.134   4.528 -0.2531  0.6075  0.0367
 3665SOL    HW122628   0.636   4.201   4.474 -1.4196  0.6025  0.9470
 3665SOL    HW222629   0.606   4.081   4.561  0.4901 -0.0525  0.6180
 3666SOL     OW22630   1.490   1.306   7.314 -0.3822 -0.3895 -0.0971
 3666SOL    HW122631   1.426   1.369   7.348  0.4219  1.1476 -1.4487
 3666SOL    HW222632   1.488   1.233   7.376 -0.9112  1.8117  2.5258
 3667SOL     OW22633   2.318   0.225  12.273 -0.1465  0.1025 -0.2749
 3667SOL    HW122634   2.256   0.156  12.250 -0.7764  1.3760 -2.4020
 3667SOL    HW222635   2.395   0.176  12.244 -0.5044  0.3824 -1.6975
 3668SOL     OW22636   2.702   4.057  15.158  0.1932  0.8541  0.6030
 3668SOL    HW122637   2.616   4.094  15.135  0.5147  0.3078 -1.5225
 3668SOL    HW222638   2.676   4.016  15.240  1.8308 -0.8239  0.2763
 3669SOL     OW22639   2.234   2.293   8.306  0.0027  0.0000 -0.4040
 3669SOL    HW122640   2.155   2.340   8.334  1.1461  0.1522  2.5867
 3669SOL    HW222641   2.232   2.284   8.211 -1.0289 -1.5819 -0.2460
 3670SOL     OW22642   0.627   4.125   1.810  0.4945  0.4351  0.1861
 3670SOL    HW122643   0.628   4.215   1.843 -1.2602  0.2696  0.6533
 3670SOL    HW222644   0.678   4.080   1.878  0.3912  2.0115  1.2945
 3671SOL     OW22645   2.965   2.558   1.369  0.2906 -0.2321  0.1716
 3671SOL    HW122646   3.003   2.604   1.294 -1.7407  0.9488 -0.1310
 3671SOL    HW222647   2.908   2.498   1.321 -2.6926  0.3749  2.9686
 3672SOL     OW22648   2.319   0.142   4.869  0.0947  0.3547  0.5533
 3672SOL    HW122649   2.318   0.112   4.960  0.6787  0.6505  0.6567
 3672SOL    HW222650   2.295   0.066   4.816 -1.0647  0.8242  0.4036
 3673SOL     OW22651   0.532   1.528  10.310 -0.1749  0.6011 -0.2721
 3673SOL    HW122652   0.449   1.542  10.355  0.4170  1.4598  0.5258
 3673SOL    HW222653   0.522   1.585  10.234 -0.7495  0.0076 -0.6499
 3674SOL     OW22654   0.745   2.505   2.021  0.3581  0.1981  0.1473
 3674SOL    HW122655   0.832   2.499   2.060  0.2478  0.7102  0.4785
 3674SOL    HW222656   0.744   2.431   1.960 -3.2171 -0.8298  1.4441
 3675SOL     OW22657   2.273   4.637  11.196  0.3840 -0.0321  0.0639
 3675SOL    HW122658   2.208   4.567  11.201  1.2236 -0.7298  1.0288
 3675SOL    HW222659   2.239   4.699  11.261  1.3510  0.8683 -0.2782
 3676SOL     OW22660   2.112   4.102  14.810  0.1518 -0.0150  0.3391
 3676SOL    HW122661   2.184   4.040  14.809  0.6130  0.5322 -0.5694
 3676SOL    HW222662   2.040   4.040  14.801  1.3714 -1.5490  1.2124
 3677SOL     OW22663   1.875   3.880   4.887 -0.2331 -0.2414 -0.2836
 3677SOL    HW122664   1.956   3.859   4.842 -1.0425 -2.2581 -0.8263
 3677SOL    HW222665   1.824   3.894   4.808  1.5954 -3.4057 -2.0352
 3678SOL     OW22666   0.170   4.120  17.080  0.0026  0.3311  0.9351
 3678SOL    HW122667   0.214   4.072  17.151  1.7426  1.2706  0.4842
 3678SOL    HW222668   0.123   4.193  17.118  1.2209  0.1430  2.8104
 3679SOL     OW22669   2.925   2.770   1.564  0.3174  0.3483  0.2805
 3679SOL    HW122670   2.962   2.694   1.519 -1.0264  0.9225 -1.7974
 3679SOL    HW222671   2.949   2.738   1.651  1.2719 -0.7504 -0.3862
 3680SOL     OW22672   1.852   3.704   2.561  0.7419 -0.1689  0.1594
 3680SOL    HW122673   1.817   3.686   2.648  1.1196 -1.2121  0.0963
 3680SOL    HW222674   1.891   3.627   2.521  0.7982  0.6236 -1.2907
 3681SOL     OW22675   2.185   1.845  10.288 -0.6600  0.2315  0.4235
 3681SOL    HW122676   2.246   1.784  10.247 -1.7022 -1.4678  1.4365
 3681SOL    HW222677   2.110   1.786  10.300  0.3667 -0.8597  1.4228
 3682SOL     OW22678   0.631   3.660   4.335 -0.0903  0.2530 -0.2381
 3682SOL    HW122679   0.662   3.616   4.414  0.3290 -0.2441 -0.6725
 3682SOL    HW222680   0.681   3.601   4.279  0.4743 -0.1964  0.7411
 3683SOL     OW22681   1.479   3.053  10.046 -0.4544  0.6458  0.4542
 3683SOL    HW122682   1.390   3.069  10.079 -0.3275  1.6182  0.3385
 3683SOL    HW222683   1.535   3.086  10.117  1.1665  1.3365 -1.1353
 3684SOL     OW22684   3.745   3.825   9.114 -0.0185 -0.3643  0.2825
 3684SOL    HW122685   3.827   3.831   9.164 -0.4181 -0.6768  0.9854
 3684SOL    HW222686   3.766   3.881   9.039  1.8398  0.7550  1.6047
 3685SOL     OW22687   1.078   0.214   2.272  0.6531 -0.1100 -0.0041
 3685SOL    HW122688   1.006   0.266   2.237  0.2734 -1.0031 -0.5443
 3685SOL    HW222689   1.034   0.181   2.351  2.7769 -1.7135  0.4937
 3686SOL     OW22690   4.508   1.774   9.099 -0.2251  0.0086 -0.1053
 3686SOL    HW122691   4.489   1.733   9.015  0.3050 -1.3021  0.4026
 3686SOL    HW222692   4.437   1.838   9.106 -0.9107 -0.8217  0.4752
 3687SOL     OW22693   2.640   4.488   6.183  0.6966 -0.0132  0.9901
 3687SOL    HW122694   2.716   4.496   6.240  1.3804  1.1543 -0.0910
 3687SOL    HW222695   2.646   4.566   6.128 -1.4454  0.1823  1.0265
 3688SOL     OW22696   1.561   2.505   4.210  0.0281  0.0949 -0.4615
 3688SOL    HW122697   1.589   2.531   4.297 -1.5952  1.0560 -0.2324
 3688SOL    HW222698   1.552   2.589   4.165  0.6591 -0.4983 -1.7215
 3689SOL     OW22699   4.403   2.504  13.624 -0.5210 -0.2606  0.2570
 3689SOL    HW122700   4.346   2.562  13.673  1.8716  0.7861  1.7902
 3689SOL    HW222701   4.487   2.528  13.663 -1.5913  1.4933  1.4200
 3690SOL     OW22702   2.467   1.134   8.620  0.0557 -0.3766 -0.0952
 3690SOL    HW122703   2.527   1.062   8.596 -0.1793  0.4939 -3.3824
 3690SOL    HW222704   2.426   1.149   8.534  3.2724  0.7020 -1.4545
 3691SOL     OW22705   4.112   2.827   8.175 -0.1673 -0.2461  0.1155
 3691SOL    HW122706   4.154   2.766   8.115 -1.2661 -2.8742  2.0133
 3691SOL    HW222707   4.049   2.773   8.223 -1.2758 -0.5306 -1.6787
 3692SOL     OW22708   0.768   0.751   6.805  0.2584 -0.0628 -0.0432
 3692SOL    HW122709   0.699   0.762   6.871  0.1158  1.3802 -0.4532
 3692SOL    HW222710   0.848   0.773   6.853  0.7389  0.7642 -1.2497
 3693SOL     OW22711   0.091   4.003   9.693 -0.1167  0.3208 -0.4257
 3693SOL    HW122712   0.155   4.050   9.747  1.3366  0.2278 -2.0704
 3693SOL    HW222713   0.045   4.073   9.647 -0.1345 -0.5314 -1.6828
 3694SOL     OW22714   3.670   1.319   6.747 -0.5992 -0.7146 -0.5393
 3694SOL    HW122715   3.745   1.273   6.785 -0.1228  0.5530  0.0500
 3694SOL    HW222716   3.710   1.405   6.737 -0.9149 -0.4660  0.3202
 3695SOL     OW22717   1.385   2.307  12.055 -0.5234  0.1313 -0.2463
 3695SOL    HW122718   1.344   2.374  12.109 -0.3922 -3.4812  4.3667
 3695SOL    HW222719   1.396   2.359  11.976  0.4151 -0.0696 -0.2554
 3696SOL     OW22720   2.221   4.184   8.009  0.5079  0.2374 -0.1790
 3696SOL    HW122721   2.141   4.138   8.036 -0.3282  0.8771 -1.5417
 3696SOL    HW222722   2.274   4.109   7.981 -2.3274 -2.4408  1.5684
 3697SOL     OW22723   2.049   1.478   0.650 -0.1662  0.1272  0.0841
 3697SOL    HW122724   2.067   1.528   0.729 -0.9131  2.9133 -1.4848
 3697SOL    HW222725   1.987   1.531   0.600  0.5421  0.7087 -0.1815
 3698SOL     OW22726   3.722   3.358   2.692  0.5265 -0.0123 -0.5584
 3698SOL    HW122727   3.658   3.340   2.761  2.4295  0.6399  1.3885
 3698SOL    HW222728   3.803   3.359   2.742  1.8714  2.3651 -2.7952
 3699SOL     OW22729   4.680   2.547   4.887 -0.4589 -0.3617  0.1501
 3699SOL    HW122730   4.622   2.618   4.914 -1.3452 -1.5392  1.3587
 3699SOL    HW222731   4.638   2.478   4.939 -1.9443  0.2221 -0.2918
 3700SOL     OW22732   3.522   1.961   6.675 -0.0075  0.2897  0.4706
 3700SOL    HW122733   3.535   1.874   6.712 -1.7188 -0.4502 -0.6529
 3700SOL    HW222734   3.590   2.004   6.726  0.1716  0.6391 -0.0588
 3701SOL     OW22735   4.708   0.182  12.978  0.3710  0.1206 -0.0074
 3701SOL    HW122736   4.663   0.258  12.942  0.8057  0.3958  0.0277
 3701SOL    HW222737   4.652   0.144  13.046  0.8222 -1.4316 -0.4867
 3702SOL     OW22738   0.189   1.697   5.308  0.5664 -0.2161  0.6697
 3702SOL    HW122739   0.216   1.784   5.339 -3.4124  0.1081  3.1871
 3702SOL    HW222740   0.096   1.698   5.329  0.1662 -0.7036 -1.0347
 3703SOL     OW22741   3.785   2.718   5.558 -0.8180 -0.3215 -0.1591
 3703SOL    HW122742   3.861   2.700   5.613  0.8469  1.3483 -1.9392
 3703SOL    HW222743   3.753   2.801   5.592  2.1511  0.6436  0.2597
 3704SOL     OW22744   3.353   4.050   4.191 -0.1677 -0.1589  0.1939
 3704SOL    HW122745   3.346   3.959   4.219 -2.3204 -0.0620  0.0338
 3704SOL    HW222746   3.422   4.045   4.125  0.2341  1.7418  0.4664
 3705SOL     OW22747   3.536   1.532  17.588 -0.0036 -0.0217 -0.6156
 3705SOL    HW122748   3.464   1.493  17.538 -0.9252  0.1439  0.5806
 3705SOL    HW222749   3.587   1.463  17.631  0.8940  1.1793  0.2477
 3706SOL     OW22750   1.406   2.442  11.826 -0.1340  0.0565  0.1741
 3706SOL    HW122751   1.422   2.530  11.793  0.7238 -0.2856 -0.3218
 3706SOL    HW222752   1.410   2.395  11.742 -5.4010  0.2838 -0.1942
 3707SOL     OW22753   1.863   0.930   0.228  0.3227  0.0878  0.2025
 3707SOL    HW122754   1.848   0.838   0.249 -1.0601  1.1361  3.8452
 3707SOL    HW222755   1.781   0.956   0.187  0.4275 -0.8512 -0.5990
 3708SOL     OW22756   3.513   3.769   6.738  0.3041 -0.6343 -0.4059
 3708SOL    HW122757   3.515   3.674   6.731 -2.1118 -0.8807  2.1166
 3708SOL    HW222758   3.529   3.771   6.832 -1.6033 -1.4083 -0.0737
 3709SOL     OW22759   1.912   1.731  15.156  0.5356  0.2618  0.1104
 3709SOL    HW122760   2.001   1.731  15.121  0.6447  0.6553  0.3847
 3709SOL    HW222761   1.876   1.784  15.084 -0.9580 -1.5830 -0.5002
 3710SOL     OW22762   1.122   2.163   8.480 -0.3929 -0.0464  0.2356
 3710SOL    HW122763   1.158   2.153   8.568 -0.3601 -2.1526 -0.0340
 3710SOL    HW222764   1.119   2.258   8.467  1.5947 -0.2731 -1.7581
 3711SOL     OW22765   1.347   4.672   7.737  0.3299 -0.5144  0.1140
 3711SOL    HW122766   1.261   4.696   7.771  0.6677  2.2415 -0.9927
 3711SOL    HW222767   1.354   4.734   7.664 -1.2802  0.2353  0.5940
 3712SOL     OW22768   2.006   2.954   7.368 -0.4128  0.0415 -0.2319
 3712SOL    HW122769   1.924   2.924   7.407 -0.5212  0.6942  0.0427
 3712SOL    HW222770   2.048   2.961   7.454 -0.3134 -0.9299 -0.1979
 3713SOL     OW22771   1.240   1.002  11.767  0.0492 -0.7027  0.7004
 3713SOL    HW122772   1.191   1.061  11.824  0.0118 -0.1586  0.1039
 3713SOL    HW222773   1.327   1.034  11.790  0.3905  1.5056 -3.6575
 3714SOL     OW22774   1.606   3.429  12.902 -0.3020 -0.7511 -0.5284
 3714SOL    HW122775   1.628   3.379  12.823 -0.6260  1.3563 -1.9466
 3714SOL    HW222776   1.580   3.509  12.858 -1.0227  0.6231  2.3877
 3715SOL     OW22777   3.210   0.713   8.973 -0.2024 -0.4182 -0.8557
 3715SOL    HW122778   3.233   0.624   9.000  1.2184  0.5897  1.2875
 3715SOL    HW222779   3.198   0.755   9.059  3.4816  2.8913 -1.9122
 3716SOL     OW22780   2.863   3.311  17.027 -0.3323 -0.4795  0.4253
 3716SOL    HW122781   2.870   3.396  16.983  0.8810  0.0402  1.6214
 3716SOL    HW222782   2.957   3.306  17.044  0.0410 -0.5137 -1.6373
 3717SOL     OW22783   3.570   2.088   5.309  0.1076  0.5416  0.1595
 3717SOL    HW122784   3.556   2.025   5.380  0.3452  0.4487  0.1237
 3717SOL    HW222785   3.614   2.031   5.246  2.4563  1.4336  0.9831
 3718SOL     OW22786   0.731   0.453  10.008  0.2109 -0.0146 -0.6054
 3718SOL    HW122787   0.744   0.438  10.101  0.1931 -0.0550 -0.6094
 3718SOL    HW222788   0.707   0.545  10.013  1.0632  0.0789  1.4628
 3719SOL     OW22789   3.260   4.394   1.397 -0.1496 -0.1532  0.2537
 3719SOL    HW122790   3.338   4.366   1.444 -0.3976  0.8897  1.2867
 3719SOL    HW222791   3.205   4.316   1.403  0.9901 -0.9035  1.0017
 3720SOL     OW22792   0.469   1.735   7.772  0.4778 -0.2514 -0.3419
 3720SOL    HW122793   0.502   1.690   7.694  0.5484  0.5361 -0.7620
 3720SOL    HW222794   0.550   1.771   7.808  0.1415 -0.8924  1.0584
 3721SOL     OW22795   3.578   4.137   6.517  0.8751  0.1776 -0.0659
 3721SOL    HW122796   3.604   4.102   6.602  1.1431 -0.2881 -0.3388
 3721SOL    HW222797   3.510   4.076   6.487  1.1254  0.1831 -0.6483
 3722SOL     OW22798   3.044   4.210   6.161  0.0416  1.1602  0.0037
 3722SOL    HW122799   3.032   4.136   6.102  1.7120 -0.2764  1.4927
 3722SOL    HW222800   3.124   4.177   6.201  0.2728  1.8536  0.1107
 3723SOL     OW22801   0.774   0.479   4.299  0.9376 -0.0165  0.5744
 3723SOL    HW122802   0.748   0.474   4.391 -1.7958 -0.2438 -0.2093
 3723SOL    HW222803   0.692   0.512   4.260  1.6854  1.4044  0.2031
 3724SOL     OW22804   0.913   3.099   4.153  0.0603 -0.0560  0.1805
 3724SOL    HW122805   0.970   3.175   4.164  0.5060 -0.3501 -0.0874
 3724SOL    HW222806   0.915   3.099   4.057 -1.0484 -1.1314  0.1541
 3725SOL     OW22807   3.914   1.387   3.662 -0.2382 -0.1648 -0.6609
 3725SOL    HW122808   3.853   1.459   3.649  2.1289  1.6670 -1.7046
 3725SOL    HW222809   3.939   1.393   3.754 -0.5143  0.5435 -0.6338
 3726SOL     OW22810   2.518   4.029  11.732 -0.0408 -0.2236 -0.0192
 3726SOL    HW122811   2.595   4.004  11.783  0.5650 -1.3292 -1.4871
 3726SOL    HW222812   2.486   3.944  11.704 -2.0265  0.0746  1.3022
 3727SOL     OW22813   4.470   3.428  16.950 -0.3026 -0.0331 -0.1312
 3727SOL    HW122814   4.452   3.341  16.986 -0.4653  0.1764  0.2969
 3727SOL    HW222815   4.556   3.408  16.914 -0.8396  0.4392 -1.6562
 3728SOL     OW22816   2.408   0.290   4.466  0.8468  0.0497  0.1638
 3728SOL    HW122817   2.435   0.324   4.381  0.4212 -0.5345 -0.2069
 3728SOL    HW222818   2.343   0.352   4.500  1.1728  0.4306  0.1003
 3729SOL     OW22819   0.147   2.448  13.637 -0.0606  0.3077  0.0829
 3729SOL    HW122820   0.067   2.472  13.684  0.3143  0.1320  0.8156
 3729SOL    HW222821   0.200   2.408  13.707 -1.0192  0.5728  0.9517
 3730SOL     OW22822   0.512   4.399   2.580 -0.2552 -0.0026 -0.0088
 3730SOL    HW122823   0.563   4.470   2.619  3.5152 -0.5482 -3.9179
 3730SOL    HW222824   0.483   4.435   2.496 -0.5133  1.1182  0.5512
 3731SOL     OW22825   1.738   0.244  15.544 -0.1041 -0.3444 -0.4866
 3731SOL    HW122826   1.807   0.271  15.483 -1.0303 -0.1378 -1.4444
 3731SOL    HW222827   1.786   0.173  15.588 -0.8900  0.8525  2.3194
 3732SOL     OW22828   4.489   3.978   4.518  0.2054 -0.6590  0.4463
 3732SOL    HW122829   4.438   3.962   4.439 -0.6804  0.7173  0.7400
 3732SOL    HW222830   4.569   3.932   4.494  0.2213  0.4629 -1.6256
 3733SOL     OW22831   2.912   0.537   9.254 -0.2898 -0.1249  0.5668
 3733SOL    HW122832   2.947   0.589   9.327 -1.1370 -1.6551  2.0514
 3733SOL    HW222833   2.886   0.609   9.196  0.4181 -1.3121 -1.2179
 3734SOL     OW22834   4.431   4.224  17.639  0.5187 -0.5307  0.6841
 3734SOL    HW122835   4.488   4.272  17.579  0.4205 -1.2262  0.0253
 3734SOL    HW222836   4.401   4.142  17.598 -1.5670  0.6279 -0.1250
 3735SOL     OW22837   2.659   4.167   6.511 -0.1485 -0.5777  0.1384
 3735SOL    HW122838   2.688   4.076   6.519  0.7578 -0.2698  0.3792
 3735SOL    HW222839   2.586   4.165   6.572  0.0904 -0.3234  0.4371
 3736SOL     OW22840   1.541   2.956  10.399  0.2227 -0.0894  0.2489
 3736SOL    HW122841   1.520   2.884  10.340 -1.0450 -0.1296  0.7528
 3736SOL    HW222842   1.470   3.014  10.372 -0.3376 -1.3013 -0.9047
 3737SOL     OW22843   1.980   2.992   3.274 -0.0925 -0.8551 -0.3334
 3737SOL    HW122844   1.960   3.039   3.354  0.7877  0.2493 -0.7560
 3737SOL    HW222845   1.894   2.953   3.258 -1.0672  0.4877  1.7514
 3738SOL     OW22846   0.477   4.212  16.640 -0.0980 -0.0105 -0.0186
 3738SOL    HW122847   0.543   4.167  16.692  0.5981  0.6666 -0.3204
 3738SOL    HW222848   0.445   4.137  16.591 -0.8134  0.3922 -0.1677
 3739SOL     OW22849   1.279   4.448   9.882 -0.1294  0.3022 -0.7392
 3739SOL    HW122850   1.196   4.402   9.896  0.1183 -0.7002 -2.6641
 3739SOL    HW222851   1.239   4.514   9.826 -0.5906 -0.7976 -1.7098
 3740SOL     OW22852   0.013   2.156   5.744  0.4265  0.2899 -0.2321
 3740SOL    HW122853   0.021   2.074   5.793  3.8356 -0.7541 -2.5589
 3740SOL    HW222854   0.073   2.210   5.794 -1.1734 -0.1323  2.1294
 3741SOL     OW22855   2.775   2.774   6.292 -0.4304  0.1479 -0.0409
 3741SOL    HW122856   2.738   2.763   6.205 -0.1193 -0.3436 -0.1078
 3741SOL    HW222857   2.705   2.830   6.328 -1.2081 -0.4360 -0.6393
 3742SOL     OW22858   1.824   1.917   1.391  0.5635  0.0647 -0.1154
 3742SOL    HW122859   1.900   1.881   1.436  0.8347 -1.0598 -1.4529
 3742SOL    HW222860   1.867   1.946   1.311 -2.4304  0.4098 -1.6208
 3743SOL     OW22861   1.112   1.488   3.932  0.5250  0.5770 -0.2730
 3743SOL    HW122862   1.124   1.424   4.002 -0.6331 -1.1375 -1.6145
 3743SOL    HW222863   1.096   1.561   3.992 -0.5856  1.6093 -1.8370
 3744SOL     OW22864   3.545   2.992  10.438  0.1728  0.3590 -0.4203
 3744SOL    HW122865   3.535   3.084  10.465  0.3927  0.1549  0.3614
 3744SOL    HW222866   3.637   3.001  10.415  0.3768 -0.8275 -0.0681
 3745SOL     OW22867   3.042   1.919   4.816 -0.6016  0.1338 -0.0690
 3745SOL    HW122868   3.007   1.869   4.742 -4.2335 -0.2523  1.9215
 3745SOL    HW222869   3.071   1.993   4.763 -0.0962 -0.5150 -0.7046
 3746SOL     OW22870   0.116   1.188   2.160  0.5106 -0.5368  0.1684
 3746SOL    HW122871   0.074   1.112   2.118 -0.0912  0.0665 -0.3186
 3746SOL    HW222872   0.193   1.144   2.195  0.6249 -1.7329 -1.5447
 3747SOL     OW22873   3.744   1.758   7.253 -0.0276  0.1783 -0.0069
 3747SOL    HW122874   3.664   1.741   7.302 -1.1909  0.3810 -1.8198
 3747SOL    HW222875   3.804   1.708   7.307 -0.1712 -1.5371 -1.4395
 3748SOL     OW22876   3.821   4.090  14.599 -0.6335  0.2365 -0.0200
 3748SOL    HW122877   3.888   4.117  14.661 -0.5700  1.5629 -0.6660
 3748SOL    HW222878   3.744   4.096  14.655 -2.3610  1.5576 -2.5638
 3749SOL     OW22879   1.992   2.729   3.104 -1.0871  0.4561  0.0899
 3749SOL    HW122880   1.930   2.796   3.134 -0.6067  0.2951  1.4158
 3749SOL    HW222881   1.930   2.656   3.108  0.1867 -0.5461  1.1478
 3750SOL     OW22882   0.903   3.793   4.538 -0.2957 -0.9602 -0.3627
 3750SOL    HW122883   0.840   3.724   4.558 -1.0805 -1.0644 -3.1775
 3750SOL    HW222884   0.973   3.758   4.593  1.0407  2.6733  0.2808
 3751SOL     OW22885   0.918   3.499   3.228  0.2909 -0.1210  0.0763
 3751SOL    HW122886   1.003   3.509   3.184  0.4781  1.5897  0.8255
 3751SOL    HW222887   0.935   3.522   3.320 -1.7597 -1.8479  0.8880
 3752SOL     OW22888   2.841   1.008   3.383  0.8055  0.0880  0.1564
 3752SOL    HW122889   2.813   1.075   3.446  1.1793  1.3239 -0.9655
 3752SOL    HW222890   2.891   0.950   3.441  1.3849  0.6868  0.2574
 3753SOL     OW22891   4.730   2.879  14.598  0.3877 -0.0872 -0.0972
 3753SOL    HW122892   0.005   2.795  14.642 -0.0195  0.2101  0.5952
 3753SOL    HW222893   0.047   2.865  14.521  0.5547 -1.0161  0.1971
 3754SOL     OW22894   1.210   3.503   2.079 -0.0619 -0.6995 -0.1298
 3754SOL    HW122895   1.199   3.511   2.174  0.3331  0.7114 -0.1908
 3754SOL    HW222896   1.216   3.597   2.061 -0.6979 -0.4705  0.8504
 3755SOL     OW22897   1.626   1.041   7.962 -0.0797 -0.8108  0.0241
 3755SOL    HW122898   1.582   1.103   8.020 -0.9674 -1.5749  0.1584
 3755SOL    HW222899   1.573   0.962   7.970 -0.0789 -0.4755  3.1491
 3756SOL     OW22900   4.217   1.663   4.068 -0.5182 -0.1481  0.1993
 3756SOL    HW122901   4.287   1.689   4.008 -2.6214  0.9069 -1.7631
 3756SOL    HW222902   4.269   1.664   4.149  1.0983 -0.9923 -0.8368
 3757SOL     OW22903   0.080   3.476   5.804 -0.4174 -0.7803 -0.1697
 3757SOL    HW122904   0.015   3.529   5.850 -0.2503 -0.4932 -0.2644
 3757SOL    HW222905   0.043   3.388   5.801 -1.0221 -0.5826  1.4677
 3758SOL     OW22906   3.206   2.751  13.345  0.1189  0.0154 -0.4318
 3758SOL    HW122907   3.297   2.771  13.321 -0.1653 -0.2053 -1.6784
 3758SOL    HW222908   3.167   2.838  13.348 -1.9931 -0.9561 -0.0552
 3759SOL     OW22909   2.339   1.972   9.476 -0.3270 -0.3484 -0.0061
 3759SOL    HW122910   2.260   2.027   9.474 -0.8303 -1.0628  0.1055
 3759SOL    HW222911   2.398   2.040   9.507  0.4539 -1.4969  1.0339
 3760SOL     OW22912   3.149   2.657   2.303 -0.2360 -0.0550  0.0771
 3760SOL    HW122913   3.145   2.598   2.228  2.4016 -3.0993  2.3710
 3760SOL    HW222914   3.204   2.615   2.368  0.9519  1.3017 -0.0483
 3761SOL     OW22915   1.759   1.350   7.172  0.0810 -0.0377  0.5017
 3761SOL    HW122916   1.689   1.390   7.119 -0.4914 -0.3643  1.0087
 3761SOL    HW222917   1.700   1.316   7.239  0.4273  2.0939  1.8710
 3762SOL     OW22918   3.375   4.501   6.351 -0.6529 -0.4453  0.0243
 3762SOL    HW122919   3.386   4.572   6.415 -1.1398  0.4060 -0.8291
 3762SOL    HW222920   3.280   4.489   6.348 -0.9356  1.4823  1.2462
 3763SOL     OW22921   2.035   4.595   3.345 -0.6595 -0.6254 -0.7568
 3763SOL    HW122922   2.074   4.565   3.263 -0.4516 -1.3853 -0.3810
 3763SOL    HW222923   2.035   4.690   3.334  1.3860 -0.7160 -1.6436
 3764SOL     OW22924   0.911   4.041   3.997 -0.1867  0.2182  0.1762
 3764SOL    HW122925   0.822   4.042   3.962 -0.1079 -0.1838 -0.0338
 3764SOL    HW222926   0.937   3.953   3.968  2.0962  0.1311  2.4480
 3765SOL     OW22927   3.855   3.560   9.029 -0.6014 -0.3913  0.5367
 3765SOL    HW122928   3.794   3.571   8.956 -1.6782  0.7592  1.6197
 3765SOL    HW222929   3.812   3.616   9.094  2.2921  2.7562 -0.2747
 3766SOL     OW22930   2.910   2.889  11.930  0.3500  0.5720  0.2506
 3766SOL    HW122931   3.003   2.903  11.944  0.5085  0.5388 -0.7485
 3766SOL    HW222932   2.891   2.965  11.873 -2.4402 -0.6885 -0.5310
 3767SOL     OW22933   0.198   4.377   2.158  0.3364  0.2683 -0.0274
 3767SOL    HW122934   0.198   4.401   2.066 -2.6010  1.1651  0.2161
 3767SOL    HW222935   0.212   4.282   2.153  1.1211  0.4458 -1.1892
 3768SOL     OW22936   0.611   1.466   8.360  0.1401 -0.2606 -0.6981
 3768SOL    HW122937   0.549   1.473   8.288  0.9311 -1.2662 -1.4783
 3768SOL    HW222938   0.629   1.559   8.375  0.7392 -0.6476  1.0308
 3769SOL     OW22939   2.146   0.530   7.632 -0.2283 -0.2242  0.6091
 3769SOL    HW122940   2.115   0.578   7.709  0.3612  0.9534  0.1195
 3769SOL    HW222941   2.071   0.507   7.577 -0.3278  1.6363 -0.0404
 3770SOL     OW22942   1.389   2.188   0.812  0.2184 -0.1796  0.3554
 3770SOL    HW122943   1.441   2.162   0.735 -0.0282 -0.8532  0.4201
 3770SOL    HW222944   1.321   2.241   0.770  1.7217  1.1066 -0.4846
 3771SOL     OW22945   1.650   2.133   1.027 -0.3182 -0.4543 -0.0098
 3771SOL    HW122946   1.601   2.214   1.013  0.9356  0.0137 -1.6219
 3771SOL    HW222947   1.678   2.106   0.940  1.3962 -2.9466  1.3277
 3772SOL     OW22948   1.459   0.771  17.381 -0.3230 -0.5439 -0.1271
 3772SOL    HW122949   1.506   0.795  17.301  0.5720 -1.7852  0.0230
 3772SOL    HW222950   1.535   0.745  17.432 -0.6140 -1.7494 -0.3121
 3773SOL     OW22951   3.221   1.967   7.022 -0.1629  0.0210  0.0087
 3773SOL    HW122952   3.161   2.039   7.038  1.2250  1.4886 -1.4633
 3773SOL    HW222953   3.180   1.911   6.957  1.1042 -0.0022 -0.7754
 3774SOL     OW22954   1.263   1.296  14.895  0.0155  0.2067  0.2337
 3774SOL    HW122955   1.222   1.292  14.981 -1.9746 -2.5995 -0.8461
 3774SOL    HW222956   1.308   1.212  14.890  1.5504  1.0017  0.5004
 3775SOL     OW22957   4.294   4.611   7.918  0.1087  0.3647 -0.7458
 3775SOL    HW122958   4.359   4.610   7.848  0.9394 -0.7755  0.0193
 3775SOL    HW222959   4.319   4.529   7.961 -2.6973 -0.4783 -0.7546
 3776SOL     OW22960   0.492   3.359   7.904  0.0352 -0.3719  0.3370
 3776SOL    HW122961   0.475   3.424   7.972 -0.3667 -1.8971  1.6946
 3776SOL    HW222962   0.578   3.389   7.875  0.0957 -2.0136 -1.1944
 3777SOL     OW22963   2.001   3.297   8.749  0.2368  0.3029  0.1629
 3777SOL    HW122964   2.067   3.237   8.782 -0.9931 -0.3200  1.5083
 3777SOL    HW222965   2.046   3.358   8.691 -1.9748  0.8973 -0.9669
 3778SOL     OW22966   4.582   4.407   5.305  0.2690  0.5152 -0.2750
 3778SOL    HW122967   4.538   4.364   5.378 -3.2640 -0.8360 -3.2259
 3778SOL    HW222968   4.644   4.464   5.350  1.4462 -1.0475  0.0806
 3779SOL     OW22969   0.416   4.274   3.015  0.0409 -0.1604 -0.0254
 3779SOL    HW122970   0.443   4.215   2.945  0.3628  0.5237 -0.4724
 3779SOL    HW222971   0.447   4.225   3.091  1.4151  0.1145 -0.4231
 3780SOL     OW22972   0.146   2.402  12.787 -0.1771 -0.1082 -0.2876
 3780SOL    HW122973   0.057   2.413  12.756  0.3341 -1.3705 -2.1670
 3780SOL    HW222974   0.164   2.470  12.852  1.0013 -1.8214  1.1933
 3781SOL     OW22975   0.272   1.197  11.251  0.1788 -0.0118 -0.5375
 3781SOL    HW122976   0.363   1.168  11.255  0.3926  0.9810  1.8766
 3781SOL    HW222977   0.277   1.278  11.201  0.8341 -0.4947 -1.2645
 3782SOL     OW22978   0.365   2.409   3.778  0.0091 -0.2005 -0.1639
 3782SOL    HW122979   0.387   2.473   3.846 -0.2902 -1.0856  0.7577
 3782SOL    HW222980   0.448   2.362   3.784 -0.2479 -0.7856 -1.2006
 3783SOL     OW22981   3.724   3.085   5.116 -0.5090 -0.4459 -0.0703
 3783SOL    HW122982   3.710   3.102   5.023  0.1154 -0.7755 -0.2271
 3783SOL    HW222983   3.819   3.086   5.126 -0.5302  2.4355 -0.2686
 3784SOL     OW22984   0.772   3.808   1.024  0.3818  0.1733 -0.1489
 3784SOL    HW122985   0.791   3.870   1.094 -1.9304  0.2114  0.4378
 3784SOL    HW222986   0.724   3.743   1.076  0.5742 -0.5130 -0.8303
 3785SOL     OW22987   0.648   3.103   5.868 -0.2815  0.3284  0.1299
 3785SOL    HW122988   0.694   3.053   5.935  0.9560  0.8515 -0.3249
 3785SOL    HW222989   0.621   3.033   5.808  1.7188  0.4389 -0.8995
 3786SOL     OW22990   1.333   1.770   5.234 -0.3360  0.1335  0.5182
 3786SOL    HW122991   1.329   1.862   5.210 -1.8787 -0.4043 -1.3007
 3786SOL    HW222992   1.381   1.736   5.158  0.0850  0.1938  0.7568
 3787SOL     OW22993   1.452   1.836   6.147  0.1254 -0.7655  0.4648
 3787SOL    HW122994   1.423   1.775   6.080  0.9138 -2.6810  1.8516
 3787SOL    HW222995   1.377   1.847   6.206 -1.3088  0.9771 -1.6911
 3788SOL     OW22996   2.919   3.990   0.811  0.4692  0.1389 -0.1164
 3788SOL    HW122997   3.008   3.965   0.784  0.6413 -2.3803  2.6812
 3788SOL    HW222998   2.878   3.978   0.726  0.0783  0.4802  0.0238
 3789SOL     OW22999   4.143   2.653   5.984  0.1318 -0.1631  0.3304
 3789SOL    HW123000   4.228   2.618   5.956  1.9103  1.6766  3.3561
 3789SOL    HW223001   4.083   2.652   5.909  0.3771 -0.4228  0.1400
 3790SOL     OW23002   3.658   4.430   0.916  0.0988 -0.3220  0.2203
 3790SOL    HW123003   3.651   4.338   0.943  1.7195 -1.0040 -1.6850
 3790SOL    HW223004   3.586   4.477   0.958 -0.6241  0.2655 -1.6870
 3791SOL     OW23005   1.270   0.177   8.151  0.0546 -0.4443  0.0263
 3791SOL    HW123006   1.175   0.172   8.165  0.4632 -1.0238  2.5048
 3791SOL    HW223007   1.307   0.156   8.236 -0.6978  0.8238  0.6622
 3792SOL     OW23008   1.222   0.570  13.137 -0.1490 -0.9135 -0.1200
 3792SOL    HW123009   1.158   0.635  13.165 -0.2032 -1.4895  1.0731
 3792SOL    HW223010   1.270   0.632  13.082 -1.2231  1.8673  2.1087
 3793SOL     OW23011   1.150   0.811   6.554  0.2507  0.7324  0.2271
 3793SOL    HW123012   1.240   0.824   6.522 -0.1262 -0.2657 -1.2347
 3793SOL    HW223013   1.121   0.899   6.529 -3.7163 -0.8644 -0.7602
 3794SOL     OW23014   0.282   1.967  17.126  0.6488 -0.2872 -0.4240
 3794SOL    HW123015   0.211   2.025  17.150 -0.4742 -1.4736 -0.8964
 3794SOL    HW223016   0.250   1.930  17.044 -0.3723 -0.3085 -0.0191
 3795SOL     OW23017   3.438   1.095   6.035 -0.1915  0.2726  0.0209
 3795SOL    HW123018   3.429   1.111   6.129  1.1407 -0.4158  0.2668
 3795SOL    HW223019   3.435   1.183   5.999  1.4276  0.8216  1.1944
 3796SOL     OW23020   2.765   2.389   4.210  0.4737 -0.0078  0.1524
 3796SOL    HW123021   2.754   2.356   4.299  2.7630  0.2389  0.5040
 3796SOL    HW223022   2.682   2.363   4.168  0.5500  0.5196 -0.3284
 3797SOL     OW23023   3.470   0.676   2.778 -0.2288 -0.2913 -0.0435
 3797SOL    HW123024   3.380   0.647   2.791 -0.2575 -0.5126 -0.7585
 3797SOL    HW223025   3.497   0.696   2.868  3.5944  2.6988 -1.8413
 3798SOL     OW23026   1.460   1.176   8.876 -0.2942 -0.5581  0.7740
 3798SOL    HW123027   1.437   1.108   8.813  0.6454 -1.4418  1.3802
 3798SOL    HW223028   1.551   1.191   8.848 -1.5371  0.2740 -2.7567
 3799SOL     OW23029   1.159   4.600   2.309 -0.3064  0.6260 -0.5390
 3799SOL    HW123030   1.251   4.615   2.329 -0.7461  1.7123  0.6392
 3799SOL    HW223031   1.151   4.630   2.218  0.2780 -3.4460 -1.9549
 3800SOL     OW23032   0.302   2.635   7.415  0.3458 -0.1235 -1.3909
 3800SOL    HW123033   0.372   2.684   7.372 -1.2136  1.9155 -1.6367
 3800SOL    HW223034   0.251   2.590   7.347 -2.5715 -1.3985  1.6577
 3801SOL     OW23035   2.221   2.038   5.139  0.3315  0.0964 -0.3665
 3801SOL    HW123036   2.287   2.067   5.077  2.3687  2.2853  2.7922
 3801SOL    HW223037   2.230   2.095   5.216 -0.2662 -0.0635 -0.1731
 3802SOL     OW23038   1.566   2.935   2.994 -0.0713  0.6399  0.0767
 3802SOL    HW123039   1.532   2.918   2.906  0.3853 -2.5315  0.5323
 3802SOL    HW223040   1.516   3.008   3.030 -0.2999 -0.5954  2.2221
 3803SOL     OW23041   2.038   1.609   7.879 -0.2605  0.1700 -0.2728
 3803SOL    HW123042   2.063   1.536   7.822 -0.4103  1.0059 -1.4211
 3803SOL    HW223043   2.080   1.591   7.963 -3.2845 -2.4717  0.6573
 3804SOL     OW23044   2.041   3.632   9.403  0.2311 -0.0655 -0.3533
 3804SOL    HW123045   2.120   3.655   9.353 -0.2682  1.1529 -0.5730
 3804SOL    HW223046   1.990   3.635   9.322 -0.5721  1.1589  0.1979
 3805SOL     OW23047   3.674   3.095   6.134 -0.1129 -0.5937 -0.1071
 3805SOL    HW123048   3.730   3.162   6.173 -1.6264  0.6789 -0.1142
 3805SOL    HW223049   3.599   3.151   6.111  1.7930  1.7816 -0.5184
 3806SOL     OW23050   0.386   1.257   9.728  0.3728  0.0056  0.0312
 3806SOL    HW123051   0.358   1.251   9.637  2.1032  0.3697 -0.5102
 3806SOL    HW223052   0.404   1.351   9.727  1.3745 -0.1754  1.5928
 3807SOL     OW23053   0.962   0.184   2.509 -0.0075 -0.1207 -0.0265
 3807SOL    HW123054   0.869   0.207   2.501 -0.1398 -0.8763 -0.7103
 3807SOL    HW223055   0.942   0.090   2.508 -1.0297  0.0960 -0.7172
 3808SOL     OW23056   3.499   2.444  10.150 -0.1357 -0.1793 -0.2038
 3808SOL    HW123057   3.507   2.537  10.129  0.5438  0.4137  2.7734
 3808SOL    HW223058   3.406   2.428  10.168  0.3086  0.4015  2.5061
 3809SOL     OW23059   0.861   3.037  12.713  0.6210  0.6116  0.5756
 3809SOL    HW123060   0.886   2.946  12.726  0.8784  0.4397 -1.1756
 3809SOL    HW223061   0.812   3.057  12.793 -0.7949  2.9813 -0.8852
 3810SOL     OW23062   1.564   4.292   2.207  0.4195 -0.1739 -0.4537
 3810SOL    HW123063   1.616   4.352   2.153  0.8209  1.4208  1.7119
 3810SOL    HW223064   1.622   4.217   2.222  0.3124 -0.1904 -0.1149
 3811SOL     OW23065   3.890   0.021  13.758  0.2659 -0.0001  0.2278
 3811SOL    HW123066   3.943   4.709  13.696 -2.7297 -5.6341  2.2916
 3811SOL    HW223067   3.917   0.107  13.727  1.7015 -1.0835 -1.4972
 3812SOL     OW23068   0.779   2.510   9.235  0.0766 -0.2241 -0.4228
 3812SOL    HW123069   0.837   2.577   9.270 -1.2772  1.5146 -1.4831
 3812SOL    HW223070   0.750   2.546   9.151  0.7767  0.8089 -0.2261
 3813SOL     OW23071   1.394   2.125   1.469  0.0550 -0.2151 -0.3465
 3813SOL    HW123072   1.380   2.080   1.386 -3.0672 -0.5596  0.3623
 3813SOL    HW223073   1.475   2.077   1.486  1.5044  2.5773  0.6604
 3814SOL     OW23074   0.311   3.973   2.734  0.1947 -0.3643 -0.3647
 3814SOL    HW123075   0.328   3.965   2.828 -0.8708  0.7688 -0.0773
 3814SOL    HW223076   0.223   4.009   2.736  0.3392  0.0873 -2.1477
 3815SOL     OW23077   1.551   3.525   8.524 -0.1250 -0.2628 -0.6412
 3815SOL    HW123078   1.477   3.507   8.582 -1.3106 -0.5853 -2.2625
 3815SOL    HW223079   1.589   3.602   8.567  2.1383 -1.4781 -0.4547
 3816SOL     OW23080   3.443   3.372   4.907 -0.2947  0.0676 -0.3038
 3816SOL    HW123081   3.441   3.287   4.862  0.7520  0.4595 -1.0941
 3816SOL    HW223082   3.534   3.397   4.890 -0.4586  1.6860  1.3211
 3817SOL     OW23083   1.198   4.307   4.564  0.3101 -0.0399 -0.5668
 3817SOL    HW123084   1.189   4.223   4.519 -1.3509  0.7782 -1.7218
 3817SOL    HW223085   1.113   4.334   4.597  0.8195 -0.5311  1.1285
 3818SOL     OW23086   2.000   1.446   9.293  0.3377  0.6190 -0.2894
 3818SOL    HW123087   1.952   1.488   9.364  1.0106 -1.9335  1.6828
 3818SOL    HW223088   2.068   1.512   9.278 -1.9375  3.0421  0.0255
 3819SOL     OW23089   1.355   2.619   1.145 -0.8965  0.3699 -0.0572
 3819SOL    HW123090   1.364   2.702   1.191  2.5763  0.5916 -1.1804
 3819SOL    HW223091   1.375   2.558   1.216  0.2069  1.8994  0.9557
 3820SOL     OW23092   2.571   1.296   4.637 -0.4879 -0.2514  0.1189
 3820SOL    HW123093   2.583   1.225   4.574  2.1401 -0.5302  0.9526
 3820SOL    HW223094   2.656   1.338   4.639 -0.0473 -1.0904 -0.9802
 3821SOL     OW23095   1.794   0.457   5.436  0.3354  0.3143  0.0932
 3821SOL    HW123096   1.881   0.480   5.468  1.4042 -0.4621 -2.2276
 3821SOL    HW223097   1.743   0.528   5.475  2.1921  1.4377  0.4572
 3822SOL     OW23098   0.337   4.281   4.602  0.2901  0.7262 -0.2883
 3822SOL    HW123099   0.383   4.283   4.517  2.7442  1.9723  1.0632
 3822SOL    HW223100   0.254   4.244   4.573 -0.1342 -0.6466  2.6883
 3823SOL     OW23101   3.997   2.150  14.535  0.5036  0.0685 -0.1543
 3823SOL    HW123102   3.944   2.172  14.611  0.4448  3.6735 -1.2223
 3823SOL    HW223103   3.960   2.203  14.464 -2.0510 -3.5043 -1.4638
 3824SOL     OW23104   0.349   0.309  13.823 -0.2300  0.0539 -0.0087
 3824SOL    HW123105   0.267   0.278  13.784 -0.2279  0.3821 -0.2770
 3824SOL    HW223106   0.329   0.295  13.915  0.2262 -0.8444 -0.0376
 3825SOL     OW23107   1.964   3.189  16.061  0.5224 -0.0576  0.1087
 3825SOL    HW123108   2.008   3.116  16.017 -1.6884 -0.8539 -0.7962
 3825SOL    HW223109   1.876   3.152  16.058  1.3365 -1.8636 -1.8963
 3826SOL     OW23110   3.493   3.002   7.279 -0.0472  0.0565 -0.3585
 3826SOL    HW123111   3.456   3.087   7.303  1.8033  1.0889 -1.1201
 3826SOL    HW223112   3.567   3.022   7.221  0.5065 -1.4517 -0.1624
 3827SOL     OW23113   4.607   4.351   9.691 -0.2639 -0.0314  0.2453
 3827SOL    HW123114   4.533   4.413   9.691  1.4300  1.9837  0.7189
 3827SOL    HW223115   4.648   4.379   9.773 -1.8683 -1.1137  1.4091
 3828SOL     OW23116   4.570   2.951   6.354  0.0347 -0.2017  0.3516
 3828SOL    HW123117   4.496   2.991   6.308 -0.4379  1.1740  2.3083
 3828SOL    HW223118   4.527   2.884   6.407  1.1624  0.5807  2.2717
 3829SOL     OW23119   1.430   0.241   7.655 -0.7872 -0.0063  0.0768
 3829SOL    HW123120   1.469   0.326   7.675 -1.6939  0.9712 -2.3857
 3829SOL    HW223121   1.380   0.225   7.735  0.6559  2.6525  1.5005
 3830SOL     OW23122   3.148   1.451   5.620  0.5972  0.0284  0.0471
 3830SOL    HW123123   3.097   1.465   5.700  0.3097 -2.7740  0.3330
 3830SOL    HW223124   3.193   1.534   5.609 -2.5302  1.9619  1.6420
 3831SOL     OW23125   4.547   4.191   2.692 -0.0518  0.2742 -0.2106
 3831SOL    HW123126   4.567   4.273   2.737 -0.3696  0.0290  0.3742
 3831SOL    HW223127   4.466   4.163   2.733 -0.3008  2.1743  0.5854
 3832SOL     OW23128   1.258   3.692  13.578  0.1725  0.2538 -0.1442
 3832SOL    HW123129   1.300   3.692  13.665 -0.7005 -1.1820  0.2839
 3832SOL    HW223130   1.237   3.781  13.552 -0.5947  0.5439  1.4435
 3833SOL     OW23131   0.444   1.110   8.138 -0.1251  0.1761 -0.2561
 3833SOL    HW123132   0.401   1.052   8.076  1.6278 -0.0393 -1.2498
 3833SOL    HW223133   0.424   1.065   8.220  0.2185  0.1450 -0.1908
 3834SOL     OW23134   1.189   0.542  10.609 -0.4625 -0.3152  0.4151
 3834SOL    HW123135   1.167   0.599  10.683 -2.7477  0.3397 -0.7749
 3834SOL    HW223136   1.117   0.481  10.618 -1.9034  0.8541 -2.9655
 3835SOL     OW23137   0.409   0.834   5.674 -0.1326 -0.9928  0.1504
 3835SOL    HW123138   0.345   0.866   5.611  0.6977  0.0367 -0.1679
 3835SOL    HW223139   0.397   0.743   5.647 -2.5441 -0.3273 -1.0143
 3836SOL     OW23140   4.421   4.725  14.986  0.0560  0.3704 -0.4783
 3836SOL    HW123141   4.422   0.074  15.026  0.1848  0.5966 -0.9778
 3836SOL    HW223142   4.364   0.012  14.914  0.7130  2.2378 -0.3303
 3837SOL     OW23143   4.142   3.678   9.343  0.1488 -0.0741  0.8246
 3837SOL    HW123144   4.178   3.664   9.430 -0.0618 -0.1573  0.8989
 3837SOL    HW223145   4.219   3.705   9.293 -0.0867  1.6441  1.3797
 3838SOL     OW23146   0.537   3.716   2.178 -0.2151  0.3469 -0.2252
 3838SOL    HW123147   0.525   3.733   2.272 -0.0756  0.0479 -0.1521
 3838SOL    HW223148   0.540   3.807   2.149 -0.0013  0.2048 -0.6498
 3839SOL     OW23149   0.062   1.469   7.801  0.1037 -0.7255 -0.2037
 3839SOL    HW123150   0.001   1.416   7.854  0.4029 -0.6658  0.2043
 3839SOL    HW223151   0.022   1.556   7.799  0.3615 -0.5877  0.6885
 3840SOL     OW23152   2.429   0.163   8.077 -0.3481  0.2707 -0.1715
 3840SOL    HW123153   2.494   0.096   8.099 -0.6549  0.4882  1.4123
 3840SOL    HW223154   2.455   0.228   8.143 -0.9915  1.3241 -0.9636
 3841SOL     OW23155   2.085   0.846   0.077 -0.5981 -0.0610  0.2411
 3841SOL    HW123156   2.118   0.768   0.122  1.5626  2.2121  2.6950
 3841SOL    HW223157   2.029   0.884   0.145 -0.5392  1.1190 -0.3745
 3842SOL     OW23158   3.411   0.635   2.324 -0.1152 -0.2835  0.5926
 3842SOL    HW123159   3.477   0.608   2.388 -0.4130 -0.6886  0.7285
 3842SOL    HW223160   3.337   0.643   2.384 -0.8517 -0.8158 -0.2481
 3843SOL     OW23161   1.900   3.637  13.249  0.1646 -0.1681  0.7391
 3843SOL    HW123162   1.987   3.640  13.208 -0.9683 -0.1257 -1.6487
 3843SOL    HW223163   1.849   3.618  13.170  0.3675  0.5823  0.4313
 3844SOL     OW23164   3.651   3.662   5.330  0.6723  0.0168  0.1000
 3844SOL    HW123165   3.742   3.688   5.344  0.5145  0.5082  0.2290
 3844SOL    HW223166   3.611   3.706   5.405 -1.9242  0.3903 -1.5091
 3845SOL     OW23167   1.312   4.339   2.591 -0.3643 -0.4307  0.3468
 3845SOL    HW123168   1.280   4.401   2.526 -1.6230 -0.9089  0.5126
 3845SOL    HW223169   1.231   4.329   2.640  0.2507  2.5845  1.9410
 3846SOL     OW23170   0.838   2.261   8.619  0.2863  0.3581 -0.3184
 3846SOL    HW123171   0.921   2.306   8.602  0.2598  0.4681 -0.1646
 3846SOL    HW223172   0.777   2.278   8.547 -0.5471 -0.3249  0.2275
 3847SOL     OW23173   1.258   1.235   9.050 -0.3629  0.2497 -0.4057
 3847SOL    HW123174   1.343   1.212   9.011 -1.0441 -2.6472 -0.1808
 3847SOL    HW223175   1.194   1.229   8.979  0.4305 -1.4481 -0.9833
 3848SOL     OW23176   3.341   1.478   3.362  0.0722 -0.0586  0.0595
 3848SOL    HW123177   3.276   1.437   3.419  0.4295 -1.9437 -0.8821
 3848SOL    HW223178   3.419   1.452   3.412 -0.0693 -0.4988  0.0553
 3849SOL     OW23179   0.239   0.578  11.207  0.4259  0.7073 -0.7678
 3849SOL    HW123180   0.265   0.493  11.243 -1.1195 -0.1009 -1.5597
 3849SOL    HW223181   0.146   0.560  11.192  0.1314 -0.0108  2.0252
 3850SOL     OW23182   1.760   0.503   6.413 -0.1505  0.1732 -1.0316
 3850SOL    HW123183   1.695   0.541   6.355 -0.1397  1.8944  0.0822
 3850SOL    HW223184   1.750   0.408   6.404  2.8097 -0.1538 -0.9270
 3851SOL     OW23185   0.599   4.116  14.007 -0.2082  0.0998  0.1987
 3851SOL    HW123186   0.626   4.027  14.028 -2.5277 -0.6673 -0.0306
 3851SOL    HW223187   0.609   4.118  13.912  0.8685  0.8435  0.3262
 3852SOL     OW23188   2.370   0.966   5.905  0.3553 -0.0769  0.2792
 3852SOL    HW123189   2.310   0.983   5.977 -0.6293 -2.0232 -0.0691
 3852SOL    HW223190   2.317   0.913   5.844  0.6727 -1.6431  1.3499
 3853SOL     OW23191   1.502   1.035  17.447 -0.3968  0.1920 -0.7445
 3853SOL    HW123192   1.482   0.942  17.442  0.2939  0.0663 -1.1696
 3853SOL    HW223193   1.423   1.081  17.476 -0.1662 -1.0541  1.9363
 3854SOL     OW23194   1.823   1.086   1.500  0.2099 -0.0137  0.6687
 3854SOL    HW123195   1.730   1.097   1.518 -0.0359 -1.7190  0.4512
 3854SOL    HW223196   1.836   1.146   1.427 -1.3020 -1.0396 -0.4516
 3855SOL     OW23197   2.326   2.725   5.426  0.1076 -0.1280 -0.2278
 3855SOL    HW123198   2.390   2.730   5.498 -0.4394  2.2981  0.1107
 3855SOL    HW223199   2.358   2.794   5.367 -1.9883 -1.4261 -2.8772
 3856SOL     OW23200   4.653   0.735   0.365 -0.1094  0.3640  0.1488
 3856SOL    HW123201   4.720   0.717   0.431  0.5102  1.9200 -0.0683
 3856SOL    HW223202   4.568   0.725   0.409 -1.1792  1.9325 -1.5696
 3857SOL     OW23203   2.111   3.080   2.714  0.0378 -0.1862  0.4039
 3857SOL    HW123204   2.043   3.013   2.724 -0.5558  0.3946  0.3395
 3857SOL    HW223205   2.157   3.045   2.638 -0.2617 -0.3916  0.3152
 3858SOL     OW23206   0.730   1.532  12.618  0.1834 -0.3089  0.6928
 3858SOL    HW123207   0.815   1.537  12.575 -0.2796  0.4157 -0.1263
 3858SOL    HW223208   0.736   1.446  12.660 -1.1527 -1.1313 -0.8063
 3859SOL     OW23209   1.134   3.441   5.735  0.2220 -0.1348 -0.1744
 3859SOL    HW123210   1.107   3.461   5.645 -1.3951 -3.7591 -0.4601
 3859SOL    HW223211   1.220   3.401   5.722 -0.7389 -1.2863 -3.0131
 3860SOL     OW23212   0.468   3.840   9.849 -0.0318 -0.2112 -0.4681
 3860SOL    HW123213   0.385   3.794   9.832 -0.6200  0.9994 -0.8966
 3860SOL    HW223214   0.483   3.882   9.765  0.6985  0.9756  0.2572
 3861SOL     OW23215   4.298   2.315   9.611 -0.3309  0.0888 -0.2102
 3861SOL    HW123216   4.221   2.260   9.597  0.4504 -1.2019  0.5296
 3861SOL    HW223217   4.272   2.387   9.553 -1.3012 -1.2133 -1.3841
 3862SOL     OW23218   2.874   0.379  16.132 -0.0713 -0.0486 -0.0725
 3862SOL    HW123219   2.886   0.362  16.225  0.4103  0.5043 -0.0276
 3862SOL    HW223220   2.880   0.475  16.125 -1.2898  0.0164 -0.1921
 3863SOL     OW23221   1.622   2.434   0.763 -0.0489 -0.3750 -0.6730
 3863SOL    HW123222   1.527   2.429   0.753 -0.2289 -1.4192  1.4868
 3863SOL    HW223223   1.645   2.351   0.722 -2.2774 -0.2632 -2.1186
 3864SOL     OW23224   2.160   1.019  11.627  0.7652 -0.2155  0.5041
 3864SOL    HW123225   2.163   1.114  11.627  0.3064 -0.2027 -1.2782
 3864SOL    HW223226   2.173   0.987  11.538 -1.9305  0.2429 -0.0530
 3865SOL     OW23227   2.392   2.799   0.285  0.6527  0.6995 -0.3499
 3865SOL    HW123228   2.333   2.798   0.361 -0.9748 -0.7179 -1.6276
 3865SOL    HW223229   2.407   2.893   0.274  0.0067  0.5704 -2.3074
 3866SOL     OW23230   0.240   0.643   3.220 -0.1291 -0.2306  0.1751
 3866SOL    HW123231   0.233   0.616   3.312  2.7203  0.5129  0.6011
 3866SOL    HW223232   0.310   0.581   3.198  0.0514  0.4377 -1.1293
 3867SOL     OW23233   1.228   1.122  15.120 -0.2922 -0.4128 -0.9935
 3867SOL    HW123234   1.296   1.095  15.182 -1.8948  1.3450  1.5580
 3867SOL    HW223235   1.242   1.061  15.048 -2.0371  0.4866 -2.1079
 3868SOL     OW23236   1.930   1.198   7.027 -0.5315  0.2106 -0.0613
 3868SOL    HW123237   1.875   1.241   7.091 -2.0999  0.3772 -1.5251
 3868SOL    HW223238   1.866   1.142   6.984 -3.0474  2.6322  0.5777
 3869SOL     OW23239   0.577   2.156  14.145 -0.8304  0.0073  0.1994
 3869SOL    HW123240   0.652   2.127  14.094 -0.8120 -1.8733  1.2808
 3869SOL    HW223241   0.605   2.247  14.145  0.7406 -0.4744 -0.6356
 3870SOL     OW23242   4.707   1.556   5.579 -0.1230  0.1034  0.1791
 3870SOL    HW123243   4.624   1.604   5.573 -0.3531 -0.1311  1.4643
 3870SOL    HW223244   0.008   1.588   5.660  0.4414  0.6529 -0.3193
 3871SOL     OW23245   4.048   3.425   5.510  0.5005  0.7758 -0.2948
 3871SOL    HW123246   4.006   3.382   5.584 -0.5280 -1.0931 -1.9712
 3871SOL    HW223247   4.118   3.470   5.558 -0.5501  0.2494  1.7148
 3872SOL     OW23248   4.636   1.947   0.796 -0.1530 -0.0266 -0.4189
 3872SOL    HW123249   4.644   1.867   0.744 -3.0018 -0.2122 -0.5821
 3872SOL    HW223250   4.699   2.007   0.757  1.7996 -1.7096  0.1800
 3873SOL     OW23251   4.048   1.493   0.596  0.6171  0.1133  0.7224
 3873SOL    HW123252   4.058   1.588   0.608  1.7849  0.3490 -2.2504
 3873SOL    HW223253   4.101   1.459   0.668 -1.5649  0.9311  2.7473
 3874SOL     OW23254   1.308   4.517  12.974 -0.0298  0.5764 -0.5637
 3874SOL    HW123255   1.259   4.580  12.922  0.5712  0.3377 -1.4139
 3874SOL    HW223256   1.318   4.446  12.910 -1.9501  0.9131 -1.2576
 3875SOL     OW23257   2.376   1.765  13.970  0.1754  1.0237  0.1184
 3875SOL    HW123258   2.332   1.772  14.055 -0.1071  0.8833 -0.0187
 3875SOL    HW223259   2.435   1.693  13.991 -0.5690  0.6185  0.8015
 3876SOL     OW23260   1.633   3.515   0.657  0.6287 -0.3357 -0.6326
 3876SOL    HW123261   1.538   3.527   0.662  0.6008 -0.9609  0.2726
 3876SOL    HW223262   1.636   3.429   0.616  1.4986 -0.4709 -0.2709
 3877SOL     OW23263   3.184   3.131  17.259  0.2939  0.1683  0.2483
 3877SOL    HW123264   3.130   3.053  17.245 -0.8683  1.3498 -1.7836
 3877SOL    HW223265   3.228   3.115  17.342  0.9567  0.2575 -0.0892
 3878SOL     OW23266   2.508   1.078   2.705 -0.4273 -0.4409  0.4204
 3878SOL    HW123267   2.570   1.135   2.752 -0.9029  0.5496 -0.1342
 3878SOL    HW223268   2.530   1.110   2.617 -2.0564  0.9822  0.5237
 3879SOL     OW23269   4.522   3.299  13.745 -0.1409  0.0091 -0.2902
 3879SOL    HW123270   4.566   3.379  13.715  1.1242 -0.5710  0.0436
 3879SOL    HW223271   4.569   3.234  13.693  0.3408  0.7690 -0.7998
 3880SOL     OW23272   2.877   3.060   3.308 -0.6414  0.0448 -0.0055
 3880SOL    HW123273   2.891   3.152   3.284 -0.8155  0.4185  1.3609
 3880SOL    HW223274   2.799   3.035   3.258 -1.4868 -1.0241  1.8485
 3881SOL     OW23275   3.570   2.489   0.916  0.7509  0.1222 -0.0046
 3881SOL    HW123276   3.490   2.446   0.888  0.9115  0.5657 -1.1617
 3881SOL    HW223277   3.572   2.565   0.858  1.6488  0.0631 -0.0597
 3882SOL     OW23278   1.949   0.373   7.897  0.3387 -0.1916  0.2385
 3882SOL    HW123279   1.974   0.315   7.825 -0.1059  0.1511 -0.1918
 3882SOL    HW223280   1.910   0.306   7.953 -0.6419  0.2197  0.0421
 3883SOL     OW23281   1.569   2.779   9.263 -0.5464 -0.5496  0.3873
 3883SOL    HW123282   1.518   2.807   9.187 -0.3968  1.5347  1.0558
 3883SOL    HW223283   1.507   2.789   9.335  0.9154 -1.4133  1.7700
 3884SOL     OW23284   2.397   1.773  12.843  0.0375  0.0144  0.0979
 3884SOL    HW123285   2.428   1.786  12.753  1.7381  1.8054  0.9470
 3884SOL    HW223286   2.432   1.685  12.857 -1.8912 -0.7240  0.3306
 3885SOL     OW23287   3.376   0.087  13.764  0.0007  0.1163 -0.2570
 3885SOL    HW123288   3.466   0.096  13.798 -0.9780 -2.0311  2.9182
 3885SOL    HW223289   3.337   0.166  13.801  1.6488  0.0660  1.6199
 3886SOL     OW23290   3.823   0.267   6.284  0.1734  0.0907  0.0181
 3886SOL    HW123291   3.747   0.240   6.336 -0.4626  2.9901  0.5851
 3886SOL    HW223292   3.841   0.354   6.320  0.2648 -0.4419  1.2648
 3887SOL     OW23293   0.976   1.955   6.105 -0.1285  0.7086  0.1792
 3887SOL    HW123294   0.911   1.975   6.172 -0.4345 -1.9245  0.6620
 3887SOL    HW223295   0.931   1.905   6.037  3.4902 -0.1334 -1.6116
 3888SOL     OW23296   0.376   2.311   7.438  0.0332 -0.0060  0.2412
 3888SOL    HW123297   0.383   2.230   7.387  0.3199 -0.2059  0.5958
 3888SOL    HW223298   0.407   2.276   7.522 -0.7179 -0.0616  0.4996
 3889SOL     OW23299   4.105   4.422   3.040 -0.3330 -0.0930  0.4009
 3889SOL    HW123300   4.109   4.512   3.072  0.5203 -0.5139  1.5003
 3889SOL    HW223301   4.148   4.370   3.108 -1.2531 -2.1513 -0.5986
 3890SOL     OW23302   0.171   2.672   5.337  0.1316 -0.2390  0.1684
 3890SOL    HW123303   0.116   2.625   5.400  0.6039 -0.9385  0.0607
 3890SOL    HW223304   0.169   2.607   5.267 -0.2345 -2.0696  1.8796
 3891SOL     OW23305   1.397   0.962   8.705 -0.4646  0.2601 -0.1249
 3891SOL    HW123306   1.480   0.914   8.702 -0.8967 -0.5783  1.0545
 3891SOL    HW223307   1.352   0.932   8.626 -2.9950  2.3003  0.5468
 3892SOL     OW23308   3.672   3.417  14.815 -0.0200 -0.5414  0.4760
 3892SOL    HW123309   3.602   3.443  14.873 -0.9267  0.1654 -0.9286
 3892SOL    HW223310   3.625   3.432  14.733  2.5643  0.1829 -0.8859
 3893SOL     OW23311   3.612   0.540  11.702  0.1149  0.0794  0.4096
 3893SOL    HW123312   3.672   0.597  11.750  0.3559  0.0805  0.1056
 3893SOL    HW223313   3.655   0.457  11.722 -2.0635 -1.4187 -1.0069
 3894SOL     OW23314   3.350   3.402  11.243 -0.0177 -0.4112 -0.7771
 3894SOL    HW123315   3.356   3.354  11.160 -0.3264 -1.3820 -0.2435
 3894SOL    HW223316   3.338   3.328  11.302 -2.2671 -0.5209 -1.3662
 3895SOL     OW23317   1.269   4.077   4.440  0.6690  0.0545 -0.1654
 3895SOL    HW123318   1.216   4.023   4.381 -1.4800  1.1219  0.8036
 3895SOL    HW223319   1.354   4.084   4.396  0.1777 -0.9214 -1.2959
 3896SOL     OW23320   2.268   2.352   4.122  0.2275 -0.7285  0.0125
 3896SOL    HW123321   2.179   2.326   4.099 -0.2224 -0.2473  1.1975
 3896SOL    HW223322   2.286   2.404   4.044 -1.9400 -0.1192 -0.0887
 3897SOL     OW23323   2.391   3.428  13.681 -0.2543  0.6216  0.4385
 3897SOL    HW123324   2.427   3.430  13.592  1.0871  1.2262  0.9947
 3897SOL    HW223325   2.461   3.379  13.725  2.4731  1.6169 -2.8122
 3898SOL     OW23326   1.803   0.170   2.861 -0.0877  0.1618  0.3150
 3898SOL    HW123327   1.789   0.080   2.834 -1.0280  0.6173 -0.6986
 3898SOL    HW223328   1.745   0.185   2.936  1.8185 -2.0612  2.2141
 3899SOL     OW23329   0.989   1.500   1.580 -0.2221 -0.3461  0.1405
 3899SOL    HW123330   0.934   1.566   1.624 -1.5687 -1.4580  0.1154
 3899SOL    HW223331   0.941   1.475   1.501  1.9266  0.9157 -1.5581
 3900SOL     OW23332   2.342   4.032   1.935  0.2989  0.0866 -0.2089
 3900SOL    HW123333   2.274   4.018   1.870 -1.0685  0.4308  1.1411
 3900SOL    HW223334   2.422   4.033   1.883  0.7670  1.8195  0.5274
 3901SOL     OW23335   1.427   3.794   9.122  0.1481  0.2695 -0.0796
 3901SOL    HW123336   1.517   3.822   9.136  0.6503 -2.3368  1.8406
 3901SOL    HW223337   1.396   3.871   9.074 -1.6861 -1.5099 -1.7598
 3902SOL     OW23338   1.415   0.106   5.026  0.3602 -0.7144 -0.1730
 3902SOL    HW123339   1.506   0.081   5.009  0.4692 -0.9609  0.7815
 3902SOL    HW223340   1.425   0.151   5.110 -1.8470 -0.9220  0.2019
 3903SOL     OW23341   1.406   0.773  13.074 -0.4684 -0.6887  0.1760
 3903SOL    HW123342   1.452   0.857  13.080  0.2137 -0.9930 -0.9765
 3903SOL    HW223343   1.453   0.742  12.997  0.3279 -0.0271  0.3959
 3904SOL     OW23344   1.489   4.016  14.580  0.3544  0.5384 -0.0914
 3904SOL    HW123345   1.412   3.983  14.534 -0.1372  1.7810 -0.1614
 3904SOL    HW223346   1.485   4.111  14.571 -1.7460  0.3143 -1.4417
 3905SOL     OW23347   1.863   0.770   5.555  0.1210 -0.3091  0.3045
 3905SOL    HW123348   1.879   0.726   5.639  0.3820  1.5665  1.2363
 3905SOL    HW223349   1.769   0.788   5.559  0.3409  1.1362 -1.1274
 3906SOL     OW23350   1.523   1.064   5.592  0.5860 -0.2368  0.1705
 3906SOL    HW123351   1.531   1.008   5.669  1.4849 -0.1317  0.1514
 3906SOL    HW223352   1.574   1.140   5.617  1.0478  0.4569 -2.8621
 3907SOL     OW23353   1.695   4.289   9.050 -0.0758  0.3804 -0.1527
 3907SOL    HW123354   1.706   4.296   9.145  0.9964 -0.5366 -0.2116
 3907SOL    HW223355   1.730   4.374   9.023 -2.9541  2.1034  1.4600
 3908SOL     OW23356   2.444   2.955   3.906  0.1219  0.4948 -0.2866
 3908SOL    HW123357   2.455   3.034   3.958  0.1997  0.4187 -0.1876
 3908SOL    HW223358   2.364   2.918   3.942  0.2337 -0.8576 -1.4519
 3909SOL     OW23359   4.338   2.414   5.870  0.2601  0.6641 -0.3480
 3909SOL    HW123360   4.334   2.368   5.954 -0.4894 -0.0706 -0.7974
 3909SOL    HW223361   4.256   2.396   5.825 -0.0649 -1.6057  1.1799
 3910SOL     OW23362   2.459   0.530   4.297  0.4368 -0.3777  0.0131
 3910SOL    HW123363   2.412   0.613   4.294  2.1364  0.4873 -2.3751
 3910SOL    HW223364   2.547   0.563   4.310  0.1541  0.2187  0.4069
 3911SOL     OW23365   0.841   4.077   6.944 -0.7973 -0.9057  0.7497
 3911SOL    HW123366   0.881   4.163   6.944 -1.7837 -0.4501 -1.4550
 3911SOL    HW223367   0.755   4.098   6.980  0.4756  0.8674  2.6906
 3912SOL     OW23368   2.662   4.716   9.073  0.3958  0.0080 -0.5779
 3912SOL    HW123369   2.693   0.038   9.142  2.6491 -0.5240 -1.1151
 3912SOL    HW223370   2.698   0.024   8.998  0.0090  0.0300 -0.7506
 3913SOL     OW23371   1.627   2.319   0.255 -0.6107  0.3304  0.0830
 3913SOL    HW123372   1.584   2.380   0.195 -1.0430 -0.3159 -0.2595
 3913SOL    HW223373   1.572   2.243   0.272 -1.1678  0.2423 -2.1571
 3914SOL     OW23374   0.775   3.869   8.856 -0.2987 -0.1619  0.2706
 3914SOL    HW123375   0.755   3.779   8.882 -1.8880  0.1315  0.0449
 3914SOL    HW223376   0.844   3.893   8.918 -0.6520 -0.7685  0.9106
 3915SOL     OW23377   2.531   0.951   2.313  0.0697  0.1728 -0.4439
 3915SOL    HW123378   2.509   1.042   2.333  0.9179  0.6626 -1.7193
 3915SOL    HW223379   2.608   0.943   2.370 -2.4902  0.4076  3.0526
 3916SOL     OW23380   3.080   3.756   4.089  0.1343  0.6900 -0.2494
 3916SOL    HW123381   3.067   3.673   4.044  2.6055  0.6890 -0.9507
 3916SOL    HW223382   2.994   3.755   4.132  0.0494 -0.0428 -0.4323
 3917SOL     OW23383   4.636   4.689   4.049  0.0031 -0.1755  0.4055
 3917SOL    HW123384   4.690   0.017   4.005 -1.5586  1.5380  1.0740
 3917SOL    HW223385   4.603   4.647   3.969  2.2164 -0.4565 -0.3708
 3918SOL     OW23386   2.706   2.586   2.584 -0.1305  0.3557 -0.7260
 3918SOL    HW123387   2.756   2.531   2.524  0.3028 -0.5139  0.4427
 3918SOL    HW223388   2.743   2.566   2.670 -0.3427  2.0649 -0.2454
 3919SOL     OW23389   1.554   3.065   6.857 -0.4496 -0.2100  0.5880
 3919SOL    HW123390   1.475   3.034   6.813  0.6357 -0.8775 -0.8834
 3919SOL    HW223391   1.511   3.089   6.939  1.0283 -0.4704  1.4332
 3920SOL     OW23392   2.259   4.104  11.680  0.0283  0.4955 -0.4621
 3920SOL    HW123393   2.350   4.105  11.710 -0.3296 -0.4170  0.6422
 3920SOL    HW223394   2.236   4.015  11.707  1.3002  0.5916  0.8885
 3921SOL     OW23395   1.164   1.610   2.143  0.1526  0.0264  0.0623
 3921SOL    HW123396   1.257   1.608   2.120 -0.3497  0.8451 -2.0609
 3921SOL    HW223397   1.161   1.641   2.233  0.4972  0.0827  0.0566
 3922SOL     OW23398   2.035   2.588   3.598 -0.3783  0.3191  0.1335
 3922SOL    HW123399   2.120   2.584   3.555 -0.5976 -1.2925 -0.1441
 3922SOL    HW223400   2.070   2.585   3.687 -0.7757  1.2792  0.3198
 3923SOL     OW23401   2.928   4.032   5.039  0.0927  0.4128  0.2491
 3923SOL    HW123402   2.904   3.942   5.016  0.7513  0.8969 -2.3161
 3923SOL    HW223403   2.874   4.066   4.968  0.4814  2.4423  0.8997
 3924SOL     OW23404   3.887   4.571   7.724 -0.0843  0.2137 -0.4241
 3924SOL    HW123405   3.842   4.490   7.750 -0.7783  1.1355  1.2511
 3924SOL    HW223406   3.808   4.609   7.687 -2.2277 -3.1179  0.7139
 3925SOL     OW23407   1.788   1.946  11.859 -0.3998 -0.1473  0.1261
 3925SOL    HW123408   1.863   1.974  11.911  0.7828 -0.6449 -1.3133
 3925SOL    HW223409   1.736   1.901  11.926 -0.0524  1.0408  1.2034
 3926SOL     OW23410   2.617   0.936   8.549  0.7121 -0.0983  0.8322
 3926SOL    HW123411   2.650   0.852   8.578  1.6665  0.1703  0.5216
 3926SOL    HW223412   2.699   0.983   8.532 -0.7623  1.7228 -1.2841
 3927SOL     OW23413   4.641   0.264   4.926  0.4357  0.3792 -0.0508
 3927SOL    HW123414   4.706   0.227   4.866  0.4024 -0.1681  0.2506
 3927SOL    HW223415   4.596   0.185   4.957  1.0912 -0.5201 -1.3958
 3928SOL     OW23416   2.584   3.200   7.869  0.2228  0.5368  0.6670
 3928SOL    HW123417   2.572   3.294   7.885 -0.9092  0.7511 -1.5022
 3928SOL    HW223418   2.605   3.164   7.956  2.9827  1.2115  0.2741
 3929SOL     OW23419   0.316   1.602  10.462 -0.2285  0.2542 -0.4760
 3929SOL    HW123420   0.225   1.630  10.464  0.0478  1.1910 -1.0637
 3929SOL    HW223421   0.312   1.555  10.545  0.8823 -1.4296 -1.3608
 3930SOL     OW23422   3.180   1.681  16.488  0.0092 -0.3350 -0.4095
 3930SOL    HW123423   3.171   1.590  16.516 -1.8478  0.9575  3.2383
 3930SOL    HW223424   3.255   1.663  16.433  1.5838  0.3988  1.4907
 3931SOL     OW23425   3.740   2.750  10.883  0.9329 -0.0181  0.3561
 3931SOL    HW123426   3.736   2.680  10.948 -0.0779  1.3596  1.7999
 3931SOL    HW223427   3.707   2.825  10.935 -1.3318  0.2458 -1.4478
 3932SOL     OW23428   2.604   4.481   2.780 -0.4913 -0.1455  0.1172
 3932SOL    HW123429   2.630   4.406   2.726 -0.7521 -0.0063 -0.2079
 3932SOL    HW223430   2.676   4.543   2.770  0.2388 -1.0143  0.0009
 3933SOL     OW23431   1.165   1.763   5.672 -0.5438 -0.1524  0.6541
 3933SOL    HW123432   1.232   1.814   5.626  0.0638  0.8027  2.5752
 3933SOL    HW223433   1.191   1.679   5.634 -2.8100 -0.2441 -0.6697
 3934SOL     OW23434   1.194   2.396   7.059 -0.1254 -0.0388  0.0340
 3934SOL    HW123435   1.122   2.454   7.035  1.1977  1.7063  0.3536
 3934SOL    HW223436   1.269   2.439   7.018  0.5710 -0.1394  1.2237
 3935SOL     OW23437   1.535   3.659  17.354  0.1933  0.2322 -0.1309
 3935SOL    HW123438   1.584   3.619  17.281 -0.3123  1.2130 -1.0174
 3935SOL    HW223439   1.503   3.740  17.314 -0.6587 -0.4216 -0.7844
 3936SOL     OW23440   4.601   1.022   8.619  0.1124  0.6014 -0.1646
 3936SOL    HW123441   4.665   1.077   8.665 -0.3358  2.0460 -1.2849
 3936SOL    HW223442   4.522   1.072   8.639 -1.0717 -1.0315 -0.8251
 3937SOL     OW23443   0.005   3.391   1.278  0.2183 -0.0856 -0.9721
 3937SOL    HW123444   4.697   3.389   1.194  0.8675  0.3380 -1.3328
 3937SOL    HW223445   0.055   3.310   1.269 -0.6043 -0.7651  0.4657
 3938SOL     OW23446   0.293   3.095   2.313  0.2635 -0.2815  0.3276
 3938SOL    HW123447   0.230   3.029   2.282  0.7159 -0.6050  0.1001
 3938SOL    HW223448   0.327   3.127   2.230 -0.3549 -1.5994 -0.4284
 3939SOL     OW23449   1.215   3.787   2.841  0.2933  0.9070 -0.5117
 3939SOL    HW123450   1.272   3.825   2.908 -1.5609  2.8225 -0.0095
 3939SOL    HW223451   1.179   3.867   2.804  0.3246  2.0254  1.8944
 3940SOL     OW23452   0.393   2.937  16.167 -0.3791 -0.4201  0.5187
 3940SOL    HW123453   0.391   2.959  16.074 -2.3263 -0.7011  0.5055
 3940SOL    HW223454   0.325   2.870  16.171 -2.5982  1.7916  0.1707
 3941SOL     OW23455   0.898   4.227   5.479  0.3355  0.8266 -0.0735
 3941SOL    HW123456   0.841   4.242   5.555 -0.4316  1.2938 -0.7501
 3941SOL    HW223457   0.844   4.281   5.422  0.2014 -1.0390 -1.6938
 3942SOL     OW23458   1.750   3.412   3.404 -0.0679 -0.1113 -0.4909
 3942SOL    HW123459   1.824   3.466   3.378 -1.7643  1.9647 -1.0499
 3942SOL    HW223460   1.749   3.330   3.355  0.7485 -1.2689  1.4293
 3943SOL     OW23461   2.584   1.040  13.624 -0.6857  0.8727  0.0305
 3943SOL    HW123462   2.489   1.046  13.632 -1.0863 -2.6336 -1.8805
 3943SOL    HW223463   2.595   1.126  13.585 -2.4829  0.9380 -0.3443
 3944SOL     OW23464   0.333   0.998   8.359  0.1148  0.8466 -0.0886
 3944SOL    HW123465   0.329   0.912   8.400  1.1232 -0.6892 -3.2252
 3944SOL    HW223466   0.256   0.987   8.303  0.4651  0.7070 -0.5345
 3945SOL     OW23467   4.287   1.650   0.330 -0.2555  0.1622  0.1766
 3945SOL    HW123468   4.314   1.677   0.418 -3.0642  1.1198  0.7274
 3945SOL    HW223469   4.276   1.740   0.297  1.1011 -0.3489 -1.6671
 3946SOL     OW23470   4.316   1.704   9.781 -0.3823  0.0412 -0.3169
 3946SOL    HW123471   4.322   1.699   9.876  5.2597  0.6116 -0.6863
 3946SOL    HW223472   4.280   1.619   9.755  0.5640 -0.8717  1.3311
 3947SOL     OW23473   2.026   4.218   5.307  0.1545  0.0132  0.0530
 3947SOL    HW123474   1.993   4.307   5.293  1.9670  0.6054 -0.4569
 3947SOL    HW223475   1.987   4.186   5.226  0.3408 -0.1228  0.0185
 3948SOL     OW23476   2.086   2.300  12.179 -0.7987 -0.4682  0.3898
 3948SOL    HW123477   2.028   2.282  12.253 -2.9087 -0.6451 -1.3000
 3948SOL    HW223478   2.033   2.325  12.103  1.7593 -0.5808 -1.4351
 3949SOL     OW23479   0.086   4.210   4.480  0.4473 -0.1122  0.7165
 3949SOL    HW123480   0.061   4.206   4.388  1.2797 -1.7448  0.5592
 3949SOL    HW223481   0.005   4.182   4.522  1.3621  0.2587  2.7369
 3950SOL     OW23482   0.998   1.094   3.636  0.0692 -0.6216  0.0847
 3950SOL    HW123483   0.918   1.134   3.671  0.1469 -1.0908  0.7915
 3950SOL    HW223484   0.958   1.016   3.598  0.5627 -0.9832  0.3054
 3951SOL     OW23485   0.983   4.675   3.614 -0.2509 -0.0401  0.5770
 3951SOL    HW123486   1.025   4.653   3.698 -1.1983  0.7146  1.2475
 3951SOL    HW223487   1.059   4.670   3.557  0.0133  3.1369  0.6873
 3952SOL     OW23488   1.858   0.604   2.119 -0.1808  0.4949 -0.0565
 3952SOL    HW123489   1.925   0.648   2.171  0.3446  2.0822 -2.0634
 3952SOL    HW223490   1.907   0.523   2.099 -0.2299  1.2794 -3.3250
 3953SOL     OW23491   4.253   0.925   2.318  0.0794 -0.7700 -0.4342
 3953SOL    HW123492   4.217   1.005   2.357  1.8014 -0.6134  0.8413
 3953SOL    HW223493   4.346   0.946   2.309  0.2158 -0.5618  1.3300
 3954SOL     OW23494   0.476   1.493  16.116  0.4698 -0.8161  0.6960
 3954SOL    HW123495   0.523   1.415  16.087 -3.9779 -3.6399  1.1438
 3954SOL    HW223496   0.399   1.452  16.153  0.6045 -2.4100 -0.8050
 3955SOL     OW23497   0.776   4.320   2.304 -0.3219 -0.1647  0.0629
 3955SOL    HW123498   0.788   4.388   2.238  0.7206 -1.3794 -1.0111
 3955SOL    HW223499   0.681   4.321   2.316 -0.4120 -1.0965 -0.5690
 3956SOL     OW23500   2.325   3.533   6.944 -0.3632  0.5764 -0.0612
 3956SOL    HW123501   2.314   3.479   7.022  0.7868 -1.3685 -1.2495
 3956SOL    HW223502   2.359   3.613   6.984  0.3189 -0.0047  0.5284
 3957SOL     OW23503   4.142   3.477   6.731  0.5132  0.7824  0.2185
 3957SOL    HW123504   4.188   3.395   6.751  0.6555  0.6317 -0.7601
 3957SOL    HW223505   4.196   3.510   6.660 -0.7410 -0.0019 -1.0800
 3958SOL     OW23506   2.125   1.163   7.255  0.2138  0.1311  0.9871
 3958SOL    HW123507   2.052   1.131   7.202 -0.1754 -0.2648  1.7669
 3958SOL    HW223508   2.196   1.133   7.198 -1.5777 -1.9673 -0.1515
 3959SOL     OW23509   3.073   4.387   6.710 -0.1222  0.6828  0.4437
 3959SOL    HW123510   3.090   4.310   6.763  1.1081  1.0597  0.5884
 3959SOL    HW223511   2.979   4.386   6.692  0.3169  2.1357 -1.9467
 3960SOL     OW23512   3.271   3.734  11.828 -0.1336  0.1105 -0.1024
 3960SOL    HW123513   3.333   3.676  11.785 -0.0151  0.8743 -0.9583
 3960SOL    HW223514   3.335   3.796  11.863 -2.0995  0.9693  1.9822
 3961SOL     OW23515   3.088   4.713   6.506  0.0051  0.0975 -0.0549
 3961SOL    HW123516   3.134   0.057   6.489  2.7647 -1.2663  0.7633
 3961SOL    HW223517   3.106   4.702   6.599 -0.1749 -0.5264 -0.0881
 3962SOL     OW23518   4.725   1.218   4.596  0.4146 -0.2657  0.6981
 3962SOL    HW123519   4.726   1.136   4.646  0.4312  0.4605  1.8787
 3962SOL    HW223520   0.029   1.185   4.516  0.1169  0.6933  0.1464
 3963SOL     OW23521   3.525   1.850   0.392 -0.1443  0.2148  0.0038
 3963SOL    HW123522   3.524   1.805   0.476  1.4326 -0.0731 -0.1435
 3963SOL    HW223523   3.560   1.935   0.416  1.0086  0.0985 -1.2879
 3964SOL     OW23524   3.602   1.626  10.687  0.3366  0.1667  0.6733
 3964SOL    HW123525   3.601   1.685  10.612  0.1694  0.4268  0.8776
 3964SOL    HW223526   3.564   1.546  10.651  1.0137 -0.0526  0.4515
 3965SOL     OW23527   0.171   3.637  14.069 -0.5988  0.0230  0.9251
 3965SOL    HW123528   0.096   3.587  14.103 -0.5046  2.2487  4.3829
 3965SOL    HW223529   0.207   3.668  14.152 -1.1593  0.6059  0.9495
 3966SOL     OW23530   0.761   1.153   9.230 -0.1260  0.1684  0.4028
 3966SOL    HW123531   0.677   1.109   9.219 -0.6273  1.8819 -2.7802
 3966SOL    HW223532   0.810   1.085   9.276  0.3712 -0.9517 -1.7610
 3967SOL     OW23533   1.956   2.729   4.483  0.6515 -0.0539 -0.0560
 3967SOL    HW123534   1.945   2.637   4.457  3.7103 -0.3082 -0.5543
 3967SOL    HW223535   1.870   2.767   4.470  0.9259 -0.0174 -1.7970
 3968SOL     OW23536   1.616   3.813   8.572 -0.1268  0.5111  0.2209
 3968SOL    HW123537   1.666   3.895   8.567  0.9168 -0.3469 -3.3399
 3968SOL    HW223538   1.569   3.816   8.489 -2.6097 -0.6195  1.5864
 3969SOL     OW23539   0.683   3.088   1.677 -0.2197 -0.0147 -0.2831
 3969SOL    HW123540   0.693   3.121   1.588 -2.1907 -2.9278 -1.5666
 3969SOL    HW223541   0.588   3.084   1.684 -0.2268 -0.8922 -0.8749
 3970SOL     OW23542   4.599   0.132  11.845 -0.6168 -0.0854  0.2701
 3970SOL    HW123543   4.599   0.154  11.751  0.9603  0.6818  0.4481
 3970SOL    HW223544   4.594   0.037  11.830 -1.7368 -0.1363  1.0278
 3971SOL     OW23545   2.501   0.124   8.691 -0.1332  0.1779 -0.2458
 3971SOL    HW123546   2.517   0.032   8.707 -2.8640 -0.1730  0.5302
 3971SOL    HW223547   2.407   0.122   8.671 -0.2923  1.3605  0.3399
 3972SOL     OW23548   2.394   3.901   6.311 -0.2916  0.1697 -0.0338
 3972SOL    HW123549   2.356   3.868   6.230 -1.7688 -0.3692  0.8849
 3972SOL    HW223550   2.411   3.823   6.363  1.5246  0.9641  0.5869
 3973SOL     OW23551   4.107   3.297  13.132 -0.4713 -0.6289  0.5109
 3973SOL    HW123552   4.080   3.207  13.145 -1.0507 -0.3439  1.2412
 3973SOL    HW223553   4.161   3.299  13.211 -1.8585  1.7490  1.3947
 3974SOL     OW23554   0.518   2.932   1.277 -0.9285  0.0728  0.4358
 3974SOL    HW123555   0.467   2.963   1.202  2.1235  1.4599 -1.0616
 3974SOL    HW223556   0.454   2.913   1.345 -0.5331 -2.3962  0.1019
 3975SOL     OW23557   3.445   1.344   0.579  0.3997 -0.1966  0.0513
 3975SOL    HW123558   3.375   1.291   0.617 -0.4795  1.2537  0.4681
 3975SOL    HW223559   3.522   1.317   0.630  1.7764  1.5633 -1.1117
 3976SOL     OW23560   3.163   1.196   5.966  0.3867 -0.4816  0.3155
 3976SOL    HW123561   3.193   1.117   5.922  1.5947  0.4946 -0.6211
 3976SOL    HW223562   3.244   1.244   5.977 -1.4365  2.5243  0.6631
 3977SOL     OW23563   0.783   1.829   8.793 -0.2123  0.4100  0.8637
 3977SOL    HW123564   0.700   1.832   8.744 -0.3089  0.1224  1.0044
 3977SOL    HW223565   0.746   1.795   8.875  0.3520  2.7632  2.0813
 3978SOL     OW23566   4.734   3.144   1.706  0.1368 -0.2261 -0.8177
 3978SOL    HW123567   0.046   3.112   1.632  2.2637  1.5959 -0.1604
 3978SOL    HW223568   4.669   3.193   1.656 -0.6152 -2.2502 -1.7931
 3979SOL     OW23569   3.659   2.898   1.548  0.0448  0.0402  0.0910
 3979SOL    HW123570   3.604   2.852   1.485 -0.0858  0.5980 -0.2023
 3979SOL    HW223571   3.658   2.839   1.623 -1.5618  1.1676  0.9424
 3980SOL     OW23572   4.605   0.700   7.214  0.1689  0.0611  0.3703
 3980SOL    HW123573   4.576   0.775   7.162  0.2696  1.4285  2.2786
 3980SOL    HW223574   4.578   0.726   7.302  1.0018  2.4011 -0.0809
 3981SOL     OW23575   0.311   3.980   4.791 -0.1928 -0.5195  0.1650
 3981SOL    HW123576   0.337   3.921   4.862  1.0473 -0.1550  0.0040
 3981SOL    HW223577   0.216   3.969   4.787  0.3403 -4.1087 -2.6566
 3982SOL     OW23578   2.157   0.649   3.330 -0.0447 -0.3184 -0.5385
 3982SOL    HW123579   2.115   0.706   3.265  0.0048 -2.2401 -2.2875
 3982SOL    HW223580   2.190   0.714   3.391 -0.0065  0.1720 -1.0753
 3983SOL     OW23581   0.091   1.899   4.629 -0.5054 -0.0535 -0.4634
 3983SOL    HW123582   0.023   1.845   4.670  0.9092  0.4425  2.4707
 3983SOL    HW223583   0.075   1.974   4.685  0.8570  1.2510 -1.8168
 3984SOL     OW23584   0.496   2.370  10.831 -0.1866 -0.2677 -0.2450
 3984SOL    HW123585   0.564   2.308  10.858 -0.0216  0.3873  0.8498
 3984SOL    HW223586   0.501   2.352  10.738 -1.9839 -0.5668 -0.2743
 3985SOL     OW23587   1.442   4.448   5.632  0.3624 -0.0312  0.2193
 3985SOL    HW123588   1.405   4.402   5.556  1.3342 -0.1984 -0.1415
 3985SOL    HW223589   1.504   4.381   5.659 -1.2573 -2.0677 -1.0357
 3986SOL     OW23590   1.130   1.420   2.636 -0.2857 -0.1974 -0.4817
 3986SOL    HW123591   1.207   1.371   2.607 -1.1866 -1.5418 -0.6443
 3986SOL    HW223592   1.069   1.405   2.564 -2.3980 -1.0338  1.4598
 3987SOL     OW23593   0.875   1.982  16.305  0.1418 -0.0437  0.0920
 3987SOL    HW123594   0.949   1.984  16.244  1.7455 -1.3821  1.9612
 3987SOL    HW223595   0.810   1.933  16.256  0.5697 -0.4714 -0.0476
 3988SOL     OW23596   0.295   1.579   7.930 -0.2010 -0.3388  0.1883
 3988SOL    HW123597   0.359   1.643   7.897  0.4000 -0.9477  0.1830
 3988SOL    HW223598   0.234   1.584   7.856  0.7421 -2.4585 -0.7372
 3989SOL     OW23599   0.687   3.382   7.366  0.3357  0.0639  0.1440
 3989SOL    HW123600   0.760   3.382   7.305  1.6672 -1.8097  1.7492
 3989SOL    HW223601   0.609   3.354   7.317  0.6579 -2.3839  1.0684
 3990SOL     OW23602   3.944   2.608   6.275 -0.2353 -0.1330 -0.7541
 3990SOL    HW123603   3.898   2.660   6.209 -0.8922  0.0264 -0.1804
 3990SOL    HW223604   3.898   2.523   6.271  1.5225 -1.0349 -1.4809
 3991SOL     OW23605   0.624   2.382   0.141  0.5756 -0.1387  0.0886
 3991SOL    HW123606   0.678   2.453   0.176 -0.4850 -0.0736  1.5921
 3991SOL    HW223607   0.561   2.432   0.089 -1.2741 -1.9965  0.5452
 3992SOL     OW23608   4.267   3.008   6.302 -0.1644  0.8945 -1.3211
 3992SOL    HW123609   4.291   3.100   6.289 -1.8088  1.4542 -0.4893
 3992SOL    HW223610   4.198   2.995   6.236 -1.6259 -0.0254  0.3964
 3993SOL     OW23611   1.534   2.370  14.778 -0.0935  0.2535 -0.0026
 3993SOL    HW123612   1.528   2.440  14.843  0.0825  1.6771 -1.5023
 3993SOL    HW223613   1.541   2.298  14.840  1.1805 -0.3186 -0.8135
 3994SOL     OW23614   4.280   2.809  10.436 -0.5042 -0.0054 -0.1010
 3994SOL    HW123615   4.360   2.856  10.460 -0.9841 -0.2814  2.1023
 3994SOL    HW223616   4.252   2.765  10.516 -1.3704  0.3521 -0.2063
 3995SOL     OW23617   1.340   0.823   5.962 -0.1082  0.1365 -0.3472
 3995SOL    HW123618   1.293   0.907   5.968 -1.8480 -0.8864  0.4145
 3995SOL    HW223619   1.273   0.768   6.004  0.1656  1.6266  2.0911
 3996SOL     OW23620   2.389   2.322   3.777 -0.1460 -0.0970 -0.5087
 3996SOL    HW123621   2.361   2.241   3.735 -0.6108 -0.3189  0.2348
 3996SOL    HW223622   2.463   2.354   3.725  0.4192 -1.8856 -0.8092
 3997SOL     OW23623   2.205   3.823   0.259 -0.5324 -0.1342  0.5199
 3997SOL    HW123624   2.193   3.757   0.190 -0.6698 -0.4889  0.8851
 3997SOL    HW223625   2.143   3.889   0.228 -0.4316  0.0531  0.7171
 3998SOL     OW23626   0.352   0.757   0.652  0.1401 -0.9382 -0.4940
 3998SOL    HW123627   0.381   0.823   0.589  0.0656  0.4701  0.9701
 3998SOL    HW223628   0.397   0.684   0.608  0.2653 -0.2788 -1.4545
 3999SOL     OW23629   1.917   2.461   4.399 -0.1518  0.2839 -0.0629
 3999SOL    HW123630   1.886   2.373   4.422 -0.9107  0.9485  1.4197
 3999SOL    HW223631   1.943   2.455   4.306  1.7122 -0.0537  0.4803
 4000SOL     OW23632   2.362   0.573  10.290 -0.3230 -0.4523 -0.0297
 4000SOL    HW123633   2.321   0.560  10.376 -0.5277  0.3909  0.0062
 4000SOL    HW223634   2.300   0.633  10.250  2.0850  0.1991 -2.7642
 4001SOL     OW23635   0.351   1.034   5.851 -0.6049 -0.0465 -0.1162
 4001SOL    HW123636   0.265   1.032   5.893 -0.9306  1.9390 -0.7335
 4001SOL    HW223637   0.330   0.981   5.774 -1.8519 -0.5919  0.5942
 4002SOL     OW23638   0.887   2.395   2.456  1.1709  1.0771 -0.0114
 4002SOL    HW123639   0.895   2.305   2.425  0.4444 -0.2036  3.5873
 4002SOL    HW223640   0.955   2.393   2.523 -1.0259  3.3045  2.3239
 4003SOL     OW23641   3.239   4.285   4.335  0.3078  0.2981  0.4393
 4003SOL    HW123642   3.292   4.222   4.287  0.8760  1.0789  0.0542
 4003SOL    HW223643   3.277   4.270   4.422 -0.3108  0.1788  0.6891
 4004SOL     OW23644   1.429   2.317  11.579 -0.3588 -0.4349  0.0647
 4004SOL    HW123645   1.517   2.291  11.551  1.0712  0.9748  3.2510
 4004SOL    HW223646   1.379   2.258  11.523 -0.8027 -1.3892  1.4773
 4005SOL     OW23647   1.123   2.526  11.454 -0.5150  0.3796 -0.0096
 4005SOL    HW123648   1.211   2.500  11.427 -0.3159  0.0957  0.9172
 4005SOL    HW223649   1.103   2.454  11.514  0.6477 -0.2705 -0.3938
 4006SOL     OW23650   3.244   0.479   8.221 -0.4245 -0.2159  0.6897
 4006SOL    HW123651   3.232   0.535   8.144 -1.2752 -1.0515  0.2093
 4006SOL    HW223652   3.277   0.554   8.270 -0.0588 -0.6185  1.0624
 4007SOL     OW23653   3.668   0.552   6.096 -0.1301 -0.0511 -0.0180
 4007SOL    HW123654   3.716   0.548   6.013 -0.1074  1.8138 -0.1099
 4007SOL    HW223655   3.733   0.516   6.157  1.1285  2.9132  0.4127
 4008SOL     OW23656   4.321   0.752  11.163 -0.0737  0.0600  0.0591
 4008SOL    HW123657   4.341   0.735  11.255 -0.1055  0.7848  0.2038
 4008SOL    HW223658   4.232   0.718  11.164 -0.2570  0.5432  3.8277
 4009SOL     OW23659   3.132   4.693   5.562 -0.0595 -0.3584 -0.4644
 4009SOL    HW123660   3.090   0.017   5.502 -0.0683  2.3300  2.3408
 4009SOL    HW223661   3.223   4.716   5.544 -0.9429  3.2431 -0.3612
 4010SOL     OW23662   1.498   2.031   2.414  0.1743  0.7928  0.2644
 4010SOL    HW123663   1.585   2.072   2.411 -0.0469  1.1335 -1.2320
 4010SOL    HW223664   1.517   1.937   2.416 -0.9722  0.5482 -0.0427
 4011SOL     OW23665   0.911   4.325   6.124 -0.9760 -0.0521  0.3123
 4011SOL    HW123666   0.964   4.288   6.053  2.6304  0.9139  2.5255
 4011SOL    HW223667   0.860   4.246   6.139 -0.8207 -0.9728 -3.9793
 4012SOL     OW23668   0.219   1.449   4.286  0.2830 -0.6273  0.1161
 4012SOL    HW123669   0.201   1.499   4.365  0.5544  3.7006 -2.5605
 4012SOL    HW223670   0.158   1.489   4.224  0.3833 -1.2468 -0.3854
 4013SOL     OW23671   3.533   1.805   5.351  0.3368  0.2583 -0.0124
 4013SOL    HW123672   3.576   1.838   5.430 -1.0396  2.8199 -0.3209
 4013SOL    HW223673   3.483   1.731   5.384 -2.9483  0.9339 -3.5698
 4014SOL     OW23674   4.570   1.965  12.626 -0.2383 -0.0437  0.4939
 4014SOL    HW123675   4.609   1.986  12.541  2.3656  1.7722  2.1622
 4014SOL    HW223676   4.626   2.015  12.685 -0.4737 -1.2855  1.7665
 4015SOL     OW23677   3.111   0.411   7.017  0.4740  0.5795 -0.0230
 4015SOL    HW123678   3.166   0.391   7.093 -1.4107 -0.2342  1.1125
 4015SOL    HW223679   3.023   0.418   7.054 -0.6243 -1.5582 -2.2603
 4016SOL     OW23680   3.770   0.372   5.594  0.0211 -0.1333 -0.2420
 4016SOL    HW123681   3.789   0.351   5.503  1.2414 -4.0918  0.9496
 4016SOL    HW223682   3.675   0.362   5.608 -0.2350  0.0575 -1.8639
 4017SOL     OW23683   3.607   3.087   2.263 -0.0974  0.4001  0.2419
 4017SOL    HW123684   3.581   3.008   2.217 -0.5357  0.3518  0.5721
 4017SOL    HW223685   3.595   3.151   2.193  0.8357 -0.6798 -0.9072
 4018SOL     OW23686   1.899   0.569   4.014  0.1307  0.2207  0.2958
 4018SOL    HW123687   1.890   0.662   3.995  0.1306 -0.0093 -0.8467
 4018SOL    HW223688   1.814   0.540   4.045 -0.2660  0.6693 -0.3724
 4019SOL     OW23689   1.570   3.454   9.570  0.6457  0.1497 -0.4691
 4019SOL    HW123690   1.605   3.506   9.642  0.0789  0.4806 -0.4325
 4019SOL    HW223691   1.571   3.511   9.493  1.8708  1.3163  0.4066
 4020SOL     OW23692   1.492   3.454   3.548 -0.0692  0.2099  0.1486
 4020SOL    HW123693   1.407   3.493   3.526  0.4745  3.0113  3.0855
 4020SOL    HW223694   1.550   3.490   3.481 -0.2260 -1.2389 -0.7598
 4021SOL     OW23695   1.181   0.298   7.107 -0.3614  0.1628  0.5483
 4021SOL    HW123696   1.235   0.226   7.074 -0.0392  1.1801 -1.1096
 4021SOL    HW223697   1.241   0.370   7.089  0.2483 -0.5962 -0.4343
 4022SOL     OW23698   2.482   4.357  14.124  0.2014  0.5308  0.6548
 4022SOL    HW123699   2.430   4.282  14.151  0.4954  1.1638  2.9622
 4022SOL    HW223700   2.493   4.405  14.206  0.3847  0.0532  0.9087
 4023SOL     OW23701   2.209   3.415   8.032  0.1627 -0.0939 -0.2441
 4023SOL    HW123702   2.187   3.352   8.100 -0.6771 -1.5094 -1.8319
 4023SOL    HW223703   2.118   3.445   8.020 -0.1685 -0.9277  0.1911
 4024SOL     OW23704   3.627   4.006  12.913 -0.0694  0.0256 -0.0312
 4024SOL    HW123705   3.577   3.939  12.959 -0.1131 -0.7690 -1.2315
 4024SOL    HW223706   3.715   3.968  12.914  0.0725  0.3078 -1.7211
 4025SOL     OW23707   1.488   4.080   2.969  0.2625 -0.1153 -0.2232
 4025SOL    HW123708   1.497   4.145   2.899 -0.0116 -1.9337 -1.9681
 4025SOL    HW223709   1.506   4.124   3.052 -2.4840 -1.3102  1.0003
 4026SOL     OW23710   3.757   3.244   6.379 -0.3448 -0.2117 -0.3978
 4026SOL    HW123711   3.756   3.239   6.474  0.9927  1.1252 -0.3107
 4026SOL    HW223712   3.819   3.177   6.351  0.5588  0.1476  0.7639
 4027SOL     OW23713   0.846   3.383  11.884 -0.3885  0.3330 -0.2627
 4027SOL    HW123714   0.898   3.458  11.855 -2.3995  1.0399 -1.9982
 4027SOL    HW223715   0.910   3.312  11.872  1.4259  1.6950  1.2207
 4028SOL     OW23716   3.670   2.297   6.564 -0.7904  0.5412  0.0016
 4028SOL    HW123717   3.678   2.393   6.559 -0.6024  0.4913 -0.5866
 4028SOL    HW223718   3.576   2.283   6.578 -1.4978  2.3110 -2.9160
 4029SOL     OW23719   3.118   3.829   6.532  0.4459  1.1058  0.2282
 4029SOL    HW123720   3.176   3.894   6.571 -0.2084  1.8962 -0.1213
 4029SOL    HW223721   3.179   3.810   6.460  0.2755  0.4446  0.2584
 4030SOL     OW23722   1.970   2.445  10.025 -0.5143 -0.0794 -0.3811
 4030SOL    HW123723   1.893   2.500  10.041 -0.1944  0.5141 -0.8943
 4030SOL    HW223724   2.015   2.447  10.110  0.4399  3.0442 -0.9544
 4031SOL     OW23725   4.186   1.374   8.465 -0.1859 -0.6818 -0.1980
 4031SOL    HW123726   4.152   1.346   8.380 -2.0165 -0.2808  0.4008
 4031SOL    HW223727   4.110   1.422   8.497 -0.2000 -1.0540  0.3329
 4032SOL     OW23728   2.280   2.537   0.695  0.3663 -0.0383  0.1411
 4032SOL    HW123729   2.237   2.456   0.723  1.7674 -0.5609  0.7507
 4032SOL    HW223730   2.347   2.504   0.635 -0.8519 -0.7561 -0.8441
 4033SOL     OW23731   2.885   2.866   0.500 -0.3229  0.1579  0.5969
 4033SOL    HW123732   2.919   2.951   0.473  1.1699 -0.8852 -0.8113
 4033SOL    HW223733   2.796   2.867   0.467  0.2413 -0.7100 -0.9648
 4034SOL     OW23734   4.598   4.497   3.636  0.1569  0.0476  0.1326
 4034SOL    HW123735   4.568   4.419   3.591  3.8737  0.7883 -3.6062
 4034SOL    HW223736   4.690   4.473   3.645  0.3177  1.5780  2.9070
 4035SOL     OW23737   3.847   2.230   4.121 -0.4562 -0.0276  0.1975
 4035SOL    HW123738   3.920   2.220   4.060  0.2438  1.7054  0.7430
 4035SOL    HW223739   3.774   2.264   4.070  0.2777  0.8633 -0.2568
 4036SOL     OW23740   2.909   0.056  13.813 -0.1043 -0.0915 -0.1179
 4036SOL    HW123741   2.909   0.007  13.731 -3.0994  0.6788 -0.6062
 4036SOL    HW223742   2.932   4.731  13.882  0.0059  2.2849  2.0361
 4037SOL     OW23743   2.490   0.089   2.361 -0.4163  0.1683 -0.0465
 4037SOL    HW123744   2.428   0.110   2.431 -0.0214  2.5667 -0.4258
 4037SOL    HW223745   2.432   0.094   2.284  0.5999  1.5295 -0.7211
 4038SOL     OW23746   4.132   3.906   2.597  0.1270 -0.1458 -0.3529
 4038SOL    HW123747   4.104   3.888   2.508  0.5704  0.9617 -0.7160
 4038SOL    HW223748   4.080   3.840   2.643 -1.6467  0.7566 -1.0702
 4039SOL     OW23749   0.695   0.686   5.619 -0.7583 -0.4300 -0.0093
 4039SOL    HW123750   0.776   0.737   5.616  0.0089 -1.8539 -3.1387
 4039SOL    HW223751   0.681   0.696   5.525  2.0034 -0.3018 -0.4153
 4040SOL     OW23752   2.839   1.060   8.277  0.4710  0.1388 -0.6486
 4040SOL    HW123753   2.798   0.998   8.216 -1.5002 -2.1221  2.9126
 4040SOL    HW223754   2.833   1.014   8.361  2.6905  0.9914 -0.0436
 4041SOL     OW23755   2.236   4.208   2.935 -0.3381  0.0735 -0.1258
 4041SOL    HW123756   2.301   4.238   2.872 -0.5429 -1.0600 -0.8748
 4041SOL    HW223757   2.158   4.202   2.880 -0.6692 -1.1748  0.4739
 4042SOL     OW23758   0.060   3.830  14.291 -0.5674  0.4917 -0.1701
 4042SOL    HW123759   0.142   3.785  14.313  0.9142  2.4156 -1.8292
 4042SOL    HW223760   4.734   3.767  14.326 -1.5563  0.5815 -1.8048
 4043SOL     OW23761   2.602   1.943  11.333  1.0739 -0.4435 -0.6662
 4043SOL    HW123762   2.591   1.997  11.255  0.2548 -0.0906 -0.3113
 4043SOL    HW223763   2.690   1.964  11.362  1.2414  2.5766 -3.4559
 4044SOL     OW23764   1.475   0.745  15.239  0.2090 -0.1499  0.2009
 4044SOL    HW123765   1.540   0.688  15.281 -0.3404 -0.9103  0.0204
 4044SOL    HW223766   1.469   0.700  15.155 -0.6024  0.7140 -0.1968
 4045SOL     OW23767   3.623   2.466   6.835 -0.0527 -0.0022 -0.3559
 4045SOL    HW123768   3.703   2.414   6.833 -2.0444 -3.0050 -2.0506
 4045SOL    HW223769   3.657   2.540   6.885 -1.5085 -0.3256  1.1403
 4046SOL     OW23770   0.826   0.917   2.113  0.0636 -0.4217  0.1063
 4046SOL    HW123771   0.870   0.833   2.099 -1.7302 -1.3065 -0.3335
 4046SOL    HW223772   0.776   0.897   2.192  0.9288 -0.1805  0.7028
 4047SOL     OW23773   4.137   4.046   4.312 -0.1865  0.4318  0.2376
 4047SOL    HW123774   4.131   4.052   4.407  3.4158 -3.7440  0.7603
 4047SOL    HW223775   4.216   3.992   4.304 -1.5233 -1.8349  1.9373
 4048SOL     OW23776   4.109   0.312   3.106 -1.1658 -0.2252 -0.3923
 4048SOL    HW123777   4.159   0.237   3.074 -1.5033 -1.1385  1.1814
 4048SOL    HW223778   4.069   0.269   3.182  1.2283 -1.9364 -0.0766
 4049SOL     OW23779   2.045   0.455   2.612 -0.5084 -0.0682  0.1977
 4049SOL    HW123780   1.977   0.447   2.545  0.0866  0.6796 -0.4951
 4049SOL    HW223781   1.997   0.430   2.691 -2.7342  2.7000 -0.2661
 4050SOL     OW23782   3.187   1.166  15.817  0.6233 -0.3292 -0.5704
 4050SOL    HW123783   3.203   1.074  15.794 -1.0898 -0.9319  0.6114
 4050SOL    HW223784   3.218   1.202  15.734 -1.4629  2.4773 -0.1346
 4051SOL     OW23785   3.304   3.759   6.345  0.8514  0.1269 -0.5441
 4051SOL    HW123786   3.313   3.679   6.293  0.8282 -0.4737  0.3556
 4051SOL    HW223787   3.377   3.818   6.327  1.4633 -0.4151  0.1557
 4052SOL     OW23788   0.296   3.958  16.269 -0.1081  0.0234 -0.4955
 4052SOL    HW123789   0.222   4.011  16.241 -0.0131  0.4714  0.1007
 4052SOL    HW223790   0.312   3.919  16.183  0.4079 -3.8372  1.3115
 4053SOL     OW23791   0.030   3.404   3.899  0.0258  0.2157  0.0413
 4053SOL    HW123792   0.115   3.361   3.905 -0.1527 -0.1319  0.1282
 4053SOL    HW223793   4.721   3.354   3.966  0.1221  0.5161  0.3350
 4054SOL     OW23794   4.478   3.713   2.940 -0.1154 -0.3135  0.1258
 4054SOL    HW123795   4.508   3.679   2.857 -3.1711 -1.8158 -0.3740
 4054SOL    HW223796   4.511   3.647   3.000 -0.2960 -2.0420 -1.6957
 4055SOL     OW23797   2.146   0.872   3.485  0.5513 -0.7854 -1.0750
 4055SOL    HW123798   2.129   0.921   3.566  3.8677 -1.1897 -0.1567
 4055SOL    HW223799   2.068   0.890   3.432  0.6795 -0.8930 -1.2985
 4056SOL     OW23800   1.109   3.092   7.768 -0.2507  0.3573  0.1250
 4056SOL    HW123801   1.101   3.103   7.862  1.7061  1.1423  0.2122
 4056SOL    HW223802   1.069   3.175   7.742  0.8316  0.7433 -0.3457
 4057SOL     OW23803   2.940   2.961   7.699 -0.3591 -0.0656 -0.5217
 4057SOL    HW123804   2.964   2.868   7.700 -0.8618 -0.2039 -1.8225
 4057SOL    HW223805   3.014   3.005   7.741  1.0046 -3.0393  0.1881
 4058SOL     OW23806   4.444   1.645   1.775  0.1509 -0.0381  1.0889
 4058SOL    HW123807   4.441   1.731   1.818  0.1459  0.2339  0.5417
 4058SOL    HW223808   4.361   1.613   1.812 -0.2820 -0.7412 -0.4939
 4059SOL     OW23809   4.267   0.647   2.792  0.1911  0.0498 -0.5377
 4059SOL    HW123810   4.190   0.696   2.764  0.5685  1.7333  1.3041
 4059SOL    HW223811   4.327   0.655   2.717 -0.5966 -1.5650 -1.3373
 4060SOL     OW23812   2.131   4.497  16.294  0.3462 -0.1952 -0.0151
 4060SOL    HW123813   2.124   4.457  16.208  0.6146 -0.7493  0.2237
 4060SOL    HW223814   2.048   4.467  16.332  0.1804 -2.2806 -2.0681
 4061SOL     OW23815   1.214   1.521   3.434 -0.9477 -0.4227  0.3552
 4061SOL    HW123816   1.192   1.429   3.447 -1.0214 -0.7124 -1.8917
 4061SOL    HW223817   1.178   1.548   3.519  1.6710 -0.4083  1.4683
 4062SOL     OW23818   3.055   3.884   7.982 -0.0195  0.1383 -0.3394
 4062SOL    HW123819   3.150   3.891   7.988  0.2488 -1.6922 -2.2836
 4062SOL    HW223820   3.029   3.888   8.074 -0.5690  2.6614 -0.6212
 4063SOL     OW23821   1.380   3.680   6.865  0.0399  0.3671  0.8100
 4063SOL    HW123822   1.388   3.770   6.832  2.0279  0.3616  1.2816
 4063SOL    HW223823   1.302   3.677   6.921 -0.7636 -1.9482 -0.4548
 4064SOL     OW23824   1.831   1.616   3.819  0.0069  0.4032 -0.2576
 4064SOL    HW123825   1.821   1.707   3.846 -1.2400 -0.2684  1.5137
 4064SOL    HW223826   1.916   1.619   3.776  1.0234  1.9253  1.8468
 4065SOL     OW23827   0.289   4.001   8.687 -0.2523  0.6602  0.3215
 4065SOL    HW123828   0.277   4.042   8.772  3.2979  0.4278  0.9366
 4065SOL    HW223829   0.250   4.064   8.626 -0.3214  0.9981  0.7187
 4066SOL     OW23830   3.001   1.431   5.340  0.2877 -0.2257 -0.2094
 4066SOL    HW123831   3.019   1.518   5.306 -2.3334  0.2635 -0.2950
 4066SOL    HW223832   3.060   1.424   5.415  0.9391 -1.4033 -0.8268
 4067SOL     OW23833   1.555   3.698   5.529  0.4793 -0.7494  0.0794
 4067SOL    HW123834   1.533   3.784   5.564 -3.2471 -1.7919  0.4080
 4067SOL    HW223835   1.557   3.708   5.434  0.1325 -1.4948 -0.0094
 4068SOL     OW23836   2.289   1.992  17.070  0.2959  0.1788  0.2664
 4068SOL    HW123837   2.328   1.910  17.043 -2.0999 -1.4222  1.5741
 4068SOL    HW223838   2.362   2.027  17.121 -0.2645  0.9309  0.5600
 4069SOL     OW23839   0.227   3.610   4.906  0.0389 -0.1889 -0.3478
 4069SOL    HW123840   0.142   3.591   4.946 -0.2496  2.1941  0.1835
 4069SOL    HW223841   0.277   3.533   4.932  0.8763  0.9176  1.3437
 4070SOL     OW23842   0.841   4.469   2.788 -0.4887 -0.3314  0.0795
 4070SOL    HW123843   0.803   4.519   2.715  1.2260  1.1615  0.2087
 4070SOL    HW223844   0.808   4.524   2.858 -1.6662  0.2027 -0.8895
 4071SOL     OW23845   3.618   2.206   2.054  0.0356  0.2425  0.7974
 4071SOL    HW123846   3.636   2.196   2.148  2.9685  0.8297  0.2768
 4071SOL    HW223847   3.587   2.118   2.030  0.3355  0.3166  0.1509
 4072SOL     OW23848   0.685   0.114   0.375 -0.0378 -0.2398  0.7603
 4072SOL    HW123849   0.747   0.041   0.384  0.2551  0.1665  1.9830
 4072SOL    HW223850   0.744   0.188   0.364  1.9094 -1.7798  0.6377
 4073SOL     OW23851   4.621   1.169   5.020  0.0771 -0.2047  0.1008
 4073SOL    HW123852   4.688   1.189   5.086  0.3717 -0.7875 -0.0262
 4073SOL    HW223853   4.674   1.121   4.956 -0.5855  0.4744 -0.9396
 4074SOL     OW23854   3.701   1.407  17.360 -0.3227 -0.4211  0.1102
 4074SOL    HW123855   3.756   1.432  17.434 -1.1996 -0.6715  0.8492
 4074SOL    HW223856   3.733   1.460  17.287 -1.2498 -0.7350 -0.5270
 4075SOL     OW23857   3.072   3.347   7.224  0.1327  0.6291 -0.1517
 4075SOL    HW123858   3.059   3.410   7.295  0.4688 -0.4479  0.8661
 4075SOL    HW223859   3.017   3.275   7.255  1.7973 -1.2790 -1.6107
 4076SOL     OW23860   0.855   1.271   7.730 -0.1383 -0.2696  0.0020
 4076SOL    HW123861   0.887   1.295   7.643  1.7728 -0.8173  0.5580
 4076SOL    HW223862   0.935   1.280   7.781  1.7858  2.2914 -3.5257
 4077SOL     OW23863   0.074   4.254  16.354  0.4546 -0.1806  0.3881
 4077SOL    HW123864   4.727   4.290  16.332  1.0472  0.4813 -0.7858
 4077SOL    HW223865   0.101   4.212  16.272 -0.2178 -0.5814  0.3684
 4078SOL     OW23866   3.257   4.642   1.549  0.0510  0.3932 -0.1098
 4078SOL    HW123867   3.353   4.648   1.548  0.0652 -0.2627 -1.4007
 4078SOL    HW223868   3.244   4.556   1.510 -0.2800  1.0767 -1.5207
 4079SOL     OW23869   1.708   1.719   8.745  0.1563  0.5254  0.4277
 4079SOL    HW123870   1.614   1.711   8.730 -0.2442  4.1550  0.9735
 4079SOL    HW223871   1.737   1.652   8.683 -0.7142  0.0932  0.4956
 4080SOL     OW23872   0.574   1.601   7.536  0.5237  0.0886 -0.0682
 4080SOL    HW123873   0.513   1.616   7.464  0.6782 -0.9399 -0.4187
 4080SOL    HW223874   0.580   1.505   7.532 -0.6424 -0.0092  0.5798
 4081SOL     OW23875   0.481   4.201   4.804  0.6628  0.0789  0.2240
 4081SOL    HW123876   0.417   4.132   4.785  2.7306 -1.4607 -1.1181
 4081SOL    HW223877   0.450   4.248   4.727 -1.3637 -1.4977  0.0644
 4082SOL     OW23878   1.147   4.704   4.431  0.0385  0.3635  0.2494
 4082SOL    HW123879   1.097   0.030   4.382 -0.5552  0.7328  1.3256
 4082SOL    HW223880   1.118   4.617   4.406 -0.6753  0.6071  0.2363
 4083SOL     OW23881   1.702   3.773   2.252 -0.1801  0.2119  0.4069
 4083SOL    HW123882   1.750   3.802   2.330  2.9053 -2.3228 -0.5975
 4083SOL    HW223883   1.717   3.679   2.262  0.5342  0.1395 -1.4731
 4084SOL     OW23884   1.417   1.266   2.090 -0.4935  0.5218  0.1277
 4084SOL    HW123885   1.451   1.352   2.067 -0.1427  0.0383 -1.1290
 4084SOL    HW223886   1.327   1.281   2.062  0.2215 -0.0747 -2.4789
 4085SOL     OW23887   3.816   0.624   0.532  0.7524  0.5721  0.2662
 4085SOL    HW123888   3.737   0.676   0.517 -1.0248 -1.3636  2.9088
 4085SOL    HW223889   3.875   0.665   0.469  1.5691  0.6016  1.0443
 4086SOL     OW23890   2.470   2.194  11.580 -0.4632 -0.1072 -0.4960
 4086SOL    HW123891   2.518   2.276  11.597 -1.2300  0.5528 -1.5072
 4086SOL    HW223892   2.518   2.134  11.637  1.7723  0.2168 -2.0496
 4087SOL     OW23893   3.648   1.710  14.304 -0.0467  0.5787  0.0178
 4087SOL    HW123894   3.607   1.665  14.230  2.1900  0.3112 -1.0530
 4087SOL    HW223895   3.631   1.655  14.381 -1.6886 -1.0432 -1.5063
 4088SOL     OW23896   2.521   2.477  15.024 -0.5588  0.6641 -0.2770
 4088SOL    HW123897   2.597   2.534  15.034 -0.0403 -0.0788 -0.0409
 4088SOL    HW223898   2.466   2.525  14.962  0.0963  0.2497 -1.1668
 4089SOL     OW23899   0.092   0.877   3.218  0.1639 -0.0413  0.0398
 4089SOL    HW123900   0.130   0.807   3.166 -3.8351 -1.9969 -0.2223
 4089SOL    HW223901   0.155   0.903   3.285  1.4314 -0.3795 -1.0247
 4090SOL     OW23902   1.257   3.973  13.930  0.7218 -0.2556 -0.0393
 4090SOL    HW123903   1.322   4.028  13.887 -0.4810  0.1498 -1.3225
 4090SOL    HW223904   1.192   3.970  13.860 -0.5632  2.6242  1.0433
 4091SOL     OW23905   1.655   4.490  10.066 -0.2025 -0.2885 -0.1490
 4091SOL    HW123906   1.653   4.480  10.161  0.0638  1.1224 -0.0015
 4091SOL    HW223907   1.601   4.568  10.048  0.9460  0.0415 -2.1910
 4092SOL     OW23908   4.692   1.205  11.320 -0.0113  0.2693  1.0536
 4092SOL    HW123909   0.039   1.182  11.356 -0.1957 -0.6554  0.9068
 4092SOL    HW223910   4.702   1.294  11.287 -1.0336  0.1466  0.4288
 4093SOL     OW23911   0.545   3.217  15.297  0.2376 -0.4060  0.0876
 4093SOL    HW123912   0.566   3.144  15.238  4.8175  2.6935 -2.1737
 4093SOL    HW223913   0.486   3.173  15.358 -1.1545  0.2079 -0.8367
 4094SOL     OW23914   0.540   0.716   7.009  0.3912  0.1036  0.3451
 4094SOL    HW123915   0.604   0.737   7.077  0.5705 -0.4287  0.3378
 4094SOL    HW223916   0.463   0.725   7.066  2.0897  2.4058  2.2893
 4095SOL     OW23917   0.534   2.036   5.957  0.0109  0.1009 -0.2791
 4095SOL    HW123918   0.478   2.063   6.030  0.2018 -0.0661 -0.0721
 4095SOL    HW223919   0.606   2.000   6.009  0.3641  0.1222 -0.7618
 4096SOL     OW23920   2.638   2.649   9.576 -0.3146  0.0413 -0.1586
 4096SOL    HW123921   2.638   2.744   9.566  2.6652  0.1852  1.0832
 4096SOL    HW223922   2.668   2.631   9.666 -2.2438 -2.9814 -0.1171
 4097SOL     OW23923   4.299   4.109  13.651 -0.2717 -0.1708 -0.2648
 4097SOL    HW123924   4.224   4.072  13.604 -0.9214  1.3252 -0.3911
 4097SOL    HW223925   4.304   4.047  13.723  0.3631 -3.1670 -2.8575
 4098SOL     OW23926   4.410   1.245   6.157  0.4487 -0.1653  0.4174
 4098SOL    HW123927   4.435   1.157   6.184  0.4458 -0.4488 -0.4816
 4098SOL    HW223928   4.317   1.237   6.138  0.4736 -0.0001  0.2277
 4099SOL     OW23929   4.188   0.574   7.159  0.5554 -0.3271 -0.1306
 4099SOL    HW123930   4.260   0.599   7.217 -0.8167  0.1667  1.3702
 4099SOL    HW223931   4.207   0.480   7.162 -1.5836 -0.7496 -0.0795
 4100SOL     OW23932   1.486   0.538   8.651  0.2351 -0.3000 -0.5337
 4100SOL    HW123933   1.418   0.573   8.709 -0.6146  2.7753 -3.3946
 4100SOL    HW223934   1.558   0.601   8.646  0.4403 -0.6280 -1.8481
 4101SOL     OW23935   1.491   0.216   6.604 -0.1357 -0.7951  0.1462
 4101SOL    HW123936   1.542   0.192   6.681 -1.7676 -0.6771  1.2733
 4101SOL    HW223937   1.449   0.300   6.622 -0.2902 -1.1202  1.2741
 4102SOL     OW23938   2.350   0.533  11.600  0.4211 -0.7083 -0.6205
 4102SOL    HW123939   2.362   0.618  11.642 -0.3321 -1.7270  1.6752
 4102SOL    HW223940   2.260   0.511  11.622 -0.0330  0.9871 -0.7942
 4103SOL     OW23941   1.543   2.694  16.873 -0.1765  0.0872  0.2101
 4103SOL    HW123942   1.553   2.773  16.819  3.3255  0.3075  1.1352
 4103SOL    HW223943   1.621   2.647  16.843 -0.4710  0.8913 -1.7926
 4104SOL     OW23944   3.197   2.324   2.206 -0.0182 -0.0313  0.4368
 4104SOL    HW123945   3.144   2.254   2.245  0.5157 -0.5518  0.2348
 4104SOL    HW223946   3.273   2.316   2.264  0.1036 -2.7979 -0.1183
 4105SOL     OW23947   2.295   1.073  10.284  0.2599 -0.0325 -0.2695
 4105SOL    HW123948   2.242   1.075  10.204  0.2698  0.2775 -0.2669
 4105SOL    HW223949   2.380   1.087  10.241  0.9315 -2.1824  0.3403
 4106SOL     OW23950   4.460   4.486   1.317  0.7066  0.2691  0.0896
 4106SOL    HW123951   4.386   4.437   1.353 -0.6944  0.9682 -1.7977
 4106SOL    HW223952   4.532   4.434   1.350  0.0338 -1.3641 -0.9841
 4107SOL     OW23953   2.387   0.298   4.152 -0.0221 -0.4933 -0.1030
 4107SOL    HW123954   2.404   0.384   4.192 -0.9846 -1.0151  1.4145
 4107SOL    HW223955   2.355   0.320   4.064 -1.0420  1.2171  0.6925
 4108SOL     OW23956   2.357   3.034   3.645  0.4703  0.2602  1.0137
 4108SOL    HW123957   2.384   2.983   3.722 -1.3126  2.0114  2.7983
 4108SOL    HW223958   2.422   3.103   3.654  0.2907  0.7159 -1.1939
 4109SOL     OW23959   2.291   2.755  10.924  0.4814  0.6037 -0.2458
 4109SOL    HW123960   2.222   2.820  10.919 -1.6890 -1.5286  1.6232
 4109SOL    HW223961   2.269   2.701  11.001  0.4716 -0.5699 -1.0734
 4110SOL     OW23962   0.049   2.862   2.350 -0.1086 -1.1465 -0.5518
 4110SOL    HW123963   0.007   2.911   2.279  1.9595 -0.1078 -1.0616
 4110SOL    HW223964   0.030   2.916   2.426 -1.0222  0.7466 -2.1295
 4111SOL     OW23965   0.747   2.707   8.500 -0.0087 -0.0895  0.1142
 4111SOL    HW123966   0.698   2.643   8.447  1.9466 -1.5365  0.0530
 4111SOL    HW223967   0.802   2.646   8.550 -0.9133 -1.2497 -0.2903
 4112SOL     OW23968   1.107   1.310   7.869  0.2758  0.0704  0.2622
 4112SOL    HW123969   1.169   1.374   7.835 -0.2229 -0.1548 -1.0785
 4112SOL    HW223970   1.091   1.330   7.961 -1.8278  1.9562 -0.5078
 4113SOL     OW23971   2.068   4.112   9.818  1.2439  0.0915  0.2540
 4113SOL    HW123972   2.034   4.191   9.860 -0.2701 -0.2818 -0.2917
 4113SOL    HW223973   2.125   4.074   9.885  1.2205  0.8959  0.7261
 4114SOL     OW23974   3.491   1.911   4.360 -0.9364  0.5020 -0.0174
 4114SOL    HW123975   3.521   1.850   4.428 -0.9236  0.5629  0.0313
 4114SOL    HW223976   3.421   1.952   4.410  0.1190  2.2057  0.0506
 4115SOL     OW23977   4.306   2.180   3.587 -0.4077  0.3249  0.3869
 4115SOL    HW123978   4.343   2.241   3.650 -0.5270 -1.2015  1.9487
 4115SOL    HW223979   4.243   2.134   3.643  1.6184 -1.4168  1.2686
 4116SOL     OW23980   0.527   2.901   3.665 -0.0382 -0.4760  0.1581
 4116SOL    HW123981   0.476   2.838   3.613 -1.1818  1.8340 -1.5013
 4116SOL    HW223982   0.464   2.954   3.712 -0.5530 -0.7626 -0.2064
 4117SOL     OW23983   0.048   2.842   3.650 -0.0507  0.5152 -0.1410
 4117SOL    HW123984   0.129   2.797   3.675  0.8035  1.1706 -1.6910
 4117SOL    HW223985   0.079   2.880   3.567 -0.6901  0.3461 -0.4537
 4118SOL     OW23986   3.686   1.065   5.658  0.3055  0.1947 -0.8155
 4118SOL    HW123987   3.748   1.015   5.710  0.3439 -0.0886 -1.1295
 4118SOL    HW223988   3.688   1.007   5.581 -1.9854  0.3446 -0.9958
 4119SOL     OW23989   1.749   1.974   3.406 -0.0648  0.5625  0.0989
 4119SOL    HW123990   1.708   1.957   3.321  0.2989  0.1651  0.0045
 4119SOL    HW223991   1.818   1.909   3.410 -0.5817  0.1560  2.8341
 4120SOL     OW23992   3.085   2.688   1.161 -0.1099 -0.2524 -0.1894
 4120SOL    HW123993   3.070   2.782   1.150  0.3091  0.2308  3.4435
 4120SOL    HW223994   3.132   2.669   1.080 -1.2778 -1.7345 -0.5197
 4121SOL     OW23995   0.084   1.839   3.098 -0.2563 -0.3642 -0.1733
 4121SOL    HW123996   0.039   1.833   3.013  1.7243 -3.1339 -1.0118
 4121SOL    HW223997   0.124   1.924   3.082 -2.2017  0.2200 -1.9122
 4122SOL     OW23998   1.726   2.331   4.748  0.0516  0.5959  0.3091
 4122SOL    HW123999   1.757   2.338   4.839  1.3909  0.0559 -0.1031
 4122SOL    HW224000   1.698   2.422   4.739 -1.5594 -0.0355 -1.0427
 4123SOL     OW24001   4.697   3.470   1.524  0.1358  0.2022 -0.3928
 4123SOL    HW124002   4.607   3.444   1.542  0.1964 -0.0713 -0.4793
 4123SOL    HW224003   4.704   3.431   1.437 -0.9044 -0.9657  0.0397
 4124SOL     OW24004   2.468   0.975   7.952  0.4391 -0.2158  0.1023
 4124SOL    HW124005   2.433   1.045   7.897 -1.2622 -1.4285 -0.3544
 4124SOL    HW224006   2.389   0.925   7.970  1.3284 -1.8558 -0.6126
 4125SOL     OW24007   3.171   3.443   6.573  0.1380  0.3356 -0.3243
 4125SOL    HW124008   3.083   3.462   6.604  0.6760  1.2755  0.6177
 4125SOL    HW224009   3.222   3.446   6.655 -0.0384  0.0712 -0.2055
 4126SOL     OW24010   4.393   1.624  11.835 -0.2410  0.2896  0.1691
 4126SOL    HW124011   4.373   1.717  11.835 -2.0619 -0.0872  0.3350
 4126SOL    HW224012   4.349   1.601  11.917 -1.9301 -0.5289 -0.9553
 4127SOL     OW24013   0.811   1.889   2.372 -0.1443 -0.2375  0.2487
 4127SOL    HW124014   0.850   1.818   2.320  2.3229  0.3999  1.2134
 4127SOL    HW224015   0.732   1.911   2.324  0.5678  0.1406 -0.7561
 4128SOL     OW24016   3.589   1.294   6.209 -0.2898 -0.3900  0.0888
 4128SOL    HW124017   3.551   1.247   6.283  1.7202 -1.1610  0.6344
 4128SOL    HW224018   3.512   1.319   6.158  0.3935 -0.8623 -1.1675
 4129SOL     OW24019   0.299   0.928   2.575 -0.1061  0.4705  0.4687
 4129SOL    HW124020   0.304   0.848   2.628  0.7704  1.9674  2.6489
 4129SOL    HW224021   0.264   0.990   2.639 -2.8309  0.0961 -0.6297
 4130SOL     OW24022   2.389   0.969  13.351  0.4137  0.4487  0.5699
 4130SOL    HW124023   2.418   1.056  13.380  1.3791  0.5274 -0.6215
 4130SOL    HW224024   2.406   0.923  13.433 -3.1232 -1.1650  0.3699
 4131SOL     OW24025   4.090   2.826   3.839  0.3277 -0.3877 -0.0031
 4131SOL    HW124026   4.066   2.802   3.750 -0.6111  3.6042 -0.8132
 4131SOL    HW224027   4.080   2.921   3.833 -0.6924 -0.3551  2.3034
 4132SOL     OW24028   0.377   0.923   7.603 -0.2925 -0.8451  0.0996
 4132SOL    HW124029   0.374   0.999   7.661 -1.2283 -0.8927  0.1153
 4132SOL    HW224030   0.413   0.966   7.525 -0.4909 -0.2389  0.3459
 4133SOL     OW24031   0.927   2.414  12.261 -0.0724 -0.1179 -0.5435
 4133SOL    HW124032   0.905   2.507  12.258 -2.9130 -0.7207  1.6913
 4133SOL    HW224033   1.022   2.409  12.250 -0.0229 -1.4088  0.3716
 4134SOL     OW24034   2.371   1.776   2.578 -0.6014 -0.2891 -0.0661
 4134SOL    HW124035   2.357   1.849   2.518  0.8696  0.2251  0.2131
 4134SOL    HW224036   2.287   1.769   2.623 -0.8231 -1.6927 -0.7128
 4135SOL     OW24037   1.290   0.467   2.305 -0.1997 -0.1530 -0.2169
 4135SOL    HW124038   1.308   0.444   2.214  1.0532  2.0253 -0.5308
 4135SOL    HW224039   1.279   0.378   2.339  2.4815 -0.2439  0.4750
 4136SOL     OW24040   0.579   2.672   1.864 -0.5050  0.3668 -0.3176
 4136SOL    HW124041   0.644   2.603   1.862 -0.2394  0.6392 -0.9648
 4136SOL    HW224042   0.582   2.712   1.777 -0.0250  1.0397  0.0079
 4137SOL     OW24043   1.863   4.120   4.006  0.1199 -0.3327  0.0845
 4137SOL    HW124044   1.954   4.122   3.978 -0.0969  0.1831 -0.5793
 4137SOL    HW224045   1.834   4.107   3.916 -3.0802 -0.9088  1.1818
 4138SOL     OW24046   3.043   2.845   9.379 -0.0250 -0.3050 -0.0694
 4138SOL    HW124047   3.042   2.772   9.441 -0.4477  0.2865  0.6233
 4138SOL    HW224048   3.036   2.917   9.441 -0.8113  0.5729 -1.1808
 4139SOL     OW24049   1.112   0.081   0.553  0.4913 -0.4957 -0.4094
 4139SOL    HW124050   1.113   0.081   0.457 -0.2948 -2.5825 -0.4270
 4139SOL    HW224051   1.196   0.048   0.584  0.6659  1.4045  1.0951
 4140SOL     OW24052   4.444   1.847   3.014  0.0488  0.4129  0.4428
 4140SOL    HW124053   4.535   1.833   2.989 -0.3909  0.9006 -1.4020
 4140SOL    HW224054   4.443   1.800   3.098 -0.1078 -0.2039  0.0951
 4141SOL     OW24055   0.924   4.698  11.767 -0.1466 -0.1499 -0.0850
 4141SOL    HW124056   0.898   4.686  11.675 -3.0529 -0.7283  0.8353
 4141SOL    HW224057   0.890   0.048  11.781 -0.4174 -0.2951  0.1732
 4142SOL     OW24058   2.106   1.354   5.834  0.3672  0.6360  0.7300
 4142SOL    HW124059   2.182   1.409   5.855  0.6989  0.4738 -0.0386
 4142SOL    HW224060   2.086   1.316   5.919 -1.1584 -1.6277 -0.6296
 4143SOL     OW24061   0.319   2.373  16.447  0.2120  0.0739 -0.0504
 4143SOL    HW124062   0.234   2.329  16.444  0.8236 -1.0841 -0.4686
 4143SOL    HW224063   0.336   2.395  16.538  1.4328  2.0177 -0.7505
 4144SOL     OW24064   2.201   0.142   4.248  0.5491 -0.0288 -0.1828
 4144SOL    HW124065   2.136   0.206   4.279  0.0779 -1.3281  1.4610
 4144SOL    HW224066   2.272   0.199   4.218 -2.6406  2.0301 -3.9181
 4145SOL     OW24067   1.406   2.324   7.667 -0.1679 -0.0984  0.0301
 4145SOL    HW124068   1.410   2.409   7.624  0.9998  1.2252  2.7321
 4145SOL    HW224069   1.432   2.344   7.757 -3.0641  2.4806  0.2705
 4146SOL     OW24070   2.038   4.603   1.669  0.1213  0.4562  0.1824
 4146SOL    HW124071   2.054   4.600   1.763 -2.1575  1.9486  0.6150
 4146SOL    HW224072   2.117   4.641   1.630 -1.8242  2.9454 -1.3445
 4147SOL     OW24073   1.388   4.260   4.048  0.1874  0.2634  0.2735
 4147SOL    HW124074   1.460   4.257   4.112 -0.8254 -3.3159  1.2510
 4147SOL    HW224075   1.312   4.239   4.102  0.0622 -0.4434 -0.1795
 4148SOL     OW24076   1.431   1.703   8.606 -0.2451 -0.5508 -0.7316
 4148SOL    HW124077   1.351   1.740   8.643  0.0373  0.6456 -1.3175
 4148SOL    HW224078   1.416   1.696   8.512  1.0397  0.9524 -1.0467
 4149SOL     OW24079   2.728   0.729  15.931  0.1717  0.3030  0.5400
 4149SOL    HW124080   2.725   0.774  16.016  1.2544 -0.8458  1.1939
 4149SOL    HW224081   2.645   0.746  15.887 -0.2545  0.0742  1.2646
 4150SOL     OW24082   4.431   2.023   6.959 -0.0047 -0.3523  0.1105
 4150SOL    HW124083   4.400   2.045   7.047  2.0671 -2.5623  1.3851
 4150SOL    HW224084   4.355   2.039   6.904  0.9141  1.4772 -0.6139
 4151SOL     OW24085   1.394   4.297   3.762  0.2456 -0.4868  1.1045
 4151SOL    HW124086   1.457   4.366   3.740  2.2478 -1.6219  3.2753
 4151SOL    HW224087   1.401   4.305   3.857 -1.3566 -0.8132  1.2336
 4152SOL     OW24088   1.773   3.182   4.629  0.0506  0.3688 -0.5007
 4152SOL    HW124089   1.802   3.266   4.665 -1.4283  0.3829  0.6817
 4152SOL    HW224090   1.816   3.182   4.543 -0.4115 -0.6447 -0.7325
 4153SOL     OW24091   4.140   2.843   2.138  0.3810  0.2089 -0.0739
 4153SOL    HW124092   4.222   2.823   2.093  0.1996 -1.7250  0.4658
 4153SOL    HW224093   4.175   2.893   2.212  0.0475  0.1608  0.1162
 4154SOL     OW24094   4.246   2.886   7.128  0.3814  0.3452  0.4707
 4154SOL    HW124095   4.226   2.850   7.214 -4.7560 -1.6518 -1.5559
 4154SOL    HW224096   4.199   2.824   7.073  2.2280 -0.4362 -0.2025
 4155SOL     OW24097   2.947   1.105   8.845 -0.5190  0.0356 -0.2954
 4155SOL    HW124098   2.895   1.026   8.832 -1.2234  0.4913 -0.2338
 4155SOL    HW224099   3.006   1.107   8.770  2.0646 -1.7933  1.6652
 4156SOL     OW24100   4.261   0.356   6.166 -0.0465  0.2393 -0.4234
 4156SOL    HW124101   4.229   0.283   6.219 -1.6785  2.5390  1.7699
 4156SOL    HW224102   4.356   0.354   6.177 -0.1293  2.3358  0.7911
 4157SOL     OW24103   4.288   0.052  13.112 -0.1478  0.0586 -0.0037
 4157SOL    HW124104   4.193   0.061  13.108 -0.5329 -3.0193  1.8996
 4157SOL    HW224105   4.308   0.103  13.034 -0.2236  0.1986  0.0682
 4158SOL     OW24106   0.531   4.068   5.945  0.0289  0.3102 -0.0392
 4158SOL    HW124107   0.482   4.002   5.995 -0.1545 -1.1333 -2.1160
 4158SOL    HW224108   0.526   4.042   5.853 -0.0751 -0.6104  0.2306
 4159SOL     OW24109   1.954   3.851   3.768  0.3806  0.1314  0.4220
 4159SOL    HW124110   1.896   3.927   3.770  0.4942  0.3182 -3.3243
 4159SOL    HW224111   1.971   3.856   3.674 -3.0306 -0.2270 -0.1892
 4160SOL     OW24112   3.434   4.051  14.440 -0.0139 -0.3557 -0.1011
 4160SOL    HW124113   3.529   4.050  14.429  0.2185  0.6924  1.8619
 4160SOL    HW224114   3.411   3.959  14.430  0.2780 -0.6126  1.5345
 4161SOL     OW24115   3.983   0.154   2.207  0.2387  0.0371 -0.4079
 4161SOL    HW124116   4.039   0.097   2.155  0.6604 -0.6679  0.8336
 4161SOL    HW224117   4.053   0.182   2.266 -0.7180  0.0800  0.7043
 4162SOL     OW24118   4.458   1.021  10.359 -0.6744  0.3191 -0.3264
 4162SOL    HW124119   4.517   0.957  10.399 -0.0860  2.6751  2.6011
 4162SOL    HW224120   4.394   1.041  10.428 -1.0329 -0.0910 -0.5397
 4163SOL     OW24121   1.130   0.310   5.544  0.3934 -0.7187 -0.2112
 4163SOL    HW124122   1.068   0.244   5.512 -0.7121 -0.5060  1.4942
 4163SOL    HW224123   1.204   0.254   5.569  2.1253  1.0024 -1.5065
 4164SOL     OW24124   2.786   1.573  13.904  0.4301 -0.3070  0.1952
 4164SOL    HW124125   2.751   1.662  13.895  0.9773 -0.3065 -2.0368
 4164SOL    HW224126   2.745   1.550  13.987  0.2308  2.0285  0.7334
 4165SOL     OW24127   1.633   3.674  15.192 -0.4471  0.3209  0.6078
 4165SOL    HW124128   1.719   3.634  15.178 -0.3202  1.1405 -1.0107
 4165SOL    HW224129   1.594   3.690  15.106 -4.0087 -2.9474  1.6068
 4166SOL     OW24130   0.843   1.148   5.202 -0.0818  0.7719  0.0118
 4166SOL    HW124131   0.839   1.096   5.122  1.2199 -0.0365  0.4831
 4166SOL    HW224132   0.888   1.225   5.168 -0.3729  0.5380 -0.9303
 4167SOL     OW24133   2.191   3.241   4.308  0.4380 -0.4397  0.0486
 4167SOL    HW124134   2.279   3.276   4.319  0.5180 -1.0871  1.4909
 4167SOL    HW224135   2.198   3.146   4.312 -0.2184 -0.5119 -0.5899
 4168SOL     OW24136   2.958   0.918   4.341  0.3134 -0.0315  0.0187
 4168SOL    HW124137   2.889   0.875   4.391  1.5370  0.2810  1.9474
 4168SOL    HW224138   2.962   0.992   4.401 -0.6088 -0.4011  0.5398
 4169SOL     OW24139   1.036   4.190  12.391 -0.1441  0.7111  0.7668
 4169SOL    HW124140   1.077   4.207  12.476 -0.3648  1.9669  0.6196
 4169SOL    HW224141   0.970   4.259  12.392  0.0614  0.9332 -1.6302
 4170SOL     OW24142   1.931   1.954  12.242  0.1380 -0.1034  0.5818
 4170SOL    HW124143   1.920   2.034  12.294  0.0827  1.3319 -1.6346
 4170SOL    HW224144   1.843   1.955  12.204  1.0062 -1.8419 -1.4033
 4171SOL     OW24145   2.596   3.351   5.657 -0.2867 -0.3130  0.3069
 4171SOL    HW124146   2.516   3.367   5.707  0.9208 -2.2916  2.8787
 4171SOL    HW224147   2.658   3.417   5.689  0.8759 -1.0470 -0.4285
 4172SOL     OW24148   2.195   1.077   5.454 -0.5438  0.1337  0.2141
 4172SOL    HW124149   2.180   1.095   5.547 -2.1846  0.1840 -0.0581
 4172SOL    HW224150   2.135   1.003   5.441  1.6522 -2.1121  2.9755
 4173SOL     OW24151   2.950   3.221  15.447  0.0972  0.8127  0.1447
 4173SOL    HW124152   3.035   3.212  15.405 -0.3963  1.4460 -0.9867
 4173SOL    HW224153   2.921   3.132  15.464  0.0922  0.8380  0.2706
 4174SOL     OW24154   2.388   3.769   7.119 -0.3931  0.2628  0.4951
 4174SOL    HW124155   2.381   3.844   7.061 -1.0161 -0.1032  0.0915
 4174SOL    HW224156   2.430   3.822   7.187  1.1882  0.4461 -0.6235
 4175SOL     OW24157   0.372   2.550   7.682 -0.7009  0.6010  0.2535
 4175SOL    HW124158   0.352   2.585   7.595 -0.1489 -0.6677 -0.3791
 4175SOL    HW224159   0.413   2.466   7.662 -0.5199 -0.4917  5.1188
 4176SOL     OW24160   1.674   2.920   7.220  0.4279 -0.1536 -0.0057
 4176SOL    HW124161   1.694   3.011   7.196  0.4684 -0.5709 -1.5748
 4176SOL    HW224162   1.679   2.929   7.315  2.2195 -0.4256 -0.0840
 4177SOL     OW24163   1.967   0.202  12.097  0.1241 -0.0483 -0.5921
 4177SOL    HW124164   1.911   0.195  12.175  2.7864  0.3748  1.3415
 4177SOL    HW224165   1.990   0.111  12.077 -2.2585 -0.0126 -3.5579
 4178SOL     OW24166   3.104   4.288   3.370  0.2795 -0.4464 -0.1879
 4178SOL    HW124167   3.082   4.306   3.279  1.1558 -0.3814 -0.3888
 4178SOL    HW224168   3.133   4.197   3.360  1.1907 -0.3868  1.8711
 4179SOL     OW24169   2.822   4.396  14.570 -0.3554 -0.5083  0.7177
 4179SOL    HW124170   2.835   4.404  14.475 -2.0479  1.2971  0.6446
 4179SOL    HW224171   2.861   4.479  14.597  2.0468 -2.1740  2.3649
 4180SOL     OW24172   0.012   0.501   7.904 -0.0856 -0.0882 -0.0784
 4180SOL    HW124173   0.024   0.422   7.956  0.9335  0.3688  0.3779
 4180SOL    HW224174   0.045   0.565   7.966 -2.2539 -0.5167  1.5404
 4181SOL     OW24175   0.640   1.654   4.379  0.4095  0.0169  0.1167
 4181SOL    HW124176   0.591   1.639   4.460 -0.7346 -2.0199 -0.9843
 4181SOL    HW224177   0.589   1.710   4.321  1.3180  1.2662  0.5040
 4182SOL     OW24178   1.708   0.680  16.906  0.3463 -0.3618  1.0624
 4182SOL    HW124179   1.683   0.696  16.815  0.6177 -2.0414  0.6965
 4182SOL    HW224180   1.785   0.624  16.899  0.2961 -0.2594 -0.2403
 4183SOL     OW24181   3.766   1.798   6.743 -0.0604 -1.0084 -1.0187
 4183SOL    HW124182   3.724   1.811   6.828  1.8853  1.5816 -0.4536
 4183SOL    HW224183   3.796   1.708   6.749  0.3204 -0.8067  0.1605
 4184SOL     OW24184   4.041   1.241   4.088 -0.0295 -0.1085 -0.1903
 4184SOL    HW124185   4.041   1.327   4.046  1.2837  0.3779  0.8135
 4184SOL    HW224186   4.132   1.222   4.065  0.2167 -0.2534  0.9068
 4185SOL     OW24187   0.571   4.564   6.907 -0.4157  0.2455  0.0793
 4185SOL    HW124188   0.618   4.582   6.988  3.4748 -0.5493 -2.0117
 4185SOL    HW224189   0.499   4.624   6.889 -2.0876 -1.9115 -0.3817
 4186SOL     OW24190   0.478   3.685   8.790 -0.5671 -0.2312  0.0550
 4186SOL    HW124191   0.519   3.686   8.877  0.2224  2.5588 -0.3441
 4186SOL    HW224192   0.406   3.629   8.817  0.1041 -1.0571  0.1432
 4187SOL     OW24193   0.525   3.096   4.272 -0.3843 -0.3224 -0.1225
 4187SOL    HW124194   0.471   3.042   4.330 -0.1559 -1.2259 -0.7444
 4187SOL    HW224195   0.524   3.056   4.185  0.7917  0.8807 -0.7005
 4188SOL     OW24196   4.205   3.429   4.103 -0.1364 -0.2130  0.1790
 4188SOL    HW124197   4.125   3.458   4.059 -0.3934 -2.1735 -0.6196
 4188SOL    HW224198   4.175   3.436   4.193  0.6052  0.8059  0.3510
 4189SOL     OW24199   2.402   2.586   2.611  0.0152 -0.1867 -0.1721
 4189SOL    HW124200   2.492   2.615   2.602 -0.8578  2.1989 -1.3525
 4189SOL    HW224201   2.401   2.514   2.547  2.1090 -1.3938  1.1576
 4190SOL     OW24202   3.146   3.891   7.711 -0.2845  0.0990 -0.2686
 4190SOL    HW124203   3.084   3.848   7.771  2.0434 -1.6142  0.9318
 4190SOL    HW224204   3.219   3.902   7.773  0.7805 -3.8985 -0.7741
 4191SOL     OW24205   0.537   1.918   7.202 -0.0903  0.5014 -0.0811
 4191SOL    HW124206   0.567   1.857   7.135  0.3119 -0.6114  1.1017
 4191SOL    HW224207   0.609   1.981   7.195  0.4859  0.0836  1.9855
 4192SOL     OW24208   2.083   2.647   9.813  0.0215  0.3172 -0.0101
 4192SOL    HW124209   2.129   2.728   9.835 -0.1513  0.8328 -1.5474
 4192SOL    HW224210   1.993   2.666   9.841 -0.8751 -2.5807 -0.8655
 4193SOL     OW24211   2.050   2.309   3.949  0.4290  0.9607  0.1752
 4193SOL    HW124212   2.065   2.226   3.903 -0.4226  1.0514 -0.2715
 4193SOL    HW224213   1.979   2.344   3.894  2.9316  1.0481 -3.0200
 4194SOL     OW24214   2.169   0.652   9.417  0.1211 -0.1312 -0.2283
 4194SOL    HW124215   2.263   0.669   9.418 -0.2973  1.9135  2.1954
 4194SOL    HW224216   2.154   0.697   9.500 -0.2832 -0.2718 -0.2259
 4195SOL     OW24217   0.888   1.277  13.022 -0.1534  0.2204 -0.4131
 4195SOL    HW124218   0.962   1.288  12.963 -0.0453 -0.4793 -0.4107
 4195SOL    HW224219   0.937   1.253  13.100 -0.5634 -0.6727 -0.4270
 4196SOL     OW24220   2.213   2.970   2.138  0.3631  0.3223 -0.3255
 4196SOL    HW124221   2.287   2.912   2.125  1.4963  1.6723  0.0921
 4196SOL    HW224222   2.242   3.041   2.080  1.4998 -0.3102 -0.5263
 4197SOL     OW24223   0.193   4.241   8.820  0.2274  0.1141  0.0479
 4197SOL    HW124224   0.226   4.323   8.783 -0.8053  0.2315 -0.6068
 4197SOL    HW224225   0.204   4.262   8.913  1.9303 -0.7625  0.0549
 4198SOL     OW24226   1.951   4.728   4.380  0.3275  0.2218  0.9241
 4198SOL    HW124227   2.003   0.037   4.314 -0.5613  1.0934  0.8558
 4198SOL    HW224228   1.891   0.058   4.410  0.0753  1.0190 -1.4205
 4199SOL     OW24229   1.873   1.360   2.996  0.3773  0.1339 -0.3843
 4199SOL    HW124230   1.874   1.317   2.910  0.3911 -1.6755  0.5047
 4199SOL    HW224231   1.781   1.387   3.003  0.0219 -1.0969 -0.2596
 4200SOL     OW24232   0.734   3.174  17.331 -0.1505 -0.2881  0.3545
 4200SOL    HW124233   0.818   3.220  17.328  0.4737 -1.5785 -2.0888
 4200SOL    HW224234   0.693   3.192  17.246  2.4333  0.1607 -0.7971
 4201SOL     OW24235   1.516   3.156   1.485 -0.5258 -0.1340 -0.3575
 4201SOL    HW124236   1.597   3.198   1.513  0.1877 -0.9692 -1.1289
 4201SOL    HW224237   1.508   3.184   1.394  1.5036 -1.5293 -0.9681
 4202SOL     OW24238   3.154   3.895   8.585  0.2100  0.3372  0.1968
 4202SOL    HW124239   3.138   3.801   8.582  0.3544  0.4463 -4.0500
 4202SOL    HW224240   3.113   3.915   8.669 -0.3604  1.6484 -0.3937
 4203SOL     OW24241   0.381   1.186  11.602 -0.6445 -0.4864 -0.2278
 4203SOL    HW124242   0.470   1.154  11.619 -0.2886 -0.2196 -1.6006
 4203SOL    HW224243   0.383   1.197  11.507  3.2917  0.0483 -0.0686
 4204SOL     OW24244   2.284   0.088   3.246  0.1723 -0.1315  0.2978
 4204SOL    HW124245   2.250   0.009   3.205 -0.7489 -0.0947  0.9835
 4204SOL    HW224246   2.227   0.149   3.198  0.8375  0.2524 -0.0103
 4205SOL     OW24247   0.856   0.463   4.558  0.2756  0.3832 -0.0901
 4205SOL    HW124248   0.784   0.418   4.603 -0.1539 -0.3254 -1.4749
 4205SOL    HW224249   0.920   0.476   4.627  0.4898  1.9408 -0.5921
 4206SOL     OW24250   0.040   3.775   2.879  0.0875  0.6364 -0.4812
 4206SOL    HW124251   0.012   3.853   2.831 -1.8231  0.9839  1.1928
 4206SOL    HW224252   4.714   3.718   2.835 -0.8042  1.9038 -0.8300
 4207SOL     OW24253   1.359   3.531   6.055  0.1000 -0.1266 -0.1538
 4207SOL    HW124254   1.289   3.569   6.108  2.8833  0.1458  3.3275
 4207SOL    HW224255   1.389   3.609   6.008  0.5744  1.6259  3.0737
 4208SOL     OW24256   2.496   2.749   8.694  0.0950  0.1434 -0.5026
 4208SOL    HW124257   2.449   2.683   8.744 -0.4685  1.5252  0.7659
 4208SOL    HW224258   2.485   2.817   8.760 -1.6416 -1.3372  0.7287
 4209SOL     OW24259   2.021   2.992   5.145  0.1313 -0.5487  0.2536
 4209SOL    HW124260   2.068   3.072   5.120 -1.2074 -0.0342 -0.5977
 4209SOL    HW224261   1.955   2.978   5.078 -1.0380  1.3995  1.0213
 4210SOL     OW24262   2.614   4.196  17.008  0.0204  0.1862  0.0636
 4210SOL    HW124263   2.682   4.228  17.067 -1.2012 -0.0268  1.5743
 4210SOL    HW224264   2.665   4.159  16.936  1.1387  1.1897  0.3320
 4211SOL     OW24265   4.709   0.622   4.055  0.4620  0.5262 -0.3933
 4211SOL    HW124266   4.662   0.679   4.116 -2.7516 -1.3472 -1.1396
 4211SOL    HW224267   4.661   0.627   3.972  0.2653 -1.0333 -0.3708
 4212SOL     OW24268   0.337   3.178   2.023  0.0903  0.4067  0.8295
 4212SOL    HW124269   0.386   3.133   1.954 -0.8270  1.1360 -0.2988
 4212SOL    HW224270   0.319   3.260   1.978 -0.6289  0.8290  1.9017
 4213SOL     OW24271   1.178   1.051   6.806  0.2173  0.4711  0.0898
 4213SOL    HW124272   1.112   1.107   6.766 -2.3787 -2.1776  0.6249
 4213SOL    HW224273   1.240   1.117   6.836  2.0222  0.1580 -2.8710
 4214SOL     OW24274   0.454   4.452   7.255 -0.0984 -0.3912 -0.0440
 4214SOL    HW124275   0.433   4.525   7.313 -1.5729 -0.4096 -0.5513
 4214SOL    HW224276   0.533   4.488   7.214 -0.1120  0.1757  0.4377
 4215SOL     OW24277   2.904   1.088  10.127  0.2981 -0.4971 -0.0536
 4215SOL    HW124278   2.918   1.132  10.211  0.0546 -2.2436  0.8939
 4215SOL    HW224279   2.821   1.042  10.142 -1.3321  2.6730  0.9145
 4216SOL     OW24280   1.840   3.072   8.141 -0.4594  0.2975 -0.1994
 4216SOL    HW124281   1.827   3.164   8.118 -2.4379  0.2690  0.8308
 4216SOL    HW224282   1.868   3.038   8.056 -1.3911 -0.7603 -0.0790
 4217SOL     OW24283   3.721   3.027   7.145  0.3292  0.1664 -0.0754
 4217SOL    HW124284   3.755   3.003   7.059  1.7175 -0.9073  0.7492
 4217SOL    HW224285   3.803   3.040   7.192 -0.1840  0.6030  0.6923
 4218SOL     OW24286   3.927   2.046   6.826 -0.0674 -0.0531 -0.7706
 4218SOL    HW124287   3.991   2.021   6.892 -0.2477 -0.5505 -0.7792
 4218SOL    HW224288   3.875   1.965   6.824  0.0398 -0.1042 -1.5963
 4219SOL     OW24289   2.568   2.061   2.661  0.1207 -0.1602 -0.0960
 4219SOL    HW124290   2.548   2.060   2.754  0.5853 -0.8289 -0.0059
 4219SOL    HW224291   2.489   2.107   2.633  0.3934  1.4463  1.8177
 4220SOL     OW24292   3.156   3.694   1.198 -0.1351  0.5144 -0.5136
 4220SOL    HW124293   3.096   3.628   1.163 -0.7603  2.6227 -3.4788
 4220SOL    HW224294   3.143   3.680   1.291 -0.0186  0.4880 -0.5014
 4221SOL     OW24295   1.617   0.269   5.452  0.0646  0.0144  0.3048
 4221SOL    HW124296   1.686   0.325   5.486  0.7662 -0.8984  0.3794
 4221SOL    HW224297   1.632   0.185   5.495 -1.6487  0.4202  1.7201
 4222SOL     OW24298   0.810   1.798   2.880 -0.0048  0.2380 -0.1688
 4222SOL    HW124299   0.902   1.802   2.909  0.5920 -0.2799 -2.0124
 4222SOL    HW224300   0.813   1.839   2.794  0.6799  1.3652  0.3866
 4223SOL     OW24301   1.419   1.260   9.336 -0.3585  0.1290 -0.2885
 4223SOL    HW124302   1.376   1.215   9.263 -0.8199 -1.1862  0.8157
 4223SOL    HW224303   1.461   1.326   9.279 -0.4835 -0.5355 -1.1526
 4224SOL     OW24304   2.681   1.690  11.200  0.9173 -0.1356  0.5078
 4224SOL    HW124305   2.606   1.730  11.244  0.1258  0.9217 -1.8037
 4224SOL    HW224306   2.710   1.763  11.146  0.6418  0.5994  1.3414
 4225SOL     OW24307   4.241   2.464   9.888 -0.0084 -0.2393 -0.5271
 4225SOL    HW124308   4.219   2.542   9.837  0.7207  1.1097  1.1860
 4225SOL    HW224309   4.298   2.416   9.828  1.4662  2.3751 -1.2410
 4226SOL     OW24310   0.707   4.171   2.983  0.0006  0.1305  0.6102
 4226SOL    HW124311   0.649   4.177   2.908 -1.4153  0.2441  1.7244
 4226SOL    HW224312   0.738   4.082   2.966 -0.5126 -0.1011  0.9098
 4227SOL     OW24313   3.986   0.629   2.965  0.2953 -0.1506  0.2883
 4227SOL    HW124314   3.913   0.637   3.025  0.3565  1.7422  0.1125
 4227SOL    HW224315   3.944   0.646   2.881 -2.3372 -0.8681  1.4745
 4228SOL     OW24316   0.912   3.683   0.791 -0.4698 -0.0553  0.2740
 4228SOL    HW124317   0.885   3.751   0.852  0.5753  2.5728 -2.2236
 4228SOL    HW224318   0.855   3.609   0.811 -1.3256  0.8258  1.0678
 4229SOL     OW24319   0.379   2.916  15.869  0.2011 -0.5540  0.1794
 4229SOL    HW124320   0.404   2.993  15.817  1.4405 -0.2869  1.1701
 4229SOL    HW224321   0.464   2.874  15.881  0.2164 -1.0646 -1.6303
 4230SOL     OW24322   3.393   0.621   5.794 -0.5501  0.0520  0.3226
 4230SOL    HW124323   3.430   0.541   5.830 -3.4657 -1.1171  0.7010
 4230SOL    HW224324   3.340   0.650   5.868 -0.5882  0.4883  0.1234
 4231SOL     OW24325   1.267   0.555   8.107  0.1097 -0.1768 -0.1000
 4231SOL    HW124326   1.254   0.647   8.128  0.4010  0.2784 -1.8601
 4231SOL    HW224327   1.179   0.526   8.079 -0.4087  0.5443  0.7873
 4232SOL     OW24328   4.134   2.687   9.777  0.0578  0.3683 -0.0593
 4232SOL    HW124329   4.165   2.743   9.706 -0.0365  0.0662 -0.3370
 4232SOL    HW224330   4.109   2.755   9.839  1.5088 -0.9116  1.9352
 4233SOL     OW24331   3.490   3.624   5.075  0.4877 -0.3001 -0.6131
 4233SOL    HW124332   3.473   3.546   5.023  0.3065 -0.4145 -0.3825
 4233SOL    HW224333   3.576   3.601   5.112 -0.6394 -0.1715  2.0884
 4234SOL     OW24334   2.946   1.668   1.757 -0.4747 -0.1115 -0.4370
 4234SOL    HW124335   2.943   1.576   1.730  0.4787 -0.4077  0.4904
 4234SOL    HW224336   3.006   1.705   1.693 -0.0721  0.9672  0.5618
 4235SOL     OW24337   1.934   0.297   4.686  0.5812  0.0136  0.8158
 4235SOL    HW124338   1.913   0.337   4.771 -0.4010 -1.4154  1.2507
 4235SOL    HW224339   2.014   0.248   4.703  1.0080  0.7732  0.9827
 4236SOL     OW24340   3.077   3.469   7.474 -0.7009  0.4393 -0.0463
 4236SOL    HW124341   3.162   3.432   7.497  0.4946  2.5756 -1.0515
 4236SOL    HW224342   3.091   3.564   7.470 -0.2534  0.3531 -0.5860
 4237SOL     OW24343   2.651   0.335   0.416  0.1209  0.3275 -0.2838
 4237SOL    HW124344   2.611   0.297   0.337  0.8461 -0.6735 -0.1735
 4237SOL    HW224345   2.725   0.274   0.418 -1.1023 -1.0874  2.3947
 4238SOL     OW24346   2.900   4.374   8.336 -0.0783 -0.1856 -0.3974
 4238SOL    HW124347   2.951   4.319   8.395 -0.8460 -1.1906 -0.6715
 4238SOL    HW224348   2.809   4.351   8.358  0.8685 -1.6191  1.9785
 4239SOL     OW24349   4.074   4.671   8.225 -0.8129 -0.1294 -0.2651
 4239SOL    HW124350   4.063   4.701   8.315 -0.6305  1.3138 -0.7294
 4239SOL    HW224351   4.133   4.731   8.179 -0.1539 -0.5552  0.0085
 4240SOL     OW24352   0.399   1.536   2.508  0.1168 -0.3712  0.0540
 4240SOL    HW124353   0.447   1.485   2.443  0.8342 -0.4825  0.6692
 4240SOL    HW224354   0.471   1.563   2.565  0.1521  1.9114 -1.0781
 4241SOL     OW24355   0.347   1.082   2.341  0.6101 -0.3062  0.3734
 4241SOL    HW124356   0.408   1.030   2.289  0.8385 -1.1514  1.5055
 4241SOL    HW224357   0.342   1.030   2.421  2.4296 -2.5306 -0.9675
 4242SOL     OW24358   2.772   2.659  17.424  0.5791 -0.2872  0.0520
 4242SOL    HW124359   2.790   2.704  17.341 -2.0914 -0.3792 -0.5703
 4242SOL    HW224360   2.830   2.584  17.410  1.0895 -0.0293  0.7745
 4243SOL     OW24361   1.039   0.500   7.551  0.1916 -0.2078 -0.2763
 4243SOL    HW124362   1.127   0.482   7.520  0.2433  0.7945 -0.6787
 4243SOL    HW224363   1.035   0.595   7.540  0.9840 -0.2459 -0.8267
 4244SOL     OW24364   2.188   1.867   1.774 -0.3133  0.4329  0.3005
 4244SOL    HW124365   2.130   1.901   1.842 -1.7485  1.6993 -1.5676
 4244SOL    HW224366   2.230   1.943   1.734  0.9170 -0.9518 -1.0558
 4245SOL     OW24367   3.292   3.462   1.527  0.2423 -0.1490 -0.0095
 4245SOL    HW124368   3.360   3.425   1.471  0.9681 -0.1821  0.8946
 4245SOL    HW224369   3.341   3.457   1.609  0.6182  0.7965 -0.1763
 4246SOL     OW24370   0.514   2.653  14.822  0.0496  0.3310 -0.2292
 4246SOL    HW124371   0.602   2.629  14.852  0.7206  0.9928 -1.6582
 4246SOL    HW224372   0.545   2.712  14.754  0.9581 -0.5782 -0.6219
 4247SOL     OW24373   4.574   0.768   8.739 -0.5015 -0.1378 -0.4043
 4247SOL    HW124374   4.622   0.745   8.659 -0.7008  0.7460 -0.7688
 4247SOL    HW224375   4.587   0.862   8.728  2.4460 -0.5330 -0.4171
 4248SOL     OW24376   1.157   1.671  10.237 -0.4661 -0.1373  0.3965
 4248SOL    HW124377   1.159   1.702  10.146 -1.9737 -0.5326  0.2296
 4248SOL    HW224378   1.249   1.654  10.260 -0.3562 -1.6926 -1.0988
 4249SOL     OW24379   4.594   3.301   0.024  0.0220  0.2740  0.1857
 4249SOL    HW124380   4.627   3.337   0.106  2.2063  0.9312 -0.9798
 4249SOL    HW224381   4.667   3.246  17.748  1.5350  2.2184  0.3872
 4250SOL     OW24382   2.158   2.224   4.798 -0.1645  0.1126 -0.6708
 4250SOL    HW124383   2.157   2.243   4.891  1.7293  2.1473 -1.0791
 4250SOL    HW224384   2.249   2.196   4.789 -0.6752 -2.0441  0.9865
 4251SOL     OW24385   3.251   3.273   3.192 -0.6363 -0.1886 -0.4695
 4251SOL    HW124386   3.322   3.282   3.256 -1.3162  0.9601  0.1303
 4251SOL    HW224387   3.219   3.184   3.200 -0.1917 -0.2808  0.2382
 4252SOL     OW24388   2.575   0.729   1.328 -0.4024  0.3267 -0.4004
 4252SOL    HW124389   2.616   0.808   1.293 -0.5865  0.2561 -0.7809
 4252SOL    HW224390   2.569   0.676   1.249  2.0253 -0.3808 -0.1157
 4253SOL     OW24391   1.696   1.378  16.995 -0.4427 -0.1188 -0.4030
 4253SOL    HW124392   1.615   1.385  17.044  0.4214 -1.3420  1.2013
 4253SOL    HW224393   1.742   1.453  17.032 -2.8930  1.2275 -0.0931
 4254SOL     OW24394   3.197   4.384  12.458 -0.1257  0.1481 -0.2375
 4254SOL    HW124395   3.230   4.396  12.369 -0.5731 -0.4414 -0.4830
 4254SOL    HW224396   3.209   4.467  12.504 -2.3405 -1.5058  3.3707
 4255SOL     OW24397   2.072   4.717   7.385  0.4042 -0.0959 -0.3907
 4255SOL    HW124398   1.998   4.660   7.362  0.6520 -0.2727 -0.7440
 4255SOL    HW224399   2.039   0.004   7.471 -2.6154  0.1390 -1.6168
 4256SOL     OW24400   2.822   2.595  11.287 -0.0436  0.1279 -0.3828
 4256SOL    HW124401   2.842   2.684  11.257  2.9007 -0.1559  0.7697
 4256SOL    HW224402   2.769   2.557  11.217 -0.8168 -0.0973  0.3228
 4257SOL     OW24403   0.950   1.038  13.838  0.0571 -0.1657  0.5139
 4257SOL    HW124404   0.900   0.976  13.891  0.9477  0.3552  1.9785
 4257SOL    HW224405   0.971   1.097  13.911  1.2799  0.4077 -0.2991
 4258SOL     OW24406   0.785   2.298   9.387 -0.3054 -0.0994  0.2078
 4258SOL    HW124407   0.762   2.360   9.457  0.0745  1.0930 -0.7318
 4258SOL    HW224408   0.785   2.350   9.307 -1.7979 -1.0629 -0.4141
 4259SOL     OW24409   3.238   3.816  17.052 -0.8778 -0.1102 -0.2674
 4259SOL    HW124410   3.312   3.761  17.025  0.2476  1.8772 -1.2094
 4259SOL    HW224411   3.161   3.759  17.044 -0.6521 -0.6613  1.5675
 4260SOL     OW24412   1.015   3.825   3.293 -0.5515 -0.1255  0.3034
 4260SOL    HW124413   0.935   3.848   3.341 -0.7094  0.0436 -0.0398
 4260SOL    HW224414   1.008   3.885   3.218 -2.1334  0.6037  1.0459
 4261SOL     OW24415   4.451   0.825   1.986  0.0252  0.1639  0.6540
 4261SOL    HW124416   4.397   0.787   1.916  0.4479  0.3848  0.2062
 4261SOL    HW224417   4.536   0.844   1.945 -0.1977  1.8071  0.9668
 4262SOL     OW24418   2.273   4.687   2.014  0.2607 -0.6193  0.1959
 4262SOL    HW124419   2.213   4.729   1.952  1.1906 -1.7237 -1.4764
 4262SOL    HW224420   2.272   0.012   2.085 -1.4902 -1.8402  1.2636
 4263SOL     OW24421   0.117   2.699   3.122  0.3566 -0.1172  0.2254
 4263SOL    HW124422   0.209   2.689   3.099  0.0836  0.0456 -0.9457
 4263SOL    HW224423   0.117   2.658   3.208  1.5610  1.2677  0.8795
 4264SOL     OW24424   4.623   0.354  16.791  0.3843  0.0457  0.7307
 4264SOL    HW124425   4.569   0.428  16.821 -0.7223  0.0634 -1.3414
 4264SOL    HW224426   4.578   0.280  16.832 -1.7485  0.9068 -0.0266
 4265SOL     OW24427   1.805   1.310   2.010  0.2896  0.1503  0.4882
 4265SOL    HW124428   1.717   1.343   2.029  0.6703  2.5918 -2.0335
 4265SOL    HW224429   1.791   1.216   2.022  0.7516  0.1868  1.2864
 4266SOL     OW24430   3.504   0.790   3.213 -0.1549  0.0305 -0.6990
 4266SOL    HW124431   3.424   0.737   3.215 -0.1016 -0.1189 -2.3377
 4266SOL    HW224432   3.540   0.778   3.301 -1.3599 -0.9196 -0.3220
 4267SOL     OW24433   1.968   4.066   0.758  0.4042  0.0313  0.1810
 4267SOL    HW124434   1.918   4.061   0.677  0.0081  1.2198  0.3534
 4267SOL    HW224435   1.895   4.077   0.820 -0.5612 -0.7954 -0.8097
 4268SOL     OW24436   4.523   3.763   4.908  0.2231 -0.0397  0.7253
 4268SOL    HW124437   4.427   3.761   4.903  0.3054 -0.8103 -0.4220
 4268SOL    HW224438   4.532   3.762   5.003  0.1468 -1.0623  0.7222
 4269SOL     OW24439   1.671   3.042   5.935 -0.1383  0.2063  0.2183
 4269SOL    HW124440   1.696   3.049   5.843  0.1890 -1.3866  0.1759
 4269SOL    HW224441   1.601   2.977   5.922 -0.1569  0.5452 -1.4372
 4270SOL     OW24442   4.464   4.575  15.396  0.1123 -0.0747 -0.0800
 4270SOL    HW124443   4.455   4.566  15.490  3.5272 -3.7625 -0.1236
 4270SOL    HW224444   4.422   4.661  15.390  0.6291  0.2967  1.8341
 4271SOL     OW24445   2.167   3.763   0.958  0.2793 -0.3823 -0.2636
 4271SOL    HW124446   2.157   3.783   0.865  1.1728  0.4729 -0.1753
 4271SOL    HW224447   2.256   3.795   0.971  0.0645  0.3567 -0.5881
 4272SOL     OW24448   3.640   0.490   4.677 -0.2733 -0.1477 -0.0247
 4272SOL    HW124449   3.668   0.484   4.586  1.1439  1.6734  0.2924
 4272SOL    HW224450   3.660   0.580   4.703  1.9058 -0.7122  0.2993
 4273SOL     OW24451   2.388   0.677   7.744  0.0247  0.1857  0.6380
 4273SOL    HW124452   2.400   0.743   7.675 -3.8119 -0.2682 -0.4866
 4273SOL    HW224453   2.328   0.615   7.700 -0.2654  1.2633 -0.4926
 4274SOL     OW24454   1.178   2.288  12.233 -0.2088 -0.0668  0.0265
 4274SOL    HW124455   1.225   2.284  12.316 -2.1065  0.2042  1.1151
 4274SOL    HW224456   1.168   2.200  12.197  1.2030  0.1767 -0.9740
 4275SOL     OW24457   1.217   3.153   0.015  0.9552  0.0922 -0.0663
 4275SOL    HW124458   1.304   3.127   0.045  1.3479  0.9300 -0.4785
 4275SOL    HW224459   1.192   3.063  17.747 -0.9732  0.5762  0.0842
 4276SOL     OW24460   1.886   3.132   9.222  0.4452 -0.0502 -0.2155
 4276SOL    HW124461   1.834   3.078   9.162  0.7720 -0.0460 -0.5024
 4276SOL    HW224462   1.822   3.167   9.284 -0.3780 -2.3578  0.2307
 4277SOL     OW24463   0.134   3.772   9.540 -0.1562 -0.3787  0.4830
 4277SOL    HW124464   0.113   3.846   9.596 -2.2501  0.0855 -0.8933
 4277SOL    HW224465   0.081   3.794   9.463 -0.6619  1.0441  1.2344
 4278SOL     OW24466   1.732   3.494   4.274 -0.3284  0.0938 -0.2269
 4278SOL    HW124467   1.798   3.469   4.338 -2.0652 -0.0267  1.5393
 4278SOL    HW224468   1.780   3.472   4.194 -2.3333 -0.7322 -1.1969
 4279SOL     OW24469   4.339   0.749   6.766  0.1580  0.2339 -0.3098
 4279SOL    HW124470   4.286   0.784   6.838 -2.1062  1.5530 -2.6182
 4279SOL    HW224471   4.327   0.657   6.791  1.6305  0.0655 -0.2490
 4280SOL     OW24472   0.999   3.159   9.203  0.6531 -0.1141 -0.6170
 4280SOL    HW124473   1.035   3.106   9.274 -1.0798  1.2891  1.3082
 4280SOL    HW224474   1.072   3.220   9.209  2.0146 -1.8542  0.3859
 4281SOL     OW24475   0.068   4.205   1.730 -0.2988 -0.2046  0.1194
 4281SOL    HW124476   4.719   4.167   1.723  0.0321 -0.7299 -1.2254
 4281SOL    HW224477   0.119   4.139   1.777 -0.1435  1.7304  2.6888
 4282SOL     OW24478   3.077   3.311   1.831 -0.0972 -0.0613  0.0236
 4282SOL    HW124479   3.169   3.333   1.848 -0.1064 -0.1557  0.1952
 4282SOL    HW224480   3.067   3.386   1.773  0.6270 -0.6409 -0.8572
 4283SOL     OW24481   0.775   0.187  17.209 -0.3646 -0.1652  0.2735
 4283SOL    HW124482   0.753   0.274  17.240 -1.4259  0.3991 -2.1004
 4283SOL    HW224483   0.744   0.187  17.119 -0.3098 -0.1298  0.2548
 4284SOL     OW24484   0.459   1.823   6.408 -0.4444  0.3011 -0.2929
 4284SOL    HW124485   0.515   1.890   6.368 -0.8932 -0.4775 -2.2149
 4284SOL    HW224486   0.433   1.778   6.328  0.2253 -2.1351  0.8540
 4285SOL     OW24487   1.305   1.215   3.244 -0.2804 -0.0921 -0.3904
 4285SOL    HW124488   1.250   1.220   3.322  1.2228  0.6762  0.6264
 4285SOL    HW224489   1.318   1.122   3.229  1.5241 -0.1678  1.5750
 4286SOL     OW24490   2.798   1.924   6.904 -0.7733  0.1344 -0.1734
 4286SOL    HW124491   2.765   1.970   6.828 -0.3679  1.6599  0.5724
 4286SOL    HW224492   2.724   1.919   6.964 -1.3517 -0.5470 -0.9425
 4287SOL     OW24493   2.715   1.248   9.157 -0.1650 -0.2033 -0.3523
 4287SOL    HW124494   2.671   1.176   9.113 -0.4640  0.5577 -1.3102
 4287SOL    HW224495   2.654   1.320   9.139 -0.0895 -0.6269 -2.2733
 4288SOL     OW24496   3.490   3.020   6.886  0.1189  0.1911  0.7739
 4288SOL    HW124497   3.452   2.970   6.958 -2.0148 -0.5628 -0.8775
 4288SOL    HW224498   3.486   3.112   6.913  1.7752  0.9292 -1.4151
 4289SOL     OW24499   1.968   0.016   3.647 -0.1132  0.0523  0.1964
 4289SOL    HW124500   2.000   0.056   3.566 -0.0792  1.3950  0.8673
 4289SOL    HW224501   1.915   0.083   3.689  0.1502  1.7984 -2.2583
 4290SOL     OW24502   0.765   2.859   4.969 -0.1466  0.0494  0.2246
 4290SOL    HW124503   0.742   2.788   4.908  0.1479 -0.5318  0.7993
 4290SOL    HW224504   0.860   2.855   4.961 -0.1406 -2.3086  1.3675
 4291SOL     OW24505   2.155   0.995   9.397 -0.1821  0.6454 -0.2780
 4291SOL    HW124506   2.134   0.945   9.318 -1.0983 -1.1448  1.1079
 4291SOL    HW224507   2.161   1.084   9.362 -1.6595  1.0148  0.4134
 4292SOL     OW24508   4.012   0.810   2.228  0.5595 -0.2458  0.1697
 4292SOL    HW124509   4.094   0.857   2.241  0.7151 -0.4812  0.0205
 4292SOL    HW224510   3.982   0.827   2.318 -0.9138 -1.4543 -0.0985
 4293SOL     OW24511   0.783   2.822   7.876  0.0307  0.2335  0.3160
 4293SOL    HW124512   0.788   2.916   7.858  0.7566 -0.2000 -1.7249
 4293SOL    HW224513   0.694   2.799   7.849  0.3031  0.8944 -1.1220
 4294SOL     OW24514   0.267   3.661   9.792 -0.0053 -0.0119 -0.1088
 4294SOL    HW124515   0.248   3.618   9.876 -1.9677 -0.6351 -0.8804
 4294SOL    HW224516   0.224   3.609   9.725 -1.8104  1.7461 -0.3205
 4295SOL     OW24517   0.859   2.715   2.536  0.3030 -0.0763 -0.3136
 4295SOL    HW124518   0.844   2.755   2.450 -1.5267 -1.4020 -0.6410
 4295SOL    HW224519   0.944   2.671   2.531  1.1500  1.8745 -3.0496
 4296SOL     OW24520   2.260   4.490   8.501  0.0953  0.6980 -0.0187
 4296SOL    HW124521   2.280   4.537   8.420 -1.7011  1.0261 -0.2817
 4296SOL    HW224522   2.241   4.399   8.478  1.2625 -0.5573  3.9091
 4297SOL     OW24523   1.681   3.986   9.185  0.2707  0.1606 -0.6795
 4297SOL    HW124524   1.644   4.062   9.231 -3.1578 -1.2550 -1.0933
 4297SOL    HW224525   1.738   3.949   9.253  0.7310  0.1683 -1.0668
 4298SOL     OW24526   1.574   3.586   1.198  0.0615  0.2029 -0.6008
 4298SOL    HW124527   1.609   3.598   1.109  0.4466 -0.0044 -0.4758
 4298SOL    HW224528   1.655   3.608   1.244 -1.9236  0.8366  2.5925
 4299SOL     OW24529   2.961   0.411  14.877  0.0631 -0.0632  0.1125
 4299SOL    HW124530   2.990   0.442  14.963  0.1572  2.4546 -0.8463
 4299SOL    HW224531   2.978   0.488  14.823 -1.0369  0.4947  0.5560
 4300SOL     OW24532   0.250   3.007   4.394 -0.4443  0.6833  0.6990
 4300SOL    HW124533   0.266   3.041   4.482 -1.2350 -0.5698  1.3259
 4300SOL    HW224534   0.294   2.924   4.408 -0.3138  0.9446  1.7610
 4301SOL     OW24535   2.246   1.006   7.489  0.3707  0.0438 -0.0812
 4301SOL    HW124536   2.258   0.911   7.486 -1.0950 -0.1736  0.9324
 4301SOL    HW224537   2.303   1.042   7.421  0.2106  0.5053  0.0298
 4302SOL     OW24538   3.468   0.074   9.283  0.3506  0.7774 -0.0438
 4302SOL    HW124539   3.523   0.012   9.332 -0.9869  0.2921  0.8413
 4302SOL    HW224540   3.504   0.159   9.310  1.4773 -0.3477  2.0542
 4303SOL     OW24541   4.550   1.164   4.000  0.1055 -0.1555  0.2042
 4303SOL    HW124542   4.614   1.185   4.068  0.7419 -1.0102 -0.1186
 4303SOL    HW224543   4.577   1.079   3.965  1.4244  0.4627 -0.2774
 4304SOL     OW24544   0.406   2.932   2.652  0.3511 -0.4758 -0.0311
 4304SOL    HW124545   0.335   2.871   2.633  1.7807 -2.0847 -0.0928
 4304SOL    HW224546   0.456   2.917   2.572  2.1437 -1.3560  1.2643
 4305SOL     OW24547   1.074   4.070   7.237  0.0290  0.0182  0.0461
 4305SOL    HW124548   1.164   4.093   7.213  0.7419 -0.0839  2.5349
 4305SOL    HW224549   1.030   4.151   7.211 -0.7626 -0.9562 -1.6099
 4306SOL     OW24550   3.936   0.992  10.918 -0.0237  0.4647 -0.6783
 4306SOL    HW124551   3.920   0.974  11.010 -0.0079 -1.1870 -0.9963
 4306SOL    HW224552   4.019   1.038  10.924  1.1962 -2.4380  4.0791
 4307SOL     OW24553   3.337   3.089   2.140 -0.5607  0.5205  0.6649
 4307SOL    HW124554   3.253   3.103   2.185 -0.3271  0.6070  1.0739
 4307SOL    HW224555   3.328   3.001   2.106 -0.7271  1.2172 -1.0865
 4308SOL     OW24556   4.045   2.214   3.254 -0.1332  0.1901  0.4203
 4308SOL    HW124557   4.026   2.293   3.203  1.1560 -0.7489 -1.4752
 4308SOL    HW224558   4.116   2.239   3.313 -0.0604 -0.8363  0.7606
 4309SOL     OW24559   2.507   1.298   1.944 -0.0095  0.1638  0.2238
 4309SOL    HW124560   2.443   1.299   1.873  1.9161 -1.9577 -1.5437
 4309SOL    HW224561   2.563   1.374   1.930  0.5452 -0.0279  1.4258
 4310SOL     OW24562   1.588   3.184   1.212 -0.4962 -0.3547  0.2903
 4310SOL    HW124563   1.666   3.204   1.161 -0.7346 -1.0935 -0.3702
 4310SOL    HW224564   1.522   3.205   1.146  0.1072  1.0489  0.1525
 4311SOL     OW24565   0.761   3.942   9.246  0.4820 -0.2993  0.3151
 4311SOL    HW124566   0.794   3.961   9.158 -1.4666 -0.4174 -0.4460
 4311SOL    HW224567   0.717   4.023   9.272 -1.6221 -1.5756  0.7322
 4312SOL     OW24568   0.106   2.976   3.387 -0.3954  0.1176  0.0861
 4312SOL    HW124569   0.123   3.068   3.371  0.4300 -0.0242  0.1388
 4312SOL    HW224570   0.172   2.951   3.324 -0.1184  1.6182 -0.2055
 4313SOL     OW24571   1.711   3.001  14.565 -0.1254 -0.1881  0.1452
 4313SOL    HW124572   1.647   3.007  14.636 -0.0648  0.4057  0.1524
 4313SOL    HW224573   1.765   3.077  14.585  0.7148 -0.1106 -2.4029
 4314SOL     OW24574   1.187   2.356   3.551  0.3963  0.2013  0.0714
 4314SOL    HW124575   1.122   2.422   3.576 -0.0943  0.3557 -1.5537
 4314SOL    HW224576   1.161   2.278   3.599 -2.5647  1.6517  0.8087
 4315SOL     OW24577   0.710   3.535   7.835 -0.0587 -0.0011  0.0284
 4315SOL    HW124578   0.752   3.612   7.871  0.1757 -0.1510  0.0761
 4315SOL    HW224579   0.735   3.540   7.743  4.2814 -0.8227  1.1613
 4316SOL     OW24580   0.349   0.283   4.857 -0.3445  0.1191  0.9861
 4316SOL    HW124581   0.336   0.200   4.812  3.1703  0.4822 -0.6669
 4316SOL    HW224582   0.302   0.346   4.803  2.3489  0.3072 -1.1208
 4317SOL     OW24583   0.428   0.008   2.890  0.6613 -0.1914 -0.0780
 4317SOL    HW124584   0.390   0.018   2.978 -1.1534  0.3361 -0.9217
 4317SOL    HW224585   0.471   4.661   2.898  0.9014  0.2550  3.8189
 4318SOL     OW24586   2.400   2.089   2.299 -0.4823  0.0798 -0.4099
 4318SOL    HW124587   2.325   2.045   2.339  0.1372  0.3875  1.0764
 4318SOL    HW224588   2.417   2.032   2.224  2.5455 -1.1819  1.2336
 4319SOL     OW24589   4.280   2.121   4.236  0.3750 -0.3751 -0.5413
 4319SOL    HW124590   4.332   2.177   4.293 -1.5864  0.7970  0.1108
 4319SOL    HW224591   4.265   2.166   4.153 -1.4280 -0.8281 -0.4622
 4320SOL     OW24592   3.968   4.622  12.707  0.5293 -0.3019  0.4942
 4320SOL    HW124593   3.947   4.704  12.751  1.4261  0.1490  0.0936
 4320SOL    HW224594   4.015   4.579  12.778 -1.8239  0.0546  2.2301
 4321SOL     OW24595   4.330   1.274   4.299  0.1596  0.4726 -0.1026
 4321SOL    HW124596   4.403   1.335   4.311  1.1401 -0.7525  0.1469
 4321SOL    HW224597   4.343   1.239   4.211 -1.9941  0.5771 -0.4671
 4322SOL     OW24598   2.742   2.485   7.382  0.0078 -0.5097  0.0699
 4322SOL    HW124599   2.727   2.437   7.464 -2.6859 -0.9310 -0.6937
 4322SOL    HW224600   2.743   2.574   7.416 -0.9242 -1.8360  3.5901
 4323SOL     OW24601   2.013   0.954  15.340  0.1825 -0.1122 -0.2861
 4323SOL    HW124602   2.036   0.861  15.341  1.4975  0.2414  1.7854
 4323SOL    HW224603   1.999   0.974  15.247  0.1090 -1.0462 -0.4790
 4324SOL     OW24604   1.556   2.280   9.542 -0.2257  0.3140  0.2176
 4324SOL    HW124605   1.491   2.217   9.512  0.0186  0.5078 -0.7226
 4324SOL    HW224606   1.535   2.292   9.635 -1.6869  1.0941 -0.2007
 4325SOL     OW24607   4.503   1.121   0.915 -0.3797  0.1966  0.1935
 4325SOL    HW124608   4.499   1.029   0.943 -1.8453 -0.2667 -1.4928
 4325SOL    HW224609   4.598   1.134   0.912 -0.4703  0.8442  0.1202
 4326SOL     OW24610   3.558   1.521   4.104 -0.1364  0.1778  0.0895
 4326SOL    HW124611   3.499   1.532   4.179  1.0770  0.0255  1.0702
 4326SOL    HW224612   3.511   1.449   4.063  1.2517  0.1586 -1.4617
 4327SOL     OW24613   0.658   4.164   7.150  0.2081  0.2186 -0.8136
 4327SOL    HW124614   0.567   4.164   7.123 -0.1358 -0.7258  0.3885
 4327SOL    HW224615   0.667   4.258   7.166 -3.9226  0.4321  0.1882
 4328SOL     OW24616   4.225   1.681   5.648  0.0636 -0.0190  0.6985
 4328SOL    HW124617   4.145   1.726   5.620 -0.2167 -0.9154  0.0599
 4328SOL    HW224618   4.191   1.592   5.635 -2.1264  0.6168  1.9608
 4329SOL     OW24619   0.616   1.102   5.342  0.0358  0.1235 -0.4768
 4329SOL    HW124620   0.579   1.054   5.268 -1.3835 -0.0796  0.3634
 4329SOL    HW224621   0.695   1.124   5.294 -0.8562  1.1353 -1.4734
 4330SOL     OW24622   4.202   2.939   6.561 -0.1965 -0.1840 -0.2986
 4330SOL    HW124623   4.277   2.995   6.583 -0.5423  0.6574 -1.2683
 4330SOL    HW224624   4.193   2.951   6.467 -0.6963  1.3426 -0.0636
 4331SOL     OW24625   1.905   0.153   1.836 -0.4151  0.2672 -0.0682
 4331SOL    HW124626   1.904   0.057   1.847 -1.7087  0.0952 -1.7350
 4331SOL    HW224627   1.811   0.156   1.823 -0.8464  2.0065  3.3932
 4332SOL     OW24628   2.892   0.488   2.086 -0.2715  0.3637  0.3528
 4332SOL    HW124629   2.957   0.532   2.141 -0.5209 -1.6517  2.1995
 4332SOL    HW224630   2.930   0.400   2.085  1.1610  0.9654  1.4557
 4333SOL     OW24631   2.854   0.979  16.518  0.4787  0.1663  0.3980
 4333SOL    HW124632   2.827   1.063  16.555 -1.9862 -0.0121 -0.9836
 4333SOL    HW224633   2.837   0.994  16.425 -2.7113 -0.7254  0.8408
 4334SOL     OW24634   4.432   1.405   3.095 -0.0261  0.2046  0.5199
 4334SOL    HW124635   4.438   1.324   3.147  0.5449  0.6721  1.1855
 4334SOL    HW224636   4.378   1.452   3.158  0.8721  2.4897 -0.4524
 4335SOL     OW24637   4.355   1.949   9.232  0.3088  0.3294 -0.4043
 4335SOL    HW124638   4.308   2.014   9.179  2.3182  1.4660 -0.7967
 4335SOL    HW224639   4.411   2.007   9.283  0.6494  0.7253 -1.2263
 4336SOL     OW24640   1.719   3.523   7.047 -0.3139  0.2915 -0.5251
 4336SOL    HW124641   1.739   3.507   6.955 -1.8730 -0.8469 -0.6717
 4336SOL    HW224642   1.640   3.470   7.062  0.2321 -0.4015 -0.1114
 4337SOL     OW24643   0.664   3.064   7.035  0.3978 -0.1091 -0.4474
 4337SOL    HW124644   0.645   2.971   7.025 -1.7058  0.3127 -0.4708
 4337SOL    HW224645   0.679   3.095   6.946  2.9510 -0.0130  0.0323
 4338SOL     OW24646   3.257   0.182   6.469  0.4596  0.5347 -0.0287
 4338SOL    HW124647   3.259   0.204   6.376  2.7242  1.9045  0.3586
 4338SOL    HW224648   3.315   0.241   6.517  1.4687 -0.5055  0.0434
 4339SOL     OW24649   2.338   2.805   9.732 -0.1929 -0.1198  0.2969
 4339SOL    HW124650   2.313   2.895   9.713  0.1142 -0.3287 -1.0621
 4339SOL    HW224651   2.388   2.811   9.814 -1.7607 -2.4932  1.4363
 4340SOL     OW24652   3.902   4.632   3.877 -0.4411 -0.5542 -0.1730
 4340SOL    HW124653   3.927   4.573   3.948  0.2724 -1.8984 -1.5566
 4340SOL    HW224654   3.821   4.591   3.848 -0.8133  1.3004 -1.7713
 4341SOL     OW24655   0.605   4.483  15.314 -0.6463 -0.0872  0.2977
 4341SOL    HW124656   0.685   4.486  15.367 -1.3462 -1.7782  1.4674
 4341SOL    HW224657   0.600   4.387  15.309 -1.9634  0.0068 -0.2722
 4342SOL     OW24658   4.004   4.546   8.872  0.3000 -0.2551  0.1939
 4342SOL    HW124659   3.973   4.481   8.809  1.6145 -1.2283  0.5375
 4342SOL    HW224660   4.004   4.626   8.819  0.0872 -1.7668 -2.1171
 4343SOL     OW24661   2.057   1.850   1.505  0.3439 -0.3101 -0.1084
 4343SOL    HW124662   2.089   1.862   1.595  0.9995 -0.3435 -0.3400
 4343SOL    HW224663   2.029   1.758   1.512  1.7209 -0.8165 -1.2859
 4344SOL     OW24664   3.464   1.597   1.736  0.0012  0.1744  0.6011
 4344SOL    HW124665   3.425   1.582   1.822 -0.2712  0.4538  0.5242
 4344SOL    HW224666   3.478   1.691   1.744  0.0856  0.0063  2.2736
 4345SOL     OW24667   2.743   0.082   2.497  0.6261 -0.5153  0.0664
 4345SOL    HW124668   2.677   0.103   2.431  0.6766 -2.1687 -0.5115
 4345SOL    HW224669   2.707   0.096   2.584 -0.0136 -0.9174 -0.1343
 4346SOL     OW24670   2.066   1.737  14.167  0.2009 -0.2853 -0.4834
 4346SOL    HW124671   1.999   1.805  14.172  0.9588  0.3328  1.3719
 4346SOL    HW224672   2.092   1.739  14.075 -1.8018  2.8066 -0.9894
 4347SOL     OW24673   4.642   1.975  13.036  0.4531 -0.1632  0.3026
 4347SOL    HW124674   4.645   1.896  12.983  0.1393 -0.7942  1.2132
 4347SOL    HW224675   4.651   2.043  12.970 -1.8615  0.3874  0.5563
 4348SOL     OW24676   1.371   2.885   9.085  0.0441  0.1002  0.2414
 4348SOL    HW124677   1.407   2.963   9.128  0.6496  0.9664 -1.8289
 4348SOL    HW224678   1.414   2.896   9.000 -2.4069  0.4100 -0.9607
 4349SOL     OW24679   0.956   0.230   5.005 -0.4533 -0.5038  0.7664
 4349SOL    HW124680   0.891   0.181   5.056  0.6187 -1.5472  1.1123
 4349SOL    HW224681   1.028   0.168   5.017 -1.1106 -1.5411 -0.7495
 4350SOL     OW24682   3.686   0.683   6.821 -0.5975 -0.1775 -0.1916
 4350SOL    HW124683   3.717   0.727   6.900  2.0361  2.5994 -2.7723
 4350SOL    HW224684   3.719   0.746   6.757  2.1074 -0.8685  0.5333
 4351SOL     OW24685   4.696   0.929  14.217  0.1466 -0.1432  0.1374
 4351SOL    HW124686   0.016   0.856  14.236  0.4673  0.0242 -0.1881
 4351SOL    HW224687   4.631   0.911  14.149  0.7043  3.4010 -1.3418
 4352SOL     OW24688   1.881   4.439   8.313 -0.5113  0.5249  0.4903
 4352SOL    HW124689   1.944   4.416   8.246  0.1670 -0.2592  1.3964
 4352SOL    HW224690   1.940   4.489   8.369 -2.4273  1.9013  1.2920
 4353SOL     OW24691   0.658   1.270   3.014 -0.2541 -0.2298  0.2399
 4353SOL    HW124692   0.603   1.348   3.017 -0.1040 -0.0843 -0.7103
 4353SOL    HW224693   0.591   1.210   2.982 -0.3373  0.4565 -0.8941
 4354SOL     OW24694   1.644   1.927   3.145  0.1267 -0.2679 -0.2701
 4354SOL    HW124695   1.620   1.937   3.053 -0.7447 -0.5732 -0.0748
 4354SOL    HW224696   1.612   1.838   3.161 -0.2971  0.1474  1.2000
 4355SOL     OW24697   1.134   2.936   3.330  0.3236  0.3374  0.1887
 4355SOL    HW124698   1.063   2.999   3.322  1.7016  1.7920 -0.6554
 4355SOL    HW224699   1.203   2.964   3.270  2.4571 -2.6129  1.2446
 4356SOL     OW24700   2.831   4.142   0.145 -0.3570  0.2678 -0.1424
 4356SOL    HW124701   2.838   4.149   0.241 -4.0653  0.1215  0.1410
 4356SOL    HW224702   2.872   4.058   0.125  0.5478  1.0067 -1.3611
 4357SOL     OW24703   0.797   4.031   7.357 -0.9851  0.3011 -0.3319
 4357SOL    HW124704   0.733   4.077   7.303 -1.1608  1.0623  0.5283
 4357SOL    HW224705   0.869   4.030   7.294  1.2087  3.4201  2.1160
 4358SOL     OW24706   1.050   3.836  17.474  0.4519  0.5077  0.0960
 4358SOL    HW124707   1.006   3.785  17.543  0.0375  0.8720  0.1015
 4358SOL    HW224708   0.975   3.877  17.430  0.0527 -1.4582 -1.1146
 4359SOL     OW24709   1.776   2.943   3.785  0.5522 -0.4579  0.0591
 4359SOL    HW124710   1.809   2.907   3.702 -1.7069  0.8571 -1.3911
 4359SOL    HW224711   1.748   2.864   3.832  0.7794 -1.6311 -1.7416
 4360SOL     OW24712   2.728   3.335  15.337 -0.0658 -0.1137 -0.1461
 4360SOL    HW124713   2.813   3.322  15.380  0.2793 -0.3186 -0.8953
 4360SOL    HW224714   2.747   3.397  15.267 -0.9208  1.4492  1.0053
 4361SOL     OW24715   3.492   4.181  17.733 -0.0737 -0.3841 -0.2519
 4361SOL    HW124716   3.570   4.125  17.729  0.5191  0.6804 -3.3515
 4361SOL    HW224717   3.433   4.106  17.732 -1.1099  0.4327 -0.4440
 4362SOL     OW24718   3.812   1.864   7.513  0.1185 -0.1156 -0.3923
 4362SOL    HW124719   3.894   1.911   7.526  0.0466 -0.4099  1.1518
 4362SOL    HW224720   3.839   1.774   7.493  2.2391  0.6220 -0.8648
 4363SOL     OW24721   1.621   1.211   8.629 -0.1962  0.1535 -0.1367
 4363SOL    HW124722   1.568   1.290   8.620  1.6100  1.1777 -1.9304
 4363SOL    HW224723   1.574   1.163   8.562 -0.3793  0.8338 -0.4892
 4364SOL     OW24724   2.735   3.891   8.840  0.5643  0.1920  0.4692
 4364SOL    HW124725   2.772   3.805   8.861  2.1269  1.0992  1.4084
 4364SOL    HW224726   2.804   3.941   8.797  0.7804 -0.2744  0.2750
 4365SOL     OW24727   0.212   1.937   8.971  0.0620  0.1612  0.1560
 4365SOL    HW124728   0.153   1.968   8.902  1.7243  0.0142 -1.3295
 4365SOL    HW224729   0.150   1.935   9.043  1.1574 -3.5295  0.9772
 4366SOL     OW24730   3.898   1.484  15.461  0.1102 -0.1517  0.4417
 4366SOL    HW124731   3.899   1.411  15.524  1.1230 -0.9354 -0.4798
 4366SOL    HW224732   3.817   1.465  15.414 -0.0592 -1.5510  1.2828
 4367SOL     OW24733   1.871   0.159  16.707 -0.3765 -0.1275  0.2844
 4367SOL    HW124734   1.780   0.133  16.720 -0.8150  0.4228 -1.6036
 4367SOL    HW224735   1.865   0.252  16.684 -1.2466 -0.1411  0.4641
 4368SOL     OW24736   3.776   1.852   4.055 -0.0659  0.1942 -0.1123
 4368SOL    HW124737   3.735   1.845   4.141  1.3045 -1.2342  0.4375
 4368SOL    HW224738   3.832   1.930   4.052  0.0515  0.0853 -0.8204
 4369SOL     OW24739   4.088   4.718   4.699  0.5701 -0.5386 -0.6951
 4369SOL    HW124740   4.043   0.055   4.661  1.6485 -0.3611 -1.6508
 4369SOL    HW224741   4.060   4.717   4.790 -1.5467 -0.9104 -1.3559
 4370SOL     OW24742   3.676   2.927  16.773 -0.8775 -0.0718 -0.0082
 4370SOL    HW124743   3.675   3.023  16.772 -0.1859 -0.0383  1.4418
 4370SOL    HW224744   3.602   2.910  16.716 -1.0431 -1.8624  0.7380
 4371SOL     OW24745   2.008   4.530  15.862 -0.1605 -0.1397 -0.0936
 4371SOL    HW124746   2.069   4.602  15.878 -1.2147  0.3518  1.6941
 4371SOL    HW224747   2.053   4.455  15.901  0.9163  0.0164 -1.0412
 4372SOL     OW24748   0.741   3.528   8.669  0.2725 -0.2748 -0.0356
 4372SOL    HW124749   0.802   3.465   8.707  0.7193  0.2245  0.0806
 4372SOL    HW224750   0.781   3.610   8.699  2.2327 -0.8304 -1.0990
 4373SOL     OW24751   1.710   4.029  15.648  0.5867  0.0944 -0.6031
 4373SOL    HW124752   1.711   4.110  15.597  2.7965 -0.4000 -1.3692
 4373SOL    HW224753   1.754   3.963  15.593  1.2255 -1.3646  1.6879
 4374SOL     OW24754   4.031   2.465   0.971  0.2018 -0.2638  0.1444
 4374SOL    HW124755   4.104   2.406   0.953 -1.2498 -2.5738  1.9803
 4374SOL    HW224756   3.980   2.400   1.018 -0.6393 -0.8111 -1.5164
 4375SOL     OW24757   0.634   0.813   1.366  0.2400  0.0558 -0.0220
 4375SOL    HW124758   0.580   0.788   1.291  0.5027  1.3562 -0.6505
 4375SOL    HW224759   0.721   0.818   1.327  0.1824 -2.1498 -0.4270
 4376SOL     OW24760   3.955   1.051   2.819 -0.1299 -0.3856  0.4347
 4376SOL    HW124761   3.956   0.996   2.898 -1.8434  0.3145  0.9439
 4376SOL    HW224762   3.946   1.137   2.860  0.1363  0.1615 -0.6461
 4377SOL     OW24763   2.622   2.108   2.058  0.0297  0.2323 -0.0031
 4377SOL    HW124764   2.664   2.045   2.117 -2.4205  1.1845  2.7186
 4377SOL    HW224765   2.550   2.048   2.036 -0.0235 -0.7502  2.8317
 4378SOL     OW24766   3.279   2.912  16.457 -0.4625  0.2715 -0.4792
 4378SOL    HW124767   3.357   2.964  16.439 -2.0105  2.0745 -2.0504
 4378SOL    HW224768   3.288   2.849  16.385  1.4929 -1.3020  1.1677
 4379SOL     OW24769   4.658   1.793   2.584  0.0952  0.2357 -0.3104
 4379SOL    HW124770   4.706   1.710   2.580 -0.5756  0.0018 -3.4310
 4379SOL    HW224771   4.645   1.808   2.491  0.7154  1.5959 -0.1738
 4380SOL     OW24772   4.000   1.012   7.472  0.1659 -0.3729 -0.2718
 4380SOL    HW124773   3.912   1.028   7.439 -0.0755 -1.6043 -0.2212
 4380SOL    HW224774   4.024   0.926   7.436 -1.2488 -0.7403 -0.3235
 4381SOL     OW24775   1.075   3.419   7.058 -0.2123  0.1277  0.3292
 4381SOL    HW124776   0.989   3.406   7.019 -0.7546  1.6194  1.0527
 4381SOL    HW224777   1.125   3.357   7.005 -0.2137  0.0450  0.4243
 4382SOL     OW24778   3.129   1.875   0.995 -0.0614  0.5073 -0.3012
 4382SOL    HW124779   3.056   1.887   1.055 -0.1296 -2.5149  0.2212
 4382SOL    HW224780   3.086   1.844   0.915  0.4257  1.2437 -0.8497
 4383SOL     OW24781   3.350   1.026   3.413  0.1791  0.2287 -0.2634
 4383SOL    HW124782   3.418   1.071   3.464  0.1342 -0.7808  0.6842
 4383SOL    HW224783   3.326   0.954   3.470 -2.1096  1.0001 -0.2603
 4384SOL     OW24784   1.975   1.503   5.623 -0.4460  0.3731 -0.2973
 4384SOL    HW124785   1.892   1.544   5.646 -0.3128  0.7730 -0.5230
 4384SOL    HW224786   2.003   1.467   5.707  0.5683 -1.3979 -1.3939
 4385SOL     OW24787   1.405   0.736  16.713 -0.2989 -0.5169 -0.2835
 4385SOL    HW124788   1.415   0.641  16.714  1.3753 -0.3563 -0.3849
 4385SOL    HW224789   1.314   0.759  16.727  0.0703  0.0640  1.1112
 4386SOL     OW24790   1.982   2.933  16.249  0.0358  0.2361  0.0563
 4386SOL    HW124791   1.950   2.996  16.313 -1.8931 -1.0718  0.3830
 4386SOL    HW224792   2.057   2.978  16.210  0.3534 -0.9204 -0.6670
 4387SOL     OW24793   0.446   0.783   5.923 -0.1057  0.2626  0.7753
 4387SOL    HW124794   0.362   0.758   5.960 -1.0028  0.1432 -1.3511
 4387SOL    HW224795   0.422   0.815   5.836  0.7914 -0.0030  0.4243
 4388SOL     OW24796   1.841   3.528  12.999 -0.2005 -0.1235  0.1735
 4388SOL    HW124797   1.755   3.503  12.963 -1.4965 -0.6931  3.6826
 4388SOL    HW224798   1.903   3.496  12.934  1.3626  0.6585  1.3050
 4389SOL     OW24799   4.242   3.842   7.201 -0.4618 -0.0091  0.0496
 4389SOL    HW124800   4.224   3.932   7.171  0.5721  1.4518  3.8320
 4389SOL    HW224801   4.163   3.799   7.168 -2.1600  2.6231  0.6620
 4390SOL     OW24802   3.016   2.336   3.107  0.7171 -0.0178  0.5613
 4390SOL    HW124803   3.094   2.295   3.144  0.0303 -1.0149  0.8928
 4390SOL    HW224804   3.053   2.393   3.040  0.0851  0.0536  0.2702
 4391SOL     OW24805   3.081   0.780  10.862  0.0417  0.5466 -0.2045
 4391SOL    HW124806   3.011   0.738  10.812  1.7781 -1.7934 -0.6584
 4391SOL    HW224807   3.036   0.856  10.897 -0.8888  0.1485 -0.5251
 4392SOL     OW24808   2.674   0.206   5.977  0.1682  0.3415  0.5029
 4392SOL    HW124809   2.684   0.301   5.978  0.4225  0.3275 -0.2729
 4392SOL    HW224810   2.646   0.193   5.886 -0.8809  0.5001  0.7998
 4393SOL     OW24811   1.093   1.805   6.814  0.1276 -0.6372  0.2385
 4393SOL    HW124812   1.117   1.713   6.805 -1.8420 -1.1426  0.1216
 4393SOL    HW224813   1.170   1.840   6.859 -0.9596  1.6766  0.2853
 4394SOL     OW24814   1.216   4.158  14.445 -0.0309  0.0053 -0.3604
 4394SOL    HW124815   1.200   4.168  14.352  0.4348 -0.6543 -0.5086
 4394SOL    HW224816   1.261   4.239  14.468 -0.5125 -0.4247  2.1369
 4395SOL     OW24817   0.791   0.793   0.431 -0.9202 -0.0548 -0.1328
 4395SOL    HW124818   0.813   0.704   0.404  0.8192  0.0997  0.7920
 4395SOL    HW224819   0.823   0.848   0.360  0.8332  0.5776  1.1435
 4396SOL     OW24820   1.803   0.632   8.529  0.1622 -0.0692  0.2276
 4396SOL    HW124821   1.775   0.669   8.445  1.4072  2.5240  0.9602
 4396SOL    HW224822   1.876   0.580   8.496 -1.3462 -2.5946  0.8790
 4397SOL     OW24823   0.670   2.791   3.984 -0.2887  0.0444  0.4371
 4397SOL    HW124824   0.695   2.773   4.075  0.7431  0.5087  0.2503
 4397SOL    HW224825   0.648   2.884   3.985 -1.9710 -0.3624  1.3069
 4398SOL     OW24826   1.250   1.018   7.910  0.4824  0.0396  0.2666
 4398SOL    HW124827   1.313   1.082   7.944  0.0533  0.2298  0.7127
 4398SOL    HW224828   1.175   1.077   7.921 -0.8521 -1.4859 -0.7587
 4399SOL     OW24829   1.237   2.699   6.497 -0.0438 -0.4500  0.2763
 4399SOL    HW124830   1.209   2.750   6.573 -2.1353 -0.3600 -0.5531
 4399SOL    HW224831   1.321   2.663   6.525  0.9891  0.3344 -1.7835
 4400SOL     OW24832   0.584   0.872   3.394  0.3672 -0.2624 -0.5870
 4400SOL    HW124833   0.577   0.817   3.316  0.7677  2.0290 -2.2701
 4400SOL    HW224834   0.525   0.838   3.462  0.1006  2.3962  0.5234
 4401SOL     OW24835   0.783   4.132   8.011 -0.7419 -0.0519 -0.3667
 4401SOL    HW124836   0.782   4.083   7.929  1.7210  1.2010 -1.1338
 4401SOL    HW224837   0.714   4.194   7.988 -0.8062  0.1917  0.4932
 4402SOL     OW24838   2.811   3.057   0.880  0.1067 -0.1192 -0.7676
 4402SOL    HW124839   2.849   3.082   0.796 -0.0034 -1.3454 -1.1838
 4402SOL    HW224840   2.731   3.013   0.850  0.2072 -0.5476 -0.4161
 4403SOL     OW24841   3.345   2.619   1.887 -0.0411  0.1465  0.0182
 4403SOL    HW124842   3.304   2.699   1.920 -2.2389 -0.8506 -0.2824
 4403SOL    HW224843   3.391   2.605   1.970  1.1789 -0.0649 -0.6983
 4404SOL     OW24844   2.270   2.071  17.430  0.0603 -0.1190  0.4739
 4404SOL    HW124845   2.353   2.058  17.384  0.4776  1.1104  0.8797
 4404SOL    HW224846   2.249   1.979  17.443  0.8201 -0.2006  1.1174
 4405SOL     OW24847   0.307   2.012   1.430 -0.1388 -0.0270 -0.2797
 4405SOL    HW124848   0.328   1.966   1.349  4.7865 -0.0321  1.0187
 4405SOL    HW224849   0.383   1.995   1.485  1.6744 -0.2785 -2.8589
 4406SOL     OW24850   0.159   2.973   6.493  0.5781 -0.3778 -0.0177
 4406SOL    HW124851   0.115   3.034   6.552  1.4395  1.6327 -1.4444
 4406SOL    HW224852   0.088   2.949   6.434  0.4679 -2.3064  0.8792
 4407SOL     OW24853   1.949   1.571   7.209 -0.0906  0.2678  0.0254
 4407SOL    HW124854   1.891   1.496   7.218  0.1672  0.0283 -0.3250
 4407SOL    HW224855   1.924   1.596   7.120  0.1240 -3.1130 -0.9833
 4408SOL     OW24856   4.083   4.204   5.188  0.1188  0.0323  0.2301
 4408SOL    HW124857   4.024   4.232   5.118 -0.6957  0.5283  1.1151
 4408SOL    HW224858   4.051   4.257   5.261 -0.9152 -1.8663  1.1555
 4409SOL     OW24859   1.382   4.684   8.034  0.2123  0.5778  0.1121
 4409SOL    HW124860   1.337   4.730   8.105  0.0484  1.8420 -0.8130
 4409SOL    HW224861   1.323   4.694   7.959 -1.8188 -0.6888  1.5467
 4410SOL     OW24862   1.621   0.903   5.401  0.3693 -0.6623 -0.2130
 4410SOL    HW124863   1.542   0.896   5.347 -1.6429  1.1759  2.5258
 4410SOL    HW224864   1.604   0.985   5.447 -2.7780 -0.7726 -1.1945
 4411SOL     OW24865   4.131   2.120   8.649  0.6838 -0.7270 -0.1083
 4411SOL    HW124866   4.134   2.196   8.591  0.4725 -0.0161  0.8202
 4411SOL    HW224867   4.042   2.129   8.683 -0.4502  2.4337 -3.9759
 4412SOL     OW24868   0.344   3.097   8.336  0.1209 -0.2472  0.1018
 4412SOL    HW124869   0.331   3.029   8.270 -1.7316  2.0663 -1.9119
 4412SOL    HW224870   0.260   3.144   8.338  0.5251  0.5472 -1.6278
 4413SOL     OW24871   4.627   4.274   3.012 -0.3685  0.3646 -0.3503
 4413SOL    HW124872   4.570   4.199   2.997  1.7259 -1.0006 -1.3916
 4413SOL    HW224873   4.602   4.334   2.942  0.3831 -0.0476 -0.9705
 4414SOL     OW24874   1.597   1.790   9.355  0.7723  0.5474  0.5037
 4414SOL    HW124875   1.534   1.821   9.289  0.7340 -3.6243 -1.3980
 4414SOL    HW224876   1.566   1.824   9.439  0.9841  0.2573  0.6972
 4415SOL     OW24877   0.664   2.709   9.072  0.6546 -0.3030 -0.3129
 4415SOL    HW124878   0.695   2.766   9.002  0.2805  2.4837  1.8069
 4415SOL    HW224879   0.634   2.769   9.141  0.9064 -0.0242 -0.4459
 4416SOL     OW24880   0.830   2.951   8.436 -0.4467  0.0866 -0.4013
 4416SOL    HW124881   0.919   2.924   8.461 -1.1168  0.5396  2.4821
 4416SOL    HW224882   0.789   2.865   8.450 -2.0426  0.7884 -0.8619
 4417SOL     OW24883   1.893   2.907  14.243  0.1649  0.0306  0.1752
 4417SOL    HW124884   1.807   2.943  14.263  0.0558  0.7951 -1.6836
 4417SOL    HW224885   1.892   2.870  14.155  2.6221 -0.1152  0.2186
 4418SOL     OW24886   0.126   0.105  17.388  0.3604  0.2786 -0.0366
 4418SOL    HW124887   0.097   0.092  17.479  0.5545 -0.6632 -0.1049
 4418SOL    HW224888   0.109   0.197  17.371  1.0058  0.8681  2.4104
 4419SOL     OW24889   4.048   3.150   7.479  0.1434  0.5630 -0.3415
 4419SOL    HW124890   4.046   3.062   7.516 -4.1122  1.0600  0.5827
 4419SOL    HW224891   4.019   3.122   7.393  0.5509 -0.7876 -0.0517
 4420SOL     OW24892   1.814   4.125   3.105  0.3403 -0.8580  0.3417
 4420SOL    HW124893   1.858   4.095   3.185  0.5667 -2.9110 -0.5638
 4420SOL    HW224894   1.804   4.037   3.070  0.9500 -1.2154  1.0692
 4421SOL     OW24895   2.953   3.877   5.480 -0.3373  0.1978 -0.0405
 4421SOL    HW124896   3.036   3.913   5.448 -0.1825  2.2553  2.7130
 4421SOL    HW224897   2.908   3.952   5.517  0.1690 -0.2339  1.4747
 4422SOL     OW24898   1.828   0.386   1.221  0.3717 -0.6309  0.7465
 4422SOL    HW124899   1.858   0.453   1.283 -0.7282 -0.0406  0.6417
 4422SOL    HW224900   1.750   0.432   1.189  0.8921 -0.5703 -0.4048
 4423SOL     OW24901   2.565   1.976   4.409 -0.8499  0.2788 -0.1406
 4423SOL    HW124902   2.499   2.003   4.473 -0.4845  0.4459  0.1646
 4423SOL    HW224903   2.512   2.011   4.338  2.0760  1.3123 -1.7913
 4424SOL     OW24904   2.543   0.157   0.222 -0.0119 -0.0945  0.1793
 4424SOL    HW124905   2.534   0.201   0.138 -1.0446 -0.8199 -0.0944
 4424SOL    HW224906   2.540   0.065   0.195 -1.4276 -0.0260  0.1095
 4425SOL     OW24907   1.683   1.997   6.667  0.0188  0.0374 -0.6904
 4425SOL    HW124908   1.712   2.076   6.712 -1.2343 -1.5100  2.8719
 4425SOL    HW224909   1.747   1.970   6.602  0.9043  2.9048 -1.0286
 4426SOL     OW24910   0.094   1.241  16.047  0.2963  0.0723 -0.1652
 4426SOL    HW124911   0.164   1.291  16.087  1.7073 -1.4353 -0.7469
 4426SOL    HW224912   0.133   1.154  16.036 -1.3802 -0.7859  0.6910
 4427SOL     OW24913   4.095   0.439  14.904  0.0792 -0.0708  0.1258
 4427SOL    HW124914   4.061   0.498  14.837 -1.5836 -2.5385 -1.2252
 4427SOL    HW224915   4.031   0.368  14.896 -0.5546  0.6615 -1.2546
 4428SOL     OW24916   0.051   2.648  14.714  0.3544  0.2690 -0.1596
 4428SOL    HW124917   0.052   2.572  14.771 -1.1986  0.9985  0.8528
 4428SOL    HW224918   0.143   2.672  14.701  0.1763 -0.5771 -2.8421
 4429SOL     OW24919   1.490   3.932   7.424  0.4473  0.1128  0.1015
 4429SOL    HW124920   1.405   3.891   7.441 -0.0025 -0.4546 -3.5529
 4429SOL    HW224921   1.513   3.902   7.336 -2.2181 -0.0645 -0.5233
 4430SOL     OW24922   4.238   4.728   3.867 -0.2469 -0.2789  0.1671
 4430SOL    HW124923   4.314   4.673   3.845  1.3564  0.5961  3.4742
 4430SOL    HW224924   4.258   0.008   3.958 -0.4076  0.0008  0.1465
 4431SOL     OW24925   2.983   1.789   2.357 -0.2475  0.5787 -0.1626
 4431SOL    HW124926   2.952   1.723   2.420 -0.6303  0.7391 -0.1811
 4431SOL    HW224927   3.047   1.837   2.410 -2.8059  2.7683  0.9864
 4432SOL     OW24928   0.201   2.240   3.912  0.4290  0.6389 -0.5067
 4432SOL    HW124929   0.245   2.234   3.997 -0.6001 -0.9884 -0.0994
 4432SOL    HW224930   0.260   2.288   3.854 -1.6516  0.5176 -2.6775
 4433SOL     OW24931   3.127   3.749  15.557 -0.3359 -0.1684  0.0295
 4433SOL    HW124932   3.090   3.661  15.549  0.2125 -0.2369 -1.7757
 4433SOL    HW224933   3.177   3.762  15.476 -3.0008 -0.5211 -1.6947
 4434SOL     OW24934   0.402   3.146  15.522 -0.2944 -0.4431 -0.1230
 4434SOL    HW124935   0.456   3.150  15.601 -2.0942  0.1020  1.0786
 4434SOL    HW224936   0.341   3.218  15.538  0.0331 -0.0892 -0.4733
 4435SOL     OW24937   4.605   1.921   5.007  0.3125  0.0317  0.5781
 4435SOL    HW124938   4.541   1.991   5.004  1.4200  0.9490 -1.6474
 4435SOL    HW224939   4.680   1.967   5.043  0.6615  0.0825 -0.1990
 4436SOL     OW24940   2.993   3.918  16.322 -0.5125  0.1513  0.6575
 4436SOL    HW124941   3.024   3.993  16.272 -0.0082 -0.6565 -0.2374
 4436SOL    HW224942   2.923   3.970  16.361 -0.3932  2.1964 -1.9063
 4437SOL     OW24943   2.237   2.469   7.296 -0.4391 -0.3449 -0.1620
 4437SOL    HW124944   2.260   2.553   7.257 -0.0436 -1.0198 -1.3580
 4437SOL    HW224945   2.149   2.477   7.334 -0.8624 -0.3154 -1.1588
 4438SOL     OW24946   4.206   4.464   4.022  0.2927  0.2877  0.0597
 4438SOL    HW124947   4.234   4.518   4.095  2.6657 -0.0219 -0.6139
 4438SOL    HW224948   4.223   4.520   3.946 -0.9932  0.5081 -0.0591
 4439SOL     OW24949   3.085   1.154   8.623  0.2102 -0.6593  0.7729
 4439SOL    HW124950   3.180   1.159   8.622  0.1230  0.7354  0.1305
 4439SOL    HW224951   3.051   1.209   8.552 -0.7434 -1.5725  0.5158
 4440SOL     OW24952   0.410   4.098   6.389 -0.0713  0.4047  0.0191
 4440SOL    HW124953   0.468   4.161   6.432  3.5576 -2.6944 -0.3622
 4440SOL    HW224954   0.457   4.105   6.306 -0.0753 -3.0816 -0.2401
 4441SOL     OW24955   3.367   4.281  14.791 -0.7162  0.1144  0.0714
 4441SOL    HW124956   3.273   4.297  14.782 -0.2413  2.0153 -1.3391
 4441SOL    HW224957   3.373   4.186  14.800  0.9197 -0.0241 -2.7952
 4442SOL     OW24958   1.681   0.628   2.362 -0.5643  0.2312  0.1871
 4442SOL    HW124959   1.714   0.601   2.448  1.1574 -1.0617 -0.8594
 4442SOL    HW224960   1.674   0.542   2.319 -1.2207  0.4638 -0.1730
 4443SOL     OW24961   3.125   0.718   7.087  0.4675 -0.6748 -0.5267
 4443SOL    HW124962   3.111   0.812   7.075 -0.5567 -0.8550 -0.8129
 4443SOL    HW224963   3.188   0.701   7.017  0.6234  0.6720 -0.7154
 4444SOL     OW24964   1.206   3.155   8.683 -0.1097  0.2612  0.0328
 4444SOL    HW124965   1.196   3.227   8.621 -0.6554 -0.5744 -0.8629
 4444SOL    HW224966   1.225   3.200   8.765 -0.1554 -0.7205  0.5776
 4445SOL     OW24967   1.888   3.054   8.414  0.0514 -0.2377 -0.4830
 4445SOL    HW124968   1.840   3.058   8.332 -0.3251  0.1946 -0.2404
 4445SOL    HW224969   1.914   3.146   8.424  2.6924 -1.0565  0.1844
 4446SOL     OW24970   0.102   4.066  14.177 -0.4368 -0.6425 -0.1063
 4446SOL    HW124971   0.097   3.979  14.217  0.2554 -1.4937 -1.9021
 4446SOL    HW224972   0.194   4.081  14.156 -0.3798 -0.0536  0.5601
 4447SOL     OW24973   2.202   2.208   4.344  0.2186  0.2594  0.7594
 4447SOL    HW124974   2.113   2.199   4.310 -0.3715  0.1396  2.3580
 4447SOL    HW224975   2.240   2.274   4.285 -0.9415 -0.5204 -0.8587
 4448SOL     OW24976   2.547   1.002  17.263  0.2882 -0.2951  0.5332
 4448SOL    HW124977   2.593   1.048  17.334  1.5148 -0.1549 -0.3598
 4448SOL    HW224978   2.598   1.034  17.189  1.2740 -1.0543  0.8834
 4449SOL     OW24979   1.362   1.958   1.794 -0.7195 -0.0100 -0.0457
 4449SOL    HW124980   1.269   1.939   1.788 -0.9164  0.4574  1.4171
 4449SOL    HW224981   1.355   2.050   1.767 -0.1858  0.5606  1.6922
 4450SOL     OW24982   3.496   3.685   3.054  0.1474 -0.1607  0.3190
 4450SOL    HW124983   3.466   3.597   3.030  1.2663  0.0654 -1.8637
 4450SOL    HW224984   3.583   3.669   3.089 -0.9007 -0.0981  2.9538
 4451SOL     OW24985   3.884   0.427   4.029 -0.2899  0.0745  0.2100
 4451SOL    HW124986   3.916   0.393   4.112  1.8278 -0.9437 -1.0319
 4451SOL    HW224987   3.842   0.347   3.998 -0.1267 -0.5830  1.6953
 4452SOL     OW24988   0.677   0.970   2.483 -0.4444 -0.0565 -0.0474
 4452SOL    HW124989   0.642   0.956   2.396 -0.8481  0.7076 -0.0108
 4452SOL    HW224990   0.672   0.879   2.511 -1.4316 -0.6990 -2.3882
 4453SOL     OW24991   0.920   4.131   5.792 -0.2541 -0.0844  0.8963
 4453SOL    HW124992   0.863   4.185   5.738 -0.8616 -0.4196  1.1988
 4453SOL    HW224993   0.863   4.056   5.811 -0.7058 -0.1970 -0.9049
 4454SOL     OW24994   3.544   2.686   0.716  0.1139 -0.1327  0.2178
 4454SOL    HW124995   3.559   2.621   0.647  1.0979 -0.1831  0.4870
 4454SOL    HW224996   3.455   2.712   0.692  1.1631  2.5868 -0.7947
 4455SOL     OW24997   1.365   3.083   4.090 -0.6346 -0.3769 -0.2454
 4455SOL    HW124998   1.330   3.153   4.035 -2.4015 -1.1195 -0.0770
 4455SOL    HW224999   1.458   3.103   4.082 -0.2996 -1.6590  0.4585
 4456SOL     OW25000   2.659   0.244   3.985 -0.3084 -0.0166 -0.1739
 4456SOL    HW125001   2.583   0.302   3.986 -0.1690  0.1695 -0.7997
 4456SOL    HW225002   2.713   0.288   3.920  1.9949  0.1058  1.8163
 4457SOL     OW25003   3.090   2.716   0.356 -0.0864  0.3893 -0.1609
 4457SOL    HW125004   3.022   2.773   0.393 -0.6675 -1.5984  1.8015
 4457SOL    HW225005   3.053   2.630   0.376 -2.7286  2.2350  2.9548
 4458SOL     OW25006   3.733   1.249   1.372 -0.2673  0.1181  0.1023
 4458SOL    HW125007   3.666   1.242   1.439 -0.1836 -1.2786  0.0392
 4458SOL    HW225008   3.707   1.180   1.311 -2.4728  1.7789 -0.8215
 4459SOL     OW25009   3.547   3.695   3.411  0.0944 -0.3792  0.3485
 4459SOL    HW125010   3.474   3.715   3.353  0.5214 -0.8462 -0.3516
 4459SOL    HW225011   3.612   3.680   3.342 -0.9680 -1.4727 -0.4136
 4460SOL     OW25012   2.619   2.712  11.108 -0.1557  0.3481  0.5285
 4460SOL    HW125013   2.552   2.778  11.094  3.5600  4.1352  0.7086
 4460SOL    HW225014   2.695   2.767  11.129  2.7404 -2.7078 -1.9114
 4461SOL     OW25015   1.982   0.234   7.192  0.1225 -0.1480 -0.2999
 4461SOL    HW125016   1.890   0.241   7.164  0.6075 -0.2967 -1.9636
 4461SOL    HW225017   1.998   0.145   7.158  2.1835 -0.6184  1.9117
 4462SOL     OW25018   3.220   0.717   1.940  0.4927 -0.0062 -0.5495
 4462SOL    HW125019   3.147   0.779   1.929 -1.4100 -2.3812 -1.2700
 4462SOL    HW225020   3.219   0.674   1.854 -2.6458 -1.3339  0.1616
 4463SOL     OW25021   1.430   4.199   5.785 -0.8396  0.4784  0.1614
 4463SOL    HW125022   1.360   4.199   5.720 -0.8907 -0.9758  0.2215
 4463SOL    HW225023   1.391   4.200   5.872  1.2342 -1.8888  1.1380
 4464SOL     OW25024   3.934   4.343   8.712 -0.4480  0.6650  0.0158
 4464SOL    HW125025   3.958   4.378   8.626 -1.1410  1.1367  0.0152
 4464SOL    HW225026   3.847   4.310   8.688  0.0194  0.1261 -0.9508
 4465SOL     OW25027   3.140   1.857   2.833 -0.0580  0.2564 -0.1402
 4465SOL    HW125028   3.176   1.930   2.882  1.0149 -0.5537  0.2730
 4465SOL    HW225029   3.170   1.777   2.876 -0.8394  1.3289  2.3500
 4466SOL     OW25030   0.782   4.634   9.809  0.0187 -0.1727 -1.0066
 4466SOL    HW125031   0.777   4.697   9.737  0.0662 -0.0779 -0.9276
 4466SOL    HW225032   0.872   4.653   9.837  0.3852 -1.2141 -1.4634
 4467SOL     OW25033   0.319   2.253   5.829 -0.2370  0.4386  0.1479
 4467SOL    HW125034   0.406   2.289   5.847 -0.7267  1.4863  0.4353
 4467SOL    HW225035   0.348   2.163   5.816 -0.8005  0.1323  0.9906
 4468SOL     OW25036   4.472   4.057   3.016 -0.1542 -0.4276  0.1343
 4468SOL    HW125037   4.527   3.981   3.034 -1.3867 -1.3634 -0.0815
 4468SOL    HW225038   4.419   4.029   2.941 -0.3218  0.7627 -0.2005
 4469SOL     OW25039   0.328   1.918  12.089  0.2328 -0.1266 -0.0160
 4469SOL    HW125040   0.254   1.871  12.126  0.0742  0.2758  0.1743
 4469SOL    HW225041   0.364   1.855  12.026 -0.5194  1.0895 -1.6754
 4470SOL     OW25042   0.864   3.175   3.888 -0.0737  0.2268 -0.2409
 4470SOL    HW125043   0.777   3.212   3.872 -0.0636 -0.7013 -2.4793
 4470SOL    HW225044   0.915   3.256   3.879  1.3451 -0.6938 -0.3836
 4471SOL     OW25045   2.242   1.790   8.295 -0.2943  0.0793  0.3741
 4471SOL    HW125046   2.174   1.813   8.231  1.7714 -1.3294 -2.3572
 4471SOL    HW225047   2.242   1.876   8.337  1.3285  1.8474 -3.2479
 4472SOL     OW25048   2.619   1.262   6.982 -0.1251 -0.2384  0.6126
 4472SOL    HW125049   2.651   1.172   6.977  0.1012 -0.1491  0.4098
 4472SOL    HW225050   2.617   1.288   6.890 -1.6179 -1.5102  0.2958
 4473SOL     OW25051   2.145   4.442   3.552 -0.4910 -0.0649 -0.1853
 4473SOL    HW125052   2.177   4.380   3.486 -3.5037  0.1710 -1.8744
 4473SOL    HW225053   2.101   4.504   3.494  2.3330  1.6813 -0.4785
 4474SOL     OW25054   0.152   2.580  10.251  0.4896  0.4230  0.1243
 4474SOL    HW125055   0.134   2.646  10.184  0.7109  0.4733  0.1159
 4474SOL    HW225056   0.068   2.577  10.298  1.3438 -2.3685  1.4696
 4475SOL     OW25057   1.930   1.766  11.736  0.1131 -0.4526 -0.0866
 4475SOL    HW125058   2.006   1.818  11.763 -0.9282 -0.1239  2.2009
 4475SOL    HW225059   1.865   1.833  11.758 -0.6038 -1.3050  0.3689
 4476SOL     OW25060   4.649   1.305   2.881 -0.3162  0.3117  0.3563
 4476SOL    HW125061   4.669   1.216   2.909 -0.5492  0.6333  1.5473
 4476SOL    HW225062   4.680   1.299   2.791 -0.0768  1.0627  0.3934
 4477SOL     OW25063   2.573   3.151  11.674  0.2612  0.4523  0.2406
 4477SOL    HW125064   2.589   3.243  11.695 -0.3077  1.0758 -2.1068
 4477SOL    HW225065   2.478   3.159  11.672  0.0500 -1.0340  3.1696
 4478SOL     OW25066   0.850   3.027   2.748  0.1242  0.1281  0.0375
 4478SOL    HW125067   0.908   3.073   2.687 -0.7430 -0.3224 -1.1349
 4478SOL    HW225068   0.766   3.015   2.703  0.8153 -2.0164 -0.6944
 4479SOL     OW25069   0.360   0.444   2.773  0.1712  0.3527 -0.1192
 4479SOL    HW125070   0.339   0.466   2.863  0.3818 -0.1897  0.0636
 4479SOL    HW225071   0.364   0.532   2.736 -0.3919  0.0543 -0.8934
 4480SOL     OW25072   0.908   1.671   8.363  0.0104 -0.5458  0.0673
 4480SOL    HW125073   0.930   1.700   8.274  2.6755 -0.9468  0.5768
 4480SOL    HW225074   0.826   1.715   8.384 -1.0291 -1.1996 -2.5099
 4481SOL     OW25075   2.635   0.270   8.462 -0.4690 -0.0971 -0.1987
 4481SOL    HW125076   2.696   0.206   8.424 -1.6629 -0.0712 -2.1709
 4481SOL    HW225077   2.614   0.236   8.549  1.0446 -0.1795  0.1396
 4482SOL     OW25078   1.333   1.923   9.314 -0.3482  0.1907  1.4545
 4482SOL    HW125079   1.301   1.881   9.393 -0.3748 -1.5741  0.4964
 4482SOL    HW225080   1.343   2.014   9.343 -1.3218  0.6367  0.3757
 4483SOL     OW25081   3.836   1.264   6.461 -0.0621  0.4399 -0.3219
 4483SOL    HW125082   3.884   1.298   6.385  1.9872 -2.3764 -0.2993
 4483SOL    HW225083   3.899   1.285   6.530  0.1796  0.2403 -0.4790
 4484SOL     OW25084   2.826   3.783   6.288 -0.0284  0.1774 -0.1916
 4484SOL    HW125085   2.764   3.811   6.221  1.3062  1.1165 -1.0444
 4484SOL    HW225086   2.903   3.757   6.237 -0.9232 -2.6687 -0.1087
 4485SOL     OW25087   4.427   0.910  17.270  0.5195  0.7133  0.0028
 4485SOL    HW125088   4.350   0.958  17.240 -0.4303 -1.5373 -1.1248
 4485SOL    HW225089   4.493   0.972  17.241  0.5741 -0.5746 -2.6037
 4486SOL     OW25090   1.269   1.567   7.165 -0.0127 -0.1559 -0.1635
 4486SOL    HW125091   1.279   1.587   7.257  1.0259  1.7494 -0.6996
 4486SOL    HW225092   1.350   1.603   7.129  1.0321 -1.4713  0.8953
 4487SOL     OW25093   4.371   0.824   3.847 -0.2569 -0.1118 -0.2814
 4487SOL    HW125094   4.304   0.884   3.815 -1.8003 -0.3227  2.6025
 4487SOL    HW225095   4.451   0.876   3.848  0.3069 -0.9779 -0.7939
 4488SOL     OW25096   4.607   2.731  14.319 -0.0826 -0.2431 -0.2658
 4488SOL    HW125097   4.691   2.773  14.337 -0.6982  1.4372 -1.2476
 4488SOL    HW225098   4.574   2.684  14.396  1.0314  1.7031  1.3972
 4489SOL     OW25099   3.289   0.355   7.838 -0.1957 -0.4639 -0.1047
 4489SOL    HW125100   3.359   0.316   7.786 -1.8557  0.0203 -2.7227
 4489SOL    HW225101   3.325   0.348   7.926  0.7005  0.2751 -0.4073
 4490SOL     OW25102   4.537   4.240   4.559  0.2192  0.3253 -0.3110
 4490SOL    HW125103   4.489   4.279   4.486 -2.4446  0.2457  1.3663
 4490SOL    HW225104   4.503   4.151   4.566 -1.0980  0.7329 -1.4878
 4491SOL     OW25105   0.443   2.305   1.437 -0.4424  0.2663  0.2832
 4491SOL    HW125106   0.409   2.219   1.411  0.5638  0.2091 -0.8542
 4491SOL    HW225107   0.364   2.351   1.411 -0.1985 -1.7403 -3.9617
 4492SOL     OW25108   0.052   3.524   7.151  0.1436 -0.0182  0.5371
 4492SOL    HW125109   0.046   3.565   7.237  0.8636  0.4799  0.3463
 4492SOL    HW225110   4.714   3.466   7.139 -1.1936  1.8292  0.1801
 4493SOL     OW25111   3.726   3.438   4.100 -0.1195  0.1095  0.6837
 4493SOL    HW125112   3.675   3.508   4.140 -1.1979  0.3732 -1.1641
 4493SOL    HW225113   3.760   3.389   4.175 -2.0035 -1.7048  0.3512
 4494SOL     OW25114   0.780   0.655   9.064 -0.3265 -0.1377  0.4684
 4494SOL    HW125115   0.755   0.743   9.035  0.2219  0.1942  0.9973
 4494SOL    HW225116   0.810   0.618   8.981  0.9106 -0.1038  0.8973
 4495SOL     OW25117   0.418   1.289   8.471 -0.0826 -0.0354 -0.1024
 4495SOL    HW125118   0.393   1.241   8.392 -0.4127  0.2384 -0.1642
 4495SOL    HW225119   0.476   1.359   8.439  2.2835 -2.6342 -1.5067
 4496SOL     OW25120   2.734   2.976   9.589  0.9359  0.1982  0.2523
 4496SOL    HW125121   2.649   2.984   9.545 -0.0084 -1.6578  1.6845
 4496SOL    HW225122   2.747   3.071   9.587 -0.5649  0.3592 -1.6896
 4497SOL     OW25123   0.892   2.904   3.819  0.4947 -0.6754 -0.3726
 4497SOL    HW125124   0.883   2.995   3.848 -0.6887 -1.1117  0.6247
 4497SOL    HW225125   0.825   2.910   3.750 -1.3671 -3.5712  1.2084
 4498SOL     OW25126   0.521   2.200   4.163 -0.1073  0.6339 -0.6649
 4498SOL    HW125127   0.434   2.234   4.182  0.1792  0.2630  1.3359
 4498SOL    HW225128   0.568   2.221   4.244 -1.2817 -1.4206  0.5209
 4499SOL     OW25129   2.235   2.189   1.983 -0.3332 -0.5399 -0.1141
 4499SOL    HW125130   2.300   2.185   1.913 -0.1299  0.7051  0.0106
 4499SOL    HW225131   2.176   2.114   1.975  1.1413 -1.5147 -1.8984
 4500SOL     OW25132   1.591   3.672   2.786  0.8542  0.0747 -0.2207
 4500SOL    HW125133   1.594   3.665   2.882  1.6325  2.4280 -0.0623
 4500SOL    HW225134   1.661   3.610   2.764  2.1834  1.0628  1.1699
 4501SOL     OW25135   1.328   4.238   8.326  0.3313  0.0944  0.2519
 4501SOL    HW125136   1.322   4.305   8.258  1.1459 -1.7433 -1.6198
 4501SOL    HW225137   1.236   4.244   8.353  1.0222  1.0128  2.3837
 4502SOL     OW25138   4.520   3.392   5.612  0.6311 -0.0458  0.0482
 4502SOL    HW125139   4.562   3.472   5.645  0.7605 -0.2912  0.4716
 4502SOL    HW225140   4.561   3.329   5.671 -2.9315 -0.3463  2.1383
 4503SOL     OW25141   3.815   1.744   8.308 -0.6720  0.2601 -0.1244
 4503SOL    HW125142   3.793   1.668   8.255 -1.8520 -0.2211  1.0617
 4503SOL    HW225143   3.804   1.720   8.400  2.9182 -4.2083 -0.9030
 4504SOL     OW25144   4.103   2.424   3.060  0.2143  0.1116 -0.0563
 4504SOL    HW125145   4.150   2.418   2.976 -0.7395 -0.0323 -0.5841
 4504SOL    HW225146   4.145   2.503   3.094  0.5059 -0.3905  0.7467
 4505SOL     OW25147   3.061   1.157   3.908  0.5412 -0.3405  0.0332
 4505SOL    HW125148   3.077   1.188   3.997 -2.1717 -1.1278  0.7845
 4505SOL    HW225149   2.980   1.202   3.881  0.4871  0.4335  1.4918
 4506SOL     OW25150   3.529   4.624   1.957 -0.4322 -0.3080  0.4135
 4506SOL    HW125151   3.624   4.619   1.948 -0.4218  1.0184 -0.0948
 4506SOL    HW225152   3.522   4.536   1.995  0.2387 -0.5897 -0.1011
 4507SOL     OW25153   3.754   3.500   5.593 -0.4306 -0.2087 -0.6470
 4507SOL    HW125154   3.822   3.463   5.650  0.6122 -0.8213 -2.2751
 4507SOL    HW225155   3.699   3.537   5.661  1.0938  0.9414 -0.0419
 4508SOL     OW25156   3.230   0.359   4.540  0.0989  0.1051  0.3079
 4508SOL    HW125157   3.183   0.289   4.586 -1.2291  0.7103 -0.1238
 4508SOL    HW225158   3.182   0.361   4.457 -0.8564  0.6648  0.8688
 4509SOL     OW25159   2.835   3.017   2.627 -0.2577 -0.3424 -0.1138
 4509SOL    HW125160   2.902   2.955   2.599 -1.3363 -1.5723  0.0710
 4509SOL    HW225161   2.876   3.104   2.625  0.3587 -0.6572 -0.9623
 4510SOL     OW25162   4.403   2.539  11.314  0.0278  0.0015  0.2165
 4510SOL    HW125163   4.446   2.455  11.330  2.8742  1.2418 -0.9109
 4510SOL    HW225164   4.482   2.592  11.327  0.8832 -0.4703 -3.0883
 4511SOL     OW25165   2.535   4.089   7.965 -0.0530  0.1181 -1.0649
 4511SOL    HW125166   2.497   4.044   7.890 -2.7183 -1.0990  1.0341
 4511SOL    HW225167   2.625   4.055   7.969 -0.9131 -1.6333  4.2833
 4512SOL     OW25168   3.912   2.743  12.995 -0.0300 -0.3493 -0.4920
 4512SOL    HW125169   3.889   2.821  13.046 -0.2900 -0.9829  0.3625
 4512SOL    HW225170   3.829   2.710  12.961 -0.5003  1.2718 -0.9186
 4513SOL     OW25171   4.644   1.056  14.877  0.1875  0.2513 -0.3016
 4513SOL    HW125172   4.568   1.027  14.828  1.2305 -0.5089 -1.4802
 4513SOL    HW225173   4.719   1.026  14.826  0.2258  2.0634 -1.3086
 4514SOL     OW25174   0.579   1.108   7.060 -1.0083 -0.6607 -0.5331
 4514SOL    HW125175   0.674   1.092   7.058 -0.4985  2.5299 -1.0835
 4514SOL    HW225176   0.564   1.094   6.967 -0.0572  1.7024 -1.0283
 4515SOL     OW25177   0.196   4.218   0.619 -0.4220  0.2194 -0.1614
 4515SOL    HW125178   0.257   4.162   0.667 -1.4167 -1.8508 -1.2983
 4515SOL    HW225179   0.120   4.212   0.677  0.3287 -1.5059  0.6710
 4516SOL     OW25180   1.862   2.045   0.050 -0.0601 -0.1551 -0.7453
 4516SOL    HW125181   1.939   1.990   0.032  0.2711  0.6993 -1.9801
 4516SOL    HW225182   1.829   2.051  17.712  0.2534  0.1268 -0.8437
 4517SOL     OW25183   1.696   1.928  10.236 -0.2416 -1.2630 -0.2201
 4517SOL    HW125184   1.739   1.925  10.322 -0.1162 -2.8298 -0.3442
 4517SOL    HW225185   1.638   1.854  10.249 -0.6903 -0.9397 -0.3980
 4518SOL     OW25186   0.228   4.579   7.735  0.2409  0.0513  0.1330
 4518SOL    HW125187   0.226   4.655   7.793  2.4720  0.5242 -0.4324
 4518SOL    HW225188   0.133   4.568   7.727  0.3924 -0.1805 -1.3458
 4519SOL     OW25189   2.192   0.414  12.419 -0.2252 -0.0174 -0.1146
 4519SOL    HW125190   2.259   0.444  12.480 -1.0241  0.8314  0.3364
 4519SOL    HW225191   2.237   0.343  12.372 -2.8810 -3.2181  2.1231
 4520SOL     OW25192   4.318   1.889  12.643 -0.2117  0.6193 -0.4222
 4520SOL    HW125193   4.324   1.807  12.691  2.7074  0.3316 -1.2562
 4520SOL    HW225194   4.409   1.921  12.640  0.4772 -1.5060 -2.7174
 4521SOL     OW25195   2.803   4.103   3.217  0.3580 -0.5131 -0.3307
 4521SOL    HW125196   2.783   4.097   3.123  0.1171 -1.0991 -0.2429
 4521SOL    HW225197   2.839   4.015   3.223  2.0812  0.2136 -0.2290
 4522SOL     OW25198   4.014   0.312   3.758 -0.4517 -0.2297 -0.4109
 4522SOL    HW125199   3.943   0.375   3.765 -0.5736 -0.1281 -2.3893
 4522SOL    HW225200   3.987   0.239   3.813  1.3770 -0.6148 -0.0050
 4523SOL     OW25201   1.222   3.266  11.181 -0.1766  0.0352 -0.9021
 4523SOL    HW125202   1.141   3.311  11.157 -1.4706 -0.0185  3.4167
 4523SOL    HW225203   1.202   3.172  11.183 -0.5768  0.0781 -2.3946
 4524SOL     OW25204   1.725   0.463   5.730 -0.0339  0.4226 -0.1271
 4524SOL    HW125205   1.642   0.477   5.776 -0.6965  0.9671 -1.5038
 4524SOL    HW225206   1.703   0.505   5.647  1.8668  1.2652 -0.1960
 4525SOL     OW25207   0.719   3.060   7.318  0.5443  0.0994  0.6312
 4525SOL    HW125208   0.647   3.001   7.340  0.3034 -0.3031 -1.3062
 4525SOL    HW225209   0.694   3.075   7.227 -2.0962 -1.9290  1.0066
 4526SOL     OW25210   4.168   4.082   4.576  0.1776 -0.5261 -0.0125
 4526SOL    HW125211   4.216   4.003   4.600  1.3267  0.1674 -0.0677
 4526SOL    HW225212   4.106   4.099   4.648  1.5721  0.7080  0.9027
 4527SOL     OW25213   0.787   3.333  16.732 -0.6077  0.4716  0.5021
 4527SOL    HW125214   0.839   3.340  16.812  0.5044  0.7976 -0.2324
 4527SOL    HW225215   0.837   3.268  16.681 -0.4664 -0.6799  2.1174
 4528SOL     OW25216   1.632   1.569   0.417 -0.4021 -0.0516  0.7067
 4528SOL    HW125217   1.591   1.485   0.436 -2.4654  0.3758 -1.8473
 4528SOL    HW225218   1.625   1.566   0.321 -2.1106  0.0642  0.8443
 4529SOL     OW25219   1.457   2.547   8.411 -0.1973 -0.1667  0.5477
 4529SOL    HW125220   1.479   2.547   8.504  1.3226  3.5316  0.1953
 4529SOL    HW225221   1.391   2.613   8.431 -0.4710 -0.2387 -0.1080
 4530SOL     OW25222   4.224   1.722   4.979  0.1762  0.4483  0.2159
 4530SOL    HW125223   4.214   1.671   4.899 -3.4038  2.9392 -0.9451
 4530SOL    HW225224   4.277   1.667   5.036 -1.1222 -2.4780 -1.4242
 4531SOL     OW25225   4.251   0.292   5.677 -0.0853 -0.0071 -0.0813
 4531SOL    HW125226   4.346   0.290   5.675 -0.0658 -1.3015  2.0562
 4531SOL    HW225227   4.230   0.214   5.729 -1.8215  1.0960  0.8924
 4532SOL     OW25228   0.221   0.679   6.040  0.0391 -0.1251 -0.5671
 4532SOL    HW125229   0.183   0.761   6.073  3.1067  0.7284  0.7894
 4532SOL    HW225230   0.142   0.650   5.994  0.2331 -0.8773 -0.4332
 4533SOL     OW25231   2.023   4.493   5.297  0.1302  0.3243 -0.2196
 4533SOL    HW125232   2.109   4.525   5.325 -0.8211  2.2231  0.4520
 4533SOL    HW225233   1.968   4.502   5.374  0.5154 -0.6542  0.1750
 4534SOL     OW25234   4.515   3.283   3.350 -0.5473  0.0582 -0.0260
 4534SOL    HW125235   4.440   3.316   3.400 -0.7273 -2.0154  1.0261
 4534SOL    HW225236   4.536   3.208   3.404 -0.9795  1.1105  1.6100
 4535SOL     OW25237   4.339   3.228   3.808  0.1375 -0.0966  0.2556
 4535SOL    HW125238   4.421   3.188   3.779  0.0319 -0.4673  0.4726
 4535SOL    HW225239   4.369   3.303   3.860 -2.2241  0.2947  1.0393
 4536SOL     OW25240   0.013   2.677   8.322 -0.4309 -0.5643  0.0885
 4536SOL    HW125241   0.103   2.685   8.291 -0.4988  2.6404  0.6989
 4536SOL    HW225242   4.735   2.583   8.322 -0.7768 -0.5140  1.6539
 4537SOL     OW25243   0.005   1.651   3.814  0.0589 -0.2641 -0.3786
 4537SOL    HW125244   0.097   1.671   3.799  0.1543  0.2001  0.8391
 4537SOL    HW225245   4.695   1.729   3.785  2.9754  1.0864 -1.5897
 4538SOL     OW25246   3.497   0.841  17.177  0.1272  0.1182 -0.1309
 4538SOL    HW125247   3.445   0.868  17.102  0.8474 -0.5393 -0.8645
 4538SOL    HW225248   3.470   0.898  17.249 -0.5345 -2.5133  1.7519
 4539SOL     OW25249   1.052   3.878   8.068  0.4149  0.1078  0.4604
 4539SOL    HW125250   1.145   3.884   8.046 -0.2036  2.7776 -1.4665
 4539SOL    HW225251   1.038   3.962   8.112 -1.4009 -0.7975  1.5896
 4540SOL     OW25252   1.778   0.867   6.498 -0.6565 -0.5937  0.3387
 4540SOL    HW125253   1.694   0.889   6.457  0.4018  1.9468 -0.4831
 4540SOL    HW225254   1.774   0.772   6.502  0.5993 -0.5815  1.8863
 4541SOL     OW25255   1.842   3.596   4.550  0.0177  0.7761 -0.1636
 4541SOL    HW125256   1.789   3.671   4.523 -1.9302  0.1159  1.8402
 4541SOL    HW225257   1.809   3.587   4.639 -0.8469  2.6595 -0.2765
 4542SOL     OW25258   1.775   0.420   3.249  0.8011  0.3365 -0.0889
 4542SOL    HW125259   1.828   0.427   3.328 -2.5575 -1.0411  2.2660
 4542SOL    HW225260   1.835   0.455   3.183  0.7867  2.3734  0.9744
 4543SOL     OW25261   1.011   0.836   6.854 -0.3722  0.6863  0.2452
 4543SOL    HW125262   1.033   0.788   6.774 -0.5508 -0.5753  0.9516
 4543SOL    HW225263   1.070   0.911   6.856 -0.8014  1.0354 -0.5794
 4544SOL     OW25264   2.378   2.898  17.028 -0.0352  0.0020  0.0325
 4544SOL    HW125265   2.371   2.960  16.956 -1.0779 -1.4030 -1.0745
 4544SOL    HW225266   2.298   2.900  17.081 -0.4274  0.4988 -0.5826
 4545SOL     OW25267   1.431   3.478   7.132 -0.0362  0.2648  0.0610
 4545SOL    HW125268   1.437   3.568   7.101  0.0550  0.6624  1.2131
 4545SOL    HW225269   1.432   3.476   7.228 -0.0642 -0.8379  0.0435
 4546SOL     OW25270   0.001   4.447   2.479  0.2786 -0.4529 -0.1707
 4546SOL    HW125271   4.738   4.485   2.391  1.5653  0.9677  0.4194
 4546SOL    HW225272   4.646   4.439   2.501  0.3384  2.7604  1.3495
 4547SOL     OW25273   1.911   0.953   3.352  0.4734 -0.2562  0.7990
 4547SOL    HW125274   1.832   1.006   3.340 -0.2782 -0.8539  3.2123
 4547SOL    HW225275   1.902   0.891   3.279  1.4651 -0.5837  0.9551
 4548SOL     OW25276   3.782   1.876  14.658 -0.4649  0.0985  0.1248
 4548SOL    HW125277   3.765   1.786  14.686  2.0553  0.1490  1.8401
 4548SOL    HW225278   3.855   1.892  14.718 -0.4909  1.3698 -0.1781
 4549SOL     OW25279   2.892   2.808   9.727 -0.0794  0.7608 -0.2996
 4549SOL    HW125280   2.837   2.840   9.798  0.6161  0.8171  0.2102
 4549SOL    HW225281   2.858   2.864   9.657 -0.1221 -1.6246 -2.1888
 4550SOL     OW25282   2.218   3.114   1.310  0.1801 -0.3778  0.1536
 4550SOL    HW125283   2.159   3.068   1.250 -0.8730  0.5337  0.4786
 4550SOL    HW225284   2.227   3.048   1.379  0.6696 -0.4218  0.0424
 4551SOL     OW25285   2.579   2.931   0.834 -0.7861 -0.4165  0.3899
 4551SOL    HW125286   2.612   2.845   0.858  2.2318  0.5779 -0.2248
 4551SOL    HW225287   2.491   2.903   0.809 -0.9729 -0.6694  1.3506
 4552SOL     OW25288   4.549   1.329  12.924 -0.3679 -0.6973 -0.6827
 4552SOL    HW125289   4.506   1.414  12.909 -1.4715 -0.8682  1.4031
 4552SOL    HW225290   4.481   1.265  12.907  0.3780 -1.7594  0.3297
 4553SOL     OW25291   3.497   4.191   8.382  0.2031  0.6933 -0.2492
 4553SOL    HW125292   3.479   4.279   8.416 -0.9408 -0.0855  1.1808
 4553SOL    HW225293   3.487   4.139   8.462 -1.7315  2.1211  0.4399
 4554SOL     OW25294   1.540   2.838   3.366  0.6522 -0.0248 -0.1758
 4554SOL    HW125295   1.503   2.849   3.453 -0.3471  0.3046 -0.6422
 4554SOL    HW225296   1.477   2.780   3.323 -1.0010  1.9410 -0.4073
 4555SOL     OW25297   4.238   2.685   1.125 -0.3443 -0.0383  0.1473
 4555SOL    HW125298   4.273   2.774   1.117 -0.2161  0.1062  2.2080
 4555SOL    HW225299   4.143   2.697   1.120 -0.4144 -0.3624  0.7573
 4556SOL     OW25300   2.403   0.836  17.050 -0.1478 -0.2035 -0.1312
 4556SOL    HW125301   2.457   0.852  17.127  0.0658 -0.1319 -0.2943
 4556SOL    HW225302   2.472   0.822  16.984  0.1964 -1.4672  0.5022
 4557SOL     OW25303   2.990   2.005   1.953 -0.2603 -0.4626  0.7483
 4557SOL    HW125304   2.916   2.017   2.013 -1.1461  1.6290 -0.7589
 4557SOL    HW225305   2.965   2.061   1.880  0.9814 -1.5697 -0.5420
 4558SOL     OW25306   0.210   2.470   6.243 -0.6137 -0.1526  0.3145
 4558SOL    HW125307   0.282   2.520   6.207 -0.9405 -1.7182 -2.5069
 4558SOL    HW225308   0.207   2.514   6.328 -0.1105  0.0608  0.2175
 4559SOL     OW25309   0.396   2.604   3.467 -0.0801  0.3738 -0.7885
 4559SOL    HW125310   0.425   2.515   3.487 -1.8240 -0.2963 -1.2277
 4559SOL    HW225311   0.470   2.637   3.415  1.8825 -1.9404  0.5672
 4560SOL     OW25312   4.657   0.168   2.607 -0.0197  0.1796  0.4270
 4560SOL    HW125313   4.682   0.110   2.535  1.7684 -1.0525  2.0284
 4560SOL    HW225314   4.705   0.125   2.678 -1.2088 -0.9921  0.5332
 4561SOL     OW25315   0.543   2.282  13.582  0.6062  0.8299  0.2579
 4561SOL    HW125316   0.588   2.198  13.571 -3.5496 -1.1562 -1.4294
 4561SOL    HW225317   0.616   2.343  13.571  1.8169 -0.5199  0.8171
 4562SOL     OW25318   1.193   3.413  10.042  0.0147 -1.0423 -0.4328
 4562SOL    HW125319   1.141   3.468   9.984  0.6770 -0.8376 -0.8280
 4562SOL    HW225320   1.265   3.466  10.076 -0.4811 -1.3207  1.0509
 4563SOL     OW25321   1.532   0.435  10.072  0.3528  0.2022  0.0994
 4563SOL    HW125322   1.619   0.437  10.113  0.7931  1.6761 -0.8927
 4563SOL    HW225323   1.489   0.358  10.109 -1.7982  0.9841 -0.7945
 4564SOL     OW25324   2.895   0.774  10.489 -0.1229  0.5998  0.3646
 4564SOL    HW125325   2.810   0.782  10.447  0.4005  1.5767 -0.5213
 4564SOL    HW225326   2.907   0.681  10.505 -1.0264  0.1968 -1.3304
 4565SOL     OW25327   2.653   3.425  11.681  0.0497 -0.0582 -0.5994
 4565SOL    HW125328   2.609   3.442  11.764  1.1670 -1.5393  0.2871
 4565SOL    HW225329   2.623   3.493  11.620  0.5195  2.3372  1.8349
 4566SOL     OW25330   0.839   1.943   9.160 -0.3897  0.0191  0.5331
 4566SOL    HW125331   0.808   1.856   9.135 -0.7474  0.3550 -0.1740
 4566SOL    HW225332   0.873   1.923   9.247 -3.0390 -1.2199  1.3117
 4567SOL     OW25333   3.462   0.179  10.657 -0.2432 -0.5724 -0.0431
 4567SOL    HW125334   3.379   0.134  10.644 -0.3344 -0.3832 -0.1249
 4567SOL    HW225335   3.443   0.273  10.646 -0.7286 -0.7029 -0.2983
 4568SOL     OW25336   4.337   4.626   4.190 -0.0826  0.1046 -0.8612
 4568SOL    HW125337   4.427   4.606   4.169  0.2993  1.1208 -0.2312
 4568SOL    HW225338   4.349   4.679   4.269 -0.7582 -1.6126  0.3978
 4569SOL     OW25339   3.449   1.318   1.686 -0.1950  0.2592  0.3004
 4569SOL    HW125340   3.433   1.406   1.719 -1.5008  0.4563 -0.8318
 4569SOL    HW225341   3.361   1.281   1.689 -0.5210  0.9851 -0.2201
 4570SOL     OW25342   3.642   2.541   7.555  0.3929  0.8162 -0.1111
 4570SOL    HW125343   3.683   2.543   7.468 -0.5459 -0.9610 -0.6069
 4570SOL    HW225344   3.576   2.471   7.555  0.3638  0.8422 -0.5226
 4571SOL     OW25345   3.072   3.949   8.274  0.1380 -0.3353 -0.0529
 4571SOL    HW125346   3.095   4.020   8.333  0.4959  1.3774 -2.2818
 4571SOL    HW225347   2.986   3.932   8.312 -0.5373 -0.9834 -1.8516
 4572SOL     OW25348   1.848   0.841   2.403  0.6822  0.7371  0.0320
 4572SOL    HW125349   1.808   0.754   2.404  0.6118  0.7709  0.3533
 4572SOL    HW225350   1.794   0.884   2.470 -0.1274 -1.1348  0.5875
 4573SOL     OW25351   3.580   1.181   5.299 -0.7752 -0.2183  0.3490
 4573SOL    HW125352   3.568   1.253   5.237 -2.2640 -1.4333 -0.7868
 4573SOL    HW225353   3.566   1.229   5.380  1.6095  1.0482  0.0279
 4574SOL     OW25354   2.729   3.366   2.645  0.1061  0.4308 -0.0309
 4574SOL    HW125355   2.644   3.337   2.676  1.1776 -1.9693  0.6336
 4574SOL    HW225356   2.709   3.404   2.559 -0.6480 -0.3388 -0.1900
 4575SOL     OW25357   2.448   2.380   4.655  0.1829  0.7714 -0.0431
 4575SOL    HW125358   2.370   2.435   4.658  0.7384  1.4859  1.5228
 4575SOL    HW225359   2.480   2.393   4.744  0.4004  4.0191 -0.5806
 4576SOL     OW25360   3.045   2.056  10.287  0.6012 -0.2312  0.0813
 4576SOL    HW125361   3.124   2.022  10.247  1.4583  2.8311 -0.7822
 4576SOL    HW225362   3.070   2.100  10.368  0.1070 -1.1362  0.7361
 4577SOL     OW25363   2.624   1.045   5.066 -0.0105  0.0234  0.1080
 4577SOL    HW125364   2.562   1.097   5.117  0.0945 -0.7876  1.0651
 4577SOL    HW225365   2.672   1.119   5.028 -1.2919  0.5002 -0.5959
 4578SOL     OW25366   1.108   3.440  12.732  0.7002  0.3148  0.8326
 4578SOL    HW125367   1.032   3.416  12.786 -0.3670  0.2952 -0.6757
 4578SOL    HW225368   1.163   3.363  12.743 -1.0377 -1.2308 -1.3565
 4579SOL     OW25369   2.899   3.365  10.687  0.7011  0.4850 -0.0946
 4579SOL    HW125370   2.985   3.381  10.649  0.6120  1.4075  0.0905
 4579SOL    HW225371   2.934   3.421  10.758  0.9962 -1.4888  1.3142
 4580SOL     OW25372   4.425   1.827   1.966 -0.4131  0.2694 -0.0571
 4580SOL    HW125373   4.354   1.845   2.028  2.2757 -0.0916  3.1655
 4580SOL    HW225374   4.504   1.838   2.020 -0.1956 -0.7788 -0.1463
 4581SOL     OW25375   0.826   3.820   3.743  0.1065  0.0463  0.7435
 4581SOL    HW125376   0.846   3.863   3.660 -0.8335 -4.1218 -1.6333
 4581SOL    HW225377   0.785   3.896   3.785  0.5794  1.0860 -0.6986
 4582SOL     OW25378   0.820   0.246   3.825 -0.3676  0.2517 -0.0866
 4582SOL    HW125379   0.755   0.220   3.760  0.2261 -0.4154 -0.4055
 4582SOL    HW225380   0.900   0.238   3.774 -2.0444 -2.7995 -2.2065
 4583SOL     OW25381   3.839   2.942   4.282 -0.3905 -0.3242  0.1700
 4583SOL    HW125382   3.813   2.973   4.369 -0.0596  0.7284 -0.1076
 4583SOL    HW225383   3.927   2.906   4.295 -0.3511 -0.7856 -1.3280
 4584SOL     OW25384   1.558   1.924   9.930  0.3314 -0.1031  0.0648
 4584SOL    HW125385   1.569   1.830   9.913 -2.0318 -0.2883 -0.4965
 4584SOL    HW225386   1.477   1.919   9.981  0.1789  0.2762 -0.1403
 4585SOL     OW25387   4.400   4.502   5.155 -0.4133  0.2218  0.1847
 4585SOL    HW125388   4.396   4.439   5.084 -0.6229  1.2679 -0.7405
 4585SOL    HW225389   4.469   4.461   5.207 -0.6655  1.0737  1.1896
 4586SOL     OW25390   2.720   1.019   6.947  0.1870  0.0839 -0.0490
 4586SOL    HW125391   2.672   0.993   6.868 -3.2994  2.6515  1.2104
 4586SOL    HW225392   2.798   0.969   6.924 -0.3309 -0.9286  0.3796
 4587SOL     OW25393   2.194   3.608   1.576  0.4128  0.6188 -0.2192
 4587SOL    HW125394   2.243   3.586   1.497 -0.8947 -0.5375 -0.6876
 4587SOL    HW225395   2.270   3.590   1.632 -3.1091 -0.7717  4.1226
 4588SOL     OW25396   3.555   0.148   0.252 -0.0090  0.2994  0.3481
 4588SOL    HW125397   3.640   0.124   0.288  0.4880 -2.0026 -2.3186
 4588SOL    HW225398   3.518   0.060   0.264  2.2360 -0.6350  0.3138
 4589SOL     OW25399   0.091   0.421   0.475  0.4091 -0.3560 -0.1416
 4589SOL    HW125400   0.156   0.359   0.507  0.9611 -0.4779 -1.4829
 4589SOL    HW225401   0.031   0.354   0.442 -1.3956  1.6759 -1.0386
 4590SOL     OW25402   2.945   4.626   3.238 -0.2531 -0.3149  0.1925
 4590SOL    HW125403   2.942   4.651   3.146  0.3171  2.0326  0.8096
 4590SOL    HW225404   2.937   4.531   3.236 -3.9060  0.0423 -1.8224
 4591SOL     OW25405   2.217   1.310  15.469 -0.0567  0.2006  0.5400
 4591SOL    HW125406   2.233   1.399  15.501 -1.2956  0.8258 -0.5540
 4591SOL    HW225407   2.125   1.315  15.495 -0.6923  3.6061 -2.2599
 4592SOL     OW25408   3.034   1.264   6.194 -0.4397  0.2218 -0.8109
 4592SOL    HW125409   3.085   1.227   6.122  0.5220  0.4603 -0.2442
 4592SOL    HW225410   2.964   1.199   6.203  0.1760 -0.3488 -0.1708
 4593SOL     OW25411   0.734   2.349   8.887 -0.1882 -0.0276  0.3721
 4593SOL    HW125412   0.770   2.295   8.817 -0.0543  1.7356 -0.9241
 4593SOL    HW225413   0.723   2.271   8.942 -0.1975 -1.2093 -1.3196
 4594SOL     OW25414   2.418   1.873   2.842  0.2330  0.3035  0.5625
 4594SOL    HW125415   2.353   1.925   2.794  0.4732 -0.6176 -0.7627
 4594SOL    HW225416   2.437   1.948   2.898 -0.8142  0.4827  0.6789
 4595SOL     OW25417   3.131   0.647   6.305  0.0695  0.2821  0.6467
 4595SOL    HW125418   3.107   0.559   6.333  0.4152 -0.4282 -1.2659
 4595SOL    HW225419   3.202   0.656   6.368  0.0850 -0.8791  0.7990
 4596SOL     OW25420   2.856   0.653   7.785 -0.3591  0.0719 -0.1029
 4596SOL    HW125421   2.885   0.712   7.854 -0.3533 -1.0625  0.8546
 4596SOL    HW225422   2.813   0.716   7.727 -1.1092 -2.1596 -2.0004
 4597SOL     OW25423   1.645   3.459  13.379 -0.6349 -0.0243  0.0544
 4597SOL    HW125424   1.721   3.444  13.435 -0.6542 -0.0811  0.0651
 4597SOL    HW225425   1.675   3.541  13.340 -3.1306  1.0354  0.3384
 4598SOL     OW25426   3.936   3.345   4.808  0.8623 -0.5639  0.2024
 4598SOL    HW125427   3.848   3.315   4.832  0.9243 -0.1609  0.9141
 4598SOL    HW225428   3.972   3.266   4.767  0.7800 -0.0279 -0.9003
 4599SOL     OW25429   2.913   3.455   2.101  0.1409  0.5481  0.0513
 4599SOL    HW125430   2.921   3.484   2.192  0.4298  0.5475  0.0266
 4599SOL    HW225431   2.934   3.537   2.058  0.3912  1.1749  1.3497
 4600SOL     OW25432   3.679   3.999   6.105 -0.0645  0.2237 -0.2080
 4600SOL    HW125433   3.719   4.059   6.041  0.0288 -1.1097 -1.3913
 4600SOL    HW225434   3.724   3.916   6.089  1.2489  0.5573  1.7632
 4601SOL     OW25435   3.550   2.078   5.803 -0.0310 -0.2985  0.1238
 4601SOL    HW125436   3.567   2.094   5.896 -1.8890  0.7756  0.2755
 4601SOL    HW225437   3.529   2.169   5.784  1.3990  0.2220  1.0622
 4602SOL     OW25438   3.338   0.411  15.421  0.1073  0.6430 -0.0032
 4602SOL    HW125439   3.277   0.450  15.484  1.2073  0.3699  1.2479
 4602SOL    HW225440   3.374   0.498  15.404 -0.0013  1.0512  1.8478
 4603SOL     OW25441   3.185   1.440   0.554  0.1100  0.7170 -0.8748
 4603SOL    HW125442   3.169   1.516   0.610  2.0096  0.6294 -0.2111
 4603SOL    HW225443   3.279   1.419   0.552 -0.1511 -0.6366  0.8624
 4604SOL     OW25444   1.085   4.206   1.708  0.6234 -0.2431  0.0174
 4604SOL    HW125445   1.157   4.185   1.768 -0.5213 -1.1680  1.0732
 4604SOL    HW225446   1.037   4.123   1.718  0.7280 -0.3666 -0.4932
 4605SOL     OW25447   0.098   3.809   5.118  0.2099 -0.4434  0.3791
 4605SOL    HW125448   0.095   3.863   5.040 -0.1999 -1.5018 -0.3379
 4605SOL    HW225449   0.059   3.730   5.080 -0.1934  0.0439 -0.2060
 4606SOL     OW25450   0.878   1.427   1.987  0.2929 -0.6162  0.2400
 4606SOL    HW125451   0.877   1.484   1.911 -0.9658  1.3702  1.7476
 4606SOL    HW225452   0.819   1.474   2.046 -0.1581  0.5370 -1.1630
 4607SOL     OW25453   1.981   3.981   9.368 -0.2842 -0.3390 -0.1559
 4607SOL    HW125454   1.940   3.899   9.395 -1.7135  0.3558 -0.2404
 4607SOL    HW225455   2.003   3.970   9.276  1.2314  0.4277  0.1147
 4608SOL     OW25456   4.291   2.259   6.164 -0.2671 -0.6633 -0.3829
 4608SOL    HW125457   4.326   2.316   6.232 -1.7433 -1.9540  1.4602
 4608SOL    HW225458   4.233   2.204   6.217  0.6068 -1.7373 -0.5219
 4609SOL     OW25459   0.810   3.946  10.908 -0.2679  0.2644  0.2498
 4609SOL    HW125460   0.782   3.898  10.830  1.3345  0.4679 -0.4618
 4609SOL    HW225461   0.826   4.035  10.879 -1.2904  0.1163 -0.7453
 4610SOL     OW25462   2.611   0.288   3.605 -0.6559  0.1527 -0.1431
 4610SOL    HW125463   2.534   0.283   3.663  0.5177 -2.0939  1.2243
 4610SOL    HW225464   2.667   0.217   3.636 -2.7613 -1.5211 -0.1835
 4611SOL     OW25465   3.757   1.518   7.078 -0.2477  0.0263 -0.0962
 4611SOL    HW125466   3.666   1.527   7.048 -0.7602 -1.7877  0.9013
 4611SOL    HW225467   3.768   1.603   7.121 -2.1289  0.6839 -0.9081
 4612SOL     OW25468   4.627   4.288   7.195  0.1022 -0.2222 -0.0948
 4612SOL    HW125469   4.534   4.280   7.215 -0.1596  1.9998 -0.4702
 4612SOL    HW225470   4.666   4.220   7.251 -2.0150  0.2176  1.8868
 4613SOL     OW25471   2.973   3.685   6.073 -0.3343 -0.1153 -0.2334
 4613SOL    HW125472   3.066   3.675   6.053  0.2524  1.9631  1.5037
 4613SOL    HW225473   2.947   3.593   6.081  0.1282 -0.4629 -2.9170
 4614SOL     OW25474   3.773   2.591   7.299  0.1283 -0.4032  0.0233
 4614SOL    HW125475   3.738   2.629   7.219 -0.9036  2.0761  1.6602
 4614SOL    HW225476   3.843   2.645   7.336  0.7398 -0.9005 -0.4006
 4615SOL     OW25477   3.005   1.751  14.983 -0.1596  0.2574  0.3895
 4615SOL    HW125478   3.091   1.715  14.960 -0.7872 -1.0505  0.0639
 4615SOL    HW225479   2.960   1.673  15.016  0.2751 -0.6412 -1.1569
 4616SOL     OW25480   0.870   1.865   3.970  0.8868 -0.5483  0.2718
 4616SOL    HW125481   0.822   1.855   3.887 -2.0522 -0.0668  1.9000
 4616SOL    HW225482   0.961   1.845   3.948  1.6816  1.2822  1.9379
 4617SOL     OW25483   2.832   4.378   6.585  0.1580  0.2645 -0.2318
 4617SOL    HW125484   2.764   4.312   6.573  1.3189 -0.7316 -1.3946
 4617SOL    HW225485   2.899   4.334   6.532  0.0390  1.0542 -1.0331
 4618SOL     OW25486   1.844   1.125   8.787 -0.4061 -0.1582  0.2363
 4618SOL    HW125487   1.897   1.205   8.790 -0.4268 -0.1316 -0.2160
 4618SOL    HW225488   1.778   1.147   8.722  0.3782  1.0885 -0.1207
 4619SOL     OW25489   4.333   1.521   3.316 -0.3060  0.3512 -0.3517
 4619SOL    HW125490   4.420   1.556   3.334  0.1843 -0.0816 -1.8824
 4619SOL    HW225491   4.273   1.573   3.370  0.4036 -0.3229  1.0820
 4620SOL     OW25492   0.056   2.679   4.492 -0.7889 -0.1229  0.2563
 4620SOL    HW125493   0.077   2.597   4.448 -1.0695  0.0691 -0.2478
 4620SOL    HW225494   0.076   2.745   4.426 -2.0143 -0.7364 -0.7389
 4621SOL     OW25495   0.440   2.770   5.397 -0.8006 -0.0767 -0.0526
 4621SOL    HW125496   0.354   2.756   5.356 -1.4419  1.3503  0.7778
 4621SOL    HW225497   0.419   2.719   5.475  0.0934 -0.4235 -0.0504
 4622SOL     OW25498   3.268   3.012   2.855  0.4317  0.1156  0.8572
 4622SOL    HW125499   3.186   3.043   2.816  1.2005  0.4212 -0.5347
 4622SOL    HW225500   3.277   2.929   2.809 -2.0597 -0.1553  0.8466
 4623SOL     OW25501   0.287   1.972  10.992  0.2179  0.2019  0.0454
 4623SOL    HW125502   0.233   2.050  11.007 -0.3464 -0.2439  0.3615
 4623SOL    HW225503   0.273   1.935  10.906 -0.6257 -1.7942  1.0451
 4624SOL     OW25504   1.535   1.198   5.238  0.5604  0.7554 -0.2070
 4624SOL    HW125505   1.611   1.222   5.291 -0.6961  0.2316  1.8589
 4624SOL    HW225506   1.558   1.123   5.183 -1.5821  0.9277 -1.3365
 4625SOL     OW25507   1.189   2.338   7.329 -0.0909  0.0814  0.4224
 4625SOL    HW125508   1.188   2.371   7.239  1.1348  0.6121  0.5951
 4625SOL    HW225509   1.159   2.248   7.315  2.1011 -0.5164 -0.4962
 4626SOL     OW25510   3.588   2.252  14.033 -0.3111  0.1347 -0.2959
 4626SOL    HW125511   3.547   2.270  13.949  1.2208 -0.5582 -1.1825
 4626SOL    HW225512   3.603   2.159  14.016 -0.8579 -0.0823  0.4034
 4627SOL     OW25513   3.623   1.178   1.864  0.3522 -0.0537 -0.0048
 4627SOL    HW125514   3.548   1.218   1.820  0.6238 -0.2615 -0.6732
 4627SOL    HW225515   3.690   1.246   1.860  2.0093 -1.7824 -2.2146
 4628SOL     OW25516   4.633   2.523   7.499  0.3749  0.1898 -0.1549
 4628SOL    HW125517   4.672   2.577   7.567 -0.4438  2.1015 -1.2125
 4628SOL    HW225518   4.686   2.443   7.494  0.0321  0.1020 -2.4960
 4629SOL     OW25519   4.188   0.321   7.950 -0.5377  0.0710  0.9134
 4629SOL    HW125520   4.221   0.322   7.860 -1.7084  1.4140  0.5109
 4629SOL    HW225521   4.096   0.308   7.929 -0.5189  1.6282 -0.1340
 4630SOL     OW25522   1.322   4.557   8.640 -0.4568  0.6217 -0.2663
 4630SOL    HW125523   1.245   4.504   8.618  1.8199 -2.6667 -0.3201
 4630SOL    HW225524   1.362   4.553   8.553  2.1071 -0.4713  0.9708
 4631SOL     OW25525   2.156   0.106  13.743 -0.1600  0.1026 -0.0445
 4631SOL    HW125526   2.135   0.091  13.835  2.2626  0.0873  0.5053
 4631SOL    HW225527   2.082   0.158  13.713 -1.0240 -1.9972 -1.5545
 4632SOL     OW25528   3.417   4.331   3.964  0.3392 -0.3627  0.0834
 4632SOL    HW125529   3.324   4.340   3.986  0.2840 -0.3504 -0.1471
 4632SOL    HW225530   3.419   4.237   3.948  0.6509 -0.1047 -1.3974
 4633SOL     OW25531   4.442   2.423   5.000 -0.2820 -0.1629 -0.3691
 4633SOL    HW125532   4.423   2.388   5.087 -0.1623  1.8901  0.4823
 4633SOL    HW225533   4.364   2.475   4.982 -0.3989 -1.5809 -3.8237
 4634SOL     OW25534   0.804   3.475   6.231 -0.2225  0.5873 -0.1499
 4634SOL    HW125535   0.755   3.394   6.249  1.3451 -0.3211  0.0477
 4634SOL    HW225536   0.810   3.483   6.136 -1.9772 -0.5918 -0.3724
 4635SOL     OW25537   1.156   0.098   2.824 -0.4713 -0.2372 -0.3544
 4635SOL    HW125538   1.218   0.132   2.888 -2.9585  0.2209  1.8322
 4635SOL    HW225539   1.153   0.003   2.835 -0.9356 -0.3933 -1.7863
 4636SOL     OW25540   1.369   0.886   5.290 -0.0693  0.3164 -0.7788
 4636SOL    HW125541   1.286   0.905   5.246 -1.9268  0.6328  2.7916
 4636SOL    HW225542   1.394   0.810   5.237  1.2155  1.8076 -2.2713
 4637SOL     OW25543   2.878   2.965  15.478 -0.1297  0.2133 -0.5866
 4637SOL    HW125544   2.873   2.876  15.514  0.8154 -0.2343 -1.5843
 4637SOL    HW225545   2.902   2.950  15.387  0.0002  1.0742 -0.6891
 4638SOL     OW25546   3.975   1.549   1.455 -0.2719  0.2478 -0.1886
 4638SOL    HW125547   3.890   1.564   1.495 -0.0423 -0.3432  0.5130
 4638SOL    HW225548   3.972   1.458   1.426 -1.4599 -0.3531  1.8249
 4639SOL     OW25549   4.447   2.169   9.345  0.1881 -1.0972  0.3688
 4639SOL    HW125550   4.407   2.231   9.407  2.6027 -0.0838  0.9126
 4639SOL    HW225551   4.535   2.154   9.381  0.7431 -3.6802 -2.1012
 4640SOL     OW25552   3.492   0.519   5.387 -0.0405 -0.0751 -0.2328
 4640SOL    HW125553   3.459   0.479   5.467  2.6683 -0.1072  0.8690
 4640SOL    HW225554   3.412   0.544   5.342 -0.0626 -0.6672 -0.5197
 4641SOL     OW25555   2.272   3.567  13.915 -0.1893 -0.0878 -0.1501
 4641SOL    HW125556   2.221   3.619  13.853  1.4841  1.5809 -0.1173
 4641SOL    HW225557   2.315   3.514  13.848  2.6907 -1.5260  2.8428
 4642SOL     OW25558   1.181   2.365   9.857  0.2353  0.1864 -0.3651
 4642SOL    HW125559   1.127   2.339   9.932  1.2569  0.3706  0.4250
 4642SOL    HW225560   1.225   2.287   9.825 -1.3525 -0.7989 -0.1341
 4643SOL     OW25561   1.229   3.664   8.465  0.1637 -0.2548 -0.1689
 4643SOL    HW125562   1.295   3.694   8.403  2.9932  0.3859  3.1347
 4643SOL    HW225563   1.267   3.668   8.553  0.2384 -0.4895 -0.1888
 4644SOL     OW25564   3.050   4.156   6.890 -0.4239  0.2262 -0.1557
 4644SOL    HW125565   2.959   4.153   6.920 -0.4628 -0.5846 -0.3596
 4644SOL    HW225566   3.069   4.065   6.867 -1.4754  0.0108 -0.1526
 4645SOL     OW25567   3.555   0.063   7.790  0.7648  0.0093  0.0328
 4645SOL    HW125568   3.543   0.150   7.752  2.0608  0.0723 -0.2233
 4645SOL    HW225569   3.493   0.059   7.862  1.5624 -0.4500  0.6959
 4646SOL     OW25570   3.326   4.172   4.591  0.0200 -0.0095 -0.2701
 4646SOL    HW125571   3.413   4.193   4.624  1.1308 -0.4387 -2.9111
 4646SOL    HW225572   3.349   4.088   4.553 -0.0944  0.8593 -2.2804
 4647SOL     OW25573   3.025   2.095   2.633 -0.0160  0.0920 -0.4823
 4647SOL    HW125574   3.063   2.153   2.698 -1.1514 -0.2985  0.5264
 4647SOL    HW225575   3.098   2.048   2.594  0.0927 -0.4359  0.3573
 4648SOL     OW25576   1.587   2.094  11.745 -0.3849  0.1327 -0.3666
 4648SOL    HW125577   1.510   2.070  11.796 -0.2405  0.5465  0.0417
 4648SOL    HW225578   1.651   2.031  11.779 -0.8136  0.1953  0.5468
 4649SOL     OW25579   3.353   0.272   2.284 -0.0049 -0.2757  0.7118
 4649SOL    HW125580   3.327   0.299   2.196  0.2886  0.5068  0.8700
 4649SOL    HW225581   3.367   0.179   2.265  2.5387  0.9414 -3.2517
 4650SOL     OW25582   1.221   0.582   5.797 -0.0055  0.1891  0.3270
 4650SOL    HW125583   1.154   0.644   5.824 -2.4306 -1.0586 -2.8366
 4650SOL    HW225584   1.263   0.638   5.731  1.4934 -0.4979  0.6896
 4651SOL     OW25585   0.460   2.241   2.658 -0.5504 -0.4421 -0.1472
 4651SOL    HW125586   0.458   2.206   2.569 -4.0435  0.7523 -0.5406
 4651SOL    HW225587   0.374   2.222   2.696 -2.0234  1.7368 -2.3766
 4652SOL     OW25588   0.093   2.815   1.305 -0.0120 -0.2214  0.3923
 4652SOL    HW125589   0.120   2.836   1.215  4.9432 -1.5204  1.6104
 4652SOL    HW225590   0.004   2.852   1.302 -0.0135 -0.3840 -1.9359
 4653SOL     OW25591   3.707   1.069   5.950 -0.4445 -0.3112 -0.0070
 4653SOL    HW125592   3.687   1.065   5.856 -0.5177  3.0177 -0.1354
 4653SOL    HW225593   3.618   1.061   5.985  0.0436 -0.0296  1.2759
 4654SOL     OW25594   3.209   2.277   7.257 -0.5838 -0.2140  0.4220
 4654SOL    HW125595   3.292   2.256   7.301  0.4414  3.2824  0.2224
 4654SOL    HW225596   3.155   2.280   7.336  0.6122 -1.7901  1.3097
 4655SOL     OW25597   3.306   3.143   8.360  0.5265  0.2342 -0.3167
 4655SOL    HW125598   3.359   3.063   8.371 -0.7814 -0.3240  1.9383
 4655SOL    HW225599   3.370   3.213   8.377 -2.2456  2.5306  0.5629
 4656SOL     OW25600   1.800   3.593  14.420 -0.0242 -0.7646  0.6336
 4656SOL    HW125601   1.845   3.509  14.407  1.5195  0.0810  0.4561
 4656SOL    HW225602   1.820   3.642  14.341  0.9000 -0.7451  0.8718
 4657SOL     OW25603   0.156   4.441   5.052  0.1971  0.1379  0.0179
 4657SOL    HW125604   0.098   4.365   5.052 -1.6356  1.5341  2.0349
 4657SOL    HW225605   0.102   4.509   5.093  0.0597  0.5884 -0.9054
 4658SOL     OW25606   3.301   2.945  14.799 -0.4076 -0.2681 -0.4814
 4658SOL    HW125607   3.274   3.022  14.849 -1.5773 -1.4645  0.7421
 4658SOL    HW225608   3.250   2.875  14.841 -1.7958  1.9465  1.5034
 4659SOL     OW25609   0.998   4.042   3.558  0.0758  0.1250 -0.2272
 4659SOL    HW125610   1.059   4.061   3.630  0.9233 -1.0089 -0.6429
 4659SOL    HW225611   1.050   4.059   3.480  0.0627 -2.2390 -0.7662
 4660SOL     OW25612   1.440   2.196   8.957  0.4467 -0.5614 -0.2787
 4660SOL    HW125613   1.531   2.196   8.987  0.6958  3.3541 -1.1328
 4660SOL    HW225614   1.434   2.121   8.899 -1.1498 -0.8476  0.2599
 4661SOL     OW25615   2.658   2.678   0.895 -0.1887  0.0287 -0.4010
 4661SOL    HW125616   2.684   2.682   0.803 -0.4273  0.4740 -0.4451
 4661SOL    HW225617   2.732   2.628   0.931 -1.4363  0.9128  3.3598
 4662SOL     OW25618   0.792   3.204   8.581 -0.9157 -0.3039  0.2888
 4662SOL    HW125619   0.726   3.173   8.642 -0.1646 -1.1717  0.6638
 4662SOL    HW225620   0.798   3.132   8.518 -1.2436  0.5949 -0.7659
 4663SOL     OW25621   2.514   3.540  11.444 -0.4230 -0.0428  0.1719
 4663SOL    HW125622   2.455   3.615  11.436  0.7344  0.6319 -1.8720
 4663SOL    HW225623   2.587   3.567  11.388  1.6430 -0.7504  2.4895
 4664SOL     OW25624   4.644   2.891   5.894 -0.6473 -0.0234 -0.3410
 4664SOL    HW125625   4.582   2.963   5.895  1.9184  2.1410  1.0033
 4664SOL    HW225626   4.632   2.846   5.978 -1.0824 -0.1798 -0.4862
 4665SOL     OW25627   3.888   2.377   4.597  0.3301 -0.1216  0.2069
 4665SOL    HW125628   3.958   2.437   4.622  1.1080 -1.0723  0.3002
 4665SOL    HW225629   3.928   2.343   4.517  0.0142 -1.8467  0.7711
 4666SOL     OW25630   2.928   0.587   5.614  0.3044  0.8065  0.3529
 4666SOL    HW125631   2.852   0.637   5.645 -1.3750 -0.4613 -1.7834
 4666SOL    HW225632   2.957   0.649   5.548  1.6657  0.4522  0.6096
 4667SOL     OW25633   3.670   3.218  12.288 -0.4579  0.4696  0.1190
 4667SOL    HW125634   3.615   3.227  12.366  2.0927  2.3219  1.7430
 4667SOL    HW225635   3.659   3.307  12.255 -2.1151  0.0441 -0.4819
 4668SOL     OW25636   3.900   2.805   6.453 -0.2471  0.6863  0.3139
 4668SOL    HW125637   3.930   2.731   6.401 -2.4537  0.9992 -1.4143
 4668SOL    HW225638   3.853   2.845   6.380  0.9518  1.6085  0.0577
 4669SOL     OW25639   0.844   0.155   9.639 -0.4240  0.1585 -0.4609
 4669SOL    HW125640   0.803   0.234   9.675  0.5912  0.9904 -1.1293
 4669SOL    HW225641   0.931   0.187   9.615 -0.0258 -0.1609  0.5380
 4670SOL     OW25642   4.563   2.514   2.611  0.3778  0.0872  0.0457
 4670SOL    HW125643   4.641   2.528   2.556  0.7940 -0.5856  0.4688
 4670SOL    HW225644   4.537   2.605   2.619 -0.8760 -0.1069 -1.8294
 4671SOL     OW25645   4.379   1.076   1.736 -0.2008  0.5365 -0.3078
 4671SOL    HW125646   4.344   0.987   1.737  1.5477 -0.1415  1.7322
 4671SOL    HW225647   4.305   1.123   1.699  0.3565  0.8946 -0.9727
 4672SOL     OW25648   1.394   3.687  17.115  0.3981 -0.1341 -0.0492
 4672SOL    HW125649   1.441   3.609  17.145 -0.5421 -0.1017  1.5247
 4672SOL    HW225650   1.344   3.726  17.187  0.0081  0.2028 -0.5048
 4673SOL     OW25651   0.919   0.277   0.318 -0.0814  0.3390 -0.2019
 4673SOL    HW125652   1.005   0.265   0.357  0.3264  0.9870 -0.8940
 4673SOL    HW225653   0.926   0.231   0.234  1.8252  0.9245 -0.3574
 4674SOL     OW25654   0.279   3.486   5.575 -0.9404  0.5216  0.2151
 4674SOL    HW125655   0.202   3.473   5.631 -1.0318  0.2287  0.0259
 4674SOL    HW225656   0.304   3.577   5.588  2.0303  0.1206 -2.6129
 4675SOL     OW25657   1.741   1.383   1.623  0.4764 -0.0053 -0.3568
 4675SOL    HW125658   1.734   1.290   1.604 -1.4702  0.1959 -0.6376
 4675SOL    HW225659   1.702   1.430   1.549 -0.6428 -0.3420  0.0187
 4676SOL     OW25660   0.361   0.377  10.064  0.1296  0.4607 -0.2546
 4676SOL    HW125661   0.404   0.393  10.148 -1.9768 -0.2786  0.9572
 4676SOL    HW225662   0.273   0.355  10.094 -0.0723  1.1187 -0.3824
 4677SOL     OW25663   0.483   1.448   6.305  0.0050 -0.0404 -0.0850
 4677SOL    HW125664   0.509   1.388   6.236 -0.5113  1.0338 -1.2056
 4677SOL    HW225665   0.559   1.445   6.364  0.8765  0.9754 -1.1687
 4678SOL     OW25666   1.247   1.514   4.855  0.1070 -0.0066  0.1753
 4678SOL    HW125667   1.267   1.535   4.764 -2.6902 -1.8033 -0.8592
 4678SOL    HW225668   1.299   1.435   4.869 -2.5512 -1.5545  1.4472
 4679SOL     OW25669   1.301   1.493   7.816  0.3957 -0.3942 -0.2928
 4679SOL    HW125670   1.247   1.557   7.769  2.1484  0.3986 -1.2129
 4679SOL    HW225671   1.391   1.507   7.789  1.0578 -0.8414  1.7226
 4680SOL     OW25672   2.044   2.476   2.599  0.1390  0.0810  0.1647
 4680SOL    HW125673   2.135   2.470   2.572  0.3918  0.3133  0.9643
 4680SOL    HW225674   2.020   2.568   2.585  1.5955  0.5407  0.6955
 4681SOL     OW25675   1.800   4.104   2.184  0.0535 -0.7561  0.5009
 4681SOL    HW125676   1.788   4.045   2.258 -4.2651 -0.7122 -0.1396
 4681SOL    HW225677   1.886   4.141   2.202  0.9704 -3.1247  0.8717
 4682SOL     OW25678   0.242   2.870   1.775 -0.2549  0.5913 -0.3821
 4682SOL    HW125679   0.191   2.791   1.759  2.1583 -1.1101  0.4337
 4682SOL    HW225680   0.192   2.887   1.855  1.0155  0.0845  0.5162
 4683SOL     OW25681   1.531   2.916   2.721  0.3748  1.0372 -0.6360
 4683SOL    HW125682   1.497   2.838   2.679  0.9608 -0.9259  2.5340
 4683SOL    HW225683   1.622   2.891   2.703  0.0537  0.1632 -1.0327
 4684SOL     OW25684   3.669   1.122   2.355  0.2663 -0.0937 -0.1295
 4684SOL    HW125685   3.592   1.105   2.300  1.2851 -3.8140 -0.3837
 4684SOL    HW225686   3.667   1.041   2.407  4.3521  0.1612  0.3801
 4685SOL     OW25687   2.224   2.408   7.896  0.3384  0.4928 -0.9466
 4685SOL    HW125688   2.267   2.429   7.813 -1.0242 -0.3374 -1.8792
 4685SOL    HW225689   2.270   2.470   7.952 -1.4650  0.1809  0.8878
 4686SOL     OW25690   2.082   1.539   4.541  0.2029 -0.3161 -0.6318
 4686SOL    HW125691   2.175   1.552   4.562 -0.6100  0.1474  2.5930
 4686SOL    HW225692   2.068   1.463   4.597 -0.7302 -0.9179 -1.6783
 4687SOL     OW25693   1.461   3.175   2.854  0.0535  0.7899  0.7982
 4687SOL    HW125694   1.510   3.124   2.790  1.1214 -1.9718  3.7886
 4687SOL    HW225695   1.397   3.222   2.801  0.3033  0.3113  0.0768
 4688SOL     OW25696   3.705   4.280   8.577 -0.1773 -0.3037  0.0391
 4688SOL    HW125697   3.708   4.370   8.544 -0.7684  0.0956  1.0487
 4688SOL    HW225698   3.638   4.291   8.645 -1.5133 -0.9420 -1.1964
 4689SOL     OW25699   2.961   3.731   9.081 -0.3517 -0.4945  0.0715
 4689SOL    HW125700   3.048   3.739   9.120 -1.2856  0.4203  1.9640
 4689SOL    HW225701   2.980   3.732   8.987 -1.1930  0.3773 -0.0863
 4690SOL     OW25702   4.497   3.400   4.998 -0.0279  0.1084  0.3301
 4690SOL    HW125703   4.438   3.378   4.926  0.0418 -2.3404  1.0537
 4690SOL    HW225704   4.498   3.310   5.029  1.6395 -0.1323 -0.4543
 4691SOL     OW25705   0.379   2.031  14.316  0.2687 -0.2564 -0.1626
 4691SOL    HW125706   0.418   1.945  14.300  0.9115 -0.2737  1.5205
 4691SOL    HW225707   0.451   2.075  14.271  1.1460  0.3485  1.8199
 4692SOL     OW25708   0.081   2.084  12.023  0.1082  0.2550  0.1382
 4692SOL    HW125709   0.175   2.093  12.007  0.8170  0.3159  4.3651
 4692SOL    HW225710   0.082   1.997  12.064 -2.5593  0.2792  0.2324
 4693SOL     OW25711   3.016   2.992   2.240 -0.0093 -0.5593 -0.2834
 4693SOL    HW125712   2.994   3.067   2.184  0.2790  0.8490  1.4524
 4693SOL    HW225713   3.041   3.043   2.317 -2.3067  0.7882 -0.4067
 4694SOL     OW25714   3.082   3.824  11.659 -0.4321 -0.3791 -0.0210
 4694SOL    HW125715   3.127   3.850  11.579  0.3215 -0.2661  0.4375
 4694SOL    HW225716   3.155   3.811  11.720 -0.5192  0.0544  0.1725
 4695SOL     OW25717   4.614   1.136  15.125  0.0437  0.2715  0.2272
 4695SOL    HW125718   4.646   1.104  15.040  0.3216 -1.4941  0.9976
 4695SOL    HW225719   4.520   1.130  15.106  0.5997 -0.8798 -2.2225
 4696SOL     OW25720   4.208   2.277   1.022  0.0508 -0.2615 -0.0633
 4696SOL    HW125721   4.296   2.252   1.050 -0.3615  0.0672  1.5035
 4696SOL    HW225722   4.164   2.193   1.012  2.3432 -1.2926 -1.5772
 4697SOL     OW25723   4.594   1.360   7.570 -0.6074  0.6544 -0.6190
 4697SOL    HW125724   4.645   1.433   7.535 -0.5925 -0.3772 -2.7412
 4697SOL    HW225725   4.505   1.391   7.557 -0.1599  1.9742 -0.5740
 4698SOL     OW25726   1.814   1.270  13.573  0.2705  0.1700  0.1596
 4698SOL    HW125727   1.854   1.357  13.572 -1.4362  0.9246 -1.1772
 4698SOL    HW225728   1.884   1.229  13.626  0.1602 -0.6234 -0.3070
 4699SOL     OW25729   0.193   0.561  12.199 -0.4654  0.4530  0.0648
 4699SOL    HW125730   0.227   0.627  12.139  1.2812  0.1876  0.7613
 4699SOL    HW225731   0.131   0.607  12.256 -1.7697  2.4018 -2.9368
 4700SOL     OW25732   3.736   2.449   2.253  0.2574  0.4279 -0.1601
 4700SOL    HW125733   3.776   2.418   2.334 -0.0992  0.2793 -0.0399
 4700SOL    HW225734   3.808   2.442   2.191 -1.3888  0.0986 -2.0181
 4701SOL     OW25735   1.754   0.414  10.288 -0.2165 -0.3947 -0.7778
 4701SOL    HW125736   1.815   0.343  10.268 -0.4132 -0.3520 -1.5540
 4701SOL    HW225737   1.797   0.485  10.240  0.2001 -0.1827 -0.0925
 4702SOL     OW25738   0.954   3.318  12.953  0.2319  0.6309 -0.0412
 4702SOL    HW125739   1.047   3.303  12.966  0.8861  3.9167 -0.9746
 4702SOL    HW225740   0.924   3.229  12.971  0.4098  0.7559  0.8568
 4703SOL     OW25741   2.230   0.903   7.111  0.1511  0.2122 -0.3084
 4703SOL    HW125742   2.157   0.889   7.172  0.9152  2.2600  1.0822
 4703SOL    HW225743   2.305   0.874   7.164 -0.3929 -0.2189  0.2243
 4704SOL     OW25744   1.229   3.819  12.733  0.5697 -0.1583 -0.5976
 4704SOL    HW125745   1.174   3.860  12.799  0.7060  0.5690 -0.9347
 4704SOL    HW225746   1.242   3.889  12.669  0.6235  0.4532  0.0828
 4705SOL     OW25747   3.011   1.199   4.944  0.2306  0.1760  0.1907
 4705SOL    HW125748   2.978   1.266   5.005 -1.7596  0.3747 -1.0942
 4705SOL    HW225749   3.062   1.260   4.891  2.8728 -1.3369  1.0007
 4706SOL     OW25750   2.901   1.879   3.737  0.2455  0.0609  0.3519
 4706SOL    HW125751   2.838   1.809   3.753 -0.5173  0.0552 -2.8180
 4706SOL    HW225752   2.971   1.858   3.799  0.6352 -0.8665 -0.4085
 4707SOL     OW25753   1.010   4.293   2.660  0.0960 -0.2557  0.2518
 4707SOL    HW125754   0.930   4.318   2.708  0.3448  1.0242 -0.0024
 4707SOL    HW225755   0.991   4.314   2.568  1.9143  2.1726  0.4238
 4708SOL     OW25756   1.538   4.411   1.849 -0.0027  0.0098 -0.5230
 4708SOL    HW125757   1.504   4.482   1.794  0.3026  0.5743  0.0093
 4708SOL    HW225758   1.577   4.353   1.784  0.7200  0.3637 -0.4104
 4709SOL     OW25759   0.513   2.680   6.440  0.1115 -0.2340  0.1897
 4709SOL    HW125760   0.504   2.661   6.346 -0.9997 -0.3557  0.3265
 4709SOL    HW225761   0.486   2.771   6.433  1.0042 -0.0794 -1.4323
 4710SOL     OW25762   0.388   0.422   3.158 -0.2098 -0.4467  0.0925
 4710SOL    HW125763   0.366   0.332   3.183 -2.0919 -0.1535 -0.5960
 4710SOL    HW225764   0.471   0.411   3.112  0.0668  1.0177  0.2346
 4711SOL     OW25765   3.757   2.495   8.712  0.4668  0.9436 -0.4432
 4711SOL    HW125766   3.847   2.469   8.693  0.0024 -2.8330  2.3828
 4711SOL    HW225767   3.767   2.552   8.789  0.0148 -1.5419  1.4771
 4712SOL     OW25768   0.692   1.819  14.100 -0.2582 -0.2524 -0.2963
 4712SOL    HW125769   0.710   1.905  14.062 -3.0110  0.3578 -0.1829
 4712SOL    HW225770   0.770   1.781  14.060  0.8566  1.7566 -0.0482
 4713SOL     OW25771   1.505   0.101  10.622  0.5681  0.2549  0.2575
 4713SOL    HW125772   1.444   0.170  10.647 -0.3397 -0.7220  0.7210
 4713SOL    HW225773   1.548   0.152  10.553 -2.2644  0.1955 -1.5483
 4714SOL     OW25774   3.527   3.699   0.834 -0.2763  0.0222 -0.4161
 4714SOL    HW125775   3.494   3.713   0.923 -0.3027  1.8224 -0.7181
 4714SOL    HW225776   3.609   3.744   0.852  0.0874 -1.4585  1.6012
 4715SOL     OW25777   4.717   1.177   7.170 -0.0126  0.6658 -0.6169
 4715SOL    HW125778   4.714   1.264   7.130  3.1880  1.1847  0.2642
 4715SOL    HW225779   4.627   1.174   7.202  0.2735  0.6022  0.1918
 4716SOL     OW25780   4.471   3.145   5.107  0.1147 -0.3309  0.2185
 4716SOL    HW125781   4.471   3.184   5.194 -2.3353  1.2030 -0.4596
 4716SOL    HW225782   4.396   3.086   5.111 -0.5639  0.6360  2.1100
 4717SOL     OW25783   2.490   3.518  12.388 -0.4995  0.4064 -0.1257
 4717SOL    HW125784   2.417   3.482  12.337  0.0269  0.1498 -0.6925
 4717SOL    HW225785   2.564   3.465  12.358 -0.8547 -0.3429  0.3168
 4718SOL     OW25786   4.188   4.447   6.861 -0.3807  0.5396  0.6363
 4718SOL    HW125787   4.227   4.516   6.808  0.7405  1.0129  2.0683
 4718SOL    HW225788   4.100   4.430   6.830 -0.9854  0.4315  2.3787
 4719SOL     OW25789   0.988   3.920  12.433  0.6730  0.1999  0.0803
 4719SOL    HW125790   0.981   3.878  12.518  1.3396  0.4567  0.2620
 4719SOL    HW225791   1.004   4.012  12.454  1.9579  0.1567 -0.7170
 4720SOL     OW25792   3.723   3.987   5.312  1.1052 -0.2752  0.0390
 4720SOL    HW125793   3.704   3.966   5.220  0.2643 -0.6998  0.3160
 4720SOL    HW225794   3.639   3.970   5.354  0.4832  1.1039 -0.6716
 4721SOL     OW25795   4.718   1.069   2.981  0.4626  0.3631 -0.1115
 4721SOL    HW125796   0.010   1.031   3.063  0.7876  1.3531  0.2247
 4721SOL    HW225797   0.023   1.014   2.916 -1.9927 -2.1080  0.3256
 4722SOL     OW25798   1.671   0.643   7.219  0.3793 -0.5704 -0.8399
 4722SOL    HW125799   1.752   0.623   7.172  1.5735  0.8421  0.5695
 4722SOL    HW225800   1.646   0.728   7.183 -2.5557 -0.9388  0.3905
 4723SOL     OW25801   2.277   0.646   3.977 -0.7165  0.2052  0.2211
 4723SOL    HW125802   2.215   0.593   4.026  1.6916 -0.7164  2.3257
 4723SOL    HW225803   2.246   0.651   3.887  2.6927  0.0142 -0.9849
 4724SOL     OW25804   3.019   3.634   9.959 -0.5400  0.0610 -0.2830
 4724SOL    HW125805   3.066   3.551   9.947  1.5690  1.0780  0.8246
 4724SOL    HW225806   3.052   3.647  10.048  0.0027  0.1942 -0.5046
 4725SOL     OW25807   1.275   1.574   4.586  0.1405 -0.5883 -0.3037
 4725SOL    HW125808   1.299   1.511   4.518 -0.7916 -1.5658  0.2701
 4725SOL    HW225809   1.355   1.626   4.588  0.6501 -1.4013  0.3846
 4726SOL     OW25810   2.092   1.186   0.847  0.4577  0.2875  0.6017
 4726SOL    HW125811   2.135   1.144   0.773 -1.1300  1.2515 -0.8430
 4726SOL    HW225812   2.035   1.245   0.798  0.8359  0.0066 -0.1713
 4727SOL     OW25813   1.742   0.040   1.351  0.5017 -0.5328  0.5469
 4727SOL    HW125814   1.768   4.719   1.421 -2.2649 -0.6744  1.4701
 4727SOL    HW225815   1.815   0.043   1.289 -0.1768  1.3876 -0.1446
 4728SOL     OW25816   4.061   0.969   6.640 -0.1041 -0.0505  0.6671
 4728SOL    HW125817   4.146   1.001   6.669 -0.6493  2.3960 -0.3870
 4728SOL    HW225818   4.093   0.926   6.560 -2.0119 -2.0430  0.9839
 4729SOL     OW25819   1.296   0.289   1.865  0.5618  0.0333 -0.7804
 4729SOL    HW125820   1.264   0.338   1.790  0.6807  1.0222 -0.1797
 4729SOL    HW225821   1.366   0.350   1.887 -0.6687  1.4899 -0.9549
 4730SOL     OW25822   0.288   1.645   3.186 -0.2376 -0.2067 -0.1167
 4730SOL    HW125823   0.213   1.704   3.175  1.1344  1.3927 -0.9981
 4730SOL    HW225824   0.309   1.615   3.098  0.0509  1.0860 -0.4933
 4731SOL     OW25825   4.201   4.420   9.025  0.2802  0.1124 -0.4345
 4731SOL    HW125826   4.146   4.482   8.977 -0.7609  0.3859  1.1030
 4731SOL    HW225827   4.252   4.482   9.078  0.3881 -0.8607  0.5939
 4732SOL     OW25828   4.341   0.765  14.685  0.6805 -0.7001  0.6293
 4732SOL    HW125829   4.366   0.733  14.771 -3.2878 -2.2705  1.1683
 4732SOL    HW225830   4.386   0.849  14.673 -2.4779  0.6547 -1.8465
 4733SOL     OW25831   0.055   1.117   6.231  0.0439 -0.0712  0.0758
 4733SOL    HW125832   0.121   1.130   6.300 -0.8821 -1.9466  1.3231
 4733SOL    HW225833   0.032   1.209   6.217 -2.0380 -0.6839 -0.5229
 4734SOL     OW25834   2.162   1.298   6.966 -0.3564  0.0936  0.7607
 4734SOL    HW125835   2.172   1.370   7.028  0.8355  0.6097 -0.0272
 4734SOL    HW225836   2.073   1.269   6.988 -0.7638  0.4552 -0.4046
 4735SOL     OW25837   1.821   1.240   9.397  0.1327  0.1789 -0.0270
 4735SOL    HW125838   1.861   1.312   9.347  0.4319 -0.0658 -0.1402
 4735SOL    HW225839   1.828   1.280   9.484  0.0555  0.2237 -0.0418
 4736SOL     OW25840   1.652   2.676   2.670 -0.1964  0.0324 -0.3354
 4736SOL    HW125841   1.666   2.607   2.604 -0.6000  1.6884 -2.1319
 4736SOL    HW225842   1.706   2.630   2.734 -0.8728 -0.9845 -0.4889
 4737SOL     OW25843   3.677   2.133   4.579  0.5443 -0.7107  0.0814
 4737SOL    HW125844   3.749   2.106   4.637  0.6590  0.0707  0.3008
 4737SOL    HW225845   3.714   2.119   4.492 -0.8738 -2.8539 -0.1786
 4738SOL     OW25846   3.744   3.518  12.408  0.1421 -0.1926 -0.3542
 4738SOL    HW125847   3.832   3.485  12.390 -0.8445 -3.0433  0.1150
 4738SOL    HW225848   3.763   3.612  12.411  0.6164 -0.2969 -0.1910
 4739SOL     OW25849   4.138   2.562  12.331  0.3835  0.1236 -0.1819
 4739SOL    HW125850   4.207   2.496  12.327  1.1167  0.9113 -0.7017
 4739SOL    HW225851   4.197   2.631  12.363  1.6195 -1.5985  1.1920
 4740SOL     OW25852   4.276   0.300   8.502 -0.7903  0.3663 -0.1718
 4740SOL    HW125853   4.253   0.375   8.447  0.7486  0.0540 -1.2530
 4740SOL    HW225854   4.361   0.277   8.464 -1.3248 -1.8264 -0.0590
 4741SOL     OW25855   1.375   0.802  13.724 -0.2981  0.1181  0.3569
 4741SOL    HW125856   1.373   0.825  13.631  1.5309  1.5701  0.6818
 4741SOL    HW225857   1.397   0.890  13.755 -2.1841  1.0997 -1.0474
 4742SOL     OW25858   3.597   0.962  15.425  0.1419  0.6298  0.2589
 4742SOL    HW125859   3.566   0.885  15.379 -0.7446  1.1039  0.0743
 4742SOL    HW225860   3.668   0.933  15.483  0.9400 -1.3022 -1.6718
 4743SOL     OW25861   0.365   4.102  14.175  0.2750  0.7807 -0.0761
 4743SOL    HW125862   0.436   4.099  14.111 -0.7711 -0.9243 -1.1442
 4743SOL    HW225863   0.411   4.100  14.259  1.3253  2.8074 -0.5973
 4744SOL     OW25864   2.983   2.575   5.812 -0.7601 -0.3776  0.2040
 4744SOL    HW125865   2.966   2.548   5.722  1.0264  1.6018 -0.7298
 4744SOL    HW225866   3.075   2.547   5.814  0.7666  4.6315 -0.7218
 4745SOL     OW25867   4.096   1.643   6.924 -0.0025 -0.2380 -0.1125
 4745SOL    HW125868   4.186   1.637   6.892 -0.2483  1.2383 -1.0805
 4745SOL    HW225869   4.097   1.596   7.007 -3.7609  0.8835  0.5851
 4746SOL     OW25870   1.645   4.384   5.105 -0.2625 -0.0091 -0.0419
 4746SOL    HW125871   1.572   4.325   5.089  1.4135 -2.5680  1.7463
 4746SOL    HW225872   1.669   4.357   5.194 -1.7086  0.1046  0.3797
 4747SOL     OW25873   1.681   1.645   5.347  0.0616 -0.1634 -0.1147
 4747SOL    HW125874   1.674   1.740   5.345  1.4904 -0.0617  0.1284
 4747SOL    HW225875   1.627   1.631   5.270  1.1049  0.5731 -0.9675
 4748SOL     OW25876   1.923   0.411  14.663  0.0957 -0.0220 -0.1883
 4748SOL    HW125877   1.887   0.326  14.636 -0.0509  0.1197 -0.4342
 4748SOL    HW225878   1.880   0.417  14.748 -1.4882 -1.1780 -0.9060
 4749SOL     OW25879   3.816   2.369   6.282 -0.1471  0.2217  0.0887
 4749SOL    HW125880   3.764   2.341   6.358  0.1443 -1.2813 -0.2821
 4749SOL    HW225881   3.852   2.284   6.258  2.3564  1.6926 -1.2689
 4750SOL     OW25882   3.228   1.349   8.268  0.8226 -0.4390  0.4918
 4750SOL    HW125883   3.144   1.306   8.284 -0.6315  1.7871 -1.1089
 4750SOL    HW225884   3.190   1.437   8.257 -4.2182 -2.6099  0.3062
 4751SOL     OW25885   2.803   2.061   7.538 -0.0935 -0.0138 -0.1408
 4751SOL    HW125886   2.762   2.084   7.455 -0.8478  1.2196  0.5805
 4751SOL    HW225887   2.816   1.966   7.535  0.0046  0.0194 -0.7309
 4752SOL     OW25888   1.270   1.037   5.730  0.5530 -0.0651  0.8904
 4752SOL    HW125889   1.241   1.128   5.725  2.2182  0.3277 -1.3395
 4752SOL    HW225890   1.290   1.024   5.823 -2.3202 -2.3465  1.1647
 4753SOL     OW25891   0.871   0.543   0.329 -0.2150 -0.3474  0.3394
 4753SOL    HW125892   0.778   0.537   0.306  0.1038 -1.6896 -0.5660
 4753SOL    HW225893   0.894   0.454   0.302  4.1189  0.7909  0.2747
 4754SOL     OW25894   1.889   2.971   5.407 -0.2709 -0.2395  0.7573
 4754SOL    HW125895   1.961   3.017   5.450 -0.1039 -1.2660  1.5820
 4754SOL    HW225896   1.928   2.963   5.320 -0.5376 -1.2426  0.7253
 4755SOL     OW25897   1.078   4.035   8.742  0.2292 -0.1616 -0.2933
 4755SOL    HW125898   1.109   4.002   8.826 -1.2532  1.3241  0.8529
 4755SOL    HW225899   1.158   4.022   8.691  0.8675  2.7073 -0.0358
 4756SOL     OW25900   3.313   3.756   2.615  0.5794  0.5157  0.1567
 4756SOL    HW125901   3.404   3.730   2.634  1.0337  0.2034 -2.3903
 4756SOL    HW225902   3.324   3.824   2.548 -0.3908  0.2921 -0.2239
 4757SOL     OW25903   3.094   3.504  14.219 -0.3224 -0.1464 -0.3166
 4757SOL    HW125904   3.077   3.583  14.167 -4.2100 -0.1567  0.9311
 4757SOL    HW225905   3.005   3.474  14.237 -0.0124 -1.2626 -0.6130
 4758SOL     OW25906   4.449   2.470  12.496  0.3631 -0.3503  0.5732
 4758SOL    HW125907   4.491   2.385  12.510  2.4967  0.7976  1.1771
 4758SOL    HW225908   4.431   2.456  12.403  0.1506 -2.2773  0.9118
 4759SOL     OW25909   4.229   4.229   6.233 -0.2792  0.4389 -0.5778
 4759SOL    HW125910   4.160   4.225   6.300 -0.5954  0.1600 -0.9204
 4759SOL    HW225911   4.302   4.198   6.288 -0.4557  3.2077  1.2134
 4760SOL     OW25912   4.142   2.688   5.324  0.0443 -0.0616 -0.4184
 4760SOL    HW125913   4.076   2.757   5.310 -0.5706 -0.4568  0.5103
 4760SOL    HW225914   4.091   2.608   5.336  0.4155 -0.1255  0.7265
 4761SOL     OW25915   1.643   1.892   7.350  0.2971 -0.2498 -0.4244
 4761SOL    HW125916   1.664   1.985   7.340 -1.4599  0.2216  0.2147
 4761SOL    HW225917   1.677   1.868   7.264  0.1540  0.4939 -0.6856
 4762SOL     OW25918   1.682   1.131   7.701 -0.9584 -0.0247  0.1729
 4762SOL    HW125919   1.757   1.169   7.746 -1.4727  0.6407  0.4768
 4762SOL    HW225920   1.647   1.082   7.776 -1.9716 -0.4918 -0.6051
 4763SOL     OW25921   3.062   3.722  11.984  0.1824 -0.1855  0.1964
 4763SOL    HW125922   3.128   3.738  11.917  2.0400  1.2832  2.3778
 4763SOL    HW225923   2.985   3.719  11.928  1.9686 -2.0879 -2.1491
 4764SOL     OW25924   3.099   1.759  11.120  0.1125 -0.4813 -0.3492
 4764SOL    HW125925   3.136   1.846  11.131  2.1297 -1.3323 -0.3925
 4764SOL    HW225926   3.047   1.779  11.042 -1.8188 -1.0106  0.8033
 4765SOL     OW25927   3.704   1.194  12.174 -0.1994  0.4027 -0.8272
 4765SOL    HW125928   3.691   1.167  12.265 -2.7769  1.3772 -0.9091
 4765SOL    HW225929   3.694   1.108  12.134 -0.4181 -0.2022  0.5129
 4766SOL     OW25930   0.307   1.557   3.858  0.0306  0.6230  0.7842
 4766SOL    HW125931   0.254   1.478   3.872 -0.8964  1.5091  2.3463
 4766SOL    HW225932   0.357   1.532   3.781  1.4893  1.4131  1.4782
 4767SOL     OW25933   1.183   0.244  10.307 -0.2152  0.0594 -0.4031
 4767SOL    HW125934   1.141   0.158  10.306 -0.2375  0.0740 -0.8230
 4767SOL    HW225935   1.146   0.298  10.237 -0.7996  1.2982  0.8692
 4768SOL     OW25936   3.755   1.507   9.742 -0.2412  0.6444 -0.0478
 4768SOL    HW125937   3.665   1.484   9.719  0.7937 -1.2099 -2.1998
 4768SOL    HW225938   3.783   1.566   9.673  0.5106  0.3513  0.0130
 4769SOL     OW25939   3.083   4.428  17.155 -0.2290  0.1263  0.1523
 4769SOL    HW125940   3.136   4.436  17.234 -0.0852  3.9223 -0.3763
 4769SOL    HW225941   3.134   4.472  17.088 -0.2684 -2.0392 -1.3062
 4770SOL     OW25942   1.170   3.954   7.469  0.0324 -0.6709 -0.0309
 4770SOL    HW125943   1.121   3.997   7.398 -1.9050 -0.2734  1.5352
 4770SOL    HW225944   1.193   4.032   7.520  0.9634  0.5909 -2.3754
 4771SOL     OW25945   3.910   2.194   8.838  0.2302  0.9125 -0.7879
 4771SOL    HW125946   3.911   2.161   8.928  0.0193  0.4965 -0.9359
 4771SOL    HW225947   3.972   2.265   8.853 -0.0379  1.6416 -3.1928
 4772SOL     OW25948   3.698   4.069   3.362  0.3318  0.4996  0.0178
 4772SOL    HW125949   3.694   4.156   3.400  3.4345 -0.4399  2.5445
 4772SOL    HW225950   3.750   4.033   3.434  0.8967  0.8575 -0.2030
 4773SOL     OW25951   0.913   2.281   6.322 -0.2438  0.4437 -0.0494
 4773SOL    HW125952   0.850   2.282   6.250  0.8701 -0.6550 -1.0503
 4773SOL    HW225953   0.849   2.280   6.392 -0.0763 -0.1613  0.0923
 4774SOL     OW25954   1.847   0.170   8.068  0.0256  0.6393  0.1752
 4774SOL    HW125955   1.850   0.105   8.138 -2.1440 -0.6364 -0.9006
 4774SOL    HW225956   1.846   0.247   8.124  3.0324  0.5907  0.2768
 4775SOL     OW25957   1.168   4.450  14.380  0.1556  0.1520 -0.6568
 4775SOL    HW125958   1.223   4.463  14.303 -0.1077 -1.9679 -1.2241
 4775SOL    HW225959   1.087   4.478  14.336 -0.1780 -1.7329 -1.2724
 4776SOL     OW25960   2.542   1.563   6.530 -0.0159 -0.0716 -0.0424
 4776SOL    HW125961   2.456   1.571   6.488 -0.6359 -2.6948  0.7276
 4776SOL    HW225962   2.588   1.565   6.446  0.7202 -2.8024  0.2999
 4777SOL     OW25963   3.836   3.523   7.811 -0.0719 -0.3612 -0.0660
 4777SOL    HW125964   3.889   3.472   7.751 -0.8767 -0.4077 -0.7373
 4777SOL    HW225965   3.753   3.477   7.803 -0.8491  1.1837 -0.8343
 4778SOL     OW25966   4.504   1.167  15.965  0.1416  0.0816 -0.4435
 4778SOL    HW125967   4.566   1.237  15.986  0.5907  0.6155 -3.5815
 4778SOL    HW225968   4.488   1.178  15.871 -1.3076 -0.0188 -0.1980
 4779SOL     OW25969   1.095   0.341   6.409 -0.5189  0.2244 -0.1000
 4779SOL    HW125970   1.012   0.294   6.418  0.4807 -1.5892 -0.2933
 4779SOL    HW225971   1.077   0.424   6.453  0.7921 -0.2547  1.3344
 4780SOL     OW25972   3.341   0.265  10.088  0.2801 -0.8360  0.0288
 4780SOL    HW125973   3.287   0.210  10.144  0.9973  0.6097  2.1487
 4780SOL    HW225974   3.349   0.212  10.009  1.0691 -0.9321  0.1722
 4781SOL     OW25975   2.616   3.048  17.055 -0.0221 -0.2639  0.3445
 4781SOL    HW125976   2.615   3.137  17.089  1.3882 -0.9242  2.1458
 4781SOL    HW225977   2.540   3.004  17.093 -0.5682 -0.0246 -0.4870
 4782SOL     OW25978   3.088   1.647   6.479 -0.1780 -0.3163 -0.1522
 4782SOL    HW125979   3.152   1.714   6.454  0.4877 -0.5159  0.9764
 4782SOL    HW225980   3.024   1.695   6.532  0.8344  2.2217 -1.2042
 4783SOL     OW25981   2.494   2.132   5.477 -0.4739  0.0119 -0.4991
 4783SOL    HW125982   2.534   2.077   5.544 -1.0956 -0.3400 -0.4230
 4783SOL    HW225983   2.535   2.215   5.501 -1.3251  0.1343  0.5184
 4784SOL     OW25984   1.136   2.250   5.095 -0.3460 -0.7095 -0.5164
 4784SOL    HW125985   1.048   2.280   5.074 -0.6691  0.2897  2.3035
 4784SOL    HW225986   1.193   2.322   5.066  1.2388 -1.1839  1.4220
 4785SOL     OW25987   2.077   2.924  11.302  0.0302  0.3811  0.4355
 4785SOL    HW125988   2.007   2.942  11.239  0.5137  2.0088  0.3605
 4785SOL    HW225989   2.028   2.877  11.369  1.3431  0.2662  1.3016
 4786SOL     OW25990   4.096   0.927   7.890 -0.1934 -0.3621  0.3610
 4786SOL    HW125991   4.072   0.835   7.885 -3.6617  0.6445 -2.0012
 4786SOL    HW225992   4.155   0.931   7.815 -1.4346 -1.6280 -0.7023
 4787SOL     OW25993   1.285   3.564  12.521 -0.1580  0.8233 -0.0307
 4787SOL    HW125994   1.203   3.522  12.548 -0.2728  0.9127 -0.2459
 4787SOL    HW225995   1.248   3.628  12.461 -0.0386  0.0204 -0.9674
 4788SOL     OW25996   4.556   1.901  17.563 -0.2123 -0.2050  0.2861
 4788SOL    HW125997   4.637   1.900  17.512  1.0103 -0.3418  2.2330
 4788SOL    HW225998   4.496   1.954  17.510 -1.5170 -0.0872  1.9130
 4789SOL     OW25999   3.986   1.641   5.538  0.8201  0.2676 -0.7224
 4789SOL    HW126000   4.020   1.607   5.455 -1.0661 -1.4071 -0.8061
 4789SOL    HW226001   3.902   1.598   5.554  0.6723  1.3196  1.2941
 4790SOL     OW26002   2.807   1.598   2.994 -0.7977 -0.1688 -0.3717
 4790SOL    HW126003   2.830   1.667   3.056 -1.7879  0.1985 -0.4033
 4790SOL    HW226004   2.745   1.640   2.934 -0.2952  0.4426 -0.4596
 4791SOL     OW26005   1.188   2.046   2.938  0.2135 -0.5081 -0.0671
 4791SOL    HW126006   1.233   2.130   2.945 -3.0201  1.2723 -0.8148
 4791SOL    HW226007   1.104   2.074   2.973 -0.4233 -0.6034 -1.5456
 4792SOL     OW26008   2.051   3.463   4.944  0.1093  0.6299 -0.6545
 4792SOL    HW126009   1.956   3.467   4.949  0.2475  2.0168  0.8210
 4792SOL    HW226010   2.065   3.411   4.865  1.2095 -2.4825  1.5984
 4793SOL     OW26011   1.593   1.429  17.658 -0.8332 -0.2026  0.2328
 4793SOL    HW126012   1.604   1.355  17.598  0.8529 -0.3219  0.6960
 4793SOL    HW226013   1.501   1.447  17.640 -0.3000  1.1747 -1.1602
 4794SOL     OW26014   2.558   0.358   5.284  0.0871 -0.2500  0.1823
 4794SOL    HW126015   2.511   0.397   5.211  0.3362  1.4197  0.9195
 4794SOL    HW226016   2.646   0.359   5.246 -0.2958  5.4995 -0.5795
 4795SOL     OW26017   1.058   3.315   0.435 -0.6097  0.4603  0.2481
 4795SOL    HW126018   1.047   3.257   0.511  0.1231 -2.4329 -1.8776
 4795SOL    HW226019   0.970   3.353   0.435 -0.8416 -0.1030 -0.4929
 4796SOL     OW26020   1.310   4.364  16.815  0.0533  0.9072  0.2437
 4796SOL    HW126021   1.394   4.394  16.852  0.2267 -0.6804  1.1480
 4796SOL    HW226022   1.341   4.302  16.749  0.0117  0.9702  0.1656
 4797SOL     OW26023   1.471   0.717  10.524 -0.0761 -0.0203 -0.8443
 4797SOL    HW126024   1.565   0.728  10.506 -0.0011  1.2074  0.2904
 4797SOL    HW226025   1.454   0.800  10.569 -2.2893 -1.2871  0.6318
 4798SOL     OW26026   4.559   3.031  14.281  0.2701 -0.1082 -0.3389
 4798SOL    HW126027   4.532   3.067  14.365  3.4049  1.4408  0.0159
 4798SOL    HW226028   4.553   2.937  14.301 -4.7688 -0.3345 -2.9678
 4799SOL     OW26029   1.607   2.706   7.561  0.1150  0.2964 -0.0113
 4799SOL    HW126030   1.631   2.747   7.478  0.5525 -1.1727 -0.6137
 4799SOL    HW226031   1.528   2.663   7.528 -0.6874 -0.1456  2.4946
 4800SOL     OW26032   3.579   2.464   4.384  0.0833  0.0826  0.0815
 4800SOL    HW126033   3.594   2.418   4.466 -0.0094 -1.1956 -0.6289
 4800SOL    HW226034   3.550   2.549   4.418 -4.2186 -0.5747 -1.8975
 4801SOL     OW26035   1.106   3.599   8.210 -0.0011  0.2500  0.3690
 4801SOL    HW126036   1.133   3.621   8.299 -0.6149  0.5054  0.4934
 4801SOL    HW226037   1.047   3.673   8.197 -0.1012  0.2804  0.9802
 4802SOL     OW26038   4.298   4.052  10.031 -0.2938 -0.3748  0.6589
 4802SOL    HW126039   4.217   4.041  10.080 -0.5864 -1.8055 -0.1634
 4802SOL    HW226040   4.302   4.148  10.023 -0.8868 -0.5124 -1.2815
 4803SOL     OW26041   1.942   3.809  11.008 -0.7959 -0.2920 -0.2277
 4803SOL    HW126042   1.913   3.900  10.996  0.4843 -0.0181 -1.2688
 4803SOL    HW226043   1.967   3.793  10.917  1.4242 -0.6289  0.4426
 4804SOL     OW26044   3.826   0.563   8.249  0.2370 -0.2102 -0.0032
 4804SOL    HW126045   3.913   0.525   8.235  0.1895  0.2164 -1.4354
 4804SOL    HW226046   3.797   0.519   8.329 -0.8339 -0.4846 -0.5494
 4805SOL     OW26047   4.471   2.584  14.862 -0.3841 -0.8064 -0.3792
 4805SOL    HW126048   4.433   2.538  14.787  0.1566 -0.7784 -0.6753
 4805SOL    HW226049   4.540   2.525  14.892  1.2703  3.1402  3.3550
 4806SOL     OW26050   1.806   3.720   8.309  0.0196 -0.2050 -0.3461
 4806SOL    HW126051   1.785   3.792   8.249 -2.5277  1.0656  2.1092
 4806SOL    HW226052   1.851   3.770   8.376  1.4591 -0.2313 -1.2809
 4807SOL     OW26053   1.928   2.881   7.119 -0.1683  0.1733 -0.1025
 4807SOL    HW126054   1.837   2.889   7.147  0.4814 -1.2972  2.3798
 4807SOL    HW226055   1.979   2.896   7.198 -0.3415  1.4863 -0.2252
 4808SOL     OW26056   4.626   3.951  10.860 -0.1756  0.0993 -0.0581
 4808SOL    HW126057   4.604   4.005  10.784  1.2517  0.8782  0.0913
 4808SOL    HW226058   4.671   4.017  10.912  2.5758 -0.7995 -1.2746
 4809SOL     OW26059   3.318   3.238   4.487  0.1350 -0.1169 -0.0316
 4809SOL    HW126060   3.331   3.319   4.537 -1.1669 -0.9021  1.5948
 4809SOL    HW226061   3.271   3.270   4.410  0.7270  0.3517 -0.1917
 4810SOL     OW26062   0.981   0.862   0.948  0.5323 -0.1644  0.0737
 4810SOL    HW126063   1.007   0.771   0.932  1.3105 -0.2166  1.6591
 4810SOL    HW226064   1.060   0.912   0.927 -0.2358  0.6675 -0.8358
 4811SOL     OW26065   4.709   0.787   1.334 -0.3261 -0.1991 -0.2737
 4811SOL    HW126066   0.055   0.830   1.346  0.6419 -0.7813 -4.9815
 4811SOL    HW226067   4.651   0.861   1.351 -1.5727 -0.8366 -1.7105
 4812SOL     OW26068   1.798   0.784   8.047 -0.0734  0.2279 -0.0081
 4812SOL    HW126069   1.828   0.825   7.966 -0.5933 -3.4610 -2.0727
 4812SOL    HW226070   1.778   0.701   8.005  0.1679 -0.4136  1.1231
 4813SOL     OW26071   3.730   4.304   2.389 -0.0975 -0.3562 -0.3249
 4813SOL    HW126072   3.702   4.212   2.386 -0.0607 -0.3592 -0.6082
 4813SOL    HW226073   3.822   4.286   2.410  0.0082  1.7548  1.0527
 4814SOL     OW26074   4.011   0.490   3.335  0.5727 -0.6010  0.4155
 4814SOL    HW126075   4.075   0.456   3.398  0.8365 -0.7097  0.0896
 4814SOL    HW226076   4.047   0.488   3.246 -1.2203  0.0411 -0.3325
 4815SOL     OW26077   4.145   1.372   5.006  0.0858  0.4074 -0.3018
 4815SOL    HW126078   4.087   1.325   5.066 -0.4828  3.0631  1.2430
 4815SOL    HW226079   4.101   1.352   4.923  0.2003  0.8463 -0.4666
 4816SOL     OW26080   0.393   2.318  12.973 -0.1782 -0.8810 -0.4577
 4816SOL    HW126081   0.425   2.315  12.882  0.6239  1.5452 -0.2303
 4816SOL    HW226082   0.346   2.401  12.969 -1.4176 -1.6071 -1.1733
 4817SOL     OW26083   0.534   2.377   3.448 -0.3767 -0.1868  0.8384
 4817SOL    HW126084   0.563   2.389   3.357 -1.9772 -1.0978  0.2019
 4817SOL    HW226085   0.621   2.370   3.488 -0.7429  1.0551  1.8469
 4818SOL     OW26086   0.940   2.812   6.920  0.1647 -0.4753  0.0147
 4818SOL    HW126087   0.865   2.784   6.867 -1.2475  1.4688  0.9699
 4818SOL    HW226088   0.990   2.731   6.929 -0.7442 -0.9984  0.4345
 4819SOL     OW26089   3.464   1.732   9.659 -0.1180 -0.1381  0.1058
 4819SOL    HW126090   3.410   1.803   9.695  0.3572  0.2167  0.1102
 4819SOL    HW226091   3.504   1.689   9.735  2.0859  1.4711 -0.1518
 4820SOL     OW26092   0.488   3.227   7.642 -0.0444  0.4518 -0.9418
 4820SOL    HW126093   0.436   3.293   7.597 -1.4676 -2.1277 -3.0478
 4820SOL    HW226094   0.483   3.257   7.733 -2.6392 -0.1206 -0.9015
 4821SOL     OW26095   3.368   3.934  17.748 -0.1558 -0.0973 -0.6981
 4821SOL    HW126096   3.404   3.927  17.660  0.0054 -0.2605 -0.6195
 4821SOL    HW226097   3.314   3.855  17.745  0.7033 -0.7282  0.5171
 4822SOL     OW26098   1.456   1.067  15.242 -0.1825 -0.3544  0.0100
 4822SOL    HW126099   1.546   1.100  15.247  0.0829 -0.9606 -0.8905
 4822SOL    HW226100   1.430   1.069  15.334  2.8010  2.6997  0.8282
 4823SOL     OW26101   3.503   2.789   8.120  0.6379  0.0146  0.3502
 4823SOL    HW126102   3.502   2.694   8.131 -2.4274 -0.1127 -0.9847
 4823SOL    HW226103   3.416   2.813   8.089  0.9436  1.5277  0.6930
 4824SOL     OW26104   0.862   4.301  12.885  0.3707  0.3274  0.1063
 4824SOL    HW126105   0.824   4.369  12.940  0.0535  0.0437  0.2412
 4824SOL    HW226106   0.941   4.276  12.932  0.4301  0.0651 -0.1329
 4825SOL     OW26107   4.175   0.901   5.056  0.2495 -0.1527 -0.3817
 4825SOL    HW126108   4.265   0.932   5.048 -0.1262  1.2897  0.9436
 4825SOL    HW226109   4.158   0.880   4.965 -1.0172 -1.7435  0.2153
 4826SOL     OW26110   0.754   1.152  12.007 -0.2705 -0.0230  0.0420
 4826SOL    HW126111   0.846   1.158  12.032  0.6724 -1.2375 -3.1568
 4826SOL    HW226112   0.737   1.244  11.987 -1.6562 -0.2812  0.0360
 4827SOL     OW26113   4.262   2.870   8.428  0.2092 -0.5485 -0.2776
 4827SOL    HW126114   4.268   2.935   8.358  0.0589 -0.1557  0.0680
 4827SOL    HW226115   4.204   2.804   8.393 -1.1663  1.4756 -1.7810
 4828SOL     OW26116   1.076   1.892  17.528  0.2582  0.1225 -0.2996
 4828SOL    HW126117   1.132   1.953  17.480  2.4329 -1.4867  0.2102
 4828SOL    HW226118   1.001   1.947  17.552 -0.7162 -0.7956 -1.2532
 4829SOL     OW26119   3.835   2.263   0.467  0.6639  0.2388 -0.6262
 4829SOL    HW126120   3.774   2.190   0.471  0.2878  0.5533 -0.6433
 4829SOL    HW226121   3.789   2.310   0.536 -0.4776 -0.8619 -0.6404
 4830SOL     OW26122   1.915   2.851   9.932  0.2891 -1.1372 -0.0760
 4830SOL    HW126123   1.848   2.868   9.999  0.9163 -1.7474  0.7109
 4830SOL    HW226124   1.996   2.848   9.984  0.9377 -0.1622 -1.0431
 4831SOL     OW26125   4.016   1.485   7.144  0.6077 -0.1121 -0.2775
 4831SOL    HW126126   4.022   1.395   7.177 -0.9768  0.1785  0.8285
 4831SOL    HW226127   3.933   1.477   7.097  0.9082  1.4227 -1.0688
 4832SOL     OW26128   4.671   2.427   2.297 -0.2829  0.1054  0.1539
 4832SOL    HW126129   4.673   2.337   2.330 -1.0997 -0.5185 -1.5109
 4832SOL    HW226130   4.707   2.479   2.369 -2.1242 -1.5574  2.2978
 4833SOL     OW26131   2.037   3.807   7.381  0.0322 -0.1599 -0.3361
 4833SOL    HW126132   2.039   3.811   7.285  3.5573  0.1697 -0.2455
 4833SOL    HW226133   1.978   3.732   7.387 -2.1336  1.5250 -0.4878
 4834SOL     OW26134   3.512   4.592  16.719  0.2965  0.2827  0.7346
 4834SOL    HW126135   3.473   4.623  16.637 -0.8101 -1.3992  0.6331
 4834SOL    HW226136   3.594   4.556  16.685 -0.7046 -0.5778 -0.7720
 4835SOL     OW26137   3.451   0.677  15.626  0.6363 -0.8682 -0.5064
 4835SOL    HW126138   3.449   0.693  15.532 -0.2526  0.4835 -0.2616
 4835SOL    HW226139   3.541   0.704  15.641  0.9165 -0.8982 -2.1751
 4836SOL     OW26140   1.737   2.644   0.614 -0.2644  0.2426  0.4380
 4836SOL    HW126141   1.713   2.582   0.683 -1.2350  0.8430  0.6437
 4836SOL    HW226142   1.663   2.635   0.554  1.4903 -0.3751 -1.6053
 4837SOL     OW26143   1.456   1.674   4.402 -0.3219 -0.0999  0.0085
 4837SOL    HW126144   1.475   1.761   4.367 -3.4039  0.2578 -0.7513
 4837SOL    HW226145   1.400   1.638   4.334 -2.6614 -0.6959  2.2353
 4838SOL     OW26146   4.408   0.746   9.343 -0.5284  0.0400  0.4056
 4838SOL    HW126147   4.382   0.685   9.275 -2.2662  1.3106 -0.0646
 4838SOL    HW226148   4.464   0.694   9.401 -0.4836 -0.3178  0.0445
 4839SOL     OW26149   4.449   4.209   8.474  0.2168  0.1268  0.0071
 4839SOL    HW126150   4.444   4.299   8.507  0.2649 -0.2710  1.1157
 4839SOL    HW226151   4.537   4.176   8.490  0.7464  0.3282 -2.5129
 4840SOL     OW26152   2.611   3.790   6.081  0.9872 -0.8871 -0.5260
 4840SOL    HW126153   2.597   3.879   6.051  2.8387 -0.1178  0.8898
 4840SOL    HW226154   2.525   3.748   6.075  0.7478 -0.5790  0.7383
 4841SOL     OW26155   3.264   3.362   3.580 -0.6182  0.1500 -0.3402
 4841SOL    HW126156   3.307   3.354   3.494 -1.2674  1.3440 -0.7795
 4841SOL    HW226157   3.280   3.454   3.603 -0.4061 -0.0749  0.3907
 4842SOL     OW26158   0.675   3.142   2.958 -0.4767 -0.5166  0.3228
 4842SOL    HW126159   0.725   3.094   3.024  0.9237 -0.0805 -0.4272
 4842SOL    HW226160   0.717   3.114   2.876 -0.3015  1.4470 -0.2404
 4843SOL     OW26161   2.000   2.009   5.379  0.1000  0.7784 -0.4203
 4843SOL    HW126162   2.032   1.926   5.415 -2.4373 -0.4652 -1.0389
 4843SOL    HW226163   2.003   2.063   5.458 -0.3306 -2.0630  1.5439
 4844SOL     OW26164   1.496   4.271   7.882  0.1729 -0.4423 -0.4000
 4844SOL    HW126165   1.537   4.356   7.895 -1.6165  0.8598 -3.4006
 4844SOL    HW226166   1.510   4.241   7.792  0.3850 -1.3903 -0.0602
 4845SOL     OW26167   0.994   3.242   1.566  0.1134  0.4310  0.3957
 4845SOL    HW126168   1.016   3.288   1.647 -3.3990 -1.9418  2.6763
 4845SOL    HW226169   0.983   3.151   1.591 -1.9104  1.3959  2.9025
 4846SOL     OW26170   2.171   1.105   0.585 -0.1087 -0.1403 -0.1732
 4846SOL    HW126171   2.081   1.092   0.554 -0.2938  1.5097 -0.3287
 4846SOL    HW226172   2.223   1.070   0.513  0.4687  1.8766 -0.7620
 4847SOL     OW26173   1.379   4.138   1.746  0.2838  1.0085  0.3583
 4847SOL    HW126174   1.311   4.074   1.765 -0.1301  0.8696 -1.6248
 4847SOL    HW226175   1.422   4.129   1.832 -1.7574  1.1045  1.3886
 4848SOL     OW26176   2.530   0.979   2.024  0.2119 -0.6425  0.1256
 4848SOL    HW126177   2.562   1.056   1.977  0.9740 -0.3571  1.1030
 4848SOL    HW226178   2.500   1.010   2.109 -1.5680  0.4466 -0.8988
 4849SOL     OW26179   0.784   0.133   9.361  0.0529  0.1527  0.3022
 4849SOL    HW126180   0.831   0.172   9.435  1.1144 -0.6962  0.0695
 4849SOL    HW226181   0.771   0.041   9.382 -1.9351  0.1087 -1.1077
 4850SOL     OW26182   2.110   2.018   3.225 -0.0479  0.0263  0.2295
 4850SOL    HW126183   2.156   2.035   3.143  2.1414  0.5695  1.5517
 4850SOL    HW226184   2.021   2.032   3.195 -0.8274 -2.3864  1.4228
 4851SOL     OW26185   1.223   0.385   3.168  0.0641  0.0386 -0.4051
 4851SOL    HW126186   1.217   0.290   3.180  1.5377  0.2078  1.4999
 4851SOL    HW226187   1.287   0.387   3.097  2.7604  0.0629  2.0468
 4852SOL     OW26188   0.084   0.486   9.851 -0.5441 -0.3019  0.2922
 4852SOL    HW126189   0.128   0.410   9.812  0.8670  0.8742 -0.3865
 4852SOL    HW226190   0.087   0.456   9.942  3.6855 -0.6389  0.0507
 4853SOL     OW26191   0.672   1.828   3.742 -0.0352 -0.6142  0.5477
 4853SOL    HW126192   0.608   1.857   3.808 -0.7996  1.4224 -1.0840
 4853SOL    HW226193   0.666   1.733   3.731 -0.7167 -0.2149 -2.4225
 4854SOL     OW26194   2.879   3.978  10.357 -0.0297  0.6101  0.2386
 4854SOL    HW126195   2.893   4.017  10.443 -2.6219 -1.8090  1.7484
 4854SOL    HW226196   2.784   3.981  10.349 -0.0060 -2.3960 -1.0164
 4855SOL     OW26197   0.747   2.339   1.812  0.1214 -0.4177  0.0937
 4855SOL    HW126198   0.814   2.386   1.762  1.4153 -2.6490 -0.2399
 4855SOL    HW226199   0.673   2.353   1.753 -1.5104 -0.7649  2.0395
 4856SOL     OW26200   3.162   3.143  10.992 -0.1616  0.2974 -0.6665
 4856SOL    HW126201   3.099   3.184  11.052 -0.1468  0.0952 -0.5141
 4856SOL    HW226202   3.130   3.052  10.990 -2.0708  0.9419  0.2891
 4857SOL     OW26203   4.265   2.810  12.391  0.0527  0.7726 -0.7048
 4857SOL    HW126204   4.233   2.881  12.336 -4.4531 -0.5953  0.2023
 4857SOL    HW226205   4.351   2.843  12.419  0.4457 -0.4133 -0.5023
 4858SOL     OW26206   1.872   1.673   2.132 -0.3857 -0.4124 -0.1105
 4858SOL    HW126207   1.839   1.583   2.127 -1.8627  0.0467  1.3619
 4858SOL    HW226208   1.961   1.661   2.100 -0.5616 -2.0552  0.0068
 4859SOL     OW26209   1.986   3.205   5.834  0.7147  0.4092  0.0068
 4859SOL    HW126210   1.915   3.221   5.896  0.5350 -0.3415 -0.0020
 4859SOL    HW226211   2.050   3.272   5.855 -0.0396  0.2124  2.9279
 4860SOL     OW26212   0.112   0.594   2.546 -0.0038  0.4188  0.2750
 4860SOL    HW126213   0.109   0.683   2.511  1.0956 -0.6499 -2.5632
 4860SOL    HW226214   0.065   0.610   2.628  0.9405  0.6071  0.7868
 4861SOL     OW26215   4.108   4.671   2.080 -0.6255  0.0867 -0.1018
 4861SOL    HW126216   4.119   4.585   2.121  1.0308  1.2842  1.9392
 4861SOL    HW226217   4.103   4.659   1.985  1.1118 -1.4073 -0.0068
 4862SOL     OW26218   3.016   1.453   2.866 -0.0479 -0.0266  0.4723
 4862SOL    HW126219   2.933   1.492   2.839 -0.1769 -1.2322 -0.9307
 4862SOL    HW226220   3.030   1.487   2.954 -1.1359  1.8787 -0.0928
 4863SOL     OW26221   3.586   2.567   6.266 -0.0208 -0.6776  0.1946
 4863SOL    HW126222   3.563   2.476   6.243  0.6774 -0.5816 -0.8866
 4863SOL    HW226223   3.647   2.547   6.337  1.4710  0.1283 -0.8731
 4864SOL     OW26224   0.447   0.943   4.762  0.7404  0.1953  0.1966
 4864SOL    HW126225   0.412   0.873   4.817  1.2471 -0.9600 -0.9662
 4864SOL    HW226226   0.381   1.013   4.760  0.3676 -0.1599  0.2425
 4865SOL     OW26227   3.780   2.670   5.025 -0.0626  0.2241 -0.6964
 4865SOL    HW126228   3.856   2.611   5.026 -1.6663 -1.8270  1.6522
 4865SOL    HW226229   3.747   2.674   5.114  0.3452  2.4176 -0.6654
 4866SOL     OW26230   4.119   0.581  11.388 -0.0701  0.1221  0.0601
 4866SOL    HW126231   4.121   0.557  11.296  1.8817  0.8405 -0.0815
 4866SOL    HW226232   4.205   0.622  11.399 -0.2567  0.3420  0.7258
 4867SOL     OW26233   1.330   1.938   0.333  0.6862  0.0024 -0.2562
 4867SOL    HW126234   1.340   1.843   0.326  0.9579  0.0712 -0.7614
 4867SOL    HW226235   1.256   1.943   0.394 -1.6926 -0.7205 -3.0724
 4868SOL     OW26236   2.633   0.854   8.162 -0.5400  0.0534  0.4091
 4868SOL    HW126237   2.557   0.822   8.212 -0.3038 -1.0592  0.0655
 4868SOL    HW226238   2.586   0.913   8.103  1.8335  2.4632  0.9565
 4869SOL     OW26239   1.707   3.650   8.896 -0.3477 -0.2308 -0.3535
 4869SOL    HW126240   1.800   3.641   8.872 -0.4457 -1.1168 -0.4212
 4869SOL    HW226241   1.711   3.608   8.982  1.4874 -0.5426 -0.5839
 4870SOL     OW26242   0.140   2.099   0.443  0.3178  0.4696  0.2740
 4870SOL    HW126243   0.152   2.186   0.406 -2.4174  0.7667  0.1052
 4870SOL    HW226244   0.128   2.110   0.537  1.1704  0.3950  0.3989
 4871SOL     OW26245   3.699   2.094   3.604  0.0465  0.0272 -0.0131
 4871SOL    HW126246   3.702   2.171   3.547  0.0195  0.1684  0.1777
 4871SOL    HW226247   3.610   2.099   3.638 -1.3522 -0.8212 -3.5172
 4872SOL     OW26248   3.374   3.054   5.903 -0.2466 -0.2705 -0.3660
 4872SOL    HW126249   3.392   3.014   5.988 -0.5596 -0.9829 -0.6294
 4872SOL    HW226250   3.338   2.985   5.847 -2.6500  1.5968 -1.1306
 4873SOL     OW26251   4.166   3.454   7.708 -0.2118  0.0578  0.1006
 4873SOL    HW126252   4.229   3.452   7.636  0.7432  4.3026  0.7853
 4873SOL    HW226253   4.205   3.532   7.747  1.6203  0.0209 -1.6211
 4874SOL     OW26254   2.535   1.511   3.482 -0.5723  0.3672 -0.1202
 4874SOL    HW126255   2.470   1.523   3.552  0.6086 -0.1140  1.0484
 4874SOL    HW226256   2.529   1.416   3.471 -1.7700  0.3371  0.6710
 4875SOL     OW26257   0.820   3.597   4.930 -0.5745  0.1418 -0.4876
 4875SOL    HW126258   0.850   3.664   4.992  2.1608 -0.8734 -0.6842
 4875SOL    HW226259   0.903   3.574   4.887 -0.0056 -1.2152  1.3577
 4876SOL     OW26260   2.554   3.178  14.422 -0.2798  0.2134  0.4404
 4876SOL    HW126261   2.620   3.112  14.398 -1.3706 -1.1588  1.1649
 4876SOL    HW226262   2.595   3.255  14.383 -1.7748  0.6417 -0.2952
 4877SOL     OW26263   1.936   0.126   5.603  0.4518 -0.0412  0.0280
 4877SOL    HW126264   2.021   0.142   5.562  0.9013  1.9513  1.7161
 4877SOL    HW226265   1.969   0.133   5.693  0.0542 -0.5563  0.2115
 4878SOL     OW26266   1.200   4.289   8.715  0.2015  0.0104 -0.1797
 4878SOL    HW126267   1.260   4.336   8.773  1.2188  0.7246 -1.8267
 4878SOL    HW226268   1.162   4.223   8.774  2.1674 -0.3833  0.6754
 4879SOL     OW26269   2.036   0.847   5.373  0.7432  0.6421  0.0844
 4879SOL    HW126270   1.991   0.791   5.437  2.7808 -0.8720  0.1649
 4879SOL    HW226271   2.114   0.800   5.345  0.0498 -0.1965 -0.4347
 4880SOL     OW26272   1.733   0.500  12.689 -0.2045  0.0146 -0.4000
 4880SOL    HW126273   1.772   0.583  12.717 -1.8791  0.7436 -0.2502
 4880SOL    HW226274   1.639   0.519  12.683 -0.3725 -0.5985  0.1923
 4881SOL     OW26275   4.689   2.736   8.601  0.0204 -0.3045 -0.0439
 4881SOL    HW126276   4.691   2.763   8.509 -0.1606  2.8836  0.8990
 4881SOL    HW226277   0.038   2.757   8.635 -1.3054  2.8938  1.4137
 4882SOL     OW26278   3.297   3.202  12.169 -0.1051  0.1210 -0.1855
 4882SOL    HW126279   3.256   3.158  12.095 -2.7800 -0.6982  1.7615
 4882SOL    HW226280   3.361   3.259  12.126  0.9082 -0.7863  0.1436
 4883SOL     OW26281   3.685   0.347  10.907  0.1590 -0.0599 -0.1122
 4883SOL    HW126282   3.619   0.411  10.879  0.0544 -0.0612  0.1351
 4883SOL    HW226283   3.645   0.263  10.882  1.7582 -0.9441  0.3189
 4884SOL     OW26284   2.155   1.629   6.896 -0.0951  0.1368  0.1606
 4884SOL    HW126285   2.182   1.609   6.807  1.6671  1.0343  0.5057
 4884SOL    HW226286   2.060   1.614   6.902 -0.3053  1.5235  0.2251
 4885SOL     OW26287   3.768   2.194   9.698  0.3001 -0.6311  0.0026
 4885SOL    HW126288   3.781   2.233   9.612  0.2156 -0.1081  0.2282
 4885SOL    HW226289   3.833   2.246   9.745 -2.2126  2.2921  0.1784
 4886SOL     OW26290   3.656   0.651   2.469  0.2127 -0.2297  0.0449
 4886SOL    HW126291   3.751   0.660   2.479 -0.3402  4.6985  0.9785
 4886SOL    HW226292   3.644   0.556   2.469  1.2020 -0.3817  2.7167
 4887SOL     OW26293   4.399   1.643   7.096 -0.4290 -0.8287 -0.4380
 4887SOL    HW126294   4.353   1.660   7.014  2.9997  0.0943 -2.1570
 4887SOL    HW226295   4.488   1.674   7.080 -0.2084 -1.3433 -0.1901
 4888SOL     OW26296   0.702   4.238   5.662 -0.4064 -0.0203  0.0756
 4888SOL    HW126297   0.631   4.175   5.678 -0.8370  0.1855 -0.9900
 4888SOL    HW226298   0.644   4.313   5.652 -1.9540 -1.0442  1.3450
 4889SOL     OW26299   2.794   2.358   7.145 -0.7614  0.2150  0.7385
 4889SOL    HW126300   2.766   2.407   7.222 -2.3389 -0.2908  0.4800
 4889SOL    HW226301   2.846   2.427   7.103 -2.2071 -0.1368 -1.6927
 4890SOL     OW26302   1.680   1.667   9.882  0.3978  0.0731  0.0887
 4890SOL    HW126303   1.763   1.700   9.916  1.2424  0.2574 -2.1471
 4890SOL    HW226304   1.705   1.620   9.803 -2.9833 -0.9268 -0.3905
 4891SOL     OW26305   2.791   2.606  13.947 -0.1223  0.1913 -0.0586
 4891SOL    HW126306   2.872   2.557  13.933 -0.9217 -1.6237  1.6761
 4891SOL    HW226307   2.761   2.638  13.862 -0.1389  0.8474  0.1981
 4892SOL     OW26308   3.547   2.115   7.001  0.8322 -0.3300  0.3057
 4892SOL    HW126309   3.490   2.148   6.931  0.6558  0.3479  0.7700
 4892SOL    HW226310   3.560   2.199   7.045 -3.0788  0.0014  0.8759
 4893SOL     OW26311   4.040   0.017   7.840  0.3976 -0.1841  0.0324
 4893SOL    HW126312   4.124   4.712   7.852 -0.3256 -2.1424 -1.8658
 4893SOL    HW226313   3.995   4.698   7.778 -1.0731  1.0742 -0.0610
 4894SOL     OW26314   0.339   1.939   7.648 -0.5075 -0.5358  0.1857
 4894SOL    HW126315   0.381   1.879   7.711 -3.6087  0.4480  3.1836
 4894SOL    HW226316   0.419   1.959   7.599 -1.1195 -3.0182 -1.8088
 4895SOL     OW26317   0.010   0.534  14.555 -0.2377 -0.0855  0.2264
 4895SOL    HW126318   4.681   0.539  14.623 -0.2811  4.1451 -0.0932
 4895SOL    HW226319   0.071   0.469  14.588 -1.1003 -1.1514 -0.3021
 4896SOL     OW26320   0.837   2.784   4.565 -0.6289 -0.1038 -0.6747
 4896SOL    HW126321   0.758   2.830   4.592 -0.0591 -0.1819  1.1309
 4896SOL    HW226322   0.875   2.855   4.514 -0.8480 -0.3352 -1.1628
 4897SOL     OW26323   3.243   2.160   1.896 -0.1808  0.4868 -0.3182
 4897SOL    HW126324   3.231   2.251   1.925  1.1220 -0.1414  2.1636
 4897SOL    HW226325   3.156   2.128   1.920  0.1895  0.7849  1.4033
 4898SOL     OW26326   0.096   1.886  17.439  0.2730  0.1879  0.2184
 4898SOL    HW126327   0.120   1.799  17.407 -0.0945  0.4600 -0.7938
 4898SOL    HW226328   0.087   1.879  17.534  0.5412  0.1467  0.2409
 4899SOL     OW26329   2.596   0.355   8.789  0.3817 -0.0354 -0.4558
 4899SOL    HW126330   2.525   0.391   8.843  2.6722  0.6084  2.1040
 4899SOL    HW226331   2.561   0.275   8.749 -0.9984 -0.3825  1.4651
 4900SOL     OW26332   1.364   2.595   6.226 -0.2116  0.2744 -0.1916
 4900SOL    HW126333   1.366   2.690   6.238 -1.5174  0.2671  0.0877
 4900SOL    HW226334   1.406   2.560   6.304 -1.5364 -0.2010  0.3040
 4901SOL     OW26335   1.025   1.597   4.470 -0.1459  0.5897  0.3836
 4901SOL    HW126336   1.084   1.565   4.538  0.4593  1.9268  0.4838
 4901SOL    HW226337   0.957   1.530   4.467 -0.9501  1.3806  1.0932
 4902SOL     OW26338   1.835   0.164  14.600  0.1906  0.4438 -0.3460
 4902SOL    HW126339   1.884   0.093  14.558  2.6553  1.6828  0.3937
 4902SOL    HW226340   1.751   0.122  14.617 -0.5974  2.3810  0.5948
 4903SOL     OW26341   2.568   2.315   4.003  0.0477 -0.9269 -0.1644
 4903SOL    HW126342   2.642   2.313   3.942  0.8372  2.7541  0.6798
 4903SOL    HW226343   2.494   2.317   3.942 -0.7440  0.1011  0.8607
 4904SOL     OW26344   4.143   3.689   3.780  0.1910 -0.0822 -0.4226
 4904SOL    HW126345   4.131   3.632   3.856 -2.3059  0.5800 -0.3071
 4904SOL    HW226346   4.056   3.685   3.740 -0.8954  0.9116  1.8591
 4905SOL     OW26347   4.668   3.993  15.126 -0.1175 -0.0941 -0.1378
 4905SOL    HW126348   4.660   3.957  15.038 -2.3615  1.9279 -0.7473
 4905SOL    HW226349   4.718   4.075  15.115 -2.1604  1.1075 -0.3769
 4906SOL     OW26350   4.042   1.648   8.821  0.1512 -0.3268 -0.0007
 4906SOL    HW126351   4.066   1.679   8.733 -1.3232 -0.0282 -0.2919
 4906SOL    HW226352   4.106   1.578   8.831  1.4619  0.7505 -0.8276
 4907SOL     OW26353   2.704   0.975   7.265 -0.2972  0.0352  0.7275
 4907SOL    HW126354   2.697   1.010   7.176  0.1625 -0.3070  0.5616
 4907SOL    HW226355   2.732   0.887   7.242 -0.7468 -0.0088  0.3578
 4908SOL     OW26356   4.202   4.300   5.752  0.8643  0.2618 -0.2736
 4908SOL    HW126357   4.165   4.382   5.719 -1.4301 -1.2612 -1.4546
 4908SOL    HW226358   4.168   4.227   5.700  1.1205 -1.1124  1.5056
 4909SOL     OW26359   3.398   3.195  12.429 -0.4669  0.5055 -0.5335
 4909SOL    HW126360   3.372   3.218  12.340 -0.5528  0.1125 -0.6082
 4909SOL    HW226361   3.413   3.101  12.426  0.9672  0.7228  0.0216
 4910SOL     OW26362   4.715   0.732   9.257 -0.2716  0.0045  0.6500
 4910SOL    HW126363   4.720   0.737   9.352 -2.0320  1.1270  0.6725
 4910SOL    HW226364   4.683   0.643   9.243  1.7498 -0.7912  1.0613
 4911SOL     OW26365   4.503   2.882   3.904 -0.0236  0.4099 -0.1983
 4911SOL    HW126366   4.425   2.905   3.955 -0.4122 -1.5913  0.0793
 4911SOL    HW226367   4.548   2.961   3.874  2.7798 -0.4478  1.7664
 4912SOL     OW26368   0.441   4.458  14.814  0.1193 -0.2068  0.8843
 4912SOL    HW126369   0.479   4.420  14.893 -0.9459  0.5641  1.7681
 4912SOL    HW226370   0.505   4.529  14.805 -1.7400  1.3025 -0.4803
 4913SOL     OW26371   3.388   0.641   6.961 -0.0580 -0.0883 -0.0575
 4913SOL    HW126372   3.447   0.650   7.036 -3.1940  1.2025  2.2444
 4913SOL    HW226373   3.414   0.551   6.943  0.6445  0.4503 -1.7789
 4914SOL     OW26374   1.851   2.462   7.115  0.1475  0.0426 -0.5711
 4914SOL    HW126375   1.858   2.488   7.207  0.0868 -2.3985  0.1254
 4914SOL    HW226376   1.936   2.485   7.077 -0.3798 -1.4481 -2.7196
 4915SOL     OW26377   1.745   2.602  16.606  0.6408 -0.2418 -0.5125
 4915SOL    HW126378   1.823   2.636  16.649  0.1823  0.1615 -0.0049
 4915SOL    HW226379   1.712   2.683  16.567 -0.0717  0.3568  1.3255
 4916SOL     OW26380   4.192   3.091   5.501 -0.1834 -0.0555  0.2357
 4916SOL    HW126381   4.110   3.040   5.504 -0.4926  0.3961 -0.7837
 4916SOL    HW226382   4.183   3.140   5.583  0.1208  0.5473 -0.0957
 4917SOL     OW26383   3.682   2.953   6.596 -0.2649 -0.2344 -0.4802
 4917SOL    HW126384   3.621   2.938   6.524  1.7107 -0.9619 -2.0106
 4917SOL    HW226385   3.761   2.917   6.555 -0.0840  0.9790 -1.1882
 4918SOL     OW26386   1.863   2.783  12.994  0.6393 -0.0934  0.0274
 4918SOL    HW126387   1.933   2.721  13.016  2.3026  1.7410 -0.0348
 4918SOL    HW226388   1.794   2.762  13.056  1.7870 -3.0042  0.3439
 4919SOL     OW26389   4.423   0.518   5.024  0.5017  0.0219 -0.1847
 4919SOL    HW126390   4.425   0.606   4.986 -5.2421  1.1905  2.2805
 4919SOL    HW226391   4.490   0.523   5.091  0.6293  1.7093 -0.4461
 4920SOL     OW26392   4.166   4.600   8.496 -0.4574  0.1813 -0.2292
 4920SOL    HW126393   4.259   4.576   8.498 -0.2324  0.9131 -1.7991
 4920SOL    HW226394   4.133   4.534   8.434  1.5737 -0.3343 -0.7909
 4921SOL     OW26395   1.628   1.651  12.899  0.0358 -0.6989  0.4252
 4921SOL    HW126396   1.591   1.578  12.948  1.1359  0.6177  3.1824
 4921SOL    HW226397   1.552   1.709  12.901  0.4154 -0.1727 -0.5901
 4922SOL     OW26398   3.702   2.950   0.040  0.4018  0.0031 -0.3998
 4922SOL    HW126399   3.608   2.941   0.031  0.3400  0.4919 -0.2438
 4922SOL    HW226400   3.728   2.858   0.030 -0.7637 -0.2734 -0.8736
 4923SOL     OW26401   1.099   2.869   9.136  0.1456  0.0538 -0.3717
 4923SOL    HW126402   1.054   2.948   9.107 -0.6990 -0.7352 -1.2274
 4923SOL    HW226403   1.192   2.888   9.149  0.6639 -0.6152 -3.1422
 4924SOL     OW26404   1.297   2.048   5.183  0.0360 -0.6252  0.2070
 4924SOL    HW126405   1.363   2.088   5.126  0.0655  0.7050  1.1575
 4924SOL    HW226406   1.235   2.119   5.170  1.4093  0.7638  1.1525
 4925SOL     OW26407   4.263   2.049   7.222  0.0673  0.1958  0.1162
 4925SOL    HW126408   4.236   2.108   7.292  0.3725 -2.2601  2.3124
 4925SOL    HW226409   4.183   2.033   7.173 -0.1451  2.5378 -0.3155
 4926SOL     OW26410   0.938   3.714  14.892 -0.3221 -0.2986  0.4011
 4926SOL    HW126411   0.931   3.737  14.800  1.7644  2.1930  0.8839
 4926SOL    HW226412   1.033   3.702  14.888 -0.2610 -0.2560  1.6508
 4927SOL     OW26413   3.493   3.506   0.068 -0.2005 -0.1275 -0.2576
 4927SOL    HW126414   3.439   3.517   0.146 -0.6542 -2.6374 -0.2292
 4927SOL    HW226415   3.438   3.561   0.011 -1.5142  1.3054  2.4043
 4928SOL     OW26416   1.479   3.127   9.168 -0.2640  0.0547 -0.4208
 4928SOL    HW126417   1.478   3.176   9.251  2.3368  0.8746 -0.8705
 4928SOL    HW226418   1.558   3.168   9.134 -0.0186 -1.2286 -1.3810
 4929SOL     OW26419   4.279   0.921   7.073  0.0357  0.4037 -0.0574
 4929SOL    HW126420   4.358   0.938   7.124  0.8835 -0.6766 -1.0024
 4929SOL    HW226421   4.260   1.007   7.036 -0.7472  1.3590  2.5680
 4930SOL     OW26422   1.887   3.116   6.095  0.2994  0.1886  0.3626
 4930SOL    HW126423   1.828   3.083   6.027  0.0574  0.9007  0.2250
 4930SOL    HW226424   1.826   3.131   6.168 -1.2969 -0.3003 -0.8709
 4931SOL     OW26425   2.847   2.681  10.580 -0.0384  0.2579  0.3692
 4931SOL    HW126426   2.828   2.738  10.655 -1.2974  0.0705  0.2022
 4931SOL    HW226427   2.936   2.715  10.570 -1.3948  3.0293 -2.3262
 4932SOL     OW26428   1.059   3.864   6.457  0.3649 -0.0128 -0.0760
 4932SOL    HW126429   1.090   3.846   6.546  0.9002  0.9903 -0.0641
 4932SOL    HW226430   0.985   3.805   6.442  0.9317 -1.1906  1.7482
 4933SOL     OW26431   3.702   2.738   4.143 -0.6957  0.3710  0.2867
 4933SOL    HW126432   3.756   2.667   4.178 -1.3908 -0.6261 -0.6522
 4933SOL    HW226433   3.738   2.819   4.180 -0.9616  0.4607  0.3486
 4934SOL     OW26434   2.403   2.814   4.683 -0.0783  0.3924  0.7973
 4934SOL    HW126435   2.314   2.844   4.669  0.0852 -0.0354 -1.1890
 4934SOL    HW226436   2.397   2.722   4.657 -0.1934  0.2319  1.4145
 4935SOL     OW26437   2.475   2.360   7.306 -0.2381 -0.1310 -0.9456
 4935SOL    HW126438   2.542   2.410   7.353 -0.2634  1.1569 -2.2848
 4935SOL    HW226439   2.395   2.411   7.313 -0.1815  0.0254 -1.3914
 4936SOL     OW26440   2.186   0.660   0.886  0.2759  0.3336  0.2613
 4936SOL    HW126441   2.186   0.753   0.907 -0.7895  0.5411 -0.6525
 4936SOL    HW226442   2.101   0.642   0.926  1.7788 -2.2743  2.2438
 4937SOL     OW26443   1.619   2.162  14.571  0.1705 -0.3994  0.5808
 4937SOL    HW126444   1.549   2.171  14.507  1.6532  0.1753 -0.9689
 4937SOL    HW226445   1.594   2.226  14.638  3.5009 -1.0052  2.4540
 4938SOL     OW26446   4.074   0.646  11.129  0.2186 -0.7920 -0.0253
 4938SOL    HW126447   4.054   0.583  11.059  1.1305  0.4014 -1.3682
 4938SOL    HW226448   3.989   0.632  11.172 -0.3920 -1.0509 -1.3055
 4939SOL     OW26449   1.760   3.280   1.487  0.0885 -0.4284  0.0941
 4939SOL    HW126450   1.795   3.305   1.572  0.5418  1.8852 -0.7859
 4939SOL    HW226451   1.809   3.340   1.431  0.7313  0.6996  1.8766
 4940SOL     OW26452   4.044   0.334  15.148  0.0486  0.6357  0.1932
 4940SOL    HW126453   4.059   0.376  15.063  0.6578  1.4336  0.7027
 4940SOL    HW226454   3.988   0.266  15.111 -0.6645  0.7319  1.1021
 4941SOL     OW26455   4.098   3.644   7.486  0.2909 -0.2113  0.1204
 4941SOL    HW126456   4.116   3.616   7.576 -2.5214 -0.7100  0.5434
 4941SOL    HW226457   4.028   3.708   7.497  0.5161  0.2237 -0.9620
 4942SOL     OW26458   3.684   1.888   4.842  0.3123  0.2356  0.1177
 4942SOL    HW126459   3.742   1.827   4.797 -0.6764 -1.0276  0.5408
 4942SOL    HW226460   3.636   1.824   4.895 -0.1442 -0.9275 -1.7164
 4943SOL     OW26461   1.519   4.328  14.551  0.4630  0.4750 -0.1236
 4943SOL    HW126462   1.607   4.365  14.557  1.1514 -0.8783 -1.8494
 4943SOL    HW226463   1.470   4.368  14.622  1.8100 -0.1762  1.1526
 4944SOL     OW26464   3.054   0.716   8.559 -0.0875  0.8375  0.2926
 4944SOL    HW126465   3.069   0.765   8.478  1.0946  0.3439  0.2078
 4944SOL    HW226466   3.051   0.625   8.528  1.4262  0.9161 -0.1077
 4945SOL     OW26467   0.790   2.920   6.083 -0.1875 -0.6516  0.0132
 4945SOL    HW126468   0.867   2.874   6.050  1.9060  1.4247  2.0925
 4945SOL    HW226469   0.744   2.845   6.122  0.5050 -1.6211 -1.0482
 4946SOL     OW26470   0.607   3.270  11.820  0.1243 -0.4183  0.1443
 4946SOL    HW126471   0.676   3.309  11.873  0.9974 -0.4365 -0.9735
 4946SOL    HW226472   0.586   3.342  11.760 -0.7329  0.8586  1.9805
 4947SOL     OW26473   4.479   0.543   0.210 -0.8575 -0.0549  0.3386
 4947SOL    HW126474   4.480   0.458   0.255 -0.5001 -1.6686 -2.7657
 4947SOL    HW226475   4.542   0.587   0.268 -0.7513 -1.9050  1.6555
 4948SOL     OW26476   0.678   3.017   2.517 -0.2182  0.4014  0.3185
 4948SOL    HW126477   0.693   3.076   2.443 -1.3888  2.4938  1.7433
 4948SOL    HW226478   0.659   2.939   2.466 -2.8299  0.8727  0.5619
 4949SOL     OW26479   1.335   3.036  16.141 -0.0127 -0.2075 -1.1299
 4949SOL    HW126480   1.306   3.126  16.124  0.6083 -0.0992 -1.6257
 4949SOL    HW226481   1.247   3.001  16.137 -0.2543  0.5239 -2.0763
 4950SOL     OW26482   3.635   1.704   3.879 -0.1596  0.3574  0.5814
 4950SOL    HW126483   3.698   1.763   3.921 -2.1558  3.3969 -0.7267
 4950SOL    HW226484   3.621   1.631   3.939 -0.6672 -1.0211 -1.2246
 4951SOL     OW26485   0.429   0.114  10.279  0.0152 -0.6078  0.2574
 4951SOL    HW126486   0.500   0.153  10.330 -1.3700 -1.0465  2.5152
 4951SOL    HW226487   0.443   0.145  10.190  0.6273  0.6871  0.8194
 4952SOL     OW26488   3.752   1.477   1.222  0.4766  0.1547 -0.1976
 4952SOL    HW126489   3.737   1.403   1.280 -2.0091  0.2660 -0.6875
 4952SOL    HW226490   3.836   1.517   1.241 -0.5148  2.3345 -0.4359
 4953SOL     OW26491   2.843   1.229   7.934 -0.2619 -0.0230 -0.2932
 4953SOL    HW126492   2.831   1.134   7.930  1.5142 -0.3473  1.9317
 4953SOL    HW226493   2.791   1.247   8.012 -0.9837 -0.1735 -0.7446
 4954SOL     OW26494   2.110   1.619   0.899 -0.6008  0.4738  0.0683
 4954SOL    HW126495   2.105   1.711   0.873 -2.0575  0.1700 -0.7054
 4954SOL    HW226496   2.024   1.615   0.941 -0.8597 -1.0160 -0.5938
 4955SOL     OW26497   2.736   3.076   1.806 -0.4870  0.0701 -0.5330
 4955SOL    HW126498   2.665   3.068   1.743  1.0062  0.0850 -2.2257
 4955SOL    HW226499   2.697   3.143   1.863 -1.6527 -1.4507  0.4624
 4956SOL     OW26500   3.183   1.680   7.981 -0.3815 -0.6978  0.2489
 4956SOL    HW126501   3.243   1.755   7.982  0.2015 -1.1707  1.2536
 4956SOL    HW226502   3.165   1.658   7.890 -1.6312  0.4602  0.2002
 4957SOL     OW26503   3.347   2.812   2.155  0.4295 -0.2775  1.0081
 4957SOL    HW126504   3.432   2.787   2.192 -0.0345 -0.4033  1.9583
 4957SOL    HW226505   3.292   2.778   2.225  1.4573 -1.0557  1.4516
 4958SOL     OW26506   0.438   1.337   2.327  0.7185 -0.0692  0.0772
 4958SOL    HW126507   0.393   1.366   2.248  0.3020  0.9843  0.6993
 4958SOL    HW226508   0.396   1.251   2.322 -1.2389  1.0324 -2.4763
 4959SOL     OW26509   0.237   2.304   5.367 -0.0621 -0.4553 -0.5377
 4959SOL    HW126510   0.160   2.357   5.345  0.1075 -0.0825 -0.2241
 4959SOL    HW226511   0.262   2.262   5.285  0.1467 -1.3351 -0.0187
 4960SOL     OW26512   4.683   3.800   2.333  0.0364 -0.4697 -0.2120
 4960SOL    HW126513   4.637   3.726   2.370  0.0153 -0.9132 -1.1240
 4960SOL    HW226514   0.021   3.813   2.390 -1.6126  2.5172  1.3323
 4961SOL     OW26515   3.464   0.245   8.635 -0.1793 -0.1946 -0.3073
 4961SOL    HW126516   3.524   0.248   8.560 -0.2144  0.1638 -0.3181
 4961SOL    HW226517   3.421   0.330   8.626  2.2204  1.2207  1.9042
 4962SOL     OW26518   3.638   4.535  17.034 -0.2693  0.6622 -0.0241
 4962SOL    HW126519   3.635   4.512  17.127  0.9874 -0.5096 -0.2737
 4962SOL    HW226520   3.728   4.566  17.025 -0.3654  0.8872 -0.2011
 4963SOL     OW26521   3.822   1.807  16.767 -0.1927 -0.3760 -0.3997
 4963SOL    HW126522   3.853   1.873  16.705 -0.5288  0.6813  0.5617
 4963SOL    HW226523   3.896   1.749  16.784  0.1369 -0.5836 -2.6099
 4964SOL     OW26524   3.410   2.604  16.465  0.2376  0.2052  1.1344
 4964SOL    HW126525   3.412   2.694  16.499  2.4732  0.2066  0.9817
 4964SOL    HW226526   3.319   2.574  16.470  1.0485 -2.8622 -2.4062
 4965SOL     OW26527   1.408   3.638  16.476 -0.7105  0.1011  0.1863
 4965SOL    HW126528   1.482   3.623  16.534  0.1309  0.8696 -0.6856
 4965SOL    HW226529   1.452   3.675  16.398  1.5265 -2.6627  0.1324
 4966SOL     OW26530   2.090   1.528  14.367 -0.6708  0.3526 -1.5447
 4966SOL    HW126531   2.070   1.443  14.328 -0.2980 -0.3595 -0.1857
 4966SOL    HW226532   2.113   1.590  14.297 -0.6736  1.6617 -0.3645
 4967SOL     OW26533   3.745   3.983   2.718 -0.3301 -0.3986 -0.0855
 4967SOL    HW126534   3.817   3.989   2.781  0.8816 -2.3318 -1.2742
 4967SOL    HW226535   3.693   3.913   2.758 -2.3307 -0.4289 -2.7230
 4968SOL     OW26536   2.454   0.455   9.033 -0.7370  0.0069 -0.1836
 4968SOL    HW126537   2.534   0.447   9.084 -0.7149  0.0069 -0.2178
 4968SOL    HW226538   2.385   0.472   9.097 -2.6931  0.0226 -2.2549
 4969SOL     OW26539   4.596   2.928   1.811  0.1807  0.1222 -0.2937
 4969SOL    HW126540   4.599   2.848   1.759  0.8486  0.1363 -0.2826
 4969SOL    HW226541   4.644   2.993   1.760  0.0021 -0.8323 -1.6661
 4970SOL     OW26542   1.536   3.028  14.787  0.1255 -0.4217  0.1995
 4970SOL    HW126543   1.465   2.965  14.793 -0.2255 -0.0061  0.4079
 4970SOL    HW226544   1.561   3.021  14.879  0.5513  1.3183  0.2133
 4971SOL     OW26545   1.116   2.005   8.209  0.1153 -0.1633  0.0253
 4971SOL    HW126546   1.091   2.061   8.282 -2.2387 -0.2610 -0.7168
 4971SOL    HW226547   1.170   2.066   8.158 -0.0580 -0.7624 -0.8849
 4972SOL     OW26548   4.728   1.900  13.589  0.0198  0.2767 -0.1250
 4972SOL    HW126549   4.698   1.981  13.631  1.1519  0.6844 -0.0949
 4972SOL    HW226550   4.697   1.917  13.500  1.2893 -1.7228 -0.9466
 4973SOL     OW26551   3.737   4.197   4.598  0.1560 -0.7522  0.4631
 4973SOL    HW126552   3.801   4.267   4.588  0.8311 -1.3017  0.9213
 4973SOL    HW226553   3.667   4.252   4.633 -1.3217 -2.7774  0.7448
 4974SOL     OW26554   2.343   2.244   6.548 -0.1182  0.3371 -0.2634
 4974SOL    HW126555   2.431   2.274   6.568 -0.3139  0.9780 -0.3567
 4974SOL    HW226556   2.314   2.273   6.634 -0.0363 -1.2590  0.2998
 4975SOL     OW26557   2.784   1.373   3.150 -0.3915 -0.7715 -0.3686
 4975SOL    HW126558   2.801   1.453   3.100  1.0449 -2.2065 -2.2064
 4975SOL    HW226559   2.843   1.312   3.106  3.0206  2.1988  0.1039
 4976SOL     OW26560   3.440   1.606   8.565 -0.0723  0.6616 -0.3402
 4976SOL    HW126561   3.432   1.523   8.518 -0.3610  0.7160 -0.3858
 4976SOL    HW226562   3.366   1.649   8.522 -0.8103  1.1153  1.3834
 4977SOL     OW26563   3.716   1.112   4.219 -1.4428 -0.0215  0.0069
 4977SOL    HW126564   3.697   1.044   4.155 -0.5786 -1.3344  1.1601
 4977SOL    HW226565   3.634   1.144   4.258 -0.5997 -1.5620  3.0356
 4978SOL     OW26566   4.329   4.292   9.220 -0.2165  0.1624  0.4299
 4978SOL    HW126567   4.381   4.272   9.142 -0.5418  1.2875 -0.0780
 4978SOL    HW226568   4.241   4.290   9.183 -0.1938  0.9825  0.3295
 4979SOL     OW26569   4.687   2.093   7.092 -0.1847 -0.1375 -0.1569
 4979SOL    HW126570   4.693   2.180   7.131 -2.2701  0.2624 -0.7125
 4979SOL    HW226571   4.615   2.109   7.031 -1.1749  0.6260  1.1979
 4980SOL     OW26572   1.477   2.028   8.771  0.0184  0.0262 -0.0428
 4980SOL    HW126573   1.535   2.103   8.759 -0.9617  0.8628  0.3885
 4980SOL    HW226574   1.469   1.988   8.685 -1.0451 -1.8206  0.9177
 4981SOL     OW26575   4.633   4.463  13.205  0.7859  0.2156 -0.1367
 4981SOL    HW126576   4.582   4.527  13.254  0.0767 -1.9417  1.9484
 4981SOL    HW226577   4.562   4.398  13.198  0.2502  0.8399 -0.4440
 4982SOL     OW26578   0.816   3.979   2.720  0.1588  0.1580 -0.1379
 4982SOL    HW126579   0.751   3.909   2.723  2.3479 -1.8647  0.9203
 4982SOL    HW226580   0.783   4.022   2.642 -0.4066 -0.4977 -0.2603
 4983SOL     OW26581   0.828   4.342   6.794  0.1690  0.8612 -0.2758
 4983SOL    HW126582   0.845   4.431   6.826  3.7509  0.6579 -1.6557
 4983SOL    HW226583   0.745   4.364   6.750 -0.0742 -0.1604 -0.3150
 4984SOL     OW26584   3.493   2.117   4.892 -0.0138 -0.2651  0.6674
 4984SOL    HW126585   3.531   2.076   4.815  1.7004  0.3058  1.2167
 4984SOL    HW226586   3.533   2.073   4.967 -0.1505 -0.2279  0.7644
 4985SOL     OW26587   2.584   1.856   8.175 -0.1712 -0.1630 -0.1801
 4985SOL    HW126588   2.652   1.924   8.180 -0.9022  0.7122 -1.8548
 4985SOL    HW226589   2.532   1.905   8.111 -0.4993 -1.6169 -1.0282
 4986SOL     OW26590   2.757   2.548  15.268 -0.3582 -0.7073  0.1515
 4986SOL    HW126591   2.703   2.476  15.300 -0.1908 -0.9598 -0.1402
 4986SOL    HW226592   2.727   2.580  15.183 -1.6048  0.0153  0.8700
 4987SOL     OW26593   4.703   1.000   0.523  0.0691 -0.3821  0.1170
 4987SOL    HW126594   4.672   0.918   0.563 -1.7034 -0.6654 -1.8004
 4987SOL    HW226595   4.626   1.019   0.469  0.8379 -1.9386 -1.5089
 4988SOL     OW26596   2.553   3.523   8.215  0.5233  0.5778  0.1124
 4988SOL    HW126597   2.624   3.459   8.215  0.3283  0.3621  0.4326
 4988SOL    HW226598   2.500   3.488   8.143  0.7296  1.6067 -0.5428
 4989SOL     OW26599   4.433   0.543  17.685 -0.2855 -1.1031 -0.4424
 4989SOL    HW126600   4.479   0.540   0.018 -0.6407  0.1003 -0.2040
 4989SOL    HW226601   4.432   0.638  17.670 -0.9299 -0.7586  1.7502
 4990SOL     OW26602   0.100   2.029  14.319 -0.5458 -0.6657 -0.1636
 4990SOL    HW126603   0.068   1.964  14.382  1.2189 -1.2903  0.0689
 4990SOL    HW226604   0.193   2.029  14.339 -0.7618  1.8825  0.8403
 4991SOL     OW26605   3.731   0.645   4.073 -0.2056 -0.3933  0.3440
 4991SOL    HW126606   3.792   0.572   4.062  2.0241  1.4069  0.5860
 4991SOL    HW226607   3.672   0.588   4.122 -1.1807  0.5329  0.2471
 4992SOL     OW26608   2.028   0.682   4.871  0.4766  0.2868  0.0000
 4992SOL    HW126609   2.061   0.771   4.866 -0.9189  0.7267 -1.3370
 4992SOL    HW226610   1.934   0.698   4.872  0.6134  1.1341 -0.5814
 4993SOL     OW26611   3.184   3.267   5.340  0.2985 -0.2796 -0.3677
 4993SOL    HW126612   3.235   3.195   5.376 -1.9791 -2.8543 -2.2627
 4993SOL    HW226613   3.231   3.276   5.257 -0.7519  0.7293 -0.8712
 4994SOL     OW26614   2.359   3.075   2.890 -0.3532 -0.3738 -0.4040
 4994SOL    HW126615   2.380   3.103   2.979 -0.5628  0.0403 -0.4863
 4994SOL    HW226616   2.264   3.069   2.880 -0.4998  1.6242 -0.1523
 4995SOL     OW26617   2.928   0.063  13.094  0.4852  0.0783  0.7036
 4995SOL    HW126618   2.970   0.149  13.099 -0.2532  0.4370  0.7588
 4995SOL    HW226619   3.001   0.005  13.073  1.0338  0.9692  0.1394
 4996SOL     OW26620   4.085   2.499   3.377 -0.0047  0.2280  0.7051
 4996SOL    HW126621   4.102   2.566   3.311 -0.8735 -0.3403 -0.0994
 4996SOL    HW226622   4.168   2.451   3.377 -0.8912 -1.3355 -1.9136
 4997SOL     OW26623   2.068   0.407   5.506  0.1980 -0.7459 -0.1018
 4997SOL    HW126624   2.103   0.329   5.463  0.4571 -0.0485 -1.1530
 4997SOL    HW226625   2.147   0.425   5.558 -1.6896  2.6914  1.5742
 4998SOL     OW26626   3.755   0.871   6.643  0.4848  0.2112 -0.4181
 4998SOL    HW126627   3.831   0.875   6.585  0.1162 -2.9976 -1.1402
 4998SOL    HW226628   3.714   0.957   6.641 -0.3256 -0.2291 -2.1560
 4999SOL     OW26629   0.835   3.662  17.246  0.1305 -0.5215 -0.0146
 4999SOL    HW126630   0.883   3.744  17.234 -3.0739  1.5034  0.9786
 4999SOL    HW226631   0.773   3.672  17.173  0.6485  2.8107  0.0096
 5000SOL     OW26632   0.139   1.513   2.369  0.8377  0.7729  0.1806
 5000SOL    HW126633   0.219   1.513   2.420  0.0453 -2.2296  1.4717
 5000SOL    HW226634   0.078   1.528   2.442 -0.6200 -0.0315 -0.8562
 5001SOL     OW26635   2.966   2.171   5.263 -0.3505 -0.3109 -0.6037
 5001SOL    HW126636   2.941   2.248   5.313 -0.9977 -0.0399 -1.3540
 5001SOL    HW226637   2.882   2.126   5.258 -0.5802  0.0326  0.1360
 5002SOL     OW26638   3.017   1.006   5.157 -0.6883  0.3194 -0.1167
 5002SOL    HW126639   3.022   1.077   5.092 -0.2028  1.1075  0.7898
 5002SOL    HW226640   3.105   0.968   5.150  0.0966  1.8611  1.3741
 5003SOL     OW26641   0.564   0.320   8.605 -0.0622 -0.5090 -0.1847
 5003SOL    HW126642   0.555   0.328   8.700 -0.9170  0.2818 -0.3359
 5003SOL    HW226643   0.615   0.399   8.589 -1.2981  0.2756 -0.2185
 5004SOL     OW26644   3.845   0.120  10.678 -0.4095 -0.3460  0.1797
 5004SOL    HW126645   3.912   0.060  10.713 -0.1660 -1.5502 -2.3958
 5004SOL    HW226646   3.772   0.086  10.730 -0.1788  0.3836  0.9808
 5005SOL     OW26647   3.820   3.751  16.878 -0.1013 -0.1599  0.1847
 5005SOL    HW126648   3.899   3.804  16.882 -0.9380  1.2104 -1.3305
 5005SOL    HW226649   3.853   3.697  16.807  2.5582  1.3640  0.2640
 5006SOL     OW26650   2.457   2.820   2.094  0.7001  0.4900  0.4173
 5006SOL    HW126651   2.542   2.831   2.051  0.8409 -1.0912  0.2750
 5006SOL    HW226652   2.468   2.727   2.116  0.6814  0.6217  0.9846
 5007SOL     OW26653   2.123   3.347   1.323 -0.1930  0.6530 -0.3532
 5007SOL    HW126654   2.147   3.254   1.322 -1.1932  0.3871  0.5031
 5007SOL    HW226655   2.211   3.386   1.329 -0.2687  1.2076 -3.0663
 5008SOL     OW26656   4.328   0.481   8.133  0.2578  0.4913  0.0090
 5008SOL    HW126657   4.271   0.558   8.145 -2.2392 -1.5822  1.4568
 5008SOL    HW226658   4.272   0.434   8.072  2.2494 -0.4571 -1.0745
 5009SOL     OW26659   4.484   1.574   7.383  0.2948 -0.1907 -0.3518
 5009SOL    HW126660   4.454   1.625   7.308  1.0476  0.1175 -0.4490
 5009SOL    HW226661   4.578   1.582   7.366  0.6465 -3.0558  0.1838
 5010SOL     OW26662   0.512   0.801  11.925  0.6084  0.4605  0.3731
 5010SOL    HW126663   0.460   0.800  12.006  0.4076 -0.2648  0.2358
 5010SOL    HW226664   0.535   0.708  11.923  2.2423  0.8832 -0.1327
 5011SOL     OW26665   1.609   4.690   5.643  0.0894 -0.2617  0.1926
 5011SOL    HW126666   1.609   0.036   5.688  1.4822 -1.6519  2.8211
 5011SOL    HW226667   1.574   4.624   5.704 -3.2195 -1.0435 -2.5275
 5012SOL     OW26668   1.437   0.527   2.949 -0.1143 -0.7205 -0.4044
 5012SOL    HW126669   1.488   0.531   3.030  0.2027 -3.2904 -0.4833
 5012SOL    HW226670   1.407   0.618   2.943 -2.1977 -1.2064  2.4730
 5013SOL     OW26671   4.145   3.900   0.577  0.5962  0.2422  0.5277
 5013SOL    HW126672   4.148   3.817   0.530 -1.0816  0.4527  0.0738
 5013SOL    HW226673   4.139   3.957   0.500  0.7068  2.1729  1.9424
 5014SOL     OW26674   4.255   1.311   2.160  0.3128 -0.5067 -0.4597
 5014SOL    HW126675   4.290   1.233   2.117 -1.2451 -0.8860 -1.0148
 5014SOL    HW226676   4.170   1.306   2.117 -0.2325  2.2707  0.2878
 5015SOL     OW26677   0.580   0.950  11.088  0.1285  0.8687 -0.4091
 5015SOL    HW126678   0.504   0.995  11.050 -2.6553 -2.9082  0.7768
 5015SOL    HW226679   0.543   0.862  11.092  0.9932  0.3542 -3.0871
 5016SOL     OW26680   1.074   2.473   6.520  0.3039 -0.0350  0.1568
 5016SOL    HW126681   1.097   2.565   6.516 -0.4261  0.0968 -1.1891
 5016SOL    HW226682   1.043   2.464   6.430 -0.4851  0.1169  0.4106
 5017SOL     OW26683   0.504   0.098   9.618  0.1182 -0.0505  0.1972
 5017SOL    HW126684   0.527   0.006   9.629  0.7040  0.2593  1.5113
 5017SOL    HW226685   0.533   0.114   9.528  1.3814  0.3153  0.6700
 5018SOL     OW26686   1.461   1.623  11.933  0.2253 -0.2162 -0.1127
 5018SOL    HW126687   1.521   1.685  11.972 -0.7080 -0.0027  0.9766
 5018SOL    HW226688   1.504   1.585  11.856  0.5311 -1.8279  0.8429
 5019SOL     OW26689   4.299   0.152  12.857  0.1596  0.2787 -0.3587
 5019SOL    HW126690   4.307   0.097  12.778  1.1679 -0.5734  0.3508
 5019SOL    HW226691   4.356   0.228  12.847  1.0622 -0.6586 -2.3800
 5020SOL     OW26692   0.868   2.356   7.401  0.5705 -0.5155 -0.0533
 5020SOL    HW126693   0.886   2.450   7.407  2.6457 -0.6301 -4.2201
 5020SOL    HW226694   0.923   2.317   7.468  0.6702 -2.1727 -1.1139
 5021SOL     OW26695   3.312   3.417   9.666 -0.3036  0.1349 -0.4796
 5021SOL    HW126696   3.339   3.508   9.651  1.0391 -0.4354 -1.4679
 5021SOL    HW226697   3.384   3.393   9.724  0.0666  0.4138 -0.8189
 5022SOL     OW26698   2.180   2.862   8.666  0.3449 -0.5272  0.8729
 5022SOL    HW126699   2.109   2.916   8.701  0.2398  0.2222 -0.5124
 5022SOL    HW226700   2.165   2.784   8.720  1.1656 -1.0895  0.2882
 5023SOL     OW26701   3.606   2.058  14.797 -0.6593  0.2634  0.5813
 5023SOL    HW126702   3.532   2.008  14.764 -0.8721  2.4593 -2.2489
 5023SOL    HW226703   3.676   2.013  14.748 -0.6033 -0.2462  1.1266
 5024SOL     OW26704   3.388   3.796   3.825  0.9081 -0.0466 -0.1230
 5024SOL    HW126705   3.366   3.740   3.751 -0.4292  0.9471 -0.4679
 5024SOL    HW226706   3.386   3.742   3.904 -0.9157  0.0833 -0.0710
 5025SOL     OW26707   2.412   2.958   5.349  0.0875 -0.4816 -0.3623
 5025SOL    HW126708   2.393   3.051   5.351 -1.7873 -0.8966  1.1472
 5025SOL    HW226709   2.506   2.969   5.333 -0.0971  0.3829 -0.8484
 5026SOL     OW26710   4.242   3.091  15.546  0.2848 -0.5173 -0.0841
 5026SOL    HW126711   4.206   3.012  15.506 -2.1284  0.6461 -0.2004
 5026SOL    HW226712   4.171   3.155  15.544  1.1803  0.4815  0.0501
 5027SOL     OW26713   4.361   1.095   2.031 -0.1735 -0.1144 -0.0889
 5027SOL    HW126714   4.333   1.011   1.996 -1.1438  1.1443 -2.3437
 5027SOL    HW226715   4.397   1.128   1.949  1.0923  2.3089  1.4312
 5028SOL     OW26716   4.390   1.479   8.054  0.1401  0.3084 -0.0715
 5028SOL    HW126717   4.375   1.438   8.139  1.2867  0.3274  0.1470
 5028SOL    HW226718   4.389   1.573   8.074  1.0575  0.7140 -1.9156
 5029SOL     OW26719   1.785   3.635  11.408  0.6083  0.5442 -0.0291
 5029SOL    HW126720   1.693   3.617  11.387  0.5815  0.6489 -0.0001
 5029SOL    HW226721   1.802   3.705  11.346 -1.0901 -0.1403 -1.2662
 5030SOL     OW26722   4.046   3.506   4.600 -0.4232  0.6974 -0.0914
 5030SOL    HW126723   4.013   3.576   4.657 -0.5318  0.6921 -0.1478
 5030SOL    HW226724   4.025   3.428   4.651  0.8811  0.8662  0.6954
 5031SOL     OW26725   3.395   2.513  14.904 -0.0548  0.5706  0.5721
 5031SOL    HW126726   3.471   2.570  14.913  1.3614 -1.0503 -1.0692
 5031SOL    HW226727   3.411   2.481  14.815  0.1184  4.1719 -0.6966
 5032SOL     OW26728   4.507   1.872   4.200  0.0471  0.3916 -0.2998
 5032SOL    HW126729   4.472   1.915   4.278  1.1210  0.0182  0.3939
 5032SOL    HW226730   4.483   1.940   4.138  1.2659  1.1268  0.0306
 5033SOL     OW26731   2.003   0.515   8.413  0.0239 -0.2838 -0.4809
 5033SOL    HW126732   2.074   0.547   8.356  1.0351 -3.3110 -0.8993
 5033SOL    HW226733   2.013   0.420   8.405  0.2774 -0.2216 -0.8872
 5034SOL     OW26734   3.167   4.526  15.381  0.0222  0.2919 -0.3080
 5034SOL    HW126735   3.082   4.498  15.414  1.7511 -2.8598  1.5137
 5034SOL    HW226736   3.149   4.572  15.299  0.1674  2.4918  0.8912
 5035SOL     OW26737   4.712   4.563   2.222 -0.7502 -0.2144  0.6217
 5035SOL    HW126738   0.020   4.492   2.177  0.3364  1.6753 -1.2425
 5035SOL    HW226739   4.626   4.522   2.221  0.8962 -3.6457  0.2958
 5036SOL     OW26740   2.311   1.575   7.106 -0.0451  0.3541 -0.8911
 5036SOL    HW126741   2.249   1.594   7.035 -1.2383  0.1510  0.0889
 5036SOL    HW226742   2.317   1.656   7.155 -1.7260  0.3873 -0.7288
 5037SOL     OW26743   0.569   4.624   6.566  0.0509 -0.0611  0.1814
 5037SOL    HW126744   0.570   4.692   6.499 -0.1893  0.5894  0.8450
 5037SOL    HW226745   0.482   4.589   6.548  0.3920 -0.7191 -0.1878
 5038SOL     OW26746   0.459   4.380  13.054 -0.2891 -0.5599 -0.0597
 5038SOL    HW126747   0.364   4.392  13.053 -0.3959 -1.3758  2.1623
 5038SOL    HW226748   0.482   4.470  13.029 -2.9322  0.9555  2.8965
 5039SOL     OW26749   3.546   2.702   2.476  0.1303  0.4679  0.0630
 5039SOL    HW126750   3.637   2.719   2.497  0.5629  0.3366 -1.7280
 5039SOL    HW226751   3.508   2.784   2.509 -1.9017 -1.3675  2.3466
 5040SOL     OW26752   4.060   2.440   5.426 -0.1741 -0.4694 -0.0571
 5040SOL    HW126753   4.022   2.364   5.381  0.2464 -0.4931 -0.3768
 5040SOL    HW226754   4.051   2.422   5.520  0.0672  0.0791  0.0710
 5041SOL     OW26755   0.194   0.200   0.828 -0.2008  0.2805  0.0580
 5041SOL    HW126756   0.109   0.206   0.783 -0.5677 -0.5189  0.6414
 5041SOL    HW226757   0.211   0.106   0.834 -3.6702 -0.2981  1.1034
 5042SOL     OW26758   2.864   4.316   2.775 -1.1273 -0.2814  0.2512
 5042SOL    HW126759   2.805   4.318   2.700 -1.2077  2.2074  0.3719
 5042SOL    HW226760   2.924   4.383   2.741 -1.2445 -0.0838  0.4375
 5043SOL     OW26761   1.761   3.320  11.187  0.1293 -0.2177  0.1109
 5043SOL    HW126762   1.732   3.375  11.114  2.5531 -0.0152 -0.6847
 5043SOL    HW226763   1.677   3.289  11.221 -0.1170  0.6397  0.2908
 5044SOL     OW26764   1.993   3.808   5.754  0.6510 -0.6452 -0.7982
 5044SOL    HW126765   2.020   3.899   5.762 -0.4964 -0.5706  2.0269
 5044SOL    HW226766   1.935   3.817   5.678  0.1078 -1.2011 -0.4499
 5045SOL     OW26767   3.471   2.190  13.617  0.2849  0.2477 -0.1098
 5045SOL    HW126768   3.402   2.124  13.628 -1.1811  1.5088 -1.6247
 5045SOL    HW226769   3.467   2.247  13.694  1.8435 -1.1837  1.0058
 5046SOL     OW26770   2.926   2.181  13.254 -0.2510 -0.6408 -0.2096
 5046SOL    HW126771   3.017   2.158  13.274 -0.0192  0.0856 -0.4419
 5046SOL    HW226772   2.883   2.102  13.219 -0.8042  0.0939 -1.1890
 5047SOL     OW26773   2.411   3.833   8.041  0.7179 -0.0376  0.6562
 5047SOL    HW126774   2.390   3.888   8.117 -0.6809 -2.2854  1.9002
 5047SOL    HW226775   2.369   3.870   7.964  1.5016 -0.0470  0.2302
 5048SOL     OW26776   2.370   0.920   3.114 -0.3000 -0.1974  0.0602
 5048SOL    HW126777   2.453   0.884   3.147  0.3506  0.6407 -0.6588
 5048SOL    HW226778   2.387   0.907   3.021 -1.9491 -2.4456  0.0748
 5049SOL     OW26779   4.050   3.207   8.463  0.0710  0.7736 -0.7839
 5049SOL    HW126780   4.103   3.167   8.394  0.6731 -0.9231  0.6468
 5049SOL    HW226781   4.073   3.300   8.464  0.1260  0.7642 -1.0829
 5050SOL     OW26782   0.660   1.135   3.388  0.1106  0.0851  0.8003
 5050SOL    HW126783   0.623   1.047   3.396 -1.3372  0.3382 -3.0279
 5050SOL    HW226784   0.580   1.188   3.377 -0.3947 -0.8712 -0.1103
 5051SOL     OW26785   3.566   4.557  14.509 -0.1623  0.5579 -0.1050
 5051SOL    HW126786   3.515   4.476  14.505  2.0023 -0.8139  0.5807
 5051SOL    HW226787   3.599   4.553  14.598 -0.7077 -2.0476 -0.0213
 5052SOL     OW26788   2.619   1.750  17.415  0.1355  0.1219  0.2820
 5052SOL    HW126789   2.604   1.714  17.502 -4.6808  2.6784  0.4949
 5052SOL    HW226790   2.528   1.775  17.400  0.4578  1.2761  0.2779
 5053SOL     OW26791   4.402   4.149   6.936  0.0313  0.6977 -0.1176
 5053SOL    HW126792   4.323   4.168   6.886  0.5845 -0.3857 -1.3921
 5053SOL    HW226793   4.406   4.230   6.987 -0.2696  1.0745 -0.6915
 5054SOL     OW26794   2.616   0.303   7.652  0.5609  0.4737 -0.1617
 5054SOL    HW126795   2.634   0.370   7.718 -1.8053  0.3407  0.6343
 5054SOL    HW226796   2.585   0.233   7.710  0.0302  0.3440 -0.5980
 5055SOL     OW26797   3.164   2.409  16.459 -0.2537  0.3075 -0.5104
 5055SOL    HW126798   3.201   2.362  16.384 -1.3870 -0.5932 -0.4956
 5055SOL    HW226799   3.099   2.352  16.499  2.3546 -1.5826  1.0204
 5056SOL     OW26800   1.576   2.916  16.085  0.1353  0.6275  0.1037
 5056SOL    HW126801   1.593   2.844  16.146 -1.5470 -0.7851 -1.1095
 5056SOL    HW226802   1.498   2.951  16.128  0.3315  1.8261 -0.5227
 5057SOL     OW26803   1.186   2.804   7.454  0.7161  0.5291 -0.0192
 5057SOL    HW126804   1.220   2.886   7.489  0.6241  0.3270  0.5464
 5057SOL    HW226805   1.094   2.831   7.453  0.4267 -0.3711  1.8616
 5058SOL     OW26806   3.159   4.010   8.978 -0.5045  0.1168  0.5714
 5058SOL    HW126807   3.231   3.948   8.994 -1.5228 -0.9149  1.1784
 5058SOL    HW226808   3.110   4.004   9.060  0.8008  3.0484  1.5464
 5059SOL     OW26809   2.438   3.747   5.251 -0.2926 -0.0689 -0.3405
 5059SOL    HW126810   2.407   3.828   5.291  1.0472 -0.0513  0.6590
 5059SOL    HW226811   2.455   3.691   5.326  0.0490  0.4803 -0.0043
 5060SOL     OW26812   3.800   0.272   2.385 -0.2097 -0.0130 -0.4236
 5060SOL    HW126813   3.783   0.199   2.443 -0.2484  0.3037 -0.0375
 5060SOL    HW226814   3.853   0.232   2.316 -2.4179 -0.2775 -1.9689
 5061SOL     OW26815   2.618   2.497   1.458 -0.0542 -0.4333  0.1251
 5061SOL    HW126816   2.692   2.499   1.518 -2.0155  0.5418  2.4820
 5061SOL    HW226817   2.669   2.467   1.382 -2.6547 -2.5102 -0.8033
 5062SOL     OW26818   1.150   4.074   2.361  0.0081 -0.1235 -0.2545
 5062SOL    HW126819   1.228   4.053   2.412 -0.8681 -0.1924  1.0543
 5062SOL    HW226820   1.128   4.161   2.395 -1.0179 -0.7325  0.6502
 5063SOL     OW26821   4.138   0.698   3.499 -0.3638 -0.0327 -0.3110
 5063SOL    HW126822   4.102   0.659   3.419 -0.4998  1.9314 -1.1972
 5063SOL    HW226823   4.212   0.750   3.469 -0.5811 -0.1370 -1.0438
 5064SOL     OW26824   4.645   1.393   1.210  0.2868  0.3400  0.2999
 5064SOL    HW126825   4.685   1.306   1.217  0.3372  0.2605 -1.0433
 5064SOL    HW226826   4.662   1.434   1.295  0.5730 -0.1649  0.4869
 5065SOL     OW26827   2.403   2.517   7.048 -0.1477 -0.0494 -0.0995
 5065SOL    HW126828   2.473   2.509   7.112 -1.0060 -1.0056  0.7248
 5065SOL    HW226829   2.448   2.582   6.994  1.0197 -1.8066 -1.2052
 5066SOL     OW26830   4.325   0.790   1.045 -0.1218 -0.3239 -0.0339
 5066SOL    HW126831   4.390   0.730   1.081 -1.7259 -1.6517  0.6606
 5066SOL    HW226832   4.318   0.861   1.109 -0.2140  0.4689 -0.9194
 5067SOL     OW26833   3.393   0.115   4.338 -0.1012 -0.1086 -0.2496
 5067SOL    HW126834   3.348   0.030   4.339  0.6377 -0.4862  0.7693
 5067SOL    HW226835   3.372   0.143   4.248 -1.0347  2.7752  0.8709
 5068SOL     OW26836   2.477   4.172   6.683 -0.0803  0.3375 -0.6872
 5068SOL    HW126837   2.392   4.158   6.724 -0.0007  0.0911 -0.6087
 5068SOL    HW226838   2.504   4.242   6.742  1.9013 -1.3268  0.3772
 5069SOL     OW26839   1.780   2.839   1.888  0.1803  0.2627  0.5839
 5069SOL    HW126840   1.841   2.887   1.832 -0.1319  0.1861  0.1768
 5069SOL    HW226841   1.730   2.788   1.825 -0.1090 -0.2999  1.2636
 5070SOL     OW26842   0.505   0.427   8.137  0.0252  0.0255  0.3909
 5070SOL    HW126843   0.579   0.388   8.090  0.1809  2.8092 -1.6514
 5070SOL    HW226844   0.452   0.458   8.064  1.0696 -0.2552 -0.4983
 5071SOL     OW26845   0.368   4.479   8.349 -0.0597  0.6147 -0.1760
 5071SOL    HW126846   0.302   4.546   8.327 -0.3957  0.4436  0.3104
 5071SOL    HW226847   0.383   4.433   8.266 -1.1865 -0.0418 -0.0200
 5072SOL     OW26848   0.749   4.350   5.289  0.0245  0.1553 -0.0780
 5072SOL    HW126849   0.737   4.291   5.215  1.8957 -0.7527  0.3250
 5072SOL    HW226850   0.663   4.391   5.296  0.5596  1.3915 -0.8276
 5073SOL     OW26851   3.832   2.914  11.771  0.1305 -0.7023  0.3813
 5073SOL    HW126852   3.840   2.835  11.718  1.1473 -0.4074  0.1052
 5073SOL    HW226853   3.856   2.884  11.859  2.6988  0.9292  0.2270
 5074SOL     OW26854   0.890   0.332   6.037 -0.1273  0.4201  0.1489
 5074SOL    HW126855   0.824   0.282   5.988  0.1221  0.3653 -0.1315
 5074SOL    HW226856   0.970   0.316   5.986  1.4756  0.0817  2.7788
 5075SOL     OW26857   0.938   1.496   0.329  0.2201 -0.3027 -0.1058
 5075SOL    HW126858   0.871   1.544   0.282  0.0361 -0.8117 -0.3552
 5075SOL    HW226859   0.928   1.540   0.414  2.3524 -1.6772  0.8754
 5076SOL     OW26860   0.671   0.928   0.644 -0.5806  0.1055 -0.3880
 5076SOL    HW126861   0.588   0.925   0.596 -1.1473  1.1297  0.5400
 5076SOL    HW226862   0.721   0.877   0.580 -2.4391 -0.3763 -1.4706
 5077SOL     OW26863   1.957   4.511   9.250  0.1592 -0.2635  0.1486
 5077SOL    HW126864   2.013   4.582   9.282 -2.2554  1.5487  0.3347
 5077SOL    HW226865   2.003   4.481   9.171  1.9222 -0.5665  1.3012
 5078SOL     OW26866   3.872   1.616   9.107 -0.1179  0.2796 -0.1521
 5078SOL    HW126867   3.887   1.525   9.083  0.4173  0.1695  0.6225
 5078SOL    HW226868   3.951   1.624   9.160  1.0899  0.4540 -1.9542
 5079SOL     OW26869   0.442   1.317   9.426 -0.0119 -0.2010 -0.5107
 5079SOL    HW126870   0.457   1.281   9.338 -0.6560 -1.0752 -0.2586
 5079SOL    HW226871   0.496   1.395   9.427  0.5446 -0.5780 -0.9644
 5080SOL     OW26872   2.050   3.664   6.023  0.1182 -0.3481  0.5127
 5080SOL    HW126873   2.057   3.699   5.934 -1.8037 -1.7155 -0.1922
 5080SOL    HW226874   1.968   3.614   6.016  1.5441 -2.5318 -0.6102
 5081SOL     OW26875   0.590   2.395   4.982 -0.0047  0.1493  0.3335
 5081SOL    HW126876   0.656   2.326   4.987 -1.2656 -1.1796 -1.7130
 5081SOL    HW226877   0.607   2.433   5.069 -0.4587  0.8526  0.1133
 5082SOL     OW26878   1.741   3.154   2.630  0.0252  0.5222 -0.1981
 5082SOL    HW126879   1.777   3.074   2.667 -0.0452  1.0156  0.9366
 5082SOL    HW226880   1.770   3.158   2.539  0.1514  3.1427 -0.0557
 5083SOL     OW26881   3.461   2.764  13.235  0.2991  0.1210 -0.3061
 5083SOL    HW126882   3.499   2.682  13.205 -1.0521 -1.1805  1.5746
 5083SOL    HW226883   3.520   2.794  13.304  0.5602 -1.3123  0.0804
 5084SOL     OW26884   2.742   0.507   3.725 -0.5227  0.4913 -0.3922
 5084SOL    HW126885   2.682   0.433   3.715  0.9042 -0.8766  1.3391
 5084SOL    HW226886   2.734   0.560   3.645 -0.1636  2.5497  0.9647
 5085SOL     OW26887   3.511   4.298   4.773  0.1828 -0.2026  0.5265
 5085SOL    HW126888   3.557   4.265   4.851 -0.2134 -0.5057  0.6358
 5085SOL    HW226889   3.435   4.330   4.821  0.8868 -0.4643  1.8555
 5086SOL     OW26890   2.197   0.676  17.016  0.1191 -0.0667 -0.3539
 5086SOL    HW126891   2.272   0.735  17.017 -1.1625  1.5586  0.5016
 5086SOL    HW226892   2.123   0.736  17.008 -0.5654 -0.8161  0.3124
 5087SOL     OW26893   0.250   1.196   6.417 -0.0019  0.2776 -0.0798
 5087SOL    HW126894   0.311   1.190   6.344  1.1041 -0.0782  0.8707
 5087SOL    HW226895   0.287   1.123   6.466  0.8518  0.2328 -0.7929
 5088SOL     OW26896   3.154   3.501   2.660  0.1339  0.4335  0.2805
 5088SOL    HW126897   3.080   3.561   2.656 -0.2451 -0.1863 -1.7125
 5088SOL    HW226898   3.207   3.559   2.716  0.1785 -1.2617  1.9922
 5089SOL     OW26899   0.677   1.946  14.733  0.2449 -0.4204  0.0172
 5089SOL    HW126900   0.607   1.956  14.669  0.9751 -0.3692 -0.7688
 5089SOL    HW226901   0.729   1.885  14.682 -1.3896 -2.1466  0.3995
 5090SOL     OW26902   2.165   4.342   4.710 -0.0332 -0.1277  0.2248
 5090SOL    HW126903   2.141   4.384   4.627  1.7380  0.6946  0.1185
 5090SOL    HW226904   2.179   4.423   4.758 -0.5136 -0.1680  0.4274
 5091SOL     OW26905   1.617   3.681   5.929  0.0778 -0.2983  0.7802
 5091SOL    HW126906   1.620   3.713   5.838  1.0493 -0.5346  0.7236
 5091SOL    HW226907   1.551   3.744   5.958 -1.4268 -0.1654 -2.9267
 5092SOL     OW26908   1.033   1.785   3.762 -0.0639  0.0398  0.1107
 5092SOL    HW126909   1.008   1.849   3.697  0.1406  0.0038 -0.0045
 5092SOL    HW226910   1.095   1.840   3.810 -1.9263  0.5942  1.8962
 5093SOL     OW26911   3.468   2.061   2.820  0.8534 -0.2244  0.4140
 5093SOL    HW126912   3.457   1.967   2.835 -0.1150 -0.1492  0.1387
 5093SOL    HW226913   3.562   2.069   2.832  0.9326  1.6235 -1.5523
 5094SOL     OW26914   1.997   0.642   6.318 -0.3848 -0.3991 -0.2244
 5094SOL    HW126915   1.945   0.585   6.375 -0.9015  0.1206 -0.1732
 5094SOL    HW226916   2.013   0.590   6.240  0.7520 -0.0815 -0.1990
 5095SOL     OW26917   0.438   1.696   7.337  0.3101 -0.0984  0.1436
 5095SOL    HW126918   0.484   1.775   7.308  0.5389 -0.2758  0.0258
 5095SOL    HW226919   0.355   1.741   7.352  1.2644  1.3772  0.9210
 5096SOL     OW26920   0.864   0.519   1.559 -0.0872  0.5427  0.8645
 5096SOL    HW126921   0.814   0.438   1.573 -0.1677  0.3515 -0.5665
 5096SOL    HW226922   0.793   0.582   1.567 -0.4278  0.3237 -0.4216
 5097SOL     OW26923   1.547   4.513   4.851  0.3336  0.2025 -0.2331
 5097SOL    HW126924   1.558   4.454   4.925 -0.2781 -1.9385 -1.8183
 5097SOL    HW226925   1.460   4.478   4.829 -0.9996  2.0051  2.2230
 5098SOL     OW26926   2.330   1.333   2.716  0.4089  0.7287  0.6046
 5098SOL    HW126927   2.403   1.376   2.762  0.9447 -2.3618  2.6691
 5098SOL    HW226928   2.313   1.400   2.650 -1.4399  2.4189  2.8063
 5099SOL     OW26929   1.104   2.013   4.589 -0.5312  0.6897  0.4640
 5099SOL    HW126930   1.091   2.009   4.494 -2.6826 -1.4302  0.8448
 5099SOL    HW226931   1.200   2.011   4.593 -0.4984  1.5615  0.1200
 5100SOL     OW26932   1.996   4.605   2.616  0.3130 -0.4839  0.3552
 5100SOL    HW126933   1.925   4.554   2.578  1.4353 -2.1936  0.5774
 5100SOL    HW226934   1.974   4.691   2.580  1.7636 -0.0332  0.5389
 5101SOL     OW26935   1.069   0.978  15.460  0.4205  0.2310  0.1855
 5101SOL    HW126936   1.017   0.950  15.385 -0.0926 -2.8162  1.6759
 5101SOL    HW226937   1.098   0.895  15.499  1.9117 -0.3594 -2.2098
 5102SOL     OW26938   2.623   2.183   0.524 -0.2070  1.2148 -0.0160
 5102SOL    HW126939   2.607   2.135   0.605  0.3504  0.3049 -0.4431
 5102SOL    HW226940   2.575   2.266   0.529 -0.0758  1.1866  1.5586
 5103SOL     OW26941   4.401   2.642   7.723  0.3448  0.5613 -0.2396
 5103SOL    HW126942   4.480   2.695   7.710 -0.6224  1.8187 -0.9892
 5103SOL    HW226943   4.420   2.593   7.803  0.4033 -0.2088 -0.7290
 5104SOL     OW26944   2.111   3.848   6.205 -0.1392 -0.2196 -0.2311
 5104SOL    HW126945   2.092   3.801   6.286 -1.0683  0.6359  0.0382
 5104SOL    HW226946   2.072   3.793   6.136  0.3195  0.8038 -1.2969
 5105SOL     OW26947   2.677   4.410  13.448  0.2329  0.5637 -0.1944
 5105SOL    HW126948   2.604   4.441  13.501  0.3916  0.4575  0.0885
 5105SOL    HW226949   2.696   4.481  13.387 -2.6427  1.9762  0.5883
 5106SOL     OW26950   3.545   3.993   4.006  0.6301 -0.2399 -0.2217
 5106SOL    HW126951   3.540   3.986   3.911  0.5391 -2.2126 -0.0759
 5106SOL    HW226952   3.613   3.930   4.030 -0.3119 -1.0887  0.2688
 5107SOL     OW26953   3.489   2.724  10.164  0.1179 -1.0650 -0.3371
 5107SOL    HW126954   3.570   2.769  10.140  0.9986 -1.4814  1.9052
 5107SOL    HW226955   3.442   2.743  10.082  1.8441  0.2380 -1.0306
 5108SOL     OW26956   1.396   2.142  11.109  0.6753 -0.5375  0.0552
 5108SOL    HW126957   1.452   2.220  11.110  1.2950 -0.9883  0.4309
 5108SOL    HW226958   1.327   2.178  11.054  0.1455 -0.7829  0.5727
 5109SOL     OW26959   1.539   0.812   2.737 -0.4189  0.2596 -0.0644
 5109SOL    HW126960   1.504   0.795   2.825 -1.3252  0.4312 -0.3847
 5109SOL    HW226961   1.455   0.828   2.693 -0.7476  0.9581  0.7975
 5110SOL     OW26962   4.038   1.553  14.618 -0.2531 -0.5843 -0.6519
 5110SOL    HW126963   4.029   1.628  14.560  1.2033  0.3240  0.2990
 5110SOL    HW226964   4.037   1.482  14.553 -0.8947 -2.4011  1.3564
 5111SOL     OW26965   1.110   1.611   4.170  0.1207  0.0319 -0.3387
 5111SOL    HW126966   1.177   1.675   4.197  0.0368 -0.5156  1.1900
 5111SOL    HW226967   1.040   1.622   4.234 -0.6527 -3.0053 -0.6641
 5112SOL     OW26968   0.909   2.722   8.139 -0.0611  0.0391  0.3531
 5112SOL    HW126969   0.965   2.656   8.180 -1.9613 -1.6677  0.2051
 5112SOL    HW226970   0.948   2.739   8.053 -0.8240 -1.0017 -0.1984
 5113SOL     OW26971   0.626   0.979   4.551 -0.0971 -0.2637 -0.6769
 5113SOL    HW126972   0.687   1.033   4.601 -1.4951 -0.0446  0.8012
 5113SOL    HW226973   0.567   0.957   4.623 -0.3720 -1.2070 -1.1809
 5114SOL     OW26974   1.987   4.626   1.942  0.0730 -0.0792  0.4131
 5114SOL    HW126975   2.005   4.636   2.035  0.8597 -0.6739  0.3292
 5114SOL    HW226976   2.030   4.542   1.926 -0.1704 -0.0503 -0.4180
 5115SOL     OW26977   2.898   2.016   8.804  0.6777  0.2579  0.1042
 5115SOL    HW126978   2.901   1.944   8.868 -0.2879  2.1326  2.2813
 5115SOL    HW226979   2.936   1.971   8.729  0.9831  1.2339 -0.3171
 5116SOL     OW26980   2.563   0.131  15.857 -0.1972 -0.2865 -0.0092
 5116SOL    HW126981   2.510   0.176  15.923  0.9975 -0.1511  0.8518
 5116SOL    HW226982   2.538   0.189  15.785 -1.9066  0.1911  0.9540
 5117SOL     OW26983   1.797   2.817  10.442  0.2431  0.1384 -0.2288
 5117SOL    HW126984   1.846   2.855  10.515  2.9337 -1.8232 -1.0202
 5117SOL    HW226985   1.709   2.854  10.447 -0.1213 -1.0987  2.3363
 5118SOL     OW26986   3.217   3.774  16.289 -0.3805  0.4237 -0.0387
 5118SOL    HW126987   3.141   3.829  16.304 -1.4985 -1.3703  0.8626
 5118SOL    HW226988   3.280   3.834  16.250  2.2772 -1.7752  0.7987
 5119SOL     OW26989   1.964   2.767   0.676 -0.1048  0.0637 -0.2578
 5119SOL    HW126990   1.999   2.750   0.588  0.3964 -1.9902  0.3214
 5119SOL    HW226991   1.878   2.729   0.658 -0.4947  0.3987  0.9184
 5120SOL     OW26992   2.970   2.990   8.720 -0.2312 -0.2531  0.5021
 5120SOL    HW126993   3.024   3.050   8.771 -0.6694  1.1030 -0.6156
 5120SOL    HW226994   3.009   2.909   8.753  0.2534  0.1965  1.0413
 5121SOL     OW26995   2.784   4.640  13.316 -0.0864 -0.3929 -0.3451
 5121SOL    HW126996   2.821   4.676  13.236  0.9048  0.0474  0.3172
 5121SOL    HW226997   2.776   4.725  13.360  2.3532 -0.4979  0.3148
 5122SOL     OW26998   0.876   1.781   4.326 -0.0368 -0.1413  0.3176
 5122SOL    HW126999   0.949   1.766   4.387  1.3688 -1.3192 -1.6699
 5122SOL    HW227000   0.807   1.745   4.382  2.0597 -1.3907  2.1350
 5123SOL     OW27001   0.631   1.541  15.708  0.1415 -0.2640  0.6743
 5123SOL    HW127002   0.538   1.522  15.695  0.5583 -2.4407  0.8193
 5123SOL    HW227003   0.627   1.616  15.767  0.8130  0.5052 -0.2531
 5124SOL     OW27004   0.998   0.884   3.454  0.1124 -0.0199  0.5874
 5124SOL    HW127005   0.980   0.801   3.409  0.0448  0.4090 -0.1741
 5124SOL    HW227006   0.996   0.944   3.380  0.2749  1.3271  1.6808
 5125SOL     OW27007   4.635   4.349  10.168  0.6669 -0.2975  0.5116
 5125SOL    HW127008   4.661   4.401  10.244  1.8094 -0.4251  0.2031
 5125SOL    HW227009   4.682   4.388  10.095  0.6385 -1.8822 -0.3397
 5126SOL     OW27010   2.833   3.602   8.568  0.4253  0.3315 -0.2949
 5126SOL    HW127011   2.796   3.654   8.496 -0.7486 -1.7581 -1.2145
 5126SOL    HW227012   2.774   3.526   8.570 -0.1631  0.7690 -1.1277
 5127SOL     OW27013   2.554   1.554   8.776  0.2608 -0.5140 -0.4517
 5127SOL    HW127014   2.569   1.579   8.684  0.8893  0.5127 -0.0739
 5127SOL    HW227015   2.568   1.459   8.770 -2.9406 -1.0114 -0.0969
 5128SOL     OW27016   3.426   1.582   5.755  0.3870  0.3815 -0.1625
 5128SOL    HW127017   3.387   1.655   5.803  2.4264  0.0279  2.0205
 5128SOL    HW227018   3.408   1.603   5.663  1.0195 -0.0016 -0.3739
 5129SOL     OW27019   2.769   1.207  10.446 -0.5486 -0.6233  0.0913
 5129SOL    HW127020   2.776   1.187  10.539 -0.8374 -0.9446  0.0440
 5129SOL    HW227021   2.779   1.302  10.452 -2.2612 -0.4485  0.1456
 5130SOL     OW27022   3.455   4.179   3.586  0.9356  0.6609 -0.2274
 5130SOL    HW127023   3.398   4.160   3.511 -0.6864  2.3548  0.5962
 5130SOL    HW227024   3.517   4.246   3.556  1.1133  0.8372  0.5531
 5131SOL     OW27025   2.119   4.674   2.846  0.4695 -0.2255  0.1924
 5131SOL    HW127026   2.190   4.630   2.799  0.2012 -0.2972 -0.1462
 5131SOL    HW227027   2.049   4.657   2.783  1.8735 -0.3966 -1.3145
 5132SOL     OW27028   2.792   3.846   9.881 -0.6605 -0.2958 -0.3670
 5132SOL    HW127029   2.822   3.849   9.791  0.4441  1.4166  0.0490
 5132SOL    HW227030   2.869   3.797   9.910 -0.2090  0.4101 -0.3769
 5133SOL     OW27031   2.843   0.502  12.415  0.3130  0.1481 -0.0937
 5133SOL    HW127032   2.791   0.453  12.351  0.4614  0.2839 -0.3203
 5133SOL    HW227033   2.892   0.429  12.453  0.5492  0.0262 -0.6207
 5134SOL     OW27034   4.089   3.470   7.998  0.2719 -0.0591 -0.5955
 5134SOL    HW127035   4.016   3.429   7.952 -1.5932  2.8283 -0.1781
 5134SOL    HW227036   4.038   3.545   8.028  1.0371  0.1978  0.0575
 5135SOL     OW27037   0.182   2.704   6.395  0.2711 -0.1314  0.7550
 5135SOL    HW127038   0.224   2.790   6.405 -0.1445  0.2002 -0.3096
 5135SOL    HW227039   0.135   2.711   6.311 -1.0522  1.3156  1.6125
 5136SOL     OW27040   3.453   1.619   2.378 -0.1432 -0.2431  0.3323
 5136SOL    HW127041   3.498   1.691   2.333 -2.4959 -1.1316 -3.4366
 5136SOL    HW227042   3.513   1.552   2.347 -0.8743 -1.3733  1.3804
 5137SOL     OW27043   4.430   1.104  17.499  0.1978 -0.0449  0.4785
 5137SOL    HW127044   4.367   1.064  17.440 -0.9965  1.1425  0.9516
 5137SOL    HW227045   4.511   1.081  17.453  0.5761 -1.4651  1.8354
 5138SOL     OW27046   0.174   1.310   2.935  0.1946 -0.4091 -0.0076
 5138SOL    HW127047   0.159   1.330   2.843  0.3733 -2.2485 -0.4162
 5138SOL    HW227048   0.101   1.260   2.971 -0.6708  0.6688 -0.2670
 5139SOL     OW27049   3.415   1.677   0.199  0.0485  0.0122  0.0302
 5139SOL    HW127050   3.444   1.742   0.262  0.6294 -1.0876  0.9004
 5139SOL    HW227051   3.336   1.634   0.233 -1.2571  1.1239 -1.6139
 5140SOL     OW27052   2.199   0.597   8.247  0.5203 -0.2773  0.2613
 5140SOL    HW127053   2.152   0.676   8.221 -0.0373 -0.1955  1.5469
 5140SOL    HW227054   2.239   0.578   8.162  0.9757 -0.4639  0.5187
 5141SOL     OW27055   2.530   2.295   8.708 -0.1536 -0.1279 -0.1143
 5141SOL    HW127056   2.526   2.334   8.620 -3.6344 -1.2020 -0.4243
 5141SOL    HW227057   2.620   2.264   8.703  0.0068  0.1981  0.7756
 5142SOL     OW27058   4.562   1.404   4.273  0.4508 -0.2133  0.1006
 5142SOL    HW127059   4.651   1.382   4.245  0.7061  0.9705 -0.0101
 5142SOL    HW227060   4.538   1.464   4.203  1.0956 -0.7579 -0.5809
 5143SOL     OW27061   2.314   4.035   3.811 -0.2832  0.6002  0.2319
 5143SOL    HW127062   2.351   3.951   3.835  0.8808  1.1415  0.3390
 5143SOL    HW227063   2.396   4.085   3.815 -0.7441  1.4834 -1.2907
 5144SOL     OW27064   0.588   0.589  16.362 -0.6384 -0.2636  0.1564
 5144SOL    HW127065   0.667   0.539  16.383 -0.6642  0.2623  1.4771
 5144SOL    HW227066   0.532   0.513  16.377 -1.3607  0.2468  0.0737
 5145SOL     OW27067   1.207   1.347   6.013  0.0068 -0.3631  0.0523
 5145SOL    HW127068   1.297   1.363   6.042 -0.4588 -0.7366  1.7260
 5145SOL    HW227069   1.176   1.436   6.001  2.3900  0.4286 -0.3244
 5146SOL     OW27070   4.129   2.252  10.052 -0.7162  0.2069 -0.2291
 5146SOL    HW127071   4.165   2.264  10.140  0.5005 -0.6437 -0.6041
 5146SOL    HW227072   4.177   2.310   9.993 -0.7061  0.4525  0.0220
 5147SOL     OW27073   0.230   0.994   1.077 -0.3562  0.1432 -0.8202
 5147SOL    HW127074   0.319   1.001   1.042  0.4885  0.4083  1.3419
 5147SOL    HW227075   0.188   0.926   1.024 -1.2235 -0.3156  0.4396
 5148SOL     OW27076   3.540   4.536   7.307 -0.5960 -0.3243  0.6873
 5148SOL    HW127077   3.580   4.603   7.362  2.2973 -0.3181 -1.4238
 5148SOL    HW227078   3.542   4.458   7.362  1.2068 -0.6528  0.1407
 5149SOL     OW27079   0.226   2.202   4.179  0.4052  0.3009  0.5845
 5149SOL    HW127080   0.234   2.265   4.251  1.8599  2.0883 -1.1287
 5149SOL    HW227081   0.199   2.125   4.229 -0.6607  1.7424  2.2405
 5150SOL     OW27082   1.899   1.069   9.051 -0.5029  0.0169 -0.7938
 5150SOL    HW127083   1.866   1.156   9.071 -0.8845 -0.5276  0.9196
 5150SOL    HW227084   1.897   1.077   8.955  0.6785  1.7424 -0.6781
 5151SOL     OW27085   0.666   0.276   0.009  0.2426  0.5069  0.5833
 5151SOL    HW127086   0.674   0.273  17.665 -0.8076 -0.9745  0.5444
 5151SOL    HW227087   0.758   0.278   0.035  0.2083  0.5192  0.7018
 5152SOL     OW27088   4.174   1.563   1.879 -0.3195  0.3263  0.4264
 5152SOL    HW127089   4.084   1.583   1.852 -0.5396  0.3776  1.1967
 5152SOL    HW227090   4.182   1.598   1.967  0.1867 -0.5170  0.7167
 5153SOL     OW27091   2.093   2.056   7.807 -0.4352 -0.1430 -0.0802
 5153SOL    HW127092   2.125   1.973   7.842  1.2496  0.6881  0.3875
 5153SOL    HW227093   2.124   2.048   7.717  0.8334 -0.3923  0.3721
 5154SOL     OW27094   1.390   0.468   6.594 -0.2239 -0.4109  0.0248
 5154SOL    HW127095   1.335   0.474   6.672 -0.3598  0.7205 -0.1581
 5154SOL    HW227096   1.332   0.458   6.519  0.7677  0.2431 -0.8125
 5155SOL     OW27097   0.765   3.908  13.579  0.4910 -0.1829 -0.3981
 5155SOL    HW127098   0.700   3.854  13.533  1.6332 -1.7743 -0.1327
 5155SOL    HW227099   0.737   3.993  13.544  0.5488 -0.3566 -0.8781
 5156SOL     OW27100   1.374   2.449   5.010  0.0664  0.2284 -0.2937
 5156SOL    HW127101   1.383   2.541   5.033  2.3687 -0.3289  1.0103
 5156SOL    HW227102   1.447   2.434   4.951 -0.2362  0.0145 -0.6147
 5157SOL     OW27103   4.491   4.298  10.823  0.8535 -0.4311 -0.5214
 5157SOL    HW127104   4.437   4.248  10.886  1.4724  1.6050  1.6233
 5157SOL    HW227105   4.539   4.228  10.780  0.5462  0.4727 -2.3301
 5158SOL     OW27106   1.684   1.915  15.541 -0.6800 -0.0180  0.3041
 5158SOL    HW127107   1.768   1.889  15.501  0.3889 -0.6961  2.9677
 5158SOL    HW227108   1.628   1.858  15.488  0.0397  1.0345 -1.6118
 5159SOL     OW27109   1.896   2.833   6.603 -0.7117 -0.0034  0.0464
 5159SOL    HW127110   1.864   2.895   6.667 -0.3364 -0.1332  0.3601
 5159SOL    HW227111   1.836   2.842   6.529  0.4543 -0.2958 -0.9410
 5160SOL     OW27112   0.546   1.359   5.865 -0.4851 -0.3653 -0.3759
 5160SOL    HW127113   0.591   1.275   5.873 -1.5412 -0.7436  1.5067
 5160SOL    HW227114   0.511   1.354   5.776  0.7267  0.0486 -0.8769
 5161SOL     OW27115   4.603   0.934  16.039  0.0003 -0.7310  0.3117
 5161SOL    HW127116   4.525   0.890  16.071  1.2487 -3.3053 -0.2334
 5161SOL    HW227117   4.557   1.012  16.006  1.8875 -0.0144 -0.6255
 5162SOL     OW27118   0.289   2.758   8.285  0.4141  0.0332 -0.4393
 5162SOL    HW127119   0.326   2.801   8.208  1.1950  0.4735  0.1802
 5162SOL    HW227120   0.346   2.682   8.287  1.8488  1.1962  2.1329
 5163SOL     OW27121   2.499   3.498   5.343  0.0505  0.1554  0.0861
 5163SOL    HW127122   2.560   3.476   5.273  0.3265  1.0620  0.0410
 5163SOL    HW227123   2.562   3.536   5.403 -0.1442  2.6020 -1.2650
 5164SOL     OW27124   4.343   3.318   8.605  0.2001 -0.2899  0.2431
 5164SOL    HW127125   4.290   3.391   8.637 -0.0075 -0.2050 -0.2804
 5164SOL    HW227126   4.431   3.356   8.606 -0.4623  1.2547 -0.4488
 5165SOL     OW27127   4.727   2.079  12.369 -0.9041 -0.0735 -0.0532
 5165SOL    HW127128   0.084   2.065  12.372 -1.0602 -0.9970  0.5574
 5165SOL    HW227129   4.692   2.014  12.309 -2.8051  1.0359 -0.1561
 5166SOL     OW27130   3.983   4.167   6.002 -0.1249  0.4105 -1.1756
 5166SOL    HW127131   3.942   4.217   6.073  1.5163  1.2806 -0.8349
 5166SOL    HW227132   4.057   4.131   6.051 -1.9078  0.7115  1.7884
 5167SOL     OW27133   1.386   3.580  10.181  0.2135  0.0967 -0.2061
 5167SOL    HW127134   1.354   3.656  10.230 -0.9578 -1.1851  0.9936
 5167SOL    HW227135   1.474   3.601  10.148  0.3551  0.5263  0.4465
 5168SOL     OW27136   3.658   2.954   7.825  0.1333 -0.3134 -0.2593
 5168SOL    HW127137   3.593   2.885   7.813 -0.5056  0.0025  1.3903
 5168SOL    HW227138   3.669   2.967   7.920 -1.6933  1.3455 -0.2725
 5169SOL     OW27139   0.952   0.241   0.054  0.5678  0.3234 -0.6517
 5169SOL    HW127140   0.996   0.303  17.747  0.7155  0.7056 -0.1343
 5169SOL    HW227141   0.988   0.160   0.016  0.8618 -0.0600  0.4506
 5170SOL     OW27142   2.367   3.071   0.204 -0.0423 -0.0385  0.1148
 5170SOL    HW127143   2.372   3.036   0.115 -1.7581  0.1048 -0.0468
 5170SOL    HW227144   2.459   3.083   0.228 -0.1280  1.5450 -0.4228
 5171SOL     OW27145   3.111   1.456  13.524 -0.1013 -0.6640 -0.0156
 5171SOL    HW127146   3.115   1.394  13.597  1.0658  0.2457  0.6847
 5171SOL    HW227147   3.042   1.513  13.559  1.6117  1.3407  0.0648
 5172SOL     OW27148   0.549   3.932   6.664  0.2964  0.5827  0.0048
 5172SOL    HW127149   0.536   4.018   6.623 -0.6218  0.0280 -0.8837
 5172SOL    HW227150   0.644   3.928   6.658  0.1247 -0.5043 -2.1417
 5173SOL     OW27151   4.496   0.764   4.901 -0.2283  0.3771 -0.4412
 5173SOL    HW127152   4.478   0.837   4.960  1.1818 -0.7917  1.4361
 5173SOL    HW227153   4.522   0.809   4.820 -1.9710  1.6989 -0.2579
 5174SOL     OW27154   1.157   4.103   6.431  0.1105 -0.0972 -0.0811
 5174SOL    HW127155   1.105   4.027   6.458  0.9701 -0.4641  0.5512
 5174SOL    HW227156   1.105   4.163   6.483 -3.2230 -2.1336 -1.0415
 5175SOL     OW27157   4.326   3.356   0.072  0.1745  0.4007 -0.4789
 5175SOL    HW127158   4.419   3.346   0.049  0.2089 -0.4787  0.0479
 5175SOL    HW227159   4.282   3.408   0.006  1.2524  0.4921 -1.1335
 5176SOL     OW27160   1.959   0.060   4.055  0.1802  0.3109  0.2731
 5176SOL    HW127161   2.028   0.000   4.081  2.6263  1.6316 -3.1768
 5176SOL    HW227162   2.010   0.116   3.997  0.4658  1.5567  1.7042
 5177SOL     OW27163   4.152   3.323  12.856 -0.2065 -0.5338 -0.0195
 5177SOL    HW127164   4.062   3.325  12.823  0.1271 -1.1903 -0.9559
 5177SOL    HW227165   4.138   3.306  12.949 -1.8101 -0.0705 -0.1819
 5178SOL     OW27166   2.888   1.930   4.545 -0.3882  0.1790 -0.4515
 5178SOL    HW127167   2.876   2.016   4.505  2.4236  0.5448 -0.4780
 5178SOL    HW227168   2.802   1.918   4.586  0.4799  0.8992  1.6068
 5179SOL     OW27169   0.886   4.006   7.683 -0.2489 -0.1428 -0.0624
 5179SOL    HW127170   0.902   4.101   7.686 -1.3667  0.0039  1.6875
 5179SOL    HW227171   0.920   3.982   7.597  0.3296 -2.6014  0.8719
 5180SOL     OW27172   2.619   2.722   6.070 -0.0172 -0.1514 -0.0928
 5180SOL    HW127173   2.534   2.680   6.086  0.2058 -0.1646  1.1251
 5180SOL    HW227174   2.612   2.798   6.014  1.2702 -0.7232 -1.0211
 5181SOL     OW27175   0.917   3.954   3.032  0.0473 -0.6409 -0.2352
 5181SOL    HW127176   0.979   4.006   2.980 -1.1073  1.4950  0.5135
 5181SOL    HW227177   0.928   3.865   2.998  0.9930 -1.0950  1.2591
 5182SOL     OW27178   1.501   1.083   4.411  0.4075 -0.3612 -0.1866
 5182SOL    HW127179   1.433   1.057   4.349  0.7945  1.0248 -1.1978
 5182SOL    HW227180   1.578   1.059   4.360  1.5359  2.4493  0.1587
 5183SOL     OW27181   2.791   4.266   2.316  0.5922  0.1450 -0.1259
 5183SOL    HW127182   2.740   4.197   2.357  1.2086 -0.2169  0.0391
 5183SOL    HW227183   2.806   4.214   2.237 -0.6911  0.2459 -0.4272
 5184SOL     OW27184   2.962   3.143   4.787  0.0341  0.4682  0.0840
 5184SOL    HW127185   2.951   3.234   4.814 -0.2536  0.8760 -1.4397
 5184SOL    HW227186   3.016   3.112   4.860 -1.5512 -0.2098  0.9829
 5185SOL     OW27187   0.418   3.277   8.634  0.1867  0.0181 -0.1323
 5185SOL    HW127188   0.326   3.302   8.620 -0.6119 -1.3854  2.8494
 5185SOL    HW227189   0.460   3.322   8.560 -2.8575  2.4165 -0.4116
 5186SOL     OW27190   3.352   4.639   3.766  0.2337 -0.8258 -0.6148
 5186SOL    HW127191   3.311   4.638   3.680  0.2925  1.3700 -0.6815
 5186SOL    HW227192   3.304   4.566   3.805  0.0077  0.5305  1.6433
 5187SOL     OW27193   4.285   1.983  10.168 -0.4168  0.0128 -0.0958
 5187SOL    HW127194   4.194   1.994  10.194 -0.7822 -0.1840 -1.2663
 5187SOL    HW227195   4.287   2.045  10.094  0.8617  1.3507  1.0395
 5188SOL     OW27196   2.961   1.865   6.163 -0.5687 -0.4671  0.1466
 5188SOL    HW127197   2.900   1.804   6.205 -0.4953 -1.5568 -1.3006
 5188SOL    HW227198   3.017   1.807   6.111  1.6159  0.4550  1.4723
 5189SOL     OW27199   3.625   3.350   2.059  0.1955 -0.7260 -0.0912
 5189SOL    HW127200   3.549   3.359   2.002 -0.5273 -0.2168  0.9536
 5189SOL    HW227201   3.687   3.317   1.994 -1.6715 -0.7118 -1.8663
 5190SOL     OW27202   3.239   3.693  12.871  0.1428 -0.2250  0.1290
 5190SOL    HW127203   3.167   3.731  12.921  0.9547 -0.3649  1.3855
 5190SOL    HW227204   3.197   3.628  12.814  2.2850  0.9491 -2.8147
 5191SOL     OW27205   0.305   3.722  17.421 -0.0140  0.2670  0.2877
 5191SOL    HW127206   0.395   3.748  17.443  0.2134  1.4334 -1.9592
 5191SOL    HW227207   0.318   3.679  17.336  1.6030 -2.2107  1.7898
 5192SOL     OW27208   4.503   4.160   9.001 -0.0919 -0.5734  0.2419
 5192SOL    HW127209   4.588   4.201   9.014  2.0230 -4.3538 -1.9094
 5192SOL    HW227210   4.515   4.065   9.001  0.3429 -0.5046 -2.8794
 5193SOL     OW27211   2.937   1.679   4.319  0.3207  1.0549 -0.1477
 5193SOL    HW127212   2.885   1.759   4.308 -1.5074 -0.0569  0.4231
 5193SOL    HW227213   2.898   1.663   4.405  0.7651  2.7878  0.3774
 5194SOL     OW27214   4.475   4.647   0.080 -0.1681 -0.3738  0.6961
 5194SOL    HW127215   4.485   4.553   0.068 -0.9251 -0.1863 -1.5726
 5194SOL    HW227216   4.465   4.689  17.746 -0.4311 -2.9219 -0.5147
 5195SOL     OW27217   1.057   2.258   1.732  0.0125 -0.1563  0.1103
 5195SOL    HW127218   1.143   2.229   1.701  0.9196  0.8401  1.7216
 5195SOL    HW227219   1.050   2.350   1.708 -1.1686  0.5265  3.1472
 5196SOL     OW27220   0.410   4.433   8.729 -0.0976  0.1600 -0.6662
 5196SOL    HW127221   0.456   4.516   8.740 -0.1360 -0.1108  1.3969
 5196SOL    HW227222   0.484   4.377   8.706 -0.1932 -0.7518  1.2505
 5197SOL     OW27223   2.445   2.428  11.085 -0.0903  0.0166 -0.4802
 5197SOL    HW127224   2.520   2.451  11.031  0.9394  0.1155  1.0121
 5197SOL    HW227225   2.394   2.508  11.093  0.9793  0.8070 -1.6078
 5198SOL     OW27226   3.287   4.035  12.130  0.1521 -0.7931  0.1115
 5198SOL    HW127227   3.324   3.985  12.057  0.5981  0.2887 -0.4059
 5198SOL    HW227228   3.267   3.964  12.191  1.7764  0.4655  2.1112
 5199SOL     OW27229   0.636   3.609  17.420  0.0542  0.7622  0.1554
 5199SOL    HW127230   0.706   3.632  17.358 -0.2685 -0.4040 -0.6495
 5199SOL    HW227231   0.625   3.690  17.470  1.7614  0.9269  0.2739
 5200SOL     OW27232   0.980   3.284  17.226  0.3504  0.0582 -0.6438
 5200SOL    HW127233   1.006   3.352  17.289 -0.3282  0.3482 -0.6823
 5200SOL    HW227234   1.071   3.258  17.211  0.5882 -0.0703  0.9773
 5201SOL     OW27235   1.529   4.451   1.331 -0.1183 -0.8291 -0.1115
 5201SOL    HW127236   1.570   4.418   1.411 -0.7946 -1.5411 -0.0539
 5201SOL    HW227237   1.443   4.487   1.354  0.2971 -0.1854  0.4320
 5202SOL     OW27238   4.428   1.465  11.605  0.1690  0.3303  0.2654
 5202SOL    HW127239   4.522   1.453  11.588  0.4171  1.0156  1.1695
 5202SOL    HW227240   4.424   1.521  11.683 -0.3434 -1.0423  1.2197
 5203SOL     OW27241   0.483   1.729   8.340 -0.1942  0.1476 -0.2563
 5203SOL    HW127242   0.558   1.762   8.391 -0.3653  1.6001 -0.9297
 5203SOL    HW227243   0.489   1.786   8.263 -0.3391  0.2043 -0.2258
 5204SOL     OW27244   1.890   0.571  13.596  0.3781  0.4281  0.6783
 5204SOL    HW127245   1.840   0.521  13.532  2.6230  0.4164 -1.0270
 5204SOL    HW227246   1.831   0.568  13.672 -0.6223 -1.5622 -0.1660
 5205SOL     OW27247   0.357   3.402   7.498  0.1266  0.3346  0.1414
 5205SOL    HW127248   0.262   3.401   7.505  0.0497  1.4003 -0.8805
 5205SOL    HW227249   0.362   3.408   7.403 -0.0338 -0.7151  0.0652
 5206SOL     OW27250   4.353   3.046  13.233  0.7980 -0.1431  0.3045
 5206SOL    HW127251   4.330   3.050  13.326 -0.4032  1.6816 -0.0613
 5206SOL    HW227252   4.271   3.023  13.190  0.9782 -0.2771  0.0319
 5207SOL     OW27253   0.156   3.627   4.065 -0.4378 -0.4413  0.3553
 5207SOL    HW127254   0.184   3.597   4.151  2.1989  3.0237  0.7016
 5207SOL    HW227255   0.152   3.549   4.009 -0.4431 -0.3662  0.2510
 5208SOL     OW27256   0.037   2.369   8.828 -0.8751  0.1105 -0.1769
 5208SOL    HW127257   0.023   2.297   8.890 -3.7424  1.9263  1.2894
 5208SOL    HW227258   0.094   2.416   8.888 -0.9906  0.2588 -0.1840
 5209SOL     OW27259   2.184   1.600   4.287 -0.3943  0.2972  0.2682
 5209SOL    HW127260   2.171   1.693   4.306  0.6520  0.5527 -0.2480
 5209SOL    HW227261   2.139   1.554   4.358 -1.1285  1.5492  0.6104
 5210SOL     OW27262   3.357   1.075   4.694 -0.7076  0.4016  0.1706
 5210SOL    HW127263   3.451   1.056   4.700 -0.6832  0.1448 -1.1106
 5210SOL    HW227264   3.325   1.046   4.780  0.4383  3.4607  1.6407
 5211SOL     OW27265   1.539   3.657   5.258 -0.4216 -0.2208 -0.0711
 5211SOL    HW127266   1.522   3.567   5.229 -2.8331  1.0871 -2.6947
 5211SOL    HW227267   1.612   3.692   5.207 -1.1824 -0.6434 -1.4635
 5212SOL     OW27268   0.841   4.093  17.005  0.3942 -0.3136  0.6336
 5212SOL    HW127269   0.915   4.146  16.976  0.5866  0.2235  2.0803
 5212SOL    HW227270   0.791   4.078  16.925  0.5901  0.2731  0.3984
 5213SOL     OW27271   0.236   2.422  11.472  0.3256  0.1526  0.1244
 5213SOL    HW127272   0.280   2.492  11.424 -0.4979  0.8939  0.4438
 5213SOL    HW227273   0.292   2.390  11.543 -0.3319  0.8214  0.9385
 5214SOL     OW27274   3.486   3.434   8.082 -0.2084 -0.3136  0.3141
 5214SOL    HW127275   3.459   3.380   8.157 -0.3060  1.2324  1.4004
 5214SOL    HW227276   3.573   3.445   8.121  0.0386 -1.6105  0.1319
 5215SOL     OW27277   1.751   2.880   3.198  0.2631  0.3482  0.2054
 5215SOL    HW127278   1.678   2.847   3.251  0.5463 -0.0009  0.3786
 5215SOL    HW227279   1.704   2.893   3.116  2.1583 -1.8917 -1.2277
 5216SOL     OW27280   1.063   2.491  10.200  0.0575 -0.5083 -0.0639
 5216SOL    HW127281   1.020   2.421  10.151 -0.1807  0.5501 -1.3761
 5216SOL    HW227282   0.986   2.547  10.215 -0.2536 -1.1032  0.5589
 5217SOL     OW27283   0.187   1.346   8.637  0.5412  0.4714  0.0503
 5217SOL    HW127284   0.158   1.272   8.689 -2.0999 -0.0333 -2.1659
 5217SOL    HW227285   0.267   1.311   8.596 -0.6676 -0.1500 -1.7653
 5218SOL     OW27286   1.008   0.543   8.011 -0.6018 -0.3798 -0.0246
 5218SOL    HW127287   0.992   0.585   8.096 -0.5490 -2.8710  1.2406
 5218SOL    HW227288   0.985   0.611   7.949 -0.6100 -0.7997 -0.4839
 5219SOL     OW27289   0.299   3.113  12.357 -0.2054  0.4734  0.2207
 5219SOL    HW127290   0.371   3.051  12.368 -1.8819 -1.6433 -0.7493
 5219SOL    HW227291   0.225   3.058  12.332  1.4209 -1.0974 -1.0956
 5220SOL     OW27292   2.758   2.375  17.377  0.4325 -0.5297  0.6146
 5220SOL    HW127293   2.823   2.330  17.324  1.7802  1.5350  0.4903
 5220SOL    HW227294   2.718   2.305  17.428  0.6377  0.0488  1.5765
 5221SOL     OW27295   4.348   3.909   7.465 -0.5416  0.2015 -0.2856
 5221SOL    HW127296   4.284   3.946   7.525 -1.1585 -0.6837 -0.3936
 5221SOL    HW227297   4.298   3.854   7.403  0.7193 -0.2937 -0.8769
 5222SOL     OW27298   3.211   3.022   6.709 -0.3103  0.3771  0.2037
 5222SOL    HW127299   3.192   2.929   6.697  0.5073  0.0546  1.3957
 5222SOL    HW227300   3.283   3.027   6.772 -1.4172 -0.3179  1.5283
 5223SOL     OW27301   4.642   3.842   6.761  0.2608  0.1689  0.4774
 5223SOL    HW127302   4.563   3.812   6.806 -1.1032  0.6936 -1.5844
 5223SOL    HW227303   4.711   3.815   6.821 -0.7126 -1.8524  0.7123
 5224SOL     OW27304   4.029   4.016  15.681 -0.1938 -0.4301 -0.4754
 5224SOL    HW127305   4.071   3.997  15.765 -0.1612 -0.5700 -0.5230
 5224SOL    HW227306   4.109   4.008  15.628  0.2849 -2.1275  0.5019
 5225SOL     OW27307   0.081   1.611   6.135  0.3708 -0.1413 -0.0320
 5225SOL    HW127308   0.018   1.544   6.162  1.6394 -0.5428  1.9235
 5225SOL    HW227309   0.160   1.571   6.171 -1.5072 -1.2330  2.8323
 5226SOL     OW27310   3.310   2.677   0.565  0.0784 -0.3109 -0.0071
 5226SOL    HW127311   3.241   2.630   0.519 -0.6206 -0.5442  1.2627
 5226SOL    HW227312   3.252   2.737   0.613 -1.7287 -1.4644 -0.7580
 5227SOL     OW27313   2.159   2.210  17.646 -0.0747 -0.2712 -0.3411
 5227SOL    HW127314   2.226   2.278  17.649 -0.3919  0.1679 -3.2600
 5227SOL    HW227315   2.182   2.162  17.567 -1.1081 -1.6393  0.1715
 5228SOL     OW27316   4.189   2.456   6.442  0.2835  0.2271 -0.0993
 5228SOL    HW127317   4.256   2.427   6.504  2.4008  0.9711 -2.0588
 5228SOL    HW227318   4.226   2.536   6.406  0.4081  0.7557  1.2039
 5229SOL     OW27319   0.818   1.354   3.964  0.0288  0.2093  0.0008
 5229SOL    HW127320   0.876   1.296   4.013 -2.0191 -3.1648 -1.5763
 5229SOL    HW227321   0.839   1.435   4.011  0.5399  1.1684 -1.8859
 5230SOL     OW27322   1.754   2.018   5.969  0.2220  0.6264 -0.4348
 5230SOL    HW127323   1.845   2.048   5.962  0.7836 -0.4319  2.5254
 5230SOL    HW227324   1.718   2.020   5.880  0.3534  0.5085 -0.4924
 5231SOL     OW27325   3.428   0.345   6.635  0.4120  0.4968  0.7425
 5231SOL    HW127326   3.489   0.388   6.694 -1.0345  2.0629  1.1026
 5231SOL    HW227327   3.346   0.358   6.683  0.0140 -1.9905  0.7310
 5232SOL     OW27328   4.014   0.649   1.148  0.3808 -0.0697 -0.3015
 5232SOL    HW127329   4.087   0.656   1.086  2.1986 -1.6181  1.6789
 5232SOL    HW227330   3.981   0.560   1.133  0.4842 -0.0140 -0.8861
 5233SOL     OW27331   3.744   2.958  15.475 -0.4848 -0.4985 -0.0844
 5233SOL    HW127332   3.832   2.995  15.470 -2.3603  3.9002 -0.5508
 5233SOL    HW227333   3.721   2.942  15.383 -1.0858 -1.5116  0.2431
 5234SOL     OW27334   3.700   3.998   1.794 -0.2715 -0.0981  0.0119
 5234SOL    HW127335   3.693   4.091   1.770 -0.4364 -0.1530 -0.1433
 5234SOL    HW227336   3.757   4.013   1.870  1.7506  0.9900 -1.7235
 5235SOL     OW27337   0.535   1.499  11.785 -0.4477 -0.0717  0.5523
 5235SOL    HW127338   0.482   1.566  11.829  2.0521  0.2704  3.0080
 5235SOL    HW227339   0.529   1.421  11.841  0.6497 -2.1882 -2.2510
 5236SOL     OW27340   0.013   0.578   2.808  0.0106  0.0062 -0.0089
 5236SOL    HW127341   4.666   0.540   2.827 -0.4472  1.6398  1.2007
 5236SOL    HW227342   0.065   0.519   2.862  0.4609  0.4754  0.0698
 5237SOL     OW27343   3.635   2.877   2.081 -0.2625  0.1542 -0.3828
 5237SOL    HW127344   3.719   2.917   2.058 -0.3594  0.7736  0.3431
 5237SOL    HW227345   3.570   2.891   2.012  1.0265 -0.2360 -1.6839
 5238SOL     OW27346   2.664   2.327   7.591  0.1654 -0.1739  0.1965
 5238SOL    HW127347   2.709   2.243   7.594 -0.4321 -0.4516  1.6563
 5238SOL    HW227348   2.580   2.297   7.624  1.1003  0.6549  3.3654
 5239SOL     OW27349   4.030   4.523   5.131  0.0432 -0.9869 -0.2055
 5239SOL    HW127350   4.124   4.541   5.123 -0.4143  1.5978  0.3458
 5239SOL    HW227351   3.996   4.552   5.216  0.6744  3.2160 -1.4207
 5240SOL     OW27352   3.237   2.772  11.933  0.1467  0.5448 -0.3775
 5240SOL    HW127353   3.236   2.691  11.881  1.4566  0.4857 -0.3311
 5240SOL    HW227354   3.327   2.770  11.967 -0.1938  1.3773  0.5679
 5241SOL     OW27355   0.459   4.199  12.617  0.1398 -0.6008 -0.9747
 5241SOL    HW127356   0.486   4.195  12.709 -0.7932  0.2463 -0.6627
 5241SOL    HW227357   0.528   4.149  12.573  0.9907 -0.0931 -0.2078
 5242SOL     OW27358   2.650   2.850   7.944 -0.6202 -0.2032 -0.5332
 5242SOL    HW127359   2.670   2.802   7.863  2.7971 -0.5050  0.4859
 5242SOL    HW227360   2.575   2.795   7.964  0.3977 -0.8729  1.4984
 5243SOL     OW27361   1.799   1.297  12.861 -0.2780  0.0650 -0.5171
 5243SOL    HW127362   1.708   1.319  12.880  0.1266 -0.0628  1.5759
 5243SOL    HW227363   1.791   1.315  12.768 -0.7342 -2.4128 -0.9714
 5244SOL     OW27364   3.071   3.535  17.069  0.1357 -0.4575  0.2067
 5244SOL    HW127365   3.046   3.544  16.977 -0.4376 -0.1564  0.3892
 5244SOL    HW227366   3.108   3.447  17.074 -0.4309 -0.8616 -2.9183
 5245SOL     OW27367   3.206   3.610  11.452  0.1716  0.0988 -0.2667
 5245SOL    HW127368   3.156   3.581  11.375  0.0382  0.5970 -0.3703
 5245SOL    HW227369   3.234   3.699  11.430 -0.8746  0.4564 -0.1677
 5246SOL     OW27370   2.526   3.213  10.869 -0.4863  0.2153 -0.1324
 5246SOL    HW127371   2.614   3.206  10.905 -0.7418  1.3316  0.7311
 5246SOL    HW227372   2.541   3.247  10.781  0.9311  0.6847  0.2880
 5247SOL     OW27373   3.360   3.542  15.507 -0.1891  0.2257 -0.0006
 5247SOL    HW127374   3.440   3.586  15.534 -0.3035  0.2919  0.2313
 5247SOL    HW227375   3.355   3.474  15.574 -1.0933  1.2836  0.9952
 5248SOL     OW27376   0.906   4.514   0.175 -0.0318  0.0488  0.0527
 5248SOL    HW127377   0.868   4.582   0.120 -0.0149  0.8049  0.9678
 5248SOL    HW227378   0.998   4.517   0.150 -0.4512  0.0087 -1.4879
 5249SOL     OW27379   3.445   0.138   5.801  0.4776  0.3298  0.2363
 5249SOL    HW127380   3.363   0.125   5.849 -1.0851 -1.3207 -2.9017
 5249SOL    HW227381   3.514   0.150   5.866  0.0620  0.0471  0.7363
 5250SOL     OW27382   1.859   2.357  16.520 -0.5489 -0.3947 -0.9612
 5250SOL    HW127383   1.855   2.344  16.615  0.1910 -1.3371 -1.0534
 5250SOL    HW227384   1.846   2.452  16.522  0.9828 -0.2341  2.3069
 5251SOL     OW27385   3.524   3.589  11.798 -0.5614 -0.4462  0.4346
 5251SOL    HW127386   3.575   3.509  11.814  0.6641  0.2170 -0.0913
 5251SOL    HW227387   3.580   3.628  11.731 -0.7103 -2.0617 -0.6338
 5252SOL     OW27388   0.211   0.123   3.781 -0.1500  0.1553 -0.3001
 5252SOL    HW127389   0.117   0.109   3.767 -0.1533 -0.1033 -0.0296
 5252SOL    HW227390   0.238   0.033   3.798 -0.2265 -0.1292 -1.6997
 5253SOL     OW27391   2.626   2.859   8.297 -0.0198  0.2304 -0.9491
 5253SOL    HW127392   2.541   2.840   8.336 -0.5867 -1.7098 -3.0929
 5253SOL    HW227393   2.692   2.796   8.328  0.3789  0.9495 -0.3514
 5254SOL     OW27394   4.193   1.023   4.807  0.4463 -0.1330 -0.3360
 5254SOL    HW127395   4.167   0.985   4.723 -2.8235  0.1508  0.5371
 5254SOL    HW227396   4.163   1.113   4.793 -0.7859 -0.6680 -1.1407
 5255SOL     OW27397   0.129   4.600   9.617  0.1256 -0.2191 -0.1745
 5255SOL    HW127398   0.150   4.644   9.534  2.4926  1.5253  1.3187
 5255SOL    HW227399   0.070   4.665   9.655  1.4028 -0.3431  2.0212
 5256SOL     OW27400   4.496   4.119   9.592 -0.6949  0.4073 -0.0068
 5256SOL    HW127401   4.403   4.126   9.616 -1.5860  0.8380 -3.4781
 5256SOL    HW227402   4.534   4.196   9.635  0.0211 -1.4933  2.7221
 5257SOL     OW27403   0.167   2.578   7.161  0.2896  0.0994 -0.4243
 5257SOL    HW127404   0.227   2.642   7.123  0.4955  1.9526  3.0174
 5257SOL    HW227405   0.147   2.529   7.082 -2.9274 -0.9635  1.0278
 5258SOL     OW27406   0.165   2.066   3.291 -0.2145  0.3710  0.6217
 5258SOL    HW127407   0.188   1.974   3.303  2.7847  0.9178 -0.7874
 5258SOL    HW227408   0.235   2.100   3.347  1.0309  1.1124 -1.3971
 5259SOL     OW27409   1.754   4.081   8.927 -0.3164  0.0373  0.8825
 5259SOL    HW127410   1.708   4.036   8.997  1.9107  0.8402  2.8403
 5259SOL    HW227411   1.739   4.168   8.965  0.7024 -0.2894  2.0107
 5260SOL     OW27412   4.608   0.214   6.894  0.2760 -0.2220  0.3011
 5260SOL    HW127413   4.617   0.302   6.931  0.4218 -0.5676  1.0781
 5260SOL    HW227414   4.632   0.233   6.803 -1.7647 -0.0232 -0.1913
 5261SOL     OW27415   3.054   0.754  11.689  0.0187 -0.1351  0.2937
 5261SOL    HW127416   2.992   0.761  11.762  1.9586  0.8043  1.8288
 5261SOL    HW227417   3.139   0.764  11.731  1.1493 -0.7285 -1.8323
 5262SOL     OW27418   1.827   4.374   8.689  0.1870  0.0956 -0.0836
 5262SOL    HW127419   1.888   4.312   8.727  0.9079  1.2437  0.6038
 5262SOL    HW227420   1.874   4.452   8.719  0.0609 -0.1186  0.6567
 5263SOL     OW27421   3.007   2.833  11.572  0.0166  0.5386 -0.1701
 5263SOL    HW127422   2.998   2.906  11.633  3.0924 -0.8989  1.9623
 5263SOL    HW227423   3.032   2.878  11.491  1.3781  0.6254  0.2999
 5264SOL     OW27424   1.706   1.625  12.505  0.2881  0.4375 -0.4385
 5264SOL    HW127425   1.694   1.717  12.528 -0.5855  0.8591 -2.5932
 5264SOL    HW227426   1.767   1.615  12.578 -0.8167  0.0597  0.4298
 5265SOL     OW27427   3.569   0.866   6.400  0.1295  0.1346 -0.5205
 5265SOL    HW127428   3.663   0.858   6.381  0.5034 -0.3542  1.5155
 5265SOL    HW227429   3.561   0.950   6.447 -1.8229  0.4054 -1.3616
 5266SOL     OW27430   2.416   3.104   2.031  0.0931 -0.1645 -0.1001
 5266SOL    HW127431   2.439   3.194   2.009  0.2727 -0.0171  0.6861
 5266SOL    HW227432   2.493   3.090   2.087 -1.1233 -1.6643  1.1926
 5267SOL     OW27433   1.228   2.756   8.126  0.5509  0.2643  0.5087
 5267SOL    HW127434   1.282   2.711   8.061  0.0904  0.3561  0.0649
 5267SOL    HW227435   1.200   2.829   8.071 -0.0533 -1.9710 -2.1743
 5268SOL     OW27436   1.415   2.550   8.145  0.1550 -0.2568  0.8670
 5268SOL    HW127437   1.472   2.626   8.135 -1.1122  0.8514  2.0685
 5268SOL    HW227438   1.417   2.539   8.240  1.4431  1.4426  1.0166
 5269SOL     OW27439   0.407   3.513   2.060  0.3942 -0.1018  0.0416
 5269SOL    HW127440   0.343   3.514   2.130 -0.6505 -2.0470 -0.9073
 5269SOL    HW227441   0.471   3.569   2.104  2.1786 -0.2706 -2.3145
 5270SOL     OW27442   3.122   0.479   5.765 -0.4744  0.3077  0.1758
 5270SOL    HW127443   3.051   0.513   5.711 -2.4366 -0.1146  2.4900
 5270SOL    HW227444   3.202   0.529   5.747  0.6718 -0.0990  4.0603
 5271SOL     OW27445   2.085   0.683   4.362 -0.3976  0.2892 -0.0537
 5271SOL    HW127446   2.132   0.619   4.415  1.1281  1.5277  0.1093
 5271SOL    HW227447   2.162   0.719   4.316 -0.5255  0.3034 -0.2594
 5272SOL     OW27448   3.737   2.645   5.304  0.0786  0.0308  0.2571
 5272SOL    HW127449   3.707   2.554   5.308  0.2931 -0.1460 -2.2179
 5272SOL    HW227450   3.762   2.661   5.395  2.2074  1.7000 -0.6288
 5273SOL     OW27451   3.434   1.859   7.501  0.0635  0.1499 -0.9262
 5273SOL    HW127452   3.452   1.867   7.407 -0.5763  0.3178 -1.0332
 5273SOL    HW227453   3.338   1.861   7.500  0.0587 -2.1460 -3.2256
 5274SOL     OW27454   1.252   3.553   3.459 -0.3312  0.0761 -0.3414
 5274SOL    HW127455   1.211   3.512   3.382 -1.7259 -0.0315  0.4485
 5274SOL    HW227456   1.229   3.646   3.452 -0.5253  0.2814  2.9926
 5275SOL     OW27457   1.523   0.139   1.462  0.1371  0.0098  0.4727
 5275SOL    HW127458   1.459   0.091   1.409  2.6203 -1.2493 -1.4068
 5275SOL    HW227459   1.604   0.109   1.420  1.3583 -0.4897  3.1713
 5276SOL     OW27460   0.881   0.297   7.041 -0.7190  0.5433 -0.2168
 5276SOL    HW127461   0.965   0.337   7.016 -1.0450 -0.0475 -2.2718
 5276SOL    HW227462   0.821   0.318   6.969 -1.7329  0.6520  0.6791
 5277SOL     OW27463   1.298   4.046  15.422 -0.0805 -0.4252 -0.3872
 5277SOL    HW127464   1.229   4.008  15.368  0.3638  1.4273 -2.2550
 5277SOL    HW227465   1.373   4.021  15.368  1.1181  1.0108  0.6219
 5278SOL     OW27466   3.093   3.236   2.661 -0.1166  0.0066  0.9794
 5278SOL    HW127467   3.130   3.321   2.686  0.7382 -0.1901  0.3713
 5278SOL    HW227468   3.007   3.236   2.703 -1.1073 -2.5470 -1.0328
 5279SOL     OW27469   4.708   2.203   9.075  0.3078 -0.6173  0.4462
 5279SOL    HW127470   0.037   2.239   9.133  0.6410 -1.1458  0.3866
 5279SOL    HW227471   4.723   2.109   9.086  2.0324 -0.8706 -4.0904
 5280SOL     OW27472   0.914   1.447   2.893  0.0692 -0.6022  0.0031
 5280SOL    HW127473   0.902   1.411   2.806  2.0384  0.1341 -0.5721
 5280SOL    HW227474   0.823   1.472   2.912  0.4781  0.0159  1.1324
 5281SOL     OW27475   1.117   1.634  13.519  0.1164 -0.0488  0.3412
 5281SOL    HW127476   1.096   1.679  13.437 -1.4491 -0.2362  0.6355
 5281SOL    HW227477   1.195   1.585  13.494 -0.0638  0.0078 -0.3284
 5282SOL     OW27478   0.366   0.244   2.403 -0.3860  0.2745  0.9124
 5282SOL    HW127479   0.284   0.290   2.381 -0.8427 -0.6991  0.5597
 5282SOL    HW227480   0.336   0.200   2.482 -1.6181  0.8984  0.8064
 5283SOL     OW27481   4.052   2.288   7.285  0.7093 -0.0155 -0.4962
 5283SOL    HW127482   4.132   2.298   7.337  0.3298 -0.3017  0.1376
 5283SOL    HW227483   4.010   2.374   7.278 -0.6505 -0.5945  0.4061
 5284SOL     OW27484   1.069   4.006  12.959  0.3654 -0.3520 -0.2396
 5284SOL    HW127485   1.084   4.099  12.978  0.7889 -0.1514 -1.5117
 5284SOL    HW227486   1.110   3.966  13.035 -1.1742  1.6033  1.6208
 5285SOL     OW27487   0.721   1.213  16.489  0.0622  0.2813 -0.2726
 5285SOL    HW127488   0.696   1.130  16.530  0.4014  0.2012 -0.2248
 5285SOL    HW227489   0.780   1.171  16.426  0.6657  2.1511 -0.9547
 5286SOL     OW27490   1.004   0.943   3.150 -0.0271  0.4203 -0.0796
 5286SOL    HW127491   0.973   1.024   3.111  1.8769  1.1279 -0.1286
 5286SOL    HW227492   0.925   0.888   3.149  0.7398 -0.6306 -2.0696
 5287SOL     OW27493   1.418   3.336  14.339  0.7378 -0.1227 -0.0808
 5287SOL    HW127494   1.451   3.420  14.371 -0.4434  0.3903 -0.2232
 5287SOL    HW227495   1.341   3.336  14.395 -0.8944  0.9412 -2.3366
 5288SOL     OW27496   3.410   0.732   4.194 -0.3384 -0.0966  0.3207
 5288SOL    HW127497   3.350   0.672   4.150 -0.1964  0.9790 -1.3238
 5288SOL    HW227498   3.352   0.761   4.265 -0.6881  0.5678 -0.2367
 5289SOL     OW27499   3.200   1.387   8.840  0.1177 -0.7154 -0.1665
 5289SOL    HW127500   3.181   1.310   8.894 -2.6187  0.9382  1.2374
 5289SOL    HW227501   3.293   1.400   8.859  0.3047 -1.6754 -0.4560
 5290SOL     OW27502   3.051   1.225   7.165 -0.1179  0.5157  0.4369
 5290SOL    HW127503   2.960   1.247   7.146  0.0479 -0.3280 -1.3707
 5290SOL    HW227504   3.086   1.298   7.114  2.9750 -2.2064 -1.3454
 5291SOL     OW27505   2.456   2.491  11.348  0.0603  0.0316  0.5914
 5291SOL    HW127506   2.524   2.467  11.411  0.5832 -0.9734 -0.3558
 5291SOL    HW227507   2.494   2.457  11.267  2.0659  1.3744  0.9778
 5292SOL     OW27508   0.730   0.557   8.585  0.4440  0.7054  0.8905
 5292SOL    HW127509   0.693   0.576   8.499 -0.1307 -0.7429  0.8129
 5292SOL    HW227510   0.726   0.640   8.632  0.5079  1.9044 -1.2555
 5293SOL     OW27511   2.710   2.403  11.444 -0.1030  0.5357 -0.4586
 5293SOL    HW127512   2.747   2.380  11.530  0.1493  1.0214 -0.4332
 5293SOL    HW227513   2.771   2.473  11.419  0.0208  0.8719  0.7423
 5294SOL     OW27514   4.449   2.175   2.856 -0.2217 -0.2558  0.2120
 5294SOL    HW127515   4.490   2.217   2.781 -0.1124 -1.3483 -0.3445
 5294SOL    HW227516   4.386   2.243   2.882  0.2299 -0.0045  0.6429
 5295SOL     OW27517   2.734   4.232  13.655 -0.1260  0.4324 -0.6258
 5295SOL    HW127518   2.734   4.309  13.598 -0.6985  1.9224  1.3793
 5295SOL    HW227519   2.664   4.183  13.613 -0.5263  0.4475  0.0225
 5296SOL     OW27520   4.201   0.584   0.933  0.3405  0.3852  0.0580
 5296SOL    HW127521   4.234   0.672   0.951  0.4521  0.7653 -1.9949
 5296SOL    HW227522   4.181   0.576   0.840 -1.7386 -0.0277  0.5384
 5297SOL     OW27523   0.314   1.147   3.097  0.9135  0.0910  0.4119
 5297SOL    HW127524   0.371   1.126   3.023  1.8225 -0.0123  1.1310
 5297SOL    HW227525   0.264   1.216   3.054  0.9367 -0.1157  0.0592
 5298SOL     OW27526   0.010   0.503   9.423  0.5776 -0.4510 -0.2560
 5298SOL    HW127527   0.096   0.504   9.464  0.2308  2.7105  0.3875
 5298SOL    HW227528   4.701   0.576   9.463 -0.1566 -0.8638 -0.3605
 5299SOL     OW27529   4.292   1.370  10.564 -0.1111 -0.6451 -0.7818
 5299SOL    HW127530   4.286   1.277  10.539 -0.1798  0.1959 -3.8962
 5299SOL    HW227531   4.274   1.359  10.657 -1.6233  1.7656 -0.8012
 5300SOL     OW27532   2.765   2.181  13.507 -0.1960  0.2805  0.0845
 5300SOL    HW127533   2.832   2.180  13.439 -0.2053  1.0371  0.0677
 5300SOL    HW227534   2.796   2.258  13.554 -1.2160 -0.2693  1.6595
 5301SOL     OW27535   4.140   0.408  13.124  0.4765 -0.0417  0.7749
 5301SOL    HW127536   4.193   0.485  13.145  0.1609  0.0813  1.1226
 5301SOL    HW227537   4.169   0.399  13.033  1.2395 -0.1192  1.0315
 5302SOL     OW27538   1.183   1.355   9.524  0.3471  0.0345  0.4366
 5302SOL    HW127539   1.245   1.293   9.564  0.2033 -0.9126 -0.7902
 5302SOL    HW227540   1.138   1.302   9.458 -1.6232  1.8372  0.3462
 5303SOL     OW27541   3.458   2.586   2.814  0.7763 -0.2868 -0.0546
 5303SOL    HW127542   3.379   2.563   2.766  0.1337 -0.3655  1.0446
 5303SOL    HW227543   3.474   2.513   2.874  2.3860  0.9449  1.0121
 5304SOL     OW27544   3.551   0.848   8.181  0.2628 -0.1237  0.5835
 5304SOL    HW127545   3.589   0.935   8.192  1.0575 -0.4368  0.3424
 5304SOL    HW227546   3.475   0.864   8.125  0.9896  0.2908 -0.2797
 5305SOL     OW27547   1.934   1.168   7.866 -0.0400 -0.0159  0.0495
 5305SOL    HW127548   1.924   1.186   7.960 -0.9703  0.9035 -0.2220
 5305SOL    HW227549   1.924   1.073   7.862  1.3687 -0.1371 -0.4681
 5306SOL     OW27550   0.754   3.226   9.855  0.1994 -0.1280 -0.0890
 5306SOL    HW127551   0.685   3.232   9.789 -1.4769  0.1818  1.6866
 5306SOL    HW227552   0.816   3.167   9.811  2.3356  3.1127 -1.4247
 5307SOL     OW27553   0.674   1.790  15.835  0.3444  0.2667 -0.2456
 5307SOL    HW127554   0.589   1.780  15.878  0.6850 -0.8839  0.1628
 5307SOL    HW227555   0.677   1.883  15.812  0.2232  0.6558  1.3485
 5308SOL     OW27556   3.341   2.670   6.318 -0.0540  0.3604 -0.7143
 5308SOL    HW127557   3.312   2.625   6.398 -0.9299 -2.9987 -2.9268
 5308SOL    HW227558   3.430   2.639   6.300  0.2926  1.0115 -0.1043
 5309SOL     OW27559   3.512   2.921   3.054  0.1239 -0.5530  0.1809
 5309SOL    HW127560   3.555   2.925   2.969  1.8153  1.6825  1.1392
 5309SOL    HW227561   3.431   2.972   3.045  0.3252 -0.1998  0.3828
 5310SOL     OW27562   2.015   1.932   4.671  0.6207 -0.9182  0.3895
 5310SOL    HW127563   2.066   1.888   4.739  1.1008 -2.4962 -1.0263
 5310SOL    HW227564   1.963   1.857   4.642  1.1292 -1.7999  1.7607
 5311SOL     OW27565   3.179   4.368   4.082  0.1829  0.1583 -0.0058
 5311SOL    HW127566   3.107   4.429   4.099  1.9275  2.2992 -0.2270
 5311SOL    HW227567   3.186   4.327   4.168  1.4451  1.7222  0.6232
 5312SOL     OW27568   2.953   4.212  15.368 -0.1136  0.4844  0.1049
 5312SOL    HW127569   2.953   4.201  15.273  2.6447  1.3368  0.0069
 5312SOL    HW227570   2.981   4.123  15.390  0.5195  0.6649  0.0249
 5313SOL     OW27571   1.800   0.962  17.271  0.8180  0.4873  0.4403
 5313SOL    HW127572   1.707   0.977  17.255  0.4950 -0.1050  1.7697
 5313SOL    HW227573   1.846   1.044  17.251  2.1410 -0.7531 -1.6292
 5314SOL     OW27574   4.533   3.623   2.495 -0.1794 -0.2572 -0.2679
 5314SOL    HW127575   4.485   3.565   2.437 -0.7917  0.9522 -0.9868
 5314SOL    HW227576   4.467   3.689   2.515  1.1246  1.3379 -1.2036
 5315SOL     OW27577   2.618   0.480   4.620  0.1937  0.8032  0.0470
 5315SOL    HW127578   2.570   0.553   4.581  1.0407  2.5788  2.3353
 5315SOL    HW227579   2.663   0.441   4.545 -0.3277 -2.2359  1.3357
 5316SOL     OW27580   2.701   1.806  13.815  0.2445 -0.4300  0.3786
 5316SOL    HW127581   2.745   1.830  13.733 -1.9189  0.1610 -0.5975
 5316SOL    HW227582   2.659   1.889  13.836  0.0125 -0.5050  0.2035
 5317SOL     OW27583   4.136   3.488   4.947  0.4936  0.6970  0.2664
 5317SOL    HW127584   4.064   3.465   4.888 -0.0685 -1.6220  1.8686
 5317SOL    HW227585   4.124   3.411   5.003 -1.5889  0.9301  0.1496
 5318SOL     OW27586   1.229   3.491   3.735 -0.0583  0.5214  0.9641
 5318SOL    HW127587   1.217   3.486   3.640  2.1220 -2.2316  0.8553
 5318SOL    HW227588   1.288   3.567   3.733 -1.3110  1.4683 -0.4177
 5319SOL     OW27589   1.482   2.767   2.259 -0.2141  0.1440  0.4697
 5319SOL    HW127590   1.517   2.818   2.186  2.3046 -2.3030 -0.0280
 5319SOL    HW227591   1.440   2.694   2.212 -1.6096  0.1127  1.7898
 5320SOL     OW27592   0.122   0.244   7.489  0.2927 -0.6568  0.4680
 5320SOL    HW127593   0.079   0.315   7.442 -0.8616  0.0877  2.6419
 5320SOL    HW227594   0.042   0.211   7.530 -0.4627 -0.5541 -0.9406
 5321SOL     OW27595   4.178   2.397   2.144  0.2835  0.2758  0.4619
 5321SOL    HW127596   4.267   2.423   2.170 -0.4653  2.5620  0.7790
 5321SOL    HW227597   4.123   2.463   2.185 -0.4285 -0.5519  0.8255
 5322SOL     OW27598   2.264   3.997   2.464  0.0680 -0.1208  0.0238
 5322SOL    HW127599   2.238   3.972   2.375 -0.5069 -1.8576  0.6903
 5322SOL    HW227600   2.182   4.011   2.511  0.3511  2.3996 -0.2120
 5323SOL     OW27601   1.394   3.438   1.351 -0.5599  0.0284  0.2149
 5323SOL    HW127602   1.469   3.455   1.294 -1.1001  0.9793 -0.2179
 5323SOL    HW227603   1.352   3.360   1.313  0.4013  1.0039 -2.8709
 5324SOL     OW27604   0.081   2.731   4.754 -0.2514 -0.7722 -0.0923
 5324SOL    HW127605   0.004   2.685   4.788 -0.7438 -0.5724 -0.9142
 5324SOL    HW227606   0.091   2.701   4.663 -0.8637  0.4373 -0.5614
 5325SOL     OW27607   4.251   0.696   7.656  0.8981 -0.2714 -0.2651
 5325SOL    HW127608   4.331   0.701   7.709 -0.6374  0.3504  2.0087
 5325SOL    HW227609   4.238   0.786   7.627 -2.6948 -0.6756  0.0794
 5326SOL     OW27610   1.419   2.564   2.078  0.2381  0.4844 -0.0246
 5326SOL    HW127611   1.370   2.526   2.005 -0.0651  1.1831 -0.1796
 5326SOL    HW227612   1.404   2.492   2.140  0.8411  0.0912 -0.3377
 5327SOL     OW27613   1.205   4.235  15.898  0.0202  0.5126  0.0503
 5327SOL    HW127614   1.213   4.223  15.803  1.0703 -1.0981  0.3292
 5327SOL    HW227615   1.213   4.329  15.888  0.0126  0.6997  1.8071
 5328SOL     OW27616   3.589   0.721   0.849  0.2100  0.2345 -0.0515
 5328SOL    HW127617   3.601   0.626   0.847 -0.4222  0.1078  2.0353
 5328SOL    HW227618   3.643   0.743   0.925  1.5052 -2.6056 -0.1844
 5329SOL     OW27619   1.334   3.448   6.700  0.1347  0.0378  0.6568
 5329SOL    HW127620   1.359   3.522   6.754 -3.1029 -0.2275  2.5303
 5329SOL    HW227621   1.244   3.466   6.673  0.5032  1.2674  0.2450
 5330SOL     OW27622   4.377   3.829   2.452 -0.2279 -0.1637  0.4116
 5330SOL    HW127623   4.447   3.850   2.391  0.6492 -0.2060  1.4026
 5330SOL    HW227624   4.331   3.912   2.465  1.2080  0.7918 -0.6568
 5331SOL     OW27625   3.963   1.785   0.003  0.2273 -0.5969  0.0057
 5331SOL    HW127626   3.872   1.787  17.723  0.0338 -1.3236  0.5210
 5331SOL    HW227627   3.986   1.876  17.734  0.2028 -0.4458  0.6250
 5332SOL     OW27628   2.343   1.598   1.991 -0.1042 -0.1652 -0.9852
 5332SOL    HW127629   2.340   1.584   2.086 -1.9297 -0.8907 -1.1494
 5332SOL    HW227630   2.250   1.598   1.969 -0.1577  1.5540 -0.7872
 5333SOL     OW27631   2.506   1.906  15.894 -0.4193  0.2712 -0.0838
 5333SOL    HW127632   2.567   1.965  15.849 -0.1173 -1.2805 -1.7381
 5333SOL    HW227633   2.442   1.890  15.824 -1.0600  0.2980  0.4934
 5334SOL     OW27634   0.316   4.424  10.811 -0.2531  0.0426  0.4184
 5334SOL    HW127635   0.346   4.455  10.725  1.6989  0.6067  1.3094
 5334SOL    HW227636   0.349   4.334  10.814 -0.4961 -0.1260 -2.1450
 5335SOL     OW27637   0.831   1.506   3.220  0.2509 -0.1155  0.3700
 5335SOL    HW127638   0.770   1.441   3.255  1.5187 -0.8482  1.2279
 5335SOL    HW227639   0.917   1.468   3.240 -0.3926 -1.2162  1.0993
 5336SOL     OW27640   0.627   3.196   5.154  0.4402 -0.4129  0.3000
 5336SOL    HW127641   0.627   3.292   5.156 -0.7508 -0.4185  0.6385
 5336SOL    HW227642   0.542   3.173   5.192  0.5975 -0.2309  0.7626
 5337SOL     OW27643   4.000   0.320   7.177  0.6187 -0.5371  0.3193
 5337SOL    HW127644   4.033   0.231   7.165 -0.4122 -0.3576 -3.9195
 5337SOL    HW227645   3.997   0.352   7.087 -0.5955  1.1299  0.9475
 5338SOL     OW27646   2.469   1.861   0.903  0.3739 -0.2324  0.3735
 5338SOL    HW127647   2.507   1.809   0.974  1.3776  0.6609  0.4860
 5338SOL    HW227648   2.489   1.814   0.822 -0.5331  0.7347 -0.4143
 5339SOL     OW27649   2.615   0.144   1.425  0.6106  0.0656  0.0335
 5339SOL    HW127650   2.576   0.105   1.503  0.1293  0.5534  0.0392
 5339SOL    HW227651   2.601   0.236   1.446 -0.7248  0.0373 -0.7141
 5340SOL     OW27652   0.517   3.824  17.577 -1.0033 -0.0741  0.1599
 5340SOL    HW127653   0.437   3.816  17.629  0.4259 -2.3646  2.0238
 5340SOL    HW227654   0.541   3.916  17.590 -0.4996 -0.2223  0.2864
 5341SOL     OW27655   1.663   0.414   2.024  0.2414  0.2535 -0.1632
 5341SOL    HW127656   1.592   0.478   2.022 -0.6658 -0.7190  0.8341
 5341SOL    HW227657   1.738   0.472   2.037 -0.2839  1.1875 -1.3375
 5342SOL     OW27658   2.671   3.558   3.469 -0.2193  0.4640  0.3649
 5342SOL    HW127659   2.597   3.591   3.521 -0.2076 -2.3651  2.1434
 5342SOL    HW227660   2.746   3.610   3.498 -0.9418  2.8077 -1.9892
 5343SOL     OW27661   0.350   1.555   5.879 -0.0573  0.4976 -0.0052
 5343SOL    HW127662   0.392   1.632   5.841  1.2845 -0.1387  0.1838
 5343SOL    HW227663   0.404   1.489   5.835 -0.1842  0.5716 -0.2757
 5344SOL     OW27664   0.571   2.751   6.999  0.2657  0.1323  0.1013
 5344SOL    HW127665   0.537   2.662   6.996  1.5579 -0.4222  1.3411
 5344SOL    HW227666   0.603   2.764   6.910  0.4587 -3.2942 -0.3298
 5345SOL     OW27667   4.642   1.361   3.705 -0.2228 -0.1558  0.3157
 5345SOL    HW127668   4.597   1.441   3.733 -0.7342 -0.4096  0.2085
 5345SOL    HW227669   4.632   1.366   3.610  1.5211  0.7866  0.1810
 5346SOL     OW27670   2.964   3.608  13.257 -0.3444 -0.0295  0.1634
 5346SOL    HW127671   3.013   3.628  13.337 -2.4894  1.9516  0.9678
 5346SOL    HW227672   3.040   3.589  13.202 -1.9195  0.6040 -2.2371
 5347SOL     OW27673   3.735   3.755   7.167  0.0540  0.6791  0.1244
 5347SOL    HW127674   3.701   3.707   7.242 -0.0301 -1.5265 -1.3163
 5347SOL    HW227675   3.672   3.737   7.097 -0.7634  1.0945  0.7646
 5348SOL     OW27676   1.716   2.201  10.068 -0.1714  0.3179 -0.5555
 5348SOL    HW127677   1.633   2.237  10.099  0.1924  1.1625 -0.5808
 5348SOL    HW227678   1.774   2.276  10.054  0.3171  0.1581  0.5712
 5349SOL     OW27679   1.633   0.991   5.833  0.0919 -0.3211 -0.7250
 5349SOL    HW127680   1.690   0.917   5.852  1.0539  0.9168  1.2070
 5349SOL    HW227681   1.701   1.059   5.839  0.2464 -0.3258 -2.2739
 5350SOL     OW27682   1.128   3.331   5.119 -0.8054  0.5450 -0.8702
 5350SOL    HW127683   1.124   3.264   5.187  0.8804  0.8775 -0.4569
 5350SOL    HW227684   1.038   3.363   5.111 -0.6643  1.1771 -0.0135
 5351SOL     OW27685   2.907   2.570   7.032  0.4735  0.4071 -0.2774
 5351SOL    HW127686   2.891   2.646   7.088 -1.0506 -1.0801  1.3473
 5351SOL    HW227687   2.893   2.609   6.946 -0.3289  1.9217  0.5390
 5352SOL     OW27688   2.621   2.888  11.528 -0.0133 -0.1647 -0.0485
 5352SOL    HW127689   2.621   2.984  11.528 -0.9384 -0.1723  1.2139
 5352SOL    HW227690   2.634   2.867  11.620 -1.9914 -1.8060 -0.1436
 5353SOL     OW27691   2.966   3.720   7.164  0.1625  0.1304  0.5745
 5353SOL    HW127692   3.041   3.712   7.105  0.1094 -0.2079  0.5561
 5353SOL    HW227693   2.960   3.815   7.175 -0.3544  0.2847 -1.1438
 5354SOL     OW27694   4.356   0.579   0.552 -0.1318  0.4752  0.8637
 5354SOL    HW127695   4.383   0.491   0.578 -0.7900  0.1905  0.5793
 5354SOL    HW227696   4.307   0.601   0.632 -0.3435  0.9546  0.6009
 5355SOL     OW27697   3.994   3.239   2.212  0.0859  1.0531  0.3295
 5355SOL    HW127698   3.909   3.193   2.210  1.0757 -0.8649  1.7284
 5355SOL    HW227699   4.003   3.249   2.307  0.6516  0.0924  0.3790
 5356SOL     OW27700   3.937   2.026   5.854  0.1845 -0.2396  0.4402
 5356SOL    HW127701   3.895   1.948   5.891  0.3888 -1.0419 -1.0376
 5356SOL    HW227702   4.029   2.005   5.843  0.2388 -0.6745  1.7694
 5357SOL     OW27703   2.166   2.980  11.919 -0.7830 -0.2146  0.3056
 5357SOL    HW127704   2.211   2.960  11.837  0.1007 -2.1906  1.2812
 5357SOL    HW227705   2.231   2.938  11.975 -0.1259  0.6893  0.2328
 5358SOL     OW27706   0.712   2.807  15.373  0.1147 -0.4067 -0.2411
 5358SOL    HW127707   0.650   2.848  15.313 -1.0795 -0.8649  0.6679
 5358SOL    HW227708   0.717   2.876  15.439  1.2671  0.2603 -1.0369
 5359SOL     OW27709   3.058   0.853  11.440 -0.1309 -0.4305 -0.1980
 5359SOL    HW127710   3.061   0.944  11.468  0.5624 -1.2694  2.4859
 5359SOL    HW227711   3.029   0.814  11.523 -1.3277 -2.2566 -1.4787
 5360SOL     OW27712   0.719   2.795   4.260  0.0223 -0.0208 -0.1471
 5360SOL    HW127713   0.638   2.815   4.305 -0.8196 -1.7550 -0.8971
 5360SOL    HW227714   0.774   2.874   4.263 -0.5446  0.3493  0.3638
 5361SOL     OW27715   4.172   1.908   4.745  0.1261 -0.8883  0.2472
 5361SOL    HW127716   4.172   1.899   4.840  2.1917 -1.8697  0.1482
 5361SOL    HW227717   4.198   1.819   4.720 -0.9671 -1.6956  1.9807
 5362SOL     OW27718   0.722   0.808   0.860 -0.2914  0.1236 -0.1662
 5362SOL    HW127719   0.793   0.860   0.899 -0.3582  0.5794 -0.6614
 5362SOL    HW227720   0.705   0.857   0.780 -3.7258 -1.0658 -0.1709
 5363SOL     OW27721   0.028   1.479   6.869 -0.0871 -0.1103 -0.5290
 5363SOL    HW127722   0.071   1.398   6.839  0.6036 -0.9820  2.7743
 5363SOL    HW227723   0.103   1.528   6.902  0.5170 -0.3593 -1.5411
 5364SOL     OW27724   2.837   2.638  11.680 -0.1137 -0.2872  0.0704
 5364SOL    HW127725   2.788   2.631  11.599  1.3900 -0.1081 -0.8520
 5364SOL    HW227726   2.894   2.714  11.665 -0.2272 -0.4219 -0.9800
 5365SOL     OW27727   1.501   0.256   2.541 -0.1081 -0.0140 -0.1788
 5365SOL    HW127728   1.528   0.319   2.608 -2.4189 -0.2073  0.9284
 5365SOL    HW227729   1.405   0.257   2.544 -0.0867 -2.5340  0.9014
 5366SOL     OW27730   3.783   2.568   1.693  0.0383 -0.0126 -0.0543
 5366SOL    HW127731   3.809   2.492   1.746 -0.9108  0.0806  0.5541
 5366SOL    HW227732   3.696   2.533   1.674 -0.3218  0.4715  0.6835
 5367SOL     OW27733   1.212   0.429   2.783 -0.0641  0.0107 -0.4277
 5367SOL    HW127734   1.282   0.458   2.841 -1.3369  0.6598  0.7880
 5367SOL    HW227735   1.232   0.336   2.772 -2.3711 -0.2920 -2.0489
 5368SOL     OW27736   4.637   1.311  10.334 -0.1892 -0.1968 -0.3631
 5368SOL    HW127737   4.573   1.351  10.392 -0.2412 -0.5963 -0.1478
 5368SOL    HW227738   4.628   1.220  10.360  2.4237  0.3873  2.6044
 5369SOL     OW27739   3.191   2.292   5.696  0.1464 -0.0482 -0.2076
 5369SOL    HW127740   3.187   2.241   5.777 -0.6414  1.1974  0.5353
 5369SOL    HW227741   3.273   2.336   5.716  0.8615 -1.2506 -0.4510
 5370SOL     OW27742   3.677   1.789   3.204 -0.0488  0.6367  0.4205
 5370SOL    HW127743   3.589   1.808   3.234 -0.7265 -2.3311  0.2905
 5370SOL    HW227744   3.732   1.868   3.210 -0.4275  1.0024 -0.9131
 5371SOL     OW27745   3.747   4.291   3.548 -0.1412  0.5599 -0.1412
 5371SOL    HW127746   3.839   4.317   3.537  0.2485 -1.0735 -0.8072
 5371SOL    HW227747   3.758   4.240   3.628  1.0084  0.3103 -0.4471
 5372SOL     OW27748   2.229   3.576   7.640  0.5060  0.1219  0.1638
 5372SOL    HW127749   2.222   3.500   7.583  0.4324 -0.1076  0.4824
 5372SOL    HW227750   2.302   3.621   7.598  1.9285 -1.3060  1.1220
 5373SOL     OW27751   0.966   1.476   9.934  0.1577 -0.3443  0.1382
 5373SOL    HW127752   0.937   1.455   9.845 -0.9118  3.5413 -0.4350
 5373SOL    HW227753   0.891   1.444   9.984  1.3020 -2.6664  0.3632
 5374SOL     OW27754   0.327   3.587   3.724 -0.0257  0.5596  0.0625
 5374SOL    HW127755   0.289   3.675   3.726  3.6580  2.1873 -0.2363
 5374SOL    HW227756   0.420   3.594   3.701  0.1190 -0.6044  0.3249
 5375SOL     OW27757   3.556   3.841  14.197 -0.0962  0.2264 -0.1224
 5375SOL    HW127758   3.607   3.908  14.241 -0.8591  0.6642  0.0884
 5375SOL    HW227759   3.620   3.819  14.129  0.7599 -1.3154  1.1966
 5376SOL     OW27760   4.572   4.256   6.211  0.3806 -0.0638  0.3170
 5376SOL    HW127761   4.634   4.329   6.209  1.0937 -0.6351  1.4780
 5376SOL    HW227762   4.627   4.182   6.236 -0.5179 -1.4974 -2.0406
 5377SOL     OW27763   2.144   4.044  16.495 -0.1181  0.2186  0.1847
 5377SOL    HW127764   2.232   4.052  16.532  1.2734  0.6995 -3.2088
 5377SOL    HW227765   2.112   3.960  16.528  0.1290 -0.5666 -1.5594
 5378SOL     OW27766   0.728   0.305   6.826  0.0526  0.6369  0.7341
 5378SOL    HW127767   0.661   0.237   6.828  2.5902 -1.7696  3.0048
 5378SOL    HW227768   0.665   0.375   6.807 -0.5368 -0.2350 -0.5089
 5379SOL     OW27769   0.189   4.587   8.678  0.0944  0.4036  0.0901
 5379SOL    HW127770   0.198   4.622   8.766  0.7799 -1.1178  0.6202
 5379SOL    HW227771   0.261   4.524   8.672  0.7788  1.3270 -1.5109
 5380SOL     OW27772   2.174   0.769   5.805  0.1571  0.0854  0.4398
 5380SOL    HW127773   2.098   0.727   5.766  0.4940 -1.4182  1.3833
 5380SOL    HW227774   2.162   0.736   5.894  0.8580  1.1362  0.9287
 5381SOL     OW27775   0.517   0.249   3.412 -0.1847 -0.2121 -0.9223
 5381SOL    HW127776   0.434   0.287   3.381 -1.4175 -2.7662 -0.7111
 5381SOL    HW227777   0.557   0.224   3.329  1.1229  0.3876 -0.4567
 5382SOL     OW27778   1.034   0.025   8.973  0.0172  0.5388 -0.3259
 5382SOL    HW127779   0.983   0.010   8.893  1.9757 -1.5433 -1.1949
 5382SOL    HW227780   1.081   4.682   8.994  0.0796 -0.0379 -2.7470
 5383SOL     OW27781   0.718   4.618   2.586  0.0308 -0.3706 -0.6039
 5383SOL    HW127782   0.779   4.643   2.517  1.3517  0.6015  0.9126
 5383SOL    HW227783   0.669   4.700   2.598  0.7858 -0.1481  0.8849
 5384SOL     OW27784   2.135   2.900   8.372 -0.4288  0.4232  0.2167
 5384SOL    HW127785   2.152   2.893   8.466 -0.8016 -1.5146  0.1430
 5384SOL    HW227786   2.059   2.958   8.373 -0.3878  0.4688  1.5084
 5385SOL     OW27787   0.766   1.936   1.810  0.0148  0.5532  0.1915
 5385SOL    HW127788   0.787   1.965   1.899  0.1186  0.4527  0.2011
 5385SOL    HW227789   0.680   1.897   1.829  0.5638 -0.2964  0.9805
 5386SOL     OW27790   2.891   0.277   3.412 -0.0684  0.0315 -0.0266
 5386SOL    HW127791   2.933   0.334   3.476 -0.6065 -0.3063  0.6335
 5386SOL    HW227792   2.857   0.216   3.478  1.2579  0.3487  0.9377
 5387SOL     OW27793   1.768   1.707   2.921 -0.2042 -0.5790  0.1304
 5387SOL    HW127794   1.712   1.695   2.998 -1.4029 -1.1378 -0.8395
 5387SOL    HW227795   1.730   1.638   2.868  1.7037 -2.7271  1.5841
 5388SOL     OW27796   4.280   3.898  17.119 -0.6421  0.5354  0.2657
 5388SOL    HW127797   4.225   3.857  17.186  3.0401 -2.0964  1.7028
 5388SOL    HW227798   4.333   3.831  17.076 -1.3744  0.9400 -1.2444
 5389SOL     OW27799   3.312   3.170   9.172 -0.0308 -0.6473  0.7169
 5389SOL    HW127800   3.245   3.106   9.194 -1.8190  0.8670 -0.3379
 5389SOL    HW227801   3.292   3.243   9.229 -1.4043  0.2453 -0.9158
 5390SOL     OW27802   4.188   4.373  13.607 -0.0529  0.6677 -0.2067
 5390SOL    HW127803   4.241   4.452  13.617 -1.9164  1.6279  1.8843
 5390SOL    HW227804   4.233   4.309  13.662  0.1929  0.1240 -1.0378
 5391SOL     OW27805   0.662   2.800   5.253 -0.7176  0.3949  0.2131
 5391SOL    HW127806   0.585   2.769   5.300  0.3970 -0.6547  1.3446
 5391SOL    HW227807   0.631   2.823   5.165 -1.9424 -4.1982 -0.5899
 5392SOL     OW27808   3.748   0.959   5.413 -0.9368  0.0667  0.2208
 5392SOL    HW127809   3.750   0.898   5.338 -1.1088  0.8799 -0.4414
 5392SOL    HW227810   3.701   1.025   5.362  0.6258  1.8322  1.0762
 5393SOL     OW27811   1.506   2.314  10.141  0.2918 -0.1674  0.1483
 5393SOL    HW127812   1.435   2.285  10.198 -0.4082 -0.2787 -0.7753
 5393SOL    HW227813   1.540   2.394  10.181  1.4014  0.4078 -1.9552
 5394SOL     OW27814   1.065   1.693   9.105  0.0851  0.0104  0.5428
 5394SOL    HW127815   1.129   1.623   9.093 -0.5484 -0.5478  0.4759
 5394SOL    HW227816   1.124   1.763   9.078 -0.6812  0.5015  0.1542
 5395SOL     OW27817   3.633   1.055   4.533  0.1974 -1.1926  0.2103
 5395SOL    HW127818   3.702   1.016   4.480  0.2068 -0.1941 -0.5199
 5395SOL    HW227819   3.564   0.989   4.524 -1.8469  0.8778  0.6271
 5396SOL     OW27820   2.048   0.838   8.206  0.2394 -0.9610 -0.2497
 5396SOL    HW127821   1.963   0.796   8.222  0.3140 -1.5501 -1.3971
 5396SOL    HW227822   2.036   0.915   8.262  0.8729 -1.0725  0.0328
 5397SOL     OW27823   3.743   3.801   2.337  0.2500  0.2103 -0.0560
 5397SOL    HW127824   3.737   3.711   2.303 -3.2590 -0.5338  2.5575
 5397SOL    HW227825   3.649   3.816   2.326  0.0248 -1.2336 -0.1668
 5398SOL     OW27826   3.752   0.417   7.644  0.1568 -0.1903  0.2118
 5398SOL    HW127827   3.788   0.454   7.725 -0.2742 -0.4917  0.5403
 5398SOL    HW227828   3.804   0.338   7.634 -0.7119 -0.4927 -1.7759
 5399SOL     OW27829   2.504   1.352   8.365  0.0736  0.2838  0.2079
 5399SOL    HW127830   2.572   1.376   8.428 -0.5474  0.0042  0.9901
 5399SOL    HW227831   2.463   1.438   8.349 -1.7591 -0.9991 -2.0083
 5400SOL     OW27832   2.554   2.246  17.510 -0.0182  0.1938 -0.0153
 5400SOL    HW127833   2.467   2.246  17.470  0.3472 -0.7492 -0.8045
 5400SOL    HW227834   2.569   2.334  17.546 -0.7909  0.0365  0.6935
 5401SOL     OW27835   3.707   0.443   2.021 -0.4003 -0.3424 -0.2156
 5401SOL    HW127836   3.628   0.496   2.015  0.6006  1.0540 -1.0589
 5401SOL    HW227837   3.768   0.499   2.069 -0.4119 -0.4097 -0.1238
 5402SOL     OW27838   3.413   1.526   5.106 -0.1255  0.4254  0.4620
 5402SOL    HW127839   3.479   1.458   5.095  1.1469  1.7373 -0.0424
 5402SOL    HW227840   3.412   1.563   5.018  2.3905 -3.4442 -1.1900
 5403SOL     OW27841   0.208   1.521  15.884  0.3871 -0.3287  0.0676
 5403SOL    HW127842   0.160   1.449  15.926 -2.7675  1.7011 -0.0166
 5403SOL    HW227843   0.138   1.568  15.840  0.3873  2.3880  2.9351
 5404SOL     OW27844   3.087   4.318   0.098  0.0261  0.9065 -0.1084
 5404SOL    HW127845   3.000   4.279   0.086  1.0938 -0.7896 -2.3466
 5404SOL    HW227846   3.082   4.376   0.174  2.8076 -0.2116  0.9141
 5405SOL     OW27847   4.302   4.186   1.304 -0.1775  0.6098  0.3445
 5405SOL    HW127848   4.264   4.119   1.362 -1.0503 -0.6664 -1.6826
 5405SOL    HW227849   4.267   4.262   1.350 -2.5656 -0.3599  0.1335
 5406SOL     OW27850   2.527   1.617   4.865 -0.2893  0.3180  0.2298
 5406SOL    HW127851   2.585   1.541   4.877 -0.9857 -0.4405 -1.1676
 5406SOL    HW227852   2.483   1.626   4.949 -2.6730  1.1898 -1.1261
 5407SOL     OW27853   1.606   3.000  14.314  0.0815  0.3049  0.2364
 5407SOL    HW127854   1.520   3.008  14.354  0.1317  3.0443 -0.2330
 5407SOL    HW227855   1.654   2.994  14.397  1.6303 -0.4919 -0.7078
 5408SOL     OW27856   1.725   3.730   9.582  0.0493 -0.9784  0.0640
 5408SOL    HW127857   1.751   3.677   9.657  1.2765  1.3665  1.3092
 5408SOL    HW227858   1.735   3.818   9.618 -1.3804 -1.2870  1.2278
 5409SOL     OW27859   4.107   1.834   2.844  0.6851 -0.1084  0.8571
 5409SOL    HW127860   4.096   1.746   2.881  1.4314  0.1003  1.5571
 5409SOL    HW227861   4.025   1.847   2.797  1.6316  1.2096 -0.4328
 5410SOL     OW27862   0.491   1.785  14.281 -0.3049  0.3250  0.2046
 5410SOL    HW127863   0.569   1.802  14.228 -2.0357 -0.2763 -2.5152
 5410SOL    HW227864   0.459   1.703  14.243  0.4398  0.6738 -1.1567
 5411SOL     OW27865   1.942   3.826   5.291  0.1956 -0.2500 -0.1382
 5411SOL    HW127866   2.010   3.771   5.250 -0.0369  0.2193 -1.1639
 5411SOL    HW227867   1.913   3.775   5.366 -0.4606 -0.4028 -0.4965
 5412SOL     OW27868   3.024   1.050   7.641  0.4283  0.2891  0.0483
 5412SOL    HW127869   3.053   1.084   7.557 -1.1693 -1.1825 -1.0844
 5412SOL    HW227870   2.957   0.989   7.609  1.7828 -1.4754  0.5953
 5413SOL     OW27871   3.393   4.616   7.085 -0.0175 -0.0829  0.3164
 5413SOL    HW127872   3.305   4.580   7.093  0.6155 -1.9311 -1.1358
 5413SOL    HW227873   3.436   4.571   7.157  1.8106 -1.6771 -1.7534
 5414SOL     OW27874   4.400   1.534   2.203 -0.4380  0.3414  0.2211
 5414SOL    HW127875   4.352   1.453   2.223 -0.6147  0.0505 -1.3829
 5414SOL    HW227876   4.489   1.500   2.209 -0.3821  0.7372  1.5999
 5415SOL     OW27877   0.755   2.217   5.153  0.1246  0.9411  0.5991
 5415SOL    HW127878   0.807   2.263   5.088  1.5275  2.8384  3.0746
 5415SOL    HW227879   0.816   2.212   5.226 -2.1829  1.9058  2.6179
 5416SOL     OW27880   3.230   3.156  16.826 -0.3021 -0.4049 -0.6413
 5416SOL    HW127881   3.228   3.060  16.823  0.9502 -0.4694  0.6341
 5416SOL    HW227882   3.255   3.181  16.737  0.6293  1.7800  0.2431
 5417SOL     OW27883   2.203   2.649   4.319  0.1582  0.3034  0.1557
 5417SOL    HW127884   2.128   2.641   4.260  0.7423 -1.9440 -0.2730
 5417SOL    HW227885   2.159   2.602   4.390 -0.8561 -1.9080 -1.9202
 5418SOL     OW27886   4.570   2.725   8.127 -0.4802  0.0532  0.0941
 5418SOL    HW127887   4.637   2.722   8.195  0.5515  0.4821 -0.8937
 5418SOL    HW227888   4.548   2.817   8.143  1.6316  0.8803 -1.8588
 5419SOL     OW27889   4.119   4.575   4.356 -0.4085  0.1012 -0.1453
 5419SOL    HW127890   4.132   4.529   4.439 -1.1220  3.2693  1.7051
 5419SOL    HW227891   4.205   4.569   4.314  0.0731  0.8453  0.7400
 5420SOL     OW27892   3.802   0.091   5.240  0.0458 -0.0630 -0.2166
 5420SOL    HW127893   3.760   0.163   5.286  0.5564 -0.2535  0.5463
 5420SOL    HW227894   3.819   0.139   5.159 -1.8562  0.0695 -0.5538
 5421SOL     OW27895   1.932   1.702  10.256 -0.0550 -0.0238  0.1610
 5421SOL    HW127896   1.935   1.607  10.272  0.3662 -0.7896 -4.3720
 5421SOL    HW227897   1.837   1.715  10.256 -0.0074  0.3627  1.5703
 5422SOL     OW27898   1.764   4.038   2.497  0.3277 -0.5016 -0.6078
 5422SOL    HW127899   1.703   3.996   2.558  0.9232  0.3054  0.5566
 5422SOL    HW227900   1.731   4.127   2.508  0.9529 -0.2874 -0.4883
 5423SOL     OW27901   4.318   1.351  14.409  0.1026 -0.3537 -0.1058
 5423SOL    HW127902   4.345   1.441  14.428  0.1162 -0.4172  0.1752
 5423SOL    HW227903   4.231   1.376  14.378  0.7781  0.3906 -1.4336
 5424SOL     OW27904   3.987   3.008   4.948  0.2738  0.1960  0.0923
 5424SOL    HW127905   4.003   2.920   4.914  5.1651  1.3656 -0.6333
 5424SOL    HW227906   3.951   3.039   4.865  0.1913  0.5793  0.2735
 5425SOL     OW27907   1.947   3.030  15.644  0.1125 -0.1770  0.3986
 5425SOL    HW127908   2.003   3.013  15.569  1.7892 -0.3116  1.6825
 5425SOL    HW227909   1.975   2.964  15.707  0.8005  1.4656  1.8245
 5426SOL     OW27910   0.778   0.468   3.997 -0.1470  0.6663 -0.2235
 5426SOL    HW127911   0.684   0.473   4.015  0.0008  2.2923  0.0323
 5426SOL    HW227912   0.776   0.384   3.952 -1.1770  0.8208 -0.4713
 5427SOL     OW27913   2.174   2.376   5.048 -0.1530  0.6751  0.6548
 5427SOL    HW127914   2.220   2.379   5.132  0.0662 -0.6175  0.5868
 5427SOL    HW227915   2.084   2.351   5.066 -0.3256  0.1426 -0.9301
 5428SOL     OW27916   1.392   4.442   2.953 -0.4015  0.2318  0.2236
 5428SOL    HW127917   1.439   4.522   2.976  0.0448  0.7334 -2.4189
 5428SOL    HW227918   1.300   4.467   2.946 -0.1549  0.9554 -0.3865
 5429SOL     OW27919   3.071   4.157  16.216 -0.1519 -0.0490 -0.5967
 5429SOL    HW127920   3.164   4.166  16.194 -0.2137 -2.5754 -1.8456
 5429SOL    HW227921   3.047   4.205  16.137 -0.2172 -0.5339 -0.8715
 5430SOL     OW27922   0.947   2.934   7.568  0.3769  0.3141  1.0734
 5430SOL    HW127923   0.973   2.982   7.647 -2.6651  1.0994  1.5948
 5430SOL    HW227924   0.891   3.000   7.527  0.9283 -0.1482 -0.4172
 5431SOL     OW27925   0.824   1.196   1.828 -0.2511  0.4326 -0.1258
 5431SOL    HW127926   0.843   1.260   1.896  0.5194 -2.3125  2.2451
 5431SOL    HW227927   0.914   1.171   1.808 -0.3449 -1.1710  1.4818
 5432SOL     OW27928   4.573   2.980   4.267 -0.5244  0.2274 -0.1119
 5432SOL    HW127929   4.574   3.075   4.250  0.0238  0.1096 -0.7372
 5432SOL    HW227930   4.607   2.969   4.356 -2.5262  0.8252  0.7302
 5433SOL     OW27931   2.841   2.432   2.783  0.1095  0.3386  0.3731
 5433SOL    HW127932   2.886   2.516   2.775  0.6431  0.2041  1.9832
 5433SOL    HW227933   2.907   2.368   2.807  2.0030  3.5354  3.6302
 5434SOL     OW27934   0.954   4.586  12.021  0.5159  0.2000 -0.5466
 5434SOL    HW127935   0.875   4.590  12.075  0.1448 -1.6529 -0.9508
 5434SOL    HW227936   0.923   4.594  11.930  0.7171 -0.0603 -0.6391
 5435SOL     OW27937   3.294   3.432   4.666 -0.2083  0.6036 -0.4516
 5435SOL    HW127938   3.339   3.435   4.751  0.0213  3.9984 -0.7056
 5435SOL    HW227939   3.248   3.516   4.673  1.0303  1.3628 -1.3583
 5436SOL     OW27940   3.744   3.204   6.651 -0.0965 -0.6877  0.1243
 5436SOL    HW127941   3.706   3.119   6.633 -0.4024 -0.4260 -0.4757
 5436SOL    HW227942   3.832   3.185   6.684  0.5021 -0.6770 -1.4211
 5437SOL     OW27943   0.339   4.213   9.606  0.7808 -0.1779 -0.1877
 5437SOL    HW127944   0.306   4.273   9.673  0.5283 -1.3393  0.7314
 5437SOL    HW227945   0.347   4.271   9.530 -0.1648  0.9558  0.5879
 5438SOL     OW27946   1.846   3.858  11.255  0.3703 -0.1750  0.2180
 5438SOL    HW127947   1.800   3.941  11.241  0.2230 -0.5707 -1.6299
 5438SOL    HW227948   1.876   3.845  11.165 -0.2452  0.4359 -0.0803
 5439SOL     OW27949   2.818   1.500   3.376 -0.6134 -0.4871  0.0276
 5439SOL    HW127950   2.751   1.555   3.335  1.2495  1.3439 -0.5706
 5439SOL    HW227951   2.813   1.421   3.322  0.7973 -1.2589  1.0381
 5440SOL     OW27952   0.470   1.059   6.812  0.1211 -1.0232 -0.1681
 5440SOL    HW127953   0.452   1.153   6.815 -0.9908 -1.2606  0.2532
 5440SOL    HW227954   0.415   1.012   6.874 -0.4855  0.1930  0.2159
 5441SOL     OW27955   1.028   0.646   9.936 -0.4733 -0.1298  0.1818
 5441SOL    HW127956   1.090   0.646   9.864  0.9653  0.6341  1.4202
 5441SOL    HW227957   0.950   0.691   9.902 -1.6057 -1.5320  0.9346
 5442SOL     OW27958   1.133   2.662   3.084 -0.2128 -0.0434  0.5254
 5442SOL    HW127959   1.059   2.721   3.078 -1.4406 -1.9311 -2.7911
 5442SOL    HW227960   1.178   2.678   3.001 -1.5505  0.9143 -0.0134
 5443SOL     OW27961   0.565   3.821   0.488  0.2155  0.1338 -0.2089
 5443SOL    HW127962   0.632   3.885   0.514  0.1252  0.8847 -1.8329
 5443SOL    HW227963   0.568   3.811   0.393  0.2901  2.4618 -0.4320
 5444SOL     OW27964   2.531   3.956   4.766  0.1799 -0.1460 -0.1155
 5444SOL    HW127965   2.462   3.898   4.798 -0.1109 -0.5080 -1.3990
 5444SOL    HW227966   2.476   4.007   4.707 -1.7856 -0.4873  1.4101
 5445SOL     OW27967   0.338   1.288   7.293 -0.2821  0.5438 -0.5118
 5445SOL    HW127968   0.301   1.357   7.239 -2.6721  0.8652  1.5473
 5445SOL    HW227969   0.255   1.254   7.328 -0.0464 -0.6057 -1.0637
 5446SOL     OW27970   0.019   0.208   7.980 -0.1964  0.6506  0.7304
 5446SOL    HW127971   4.671   0.174   7.956 -0.0651 -1.8624  3.7161
 5446SOL    HW227972   0.008   0.240   8.070 -0.5209 -1.8386  1.5725
 5447SOL     OW27973   1.944   1.625   6.162  0.4682  0.2996  0.1700
 5447SOL    HW127974   1.873   1.561   6.159  2.2496 -1.7903  2.5631
 5447SOL    HW227975   1.886   1.699   6.176 -0.0180 -0.1849  0.7445
 5448SOL     OW27976   0.733   3.744  11.682  0.0554  0.1221  0.3978
 5448SOL    HW127977   0.815   3.715  11.721  0.1752 -0.8056 -0.5198
 5448SOL    HW227978   0.697   3.658  11.662 -0.0288  0.3318 -0.3686
 5449SOL     OW27979   1.119   3.130   8.056  0.1018  0.2281 -0.2905
 5449SOL    HW127980   1.050   3.082   8.102 -1.5239  2.7232 -0.0951
 5449SOL    HW227981   1.090   3.217   8.085 -0.0486 -0.2698  1.0516
 5450SOL     OW27982   0.783   1.206  14.387 -0.0525  0.1527  0.0422
 5450SOL    HW127983   0.824   1.270  14.327 -0.3834  0.7421  0.4437
 5450SOL    HW227984   0.705   1.258  14.407 -0.5309 -0.5580  0.0281
 5451SOL     OW27985   0.463   0.680  11.095 -0.1870  0.5740 -0.5198
 5451SOL    HW127986   0.440   0.674  11.003 -0.4975 -0.2163 -0.3934
 5451SOL    HW227987   0.379   0.641  11.122  1.1651 -0.6229  2.0455
 5452SOL     OW27988   4.263   1.078  16.042 -0.0043  1.0530  0.1206
 5452SOL    HW127989   4.217   1.063  15.959  0.5616 -1.1212  0.2101
 5452SOL    HW227990   4.344   1.119  16.014  1.5771 -1.7437  0.6436
 5453SOL     OW27991   1.151   1.256   3.457 -0.2518  0.0067  0.2340
 5453SOL    HW127992   1.111   1.222   3.537  0.8222  0.1848  0.8508
 5453SOL    HW227993   1.070   1.254   3.407 -0.6625  0.7013  0.8733
 5454SOL     OW27994   0.917   1.347   9.349 -0.3144  0.4001  0.1925
 5454SOL    HW127995   0.844   1.291   9.322 -0.5745  1.3406 -1.0786
 5454SOL    HW227996   0.995   1.295   9.328 -0.9583 -0.3519 -0.3615
 5455SOL     OW27997   1.256   4.460   8.170 -0.4852 -0.2047  0.1297
 5455SOL    HW127998   1.168   4.463   8.135 -0.9062  1.5362  1.3656
 5455SOL    HW227999   1.302   4.518   8.109 -0.7513  0.6744  0.7758
 5456SOL     OW28000   1.801   1.778   9.189  0.6873 -0.8706  0.4260
 5456SOL    HW128001   1.869   1.821   9.239 -1.6095  0.9774  1.9661
 5456SOL    HW228002   1.735   1.759   9.257  0.0696  1.1733  0.3755
 5457SOL     OW28003   1.342   0.944   9.219  0.1209  0.0651  0.9119
 5457SOL    HW128004   1.432   0.925   9.246  0.8561  1.8887 -0.2803
 5457SOL    HW228005   1.350   0.928   9.125 -1.9896 -1.2676  0.9513
 5458SOL     OW28006   3.590   4.646   2.498  0.2530 -0.1346  0.2619
 5458SOL    HW128007   3.517   4.652   2.560  0.5282  1.0147  0.4666
 5458SOL    HW228008   3.547   4.683   2.421  0.8051 -1.0317 -0.4842
 5459SOL     OW28009   2.419   0.952   8.374  0.3006  0.0702  0.3499
 5459SOL    HW128010   2.375   0.890   8.432 -0.2597 -0.4894 -0.6688
 5459SOL    HW228011   2.491   0.967   8.435  1.8360  0.7515 -1.6336
 5460SOL     OW28012   4.351   3.782  16.751  0.0447 -0.4364  0.0910
 5460SOL    HW128013   4.431   3.738  16.721 -1.0406 -1.8197 -0.8132
 5460SOL    HW228014   4.376   3.787  16.843  1.8386 -1.0307 -0.3513
 5461SOL     OW28015   0.449   3.570   6.064 -0.4394  0.2696  0.2341
 5461SOL    HW128016   0.424   3.533   6.149  0.6287  0.2063  0.5261
 5461SOL    HW228017   0.369   3.616   6.038 -1.4320 -0.7744  1.4210
 5462SOL     OW28018   2.355   3.287   8.850  0.3889  0.3766 -0.1554
 5462SOL    HW128019   2.387   3.200   8.870 -0.5593 -0.3140 -1.6241
 5462SOL    HW228020   2.305   3.253   8.776  0.1368  0.5199 -0.0514
 5463SOL     OW28021   0.064   1.238   0.916 -0.8213 -0.6237 -0.1149
 5463SOL    HW128022   0.064   1.162   0.857  0.9795  0.3355 -1.3595
 5463SOL    HW228023   0.066   1.195   1.002  1.6250 -2.2809 -1.0016
 5464SOL     OW28024   3.606   1.842  11.303  0.2883 -0.3341  0.1532
 5464SOL    HW128025   3.692   1.804  11.283  0.3894 -1.2064  2.2510
 5464SOL    HW228026   3.585   1.864  11.212  1.2957  1.0375  0.2602
 5465SOL     OW28027   3.518   1.828   6.084  0.6617 -0.0493  0.3102
 5465SOL    HW128028   3.576   1.774   6.030 -0.9272 -0.0303 -1.4057
 5465SOL    HW228029   3.571   1.901   6.116  1.4071 -0.0563 -0.9059
 5466SOL     OW28030   0.887   1.882   0.493  0.3793  0.3054 -0.2683
 5466SOL    HW128031   0.903   1.789   0.476 -0.2390  0.0040  0.8025
 5466SOL    HW228032   0.976   1.918   0.498  0.5942 -0.6793  2.9155
 5467SOL     OW28033   2.450   1.881   2.083 -0.2643  0.1454 -0.2614
 5467SOL    HW128034   2.366   1.866   2.039 -0.0877 -1.2703 -0.1377
 5467SOL    HW228035   2.478   1.790   2.098  2.0398  0.8512 -0.2849
 5468SOL     OW28036   3.355   4.279   7.735  0.1333 -0.8115  0.2793
 5468SOL    HW128037   3.322   4.368   7.725 -0.9317 -1.2995 -0.4929
 5468SOL    HW228038   3.270   4.235   7.732 -0.6279  0.7710 -1.0029
 5469SOL     OW28039   3.429   3.026  10.180  0.0989  0.1766 -0.1494
 5469SOL    HW128040   3.466   3.000  10.265  0.8671 -0.5311 -0.7103
 5469SOL    HW228041   3.381   2.950  10.149 -0.5258  0.1818  0.8087
 5470SOL     OW28042   0.700   0.866  15.718  0.1277 -0.0460  0.7297
 5470SOL    HW128043   0.778   0.814  15.737  1.3897  1.7735  0.4766
 5470SOL    HW228044   0.744   0.929  15.661 -2.7559 -0.4085 -1.9391
 5471SOL     OW28045   2.466   3.176  17.598  0.3477 -0.0674  0.3062
 5471SOL    HW128046   2.424   3.109  17.652 -0.7727  1.2603  1.0791
 5471SOL    HW228047   2.389   3.233  17.601  0.6612  0.3795 -0.4121
 5472SOL     OW28048   0.759   2.521   3.851  0.0290 -0.1483 -0.2167
 5472SOL    HW128049   0.749   2.609   3.887 -0.5779 -0.3224  0.0549
 5472SOL    HW228050   0.669   2.491   3.869  0.1585 -0.1471  0.4469
 5473SOL     OW28051   1.115   2.545   5.774 -0.1674  0.3532 -0.0395
 5473SOL    HW128052   1.165   2.465   5.793 -0.8380 -0.0755 -0.0890
 5473SOL    HW228053   1.114   2.575   5.864  0.6068 -1.3451  0.5481
 5474SOL     OW28054   2.666   4.484   3.634  0.2867 -0.3731  0.4939
 5474SOL    HW128055   2.759   4.472   3.614  0.3634 -0.9242  1.1922
 5474SOL    HW228056   2.684   4.543   3.707  1.2646  0.5220 -0.4710
 5475SOL     OW28057   3.269   2.913   4.028 -0.0658 -0.1667 -0.3880
 5475SOL    HW128058   3.353   2.919   4.075  1.4356 -0.8460 -2.9943
 5475SOL    HW228059   3.266   2.824   3.994 -0.3497  0.1299 -1.1284
 5476SOL     OW28060   3.976   3.378   3.336  0.0368 -0.0524  0.0598
 5476SOL    HW128061   3.930   3.454   3.372  1.0751  0.5698  0.0904
 5476SOL    HW228062   3.909   3.337   3.282  0.2278 -0.0284 -0.1929
 5477SOL     OW28063   2.633   0.600   7.354 -0.0686 -0.1880  0.1444
 5477SOL    HW128064   2.618   0.514   7.392  2.8461 -0.9908 -0.4729
 5477SOL    HW228065   2.727   0.616   7.365  0.0088  0.1496 -0.9555
 5478SOL     OW28066   4.330   2.549   7.179 -0.5295  0.3129  0.1364
 5478SOL    HW128067   4.307   2.522   7.268  0.9687 -2.9170 -0.4516
 5478SOL    HW228068   4.237   2.556   7.158 -0.4856  0.8414  0.1364
 5479SOL     OW28069   0.049   3.209   7.657  0.5140  0.1666  0.2099
 5479SOL    HW128070   0.087   3.170   7.735  2.0416 -0.2512 -0.7356
 5479SOL    HW228071   0.011   3.130   7.618 -0.8645  0.3928  1.0887
 5480SOL     OW28072   1.865   2.428  13.721 -0.5564 -0.4290 -0.1114
 5480SOL    HW128073   1.930   2.424  13.792 -2.4914 -1.2760  1.6180
 5480SOL    HW228074   1.925   2.434  13.646 -0.5391  2.8957  0.1808
 5481SOL     OW28075   0.733   0.876  11.707 -0.4564  0.2192  0.1041
 5481SOL    HW128076   0.683   0.951  11.675 -1.3024 -0.0419  0.8341
 5481SOL    HW228077   0.686   0.847  11.785  0.5844 -0.6097  0.4231
 5482SOL     OW28078   3.321   3.509   6.192 -0.1121  0.5506 -0.2026
 5482SOL    HW128079   3.323   3.476   6.102  2.6285  2.5977 -0.9108
 5482SOL    HW228080   3.280   3.437   6.239  1.0831  0.1807  0.2558
 5483SOL     OW28081   3.825   4.601  13.962 -0.2511  0.1235  0.1958
 5483SOL    HW128082   3.856   4.672  13.906 -0.8438 -0.3539 -0.7226
 5483SOL    HW228083   3.780   4.549  13.896  2.3774  0.0925 -1.5723
 5484SOL     OW28084   3.830   0.110   9.448  0.0606  0.0477 -0.2084
 5484SOL    HW128085   3.881   0.153   9.516 -0.1850 -0.3144  0.1983
 5484SOL    HW228086   3.761   0.174   9.431 -0.0687  0.9541  3.8432
 5485SOL     OW28087   4.034   1.426  14.336  0.4410 -0.0250 -0.1078
 5485SOL    HW128088   4.020   1.423  14.241  0.0026 -0.5106 -0.0267
 5485SOL    HW228089   3.942   1.435  14.363  0.9079  1.2629  1.0499
 5486SOL     OW28090   3.238   2.591   8.385 -0.1000  0.0020 -0.3656
 5486SOL    HW128091   3.323   2.624   8.355  0.0363 -0.8127 -0.8785
 5486SOL    HW228092   3.183   2.635   8.319 -0.2353  0.5486  0.1104
 5487SOL     OW28093   0.648   3.626   1.200 -0.3709  0.0783  0.5118
 5487SOL    HW128094   0.643   3.531   1.196 -0.2948  0.0829  0.3009
 5487SOL    HW228095   0.623   3.649   1.290 -0.0762  0.8487  0.4004
 5488SOL     OW28096   3.255   2.307   3.264  0.9049  0.0568  0.3940
 5488SOL    HW128097   3.241   2.337   3.354  0.6527  1.4268 -0.0947
 5488SOL    HW228098   3.338   2.350   3.242 -0.1104  2.1076  0.5136
 5489SOL     OW28099   2.424   0.581   6.335  0.0486  0.5385 -0.1232
 5489SOL    HW128100   2.433   0.503   6.389  2.3719 -0.8828 -2.5761
 5489SOL    HW228101   2.493   0.561   6.273  1.1501  0.9001  0.9889
 5490SOL     OW28102   0.623   2.650   8.090  0.1193 -0.2578 -0.8685
 5490SOL    HW128103   0.554   2.707   8.056 -0.2980  0.0727  0.5394
 5490SOL    HW228104   0.697   2.710   8.100  1.1954 -1.8836  0.9083
 5491SOL     OW28105   2.854   0.650   5.135  0.3689 -0.1399  0.4772
 5491SOL    HW128106   2.813   0.565   5.151 -3.0027  1.3396 -0.4297
 5491SOL    HW228107   2.805   0.667   5.055 -1.9746 -0.0947  1.9295
 5492SOL     OW28108   0.480   1.667   8.785 -0.0387 -0.3515 -0.5265
 5492SOL    HW128109   0.473   1.761   8.768 -0.3464 -0.1316  0.7747
 5492SOL    HW228110   0.388   1.660   8.808  0.0973 -0.0710  0.1213
 5493SOL     OW28111   1.891   3.307  17.061  0.1550  0.1975 -0.0083
 5493SOL    HW128112   1.966   3.247  17.067  0.8713  1.4164  3.0365
 5493SOL    HW228113   1.847   3.289  17.144 -2.5917 -1.8267 -1.8952
 5494SOL     OW28114   4.663   2.516   6.246 -0.3731 -0.4299  0.0121
 5494SOL    HW128115   4.638   2.463   6.322 -1.7855  1.4333  0.8461
 5494SOL    HW228116   0.019   2.496   6.244 -0.2121  0.1547  1.4120
 5495SOL     OW28117   3.429   4.300  14.498 -0.3759  0.3668  0.5109
 5495SOL    HW128118   3.415   4.215  14.458  0.0335  0.2087  0.7076
 5495SOL    HW228119   3.444   4.283  14.591 -1.9558 -0.6378  0.5903
 5496SOL     OW28120   3.992   3.512   9.499  0.1278 -0.2275 -0.5322
 5496SOL    HW128121   4.026   3.430   9.463  1.3068  0.5936 -1.2898
 5496SOL    HW228122   4.011   3.580   9.435 -1.8484  0.8070 -0.0181
 5497SOL     OW28123   1.176   3.240   3.519 -0.3695  0.3898  0.0417
 5497SOL    HW128124   1.265   3.204   3.521  0.4294  2.3074 -0.9599
 5497SOL    HW228125   1.133   3.163   3.555  0.9934  0.1023  1.0488
 5498SOL     OW28126   3.319   4.274   6.633 -0.0347 -0.0206 -0.1048
 5498SOL    HW128127   3.231   4.286   6.596 -1.5618 -0.7165  3.2489
 5498SOL    HW228128   3.353   4.193   6.595  2.0403  1.0635 -0.5133
 5499SOL     OW28129   1.668   1.612   3.403 -0.6100  0.9066 -0.1829
 5499SOL    HW128130   1.750   1.653   3.430 -0.3915  1.1606 -1.2448
 5499SOL    HW228131   1.599   1.630   3.467 -0.3422  1.3605 -0.0190
 5500SOL     OW28132   0.967   1.217   0.522 -0.7365  0.3247  0.1440
 5500SOL    HW128133   0.873   1.230   0.515 -0.8206 -1.2181 -1.5242
 5500SOL    HW228134   0.979   1.273   0.599 -2.3941  0.2790  0.4335
 5501SOL     OW28135   2.118   0.364   3.263 -0.7222  0.1660 -0.6530
 5501SOL    HW128136   2.198   0.414   3.247  0.8727 -1.5359  2.0109
 5501SOL    HW228137   2.071   0.433   3.311 -1.6721 -0.4368 -0.7142
 5502SOL     OW28138   4.473   2.236   4.806  0.2629 -0.0922 -0.1152
 5502SOL    HW128139   4.389   2.267   4.772  0.2893 -0.0522 -0.1446
 5502SOL    HW228140   4.491   2.312   4.863 -1.4457  0.4570 -0.3043
 5503SOL     OW28141   3.206   3.150  14.412  0.2302 -0.7682  0.3542
 5503SOL    HW128142   3.223   3.064  14.450 -1.0654 -2.4051 -2.7196
 5503SOL    HW228143   3.111   3.147  14.396  0.7082  2.3060 -2.9715
 5504SOL     OW28144   3.347   2.450   7.515  0.3539 -0.3625 -0.0034
 5504SOL    HW128145   3.338   2.420   7.605 -3.4899 -1.7793 -0.8362
 5504SOL    HW228146   3.383   2.370   7.475  0.3049 -0.0020 -0.7575
 5505SOL     OW28147   4.413   4.150   7.314 -0.3985  0.2121  0.1958
 5505SOL    HW128148   4.332   4.180   7.273 -0.0142  1.3146  0.2546
 5505SOL    HW228149   4.385   4.068   7.356  1.9478 -0.3663  0.6362
 5506SOL     OW28150   0.629   2.796  14.618 -0.5314 -0.0868 -0.0421
 5506SOL    HW128151   0.627   2.890  14.602  1.3779  0.1463  1.0403
 5506SOL    HW228152   0.616   2.755  14.532  0.0838 -0.3958  0.0091
 5507SOL     OW28153   1.626   0.992   5.075  0.2307 -0.2257  0.3490
 5507SOL    HW128154   1.669   0.920   5.122  1.2592  0.9625  1.2125
 5507SOL    HW228155   1.695   1.012   5.012 -1.8721  0.6875 -1.6581
 5508SOL     OW28156   0.347   3.994  12.083  0.0760 -0.3466  0.3031
 5508SOL    HW128157   0.393   3.976  12.001  2.2587  1.0413  1.2263
 5508SOL    HW228158   0.324   3.909  12.120  0.0270 -0.8601 -0.9274
 5509SOL     OW28159   4.654   4.331   2.059  0.4457  0.1372 -0.3585
 5509SOL    HW128160   4.591   4.270   2.021 -0.2042 -0.2054  1.2992
 5509SOL    HW228161   4.641   4.407   2.003 -0.3391  1.4730  1.6337
 5510SOL     OW28162   0.529   4.002   2.060 -0.1079  0.5043 -0.2582
 5510SOL    HW128163   0.595   4.068   2.082 -0.4077  0.8844 -0.5042
 5510SOL    HW228164   0.448   4.053   2.068 -0.5305 -0.0156 -1.2245
 5511SOL     OW28165   0.137   0.508   4.409 -0.3191  0.1222  0.3775
 5511SOL    HW128166   0.178   0.445   4.468  1.2162 -0.9195 -1.8080
 5511SOL    HW228167   0.054   0.465   4.389 -2.2330  4.0367 -0.1801
 5512SOL     OW28168   2.731   2.091   2.429  0.0408 -0.5183 -0.6916
 5512SOL    HW128169   2.658   2.095   2.491  1.1626  0.7121  0.5489
 5512SOL    HW228170   2.723   1.998   2.406 -0.3887 -0.1650 -1.9264
 5513SOL     OW28171   1.449   1.443   8.209 -0.0541 -0.5368  0.2268
 5513SOL    HW128172   1.496   1.518   8.174 -0.1007 -0.9271 -0.6910
 5513SOL    HW228173   1.383   1.493   8.257 -1.3752 -0.6399 -1.4743
 5514SOL     OW28174   3.995   1.242   2.009  0.2120 -0.1207 -0.1658
 5514SOL    HW128175   3.949   1.176   2.060  2.3815 -2.6760 -1.5401
 5514SOL    HW228176   3.927   1.250   1.942 -0.2186 -3.6042 -0.1113
 5515SOL     OW28177   2.734   4.318  12.169  0.4520 -0.1934  0.2129
 5515SOL    HW128178   2.825   4.295  12.188 -0.3125 -2.5792  1.0141
 5515SOL    HW228179   2.727   4.404  12.211 -0.6170 -0.3003  0.2548
 5516SOL     OW28180   1.245   2.155   4.088 -0.2512 -0.2251  0.3975
 5516SOL    HW128181   1.220   2.102   4.164 -0.0366 -1.4774 -0.4077
 5516SOL    HW228182   1.330   2.188   4.116  0.0974 -3.0858  2.6767
 5517SOL     OW28183   4.173   3.238   5.257  0.6324 -0.3034  0.0950
 5517SOL    HW128184   4.193   3.198   5.341 -1.4631 -0.0492  0.6991
 5517SOL    HW228185   4.098   3.294   5.272 -0.3565 -2.0399  1.6271
 5518SOL     OW28186   3.181   2.481   7.058 -0.4548 -0.6026  0.6589
 5518SOL    HW128187   3.203   2.444   7.143 -0.1578 -1.7680  0.0690
 5518SOL    HW228188   3.101   2.526   7.084 -1.1535 -0.7972 -1.1237
 5519SOL     OW28189   4.661   0.305   0.782  0.6923  0.0862  0.0753
 5519SOL    HW128190   4.648   0.309   0.877  0.3755 -0.3982  0.0499
 5519SOL    HW228191   4.725   0.373   0.763  0.4001  0.0917 -0.8522
 5520SOL     OW28192   3.048   0.096  11.501  0.1433 -0.3518  0.0760
 5520SOL    HW128193   3.118   0.063  11.445 -0.5831  0.6357 -1.3952
 5520SOL    HW228194   3.027   0.176  11.454 -2.9970 -1.2469 -0.0842
 5521SOL     OW28195   2.690   2.435   5.316  0.2784  0.0078  0.9618
 5521SOL    HW128196   2.732   2.399   5.238  1.4006 -0.4017  1.7498
 5521SOL    HW228197   2.609   2.469   5.278 -1.1057 -2.5343  1.6862
 5522SOL     OW28198   1.589   0.999   6.353  0.2245 -0.1179  0.5285
 5522SOL    HW128199   1.659   1.063   6.336 -0.2837  0.5976  1.1458
 5522SOL    HW228200   1.519   1.060   6.331  0.6053  0.8286  1.8898
 5523SOL     OW28201   3.238   1.148   7.364 -0.0858  0.9425  0.3275
 5523SOL    HW128202   3.285   1.081   7.315 -0.0310  2.0627 -1.1680
 5523SOL    HW228203   3.154   1.149   7.317 -0.1558 -0.2467  0.4281
 5524SOL     OW28204   2.155   2.980  16.023  0.0557 -0.1602  0.5256
 5524SOL    HW128205   2.139   2.897  15.978  2.8082  0.4052 -1.4994
 5524SOL    HW228206   2.191   3.042  15.959  1.4988  0.6558  2.1312
 5525SOL     OW28207   0.835   1.837   7.134  0.1057  0.2319  0.0049
 5525SOL    HW128208   0.778   1.794   7.199 -0.3506  1.5374  0.4585
 5525SOL    HW228209   0.903   1.769   7.129  0.3177  0.3810  0.9569
 5526SOL     OW28210   2.081   0.417   9.550  0.3173  0.4508 -0.4511
 5526SOL    HW128211   2.055   0.336   9.507  1.2827 -1.0058  1.7144
 5526SOL    HW228212   2.147   0.457   9.494 -0.5772  0.8412 -1.2437
 5527SOL     OW28213   1.934   1.898   2.593 -0.4035  0.2615 -0.4367
 5527SOL    HW128214   1.901   1.919   2.506  1.4180  0.8491 -0.9948
 5527SOL    HW228215   1.882   1.943   2.659  1.4495 -2.3912  2.8323
 5528SOL     OW28216   2.002   2.886  10.248  0.2281 -0.0337 -0.3331
 5528SOL    HW128217   1.940   2.863  10.318 -1.2917  1.0684 -1.3088
 5528SOL    HW228218   2.019   2.979  10.262  1.1546 -0.3195  0.4512
 5529SOL     OW28219   4.411   0.102   5.857  0.3559 -0.4873 -0.0323
 5529SOL    HW128220   4.450   0.164   5.919 -0.7847  0.9902 -0.8012
 5529SOL    HW228221   4.330   0.075   5.901 -0.7576 -0.7188 -2.2363
 5530SOL     OW28222   3.676   0.846   0.499 -0.5914 -0.5034 -0.6273
 5530SOL    HW128223   3.592   0.828   0.457 -0.5628  0.0711 -0.9278
 5530SOL    HW228224   3.699   0.910   0.431  0.3600  0.0266  0.1795
 5531SOL     OW28225   2.527   3.038  13.330 -0.3386  0.7344 -0.5491
 5531SOL    HW128226   2.512   3.056  13.422 -1.0843 -2.2141 -0.0771
 5531SOL    HW228227   2.445   2.995  13.306 -2.1011  2.0400  3.2040
 5532SOL     OW28228   0.297   2.794   2.247 -0.1570 -0.4904 -0.7049
 5532SOL    HW128229   0.212   2.837   2.257  0.8126  0.9972  1.0161
 5532SOL    HW228230   0.318   2.797   2.154  2.8637  0.4592  0.0166
 5533SOL     OW28231   4.216   3.898   3.014  0.6628  0.2117 -1.0682
 5533SOL    HW128232   4.214   3.869   3.105  1.4394 -0.3685 -1.2462
 5533SOL    HW228233   4.264   3.824   2.979  0.2565 -1.1090  1.1682
 5534SOL     OW28234   1.845   0.927   9.366  0.3655 -0.9930 -0.1321
 5534SOL    HW128235   1.934   0.955   9.387  0.2629 -0.2224 -0.7271
 5534SOL    HW228236   1.794   0.959   9.440  1.2067  2.8698 -1.2106
 5535SOL     OW28237   1.981   4.317   2.202 -0.3145 -0.1080 -0.0696
 5535SOL    HW128238   1.902   4.352   2.159 -1.5800 -2.4886  0.3561
 5535SOL    HW228239   2.012   4.392   2.253 -0.1623  0.6542 -1.2604
 5536SOL     OW28240   3.862   4.421   9.090  0.3706  0.0284  0.3684
 5536SOL    HW128241   3.936   4.441   9.031 -1.9767  1.7592 -1.9819
 5536SOL    HW228242   3.800   4.490   9.066 -0.0948 -0.4554  0.2117
 5537SOL     OW28243   2.403   1.878   0.334 -0.1926 -0.4257  0.0508
 5537SOL    HW128244   2.324   1.841   0.296 -0.7210 -0.4700  1.1843
 5537SOL    HW228245   2.362   1.963   0.353  0.0718 -0.2853 -0.0096
 5538SOL     OW28246   3.917   0.681   8.534  0.3808  0.0593 -0.1945
 5538SOL    HW128247   3.872   0.723   8.607  3.6360  1.8612  0.7759
 5538SOL    HW228248   3.878   0.594   8.530  0.8761 -0.2170  0.8716
 5539SOL     OW28249   2.853   2.873   4.712  0.4472 -0.1609 -0.4614
 5539SOL    HW128250   2.907   2.863   4.633  0.1543 -1.4639 -0.4938
 5539SOL    HW228251   2.871   2.965   4.733  0.1708 -0.3630  0.6273
 5540SOL     OW28252   3.990   1.808   7.773  0.3197 -0.2738 -0.0023
 5540SOL    HW128253   4.015   1.832   7.862 -1.9869 -1.4755  0.9723
 5540SOL    HW228254   4.039   1.868   7.718  2.2009  0.8217  2.8553
 5541SOL     OW28255   3.064   3.010   5.556  0.2195 -0.5512  0.1060
 5541SOL    HW128256   3.011   2.977   5.629 -0.5159  2.6326  1.0092
 5541SOL    HW228257   3.017   2.961   5.488 -1.1773 -0.3173  0.9052
 5542SOL     OW28258   4.534   1.960  16.563 -0.3699 -0.3185  0.2533
 5542SOL    HW128259   4.592   1.934  16.492 -0.1806  2.0087 -0.4159
 5542SOL    HW228260   4.457   1.990  16.516  1.0304  1.9824 -0.5802
 5543SOL     OW28261   0.787   4.245   4.983  0.3170 -0.2640 -0.0102
 5543SOL    HW128262   0.758   4.332   4.954 -1.0038 -0.5583  0.4391
 5543SOL    HW228263   0.757   4.196   4.906  2.2113 -0.5702 -0.5381
 5544SOL     OW28264   0.971   0.145   5.416 -0.3423 -0.0766  0.3371
 5544SOL    HW128265   0.897   0.189   5.372  1.8698 -0.6079 -3.8862
 5544SOL    HW228266   0.962   0.057   5.380  2.0940  0.8340 -2.5047
 5545SOL     OW28267   1.056   3.101   5.260  0.0431  0.8324  0.0451
 5545SOL    HW128268   0.994   3.046   5.308  0.5260  0.0377 -0.2440
 5545SOL    HW228269   0.996   3.118   5.186 -1.8545  1.7944  1.8015
 5546SOL     OW28270   0.924   2.316   4.483 -0.3983 -0.0577  0.2231
 5546SOL    HW128271   1.019   2.305   4.472 -0.1174  0.4281  2.2291
 5546SOL    HW228272   0.912   2.402   4.442  3.9335  0.9613  1.0147
 5547SOL     OW28273   2.717   1.169   3.585 -0.0179  0.0509  0.4550
 5547SOL    HW128274   2.731   1.102   3.652  1.3791 -0.2563 -0.1455
 5547SOL    HW228275   2.623   1.181   3.598  0.0515 -0.8468  1.8783
 5548SOL     OW28276   1.756   1.478   5.885  0.1824  0.5943 -0.1290
 5548SOL    HW128277   1.702   1.549   5.851  1.2364  0.8001 -1.3953
 5548SOL    HW228278   1.819   1.516   5.946 -1.0995  0.3689  1.3321
 5549SOL     OW28279   0.529   3.123  15.748  0.4301 -0.1617 -0.1582
 5549SOL    HW128280   0.612   3.084  15.720  0.2816 -1.4297  1.1371
 5549SOL    HW228281   0.540   3.175  15.828 -0.8246 -1.5532  0.8995
 5550SOL     OW28282   0.725   3.034   6.765  0.1433  0.2923  0.4166
 5550SOL    HW128283   0.702   2.944   6.741  0.4352  0.4218 -0.3429
 5550SOL    HW228284   0.794   3.042   6.699 -0.4404  0.7752 -0.1338
 5551SOL     OW28285   2.675   2.087   4.842  0.0355 -0.5706  0.2254
 5551SOL    HW128286   2.761   2.094   4.882  0.3285  0.3433 -0.5540
 5551SOL    HW228287   2.658   2.177   4.817 -0.0271 -0.9704 -1.1839
 5552SOL     OW28288   3.568   2.103   6.081 -0.6947 -0.2559  0.7139
 5552SOL    HW128289   3.654   2.123   6.117  0.2467  0.6233 -2.0007
 5552SOL    HW228290   3.519   2.184   6.065 -1.6107 -0.6957  1.2733
 5553SOL     OW28291   3.635   1.113   6.525  0.2632 -0.1617 -0.2081
 5553SOL    HW128292   3.716   1.161   6.510  0.8237 -0.1772  2.7417
 5553SOL    HW228293   3.616   1.165   6.603  2.8975  0.6933 -0.1264
 5554SOL     OW28294   0.879   3.190   8.939 -0.0996 -0.5591  0.6253
 5554SOL    HW128295   0.924   3.183   9.023 -0.8474 -1.3751  0.9514
 5554SOL    HW228296   0.911   3.110   8.897 -1.9138 -1.0081  0.1382
 5555SOL     OW28297   0.397   2.184  12.078 -0.6340  0.3490  0.0926
 5555SOL    HW128298   0.378   2.090  12.076  1.3712 -0.0344 -1.8151
 5555SOL    HW228299   0.408   2.209  12.169  0.4651 -2.9136  0.8468
 5556SOL     OW28300   2.155   4.656   9.369 -0.8311 -0.2167 -0.3741
 5556SOL    HW128301   2.221   4.674   9.303  2.4276 -3.2919  2.0302
 5556SOL    HW228302   2.188   4.572   9.402  0.0088 -0.0172 -0.7250
 5557SOL     OW28303   0.632   0.758   4.221  0.4436  0.4550  0.6642
 5557SOL    HW128304   0.555   0.728   4.173  1.6764 -0.6852 -0.5723
 5557SOL    HW228305   0.654   0.837   4.171  0.3391 -1.3701 -2.2047
 5558SOL     OW28306   3.416   0.266   5.284  0.5673  0.3680 -0.3534
 5558SOL    HW128307   3.495   0.252   5.233 -0.3204  0.8364 -1.8673
 5558SOL    HW228308   3.409   0.357   5.312 -0.0927  1.1540 -3.1016
 5559SOL     OW28309   3.932   4.289   0.145  0.2077 -0.3575  0.5769
 5559SOL    HW128310   3.969   4.372   0.114  0.1081 -0.8429 -0.8236
 5559SOL    HW228311   4.001   4.223   0.145  0.0792 -0.4880  1.0691
 5560SOL     OW28312   4.041   0.527   5.614 -0.2378 -0.1728 -0.1643
 5560SOL    HW128313   3.990   0.534   5.695  2.9611 -1.1650  1.9394
 5560SOL    HW228314   4.099   0.454   5.634  0.6180  0.0386 -1.8278
 5561SOL     OW28315   3.118   3.576   1.737 -0.2739  0.1270  0.0289
 5561SOL    HW128316   3.197   3.624   1.761  0.8560 -1.0083 -1.4596
 5561SOL    HW228317   3.061   3.597   1.811  0.0494  1.1412 -0.0233
 5562SOL     OW28318   2.757   0.835  13.533  0.1035 -0.2366 -0.1586
 5562SOL    HW128319   2.721   0.914  13.575  2.9299  0.8631  0.1812
 5562SOL    HW228320   2.749   0.776  13.608  1.6273 -0.2674 -0.0290
 5563SOL     OW28321   3.731   0.125   8.212  0.1871  0.0887  0.0995
 5563SOL    HW128322   3.734   0.201   8.155 -1.1617  0.8671  1.0602
 5563SOL    HW228323   3.812   0.140   8.261  0.7831 -0.5958 -0.6835
 5564SOL     OW28324   3.668   2.344   3.957  0.3036 -0.2981 -0.2037
 5564SOL    HW128325   3.575   2.364   3.942  0.6551  0.7319 -0.9966
 5564SOL    HW228326   3.705   2.376   3.875  1.3149 -0.1935  0.3051
 5565SOL     OW28327   4.436   3.064   5.965 -0.1263  0.4280  0.1353
 5565SOL    HW128328   4.377   2.994   5.936 -0.4291  0.6365  0.2469
 5565SOL    HW228329   4.408   3.138   5.912 -1.1568 -0.9095 -1.2006
 5566SOL     OW28330   2.113   3.373   0.349 -0.3210 -0.8278  0.5267
 5566SOL    HW128331   2.030   3.372   0.396  0.3820 -1.1229  1.7741
 5566SOL    HW228332   2.115   3.288   0.303  2.6216 -0.2790 -0.3779
 5567SOL     OW28333   1.541   0.919   7.230  0.7338  0.3042 -0.4236
 5567SOL    HW128334   1.529   0.961   7.315 -1.4396  1.4977 -1.3144
 5567SOL    HW228335   1.591   0.986   7.183  0.4947  0.2680 -0.7281
 5568SOL     OW28336   4.218   1.896   0.281 -0.0647 -0.5118  0.0257
 5568SOL    HW128337   4.129   1.884   0.314 -0.8210 -1.4664 -2.4124
 5568SOL    HW228338   4.238   1.983   0.314 -1.5884 -0.4137  0.7014
 5569SOL     OW28339   4.473   2.609   6.947 -0.0648 -0.3308 -0.3363
 5569SOL    HW128340   4.423   2.594   7.028 -1.8088  1.0680 -1.1488
 5569SOL    HW228341   4.420   2.673   6.899 -0.5169 -0.8983 -0.5832
 5570SOL     OW28342   1.655   1.909  12.116  0.1940 -0.1517 -0.2187
 5570SOL    HW128343   1.621   1.835  12.165 -0.9572  0.4407 -0.1251
 5570SOL    HW228344   1.621   1.982  12.168 -2.3120 -2.0602  0.7968
 5571SOL     OW28345   4.170   0.324   3.554 -0.8982  0.2901  0.0256
 5571SOL    HW128346   4.228   0.388   3.597  2.2589 -1.0684 -2.1827
 5571SOL    HW228347   4.100   0.321   3.619  0.2901 -2.5223  1.1601
 5572SOL     OW28348   4.169   3.005   8.841  0.2058 -0.5639 -0.0906
 5572SOL    HW128349   4.241   3.019   8.779  0.9690  1.2099  1.1822
 5572SOL    HW228350   4.209   3.032   8.925  1.7979 -1.7107 -0.4813
 5573SOL     OW28351   4.071   1.890   5.270  0.2038  0.2468  0.1538
 5573SOL    HW128352   4.141   1.825   5.283  0.4158  0.6000  0.7516
 5573SOL    HW228353   4.008   1.820   5.252 -0.5158  0.6966  0.9724
 5574SOL     OW28354   0.091   0.964  14.716 -0.2083 -0.1859 -0.0326
 5574SOL    HW128355   0.180   0.999  14.707 -1.3506  2.8737  0.5626
 5574SOL    HW228356   0.087   0.909  14.638 -1.1223  0.7592 -0.6562
 5575SOL     OW28357   4.425   3.703  17.019 -0.0816  0.8157  0.1910
 5575SOL    HW128358   4.510   3.712  17.062  0.2587  1.2921 -0.5903
 5575SOL    HW228359   4.415   3.608  17.008 -1.0360  0.7012  1.9131
 5576SOL     OW28360   4.073   2.479   3.922  0.4480  0.3001  0.1797
 5576SOL    HW128361   4.142   2.533   3.960 -0.7667  1.7875  0.3030
 5576SOL    HW228362   3.995   2.521   3.959  0.6267  0.9565 -0.2054
 5577SOL     OW28363   3.547   4.210   7.913  0.4025 -0.3194  0.2045
 5577SOL    HW128364   3.492   4.185   7.988 -1.6381 -0.7860 -1.4274
 5577SOL    HW228365   3.479   4.236   7.851 -0.0359 -0.8349  0.4555
 5578SOL     OW28366   3.536   3.778   4.711 -0.1182 -0.0191  0.5094
 5578SOL    HW128367   3.596   3.848   4.686 -1.7174  0.1865 -2.7891
 5578SOL    HW228368   3.463   3.799   4.652  1.7244  1.3317 -1.2756
 5579SOL     OW28369   4.679   3.081   3.826 -0.1500  0.1332 -1.1235
 5579SOL    HW128370   4.706   3.145   3.760  0.2827  1.3187  0.1977
 5579SOL    HW228371   0.006   3.015   3.805 -0.9020 -0.2682 -2.2119
 5580SOL     OW28372   4.444   3.969   3.430  0.4977 -0.6775  0.0817
 5580SOL    HW128373   4.421   3.955   3.522  0.1129  0.7743  0.2019
 5580SOL    HW228374   4.428   4.064   3.427  1.2856 -0.4739  2.0048
 5581SOL     OW28375   0.545   1.970   4.008  0.7093 -0.3171 -0.1097
 5581SOL    HW128376   0.541   1.924   4.092  2.2916 -0.5260 -0.1537
 5581SOL    HW228377   0.520   2.050   4.054  0.7057 -0.5237  0.2455
 5582SOL     OW28378   0.685   0.883   6.082  0.7154  0.1170 -0.4443
 5582SOL    HW128379   0.743   0.884   6.006 -2.7576  1.2127 -3.0760
 5582SOL    HW228380   0.605   0.843   6.046  0.7621  0.4584 -0.9201
 5583SOL     OW28381   2.330   4.421   6.519 -0.5176 -0.7091 -0.1888
 5583SOL    HW128382   2.306   4.493   6.576 -0.2516 -0.2248 -0.6858
 5583SOL    HW228383   2.425   4.423   6.530 -0.7792  1.2698  1.6376
 5584SOL     OW28384   3.069   2.253   4.714 -0.2663  0.3293 -0.0752
 5584SOL    HW128385   3.063   2.247   4.619 -0.5001 -0.1975 -0.0258
 5584SOL    HW228386   3.151   2.301   4.723  0.4765 -1.2966  1.9426
 5585SOL     OW28387   4.622   0.673   9.810 -0.2425 -0.1177  0.2671
 5585SOL    HW128388   4.709   0.633   9.822 -0.8076 -0.7674  2.3146
 5585SOL    HW228389   4.600   0.702   9.899 -0.9520 -0.1721  0.1086
 5586SOL     OW28390   0.786   3.302   7.939  0.1811 -0.1146 -0.1344
 5586SOL    HW128391   0.852   3.317   8.006 -0.5450  0.8867  0.3590
 5586SOL    HW228392   0.776   3.393   7.909  0.1114 -0.6744 -1.8064
 5587SOL     OW28393   4.279   3.785   8.666  0.5171 -0.5695 -0.1118
 5587SOL    HW128394   4.265   3.800   8.572  0.1454 -0.3150 -0.0179
 5587SOL    HW228395   4.311   3.868   8.702 -1.0584  0.1868 -0.4169
 5588SOL     OW28396   0.878   1.363   6.936 -0.5578  0.4264 -0.3603
 5588SOL    HW128397   0.869   1.293   7.000 -0.7894 -0.4840 -1.3811
 5588SOL    HW228398   0.876   1.311   6.856 -2.5245 -1.6881  1.0524
 5589SOL     OW28399   2.147   4.412   1.902 -0.2299 -0.2498  0.3920
 5589SOL    HW128400   2.213   4.359   1.946 -0.9718 -1.8787 -0.4515
 5589SOL    HW228401   2.147   4.387   1.810 -1.8274 -0.4252  0.4377
 5590SOL     OW28402   2.494   1.645   5.777  0.1901 -0.1372  1.1381
 5590SOL    HW128403   2.483   1.740   5.771 -1.2959 -0.3237  1.0264
 5590SOL    HW228404   2.580   1.632   5.736 -0.6481 -1.2550 -0.2569
 5591SOL     OW28405   4.049   1.922   6.282 -0.0149  0.1821  0.0699
 5591SOL    HW128406   4.083   2.003   6.322  2.6520 -0.4891 -0.8579
 5591SOL    HW228407   3.997   1.886   6.354 -1.4087  1.6735 -0.1931
 5592SOL     OW28408   1.836   3.760   4.300  0.1621 -0.1657  0.3893
 5592SOL    HW128409   1.799   3.678   4.268  0.7105 -0.0648 -0.5063
 5592SOL    HW228410   1.878   3.792   4.220 -0.2089 -1.7720 -0.4690
 5593SOL     OW28411   0.170   4.623   8.229 -0.4829 -0.0525  0.2271
 5593SOL    HW128412   0.199   4.693   8.171  0.6038 -1.5009 -0.9579
 5593SOL    HW228413   0.125   4.554   8.181  0.3427 -1.3971  1.3390
 5594SOL     OW28414   4.279   1.705   8.376 -0.0399  0.0404 -0.0621
 5594SOL    HW128415   4.318   1.618   8.362  0.6228  0.5441 -1.2959
 5594SOL    HW228416   4.237   1.723   8.292 -0.6853  0.8071  0.4250
 5595SOL     OW28417   3.272   0.991   7.718 -0.5799 -0.0572  1.0465
 5595SOL    HW128418   3.311   1.078   7.705  0.3904 -0.4976  1.0152
 5595SOL    HW228419   3.184   1.001   7.682 -0.3660  0.6689  0.7311
 5596SOL     OW28420   1.086   0.697   9.504 -0.1989 -0.1812  0.0447
 5596SOL    HW128421   0.993   0.713   9.489 -0.4054  2.6404  4.2465
 5596SOL    HW228422   1.113   0.667   9.418 -2.7777 -1.4184 -0.3299
 5597SOL     OW28423   2.249   4.162   6.331 -0.2171 -0.0839  0.0400
 5597SOL    HW128424   2.294   4.080   6.309  0.2151  0.1937 -0.1168
 5597SOL    HW228425   2.331   4.211   6.321 -1.1399  1.2823 -0.9220
 5598SOL     OW28426   0.108   0.245  16.628  0.0514  0.3132  0.0489
 5598SOL    HW128427   0.160   0.187  16.683 -3.6312 -1.5833  1.5450
 5598SOL    HW228428   0.051   0.298  16.684  0.4000 -0.0130  0.7009
 5599SOL     OW28429   3.262   1.924   4.998 -0.6108 -0.0166  0.5286
 5599SOL    HW128430   3.335   1.907   4.939 -0.1798  0.0111  1.0498
 5599SOL    HW228431   3.189   1.934   4.936 -0.9082 -2.4111  0.4666
 5600SOL     OW28432   2.091   3.792  13.409 -0.0571  0.0045  0.0479
 5600SOL    HW128433   2.088   3.792  13.313 -1.7458 -4.2753  0.1003
 5600SOL    HW228434   2.036   3.866  13.434  0.2944 -0.6084  2.6695
 5601SOL     OW28435   2.236   1.999   0.946  0.0414  0.1362 -0.4755
 5601SOL    HW128436   2.292   2.074   0.928 -1.7514  1.4130 -0.7432
 5601SOL    HW228437   2.296   1.927   0.925  0.7732  0.2212  1.3368
 5602SOL     OW28438   2.281   3.947   5.637  0.4946  0.1383 -0.1772
 5602SOL    HW128439   2.287   3.865   5.686  3.1037 -0.2484 -1.1442
 5602SOL    HW228440   2.186   3.961   5.634  0.4770  0.0819  0.1262
 5603SOL     OW28441   3.078   0.883   6.173  0.0593  0.5810 -0.1185
 5603SOL    HW128442   3.130   0.924   6.243  1.5862  1.3178 -1.6904
 5603SOL    HW228443   3.093   0.793   6.201 -0.1767  0.1373 -1.4372
 5604SOL     OW28444   3.860   4.552   9.400  0.4850 -0.1786  0.0361
 5604SOL    HW128445   3.937   4.495   9.403  0.3413 -0.4097 -0.8063
 5604SOL    HW228446   3.887   4.638   9.434  1.2574 -1.1681  1.9106
 5605SOL     OW28447   0.612   0.732   3.795 -0.1499 -0.3457 -0.1328
 5605SOL    HW128448   0.636   0.658   3.739  0.9495  1.3207 -1.8589
 5605SOL    HW228449   0.689   0.740   3.850 -2.0246 -0.7161  2.5127
 5606SOL     OW28450   3.024   3.588   7.780 -0.3292  0.4058  0.5923
 5606SOL    HW128451   3.027   3.518   7.715 -0.2722  1.0742 -0.1322
 5606SOL    HW228452   3.092   3.556   7.838 -2.0165 -0.3331  2.1283
 5607SOL     OW28453   1.323   2.536   9.223 -0.0209  0.1961  0.1346
 5607SOL    HW128454   1.409   2.526   9.264  0.4485 -3.2531 -1.6669
 5607SOL    HW228455   1.305   2.449   9.187 -0.0654  0.9478 -1.6519
 5608SOL     OW28456   4.665   2.228   7.720  0.5022 -0.6855  0.1455
 5608SOL    HW128457   4.723   2.270   7.657 -1.7630 -1.7178 -2.5984
 5608SOL    HW228458   4.723   2.156   7.745 -1.2163 -2.7754 -1.7886
 5609SOL     OW28459   3.212   0.314   6.796  0.6690 -0.3027 -0.0980
 5609SOL    HW128460   3.211   0.220   6.813 -3.1138 -0.2588 -0.1099
 5609SOL    HW228461   3.160   0.352   6.866 -0.9168  1.7547 -2.3686
 5610SOL     OW28462   0.209   0.809   0.880  0.3810 -0.8640 -0.4382
 5610SOL    HW128463   0.203   0.720   0.915 -0.2944 -0.0399  1.5932
 5610SOL    HW228464   0.269   0.793   0.807 -1.1241 -1.3102 -1.5770
 5611SOL     OW28465   1.105   3.641   4.658 -0.0179 -0.1355 -0.3000
 5611SOL    HW128466   1.106   3.660   4.752  1.8772  0.1879 -0.3832
 5611SOL    HW228467   1.178   3.580   4.648 -1.0737 -1.0313 -2.3468
 5612SOL     OW28468   4.449   3.763   8.950 -0.3250 -0.4613  0.3342
 5612SOL    HW128469   4.541   3.768   8.924 -0.4319 -1.8226 -0.2830
 5612SOL    HW228470   4.408   3.800   8.872 -3.8609  0.3433  2.6010
 5613SOL     OW28471   0.776   0.828   7.196  0.6168  0.1265 -0.4014
 5613SOL    HW128472   0.854   0.861   7.241  0.6063 -1.8495  1.0550
 5613SOL    HW228473   0.767   0.899   7.132 -1.7312 -1.0036 -1.3107
 5614SOL     OW28474   2.461   2.518   4.271  0.3275  0.3127 -0.5732
 5614SOL    HW128475   2.380   2.560   4.302  0.1628  0.7922 -1.6531
 5614SOL    HW228476   2.429   2.473   4.193  1.2073  0.8105 -1.2227
 5615SOL     OW28477   0.904   0.292   8.641 -1.0800  0.4055  0.4482
 5615SOL    HW128478   0.886   0.383   8.617  0.2078  1.1911  2.5066
 5615SOL    HW228479   0.822   0.271   8.685 -1.6577 -0.6811 -1.1423
 5616SOL     OW28480   2.011   3.482   4.372 -0.2795 -0.1825  0.2598
 5616SOL    HW128481   1.973   3.545   4.434  1.6376  0.7565  0.4893
 5616SOL    HW228482   2.098   3.521   4.380 -1.0630  0.9953  3.3198
 5617SOL     OW28483   0.785   0.222   4.181  0.1410  0.4351  0.6626
 5617SOL    HW128484   0.820   0.308   4.205 -0.8778  0.1442  3.1923
 5617SOL    HW228485   0.864   0.168   4.176 -1.1292 -1.4058  0.5492
 5618SOL     OW28486   2.368   0.676   2.570  0.4970  0.1791 -0.1266
 5618SOL    HW128487   2.389   0.653   2.480  0.9070  0.5319 -0.1207
 5618SOL    HW228488   2.301   0.742   2.551  1.6186  1.2072 -0.4443
 5619SOL     OW28489   1.364   0.173   5.612  0.2173  0.0251  0.2394
 5619SOL    HW128490   1.445   0.223   5.610  0.6987 -0.7280  0.6065
 5619SOL    HW228491   1.372   0.135   5.524  0.6397  0.6981 -0.0071
 5620SOL     OW28492   1.964   2.176   5.142  0.3222  0.1755  0.2046
 5620SOL    HW128493   2.020   2.098   5.143  0.4589  0.2206 -2.9043
 5620SOL    HW228494   1.913   2.156   5.221 -1.0103 -2.3892 -1.3050
 5621SOL     OW28495   4.291   1.881   9.546  0.3054 -0.2429  0.3000
 5621SOL    HW128496   4.306   1.835   9.463  0.8504  1.0914 -0.3301
 5621SOL    HW228497   4.296   1.813   9.613 -0.1672 -0.2905  0.2918
 5622SOL     OW28498   1.906   3.471   2.424  0.5147  0.0272 -0.1874
 5622SOL    HW128499   1.825   3.492   2.378 -0.3818 -3.0592  0.0057
 5622SOL    HW228500   1.939   3.398   2.371  4.3355  2.1432 -0.7429
 5623SOL     OW28501   0.082   3.731   8.554 -0.0445 -0.1759  0.0452
 5623SOL    HW128502   0.019   3.761   8.488  0.2065 -0.9343 -0.5358
 5623SOL    HW228503   0.125   3.814   8.577 -1.2631  0.1042  1.2951
 5624SOL     OW28504   0.825   3.706   6.381 -0.2791  0.0747  0.2592
 5624SOL    HW128505   0.831   3.762   6.303 -0.8080  0.6219  0.6087
 5624SOL    HW228506   0.825   3.617   6.348  0.9584 -0.2539  1.1314
 5625SOL     OW28507   2.992   4.542   8.166 -0.2377  0.5237 -0.1145
 5625SOL    HW128508   2.956   4.493   8.240  1.9458  0.1513  0.7056
 5625SOL    HW228509   2.941   4.506   8.093 -0.9502  1.7976 -0.2527
 5626SOL     OW28510   0.419   3.678   5.668  0.3868 -0.9342  0.3033
 5626SOL    HW128511   0.485   3.703   5.732 -0.9117 -0.5592  1.4871
 5626SOL    HW228512   0.468   3.611   5.619  0.5767 -0.6552  0.1037
 5627SOL     OW28513   2.561   0.118   7.805  0.2243 -0.5654  0.1486
 5627SOL    HW128514   2.482   0.086   7.848  0.8257 -0.9752  0.9397
 5627SOL    HW228515   2.614   0.115   7.885  0.5007 -0.7797 -0.0424
 5628SOL     OW28516   1.404   3.586   4.879 -0.5709  0.2167  0.5183
 5628SOL    HW128517   1.426   3.529   4.806 -2.3438  0.2616 -0.0434
 5628SOL    HW228518   1.317   3.552   4.899 -0.7466 -0.0045 -0.6203
 5629SOL     OW28519   2.171   3.373   5.978  0.3696  0.0567  0.2421
 5629SOL    HW128520   2.124   3.455   5.991 -1.1945 -0.4812 -2.0460
 5629SOL    HW228521   2.165   3.339   6.067 -1.0454  0.7565  0.4047
 5630SOL     OW28522   2.858   2.665   7.976 -0.0039  0.4424  0.6532
 5630SOL    HW128523   2.821   2.744   7.939  1.6452 -0.5345 -3.1080
 5630SOL    HW228524   2.939   2.694   8.017  0.5903  0.0303 -0.2089
 5631SOL     OW28525   2.889   3.433   5.999  0.0147  0.1848  0.5984
 5631SOL    HW128526   2.907   3.375   6.073 -2.1049  0.2010  1.1237
 5631SOL    HW228527   2.883   3.376   5.922  2.3482  0.8902 -0.0907
 5632SOL     OW28528   2.791   1.094  16.234 -0.5692 -0.2239  0.2504
 5632SOL    HW128529   2.768   1.186  16.250  1.0692  0.1241  0.6085
 5632SOL    HW228530   2.844   1.109  16.156 -0.9369 -1.3107 -0.2084
 5633SOL     OW28531   2.390   4.172   4.608 -0.1395 -0.2345  0.0745
 5633SOL    HW128532   2.317   4.213   4.654 -0.0661  1.4084 -1.3004
 5633SOL    HW228533   2.414   4.230   4.536 -1.0438  0.8643  0.6530
 5634SOL     OW28534   0.054   1.703   0.796  0.7222  0.2441  0.2339
 5634SOL    HW128535   0.034   1.629   0.739 -0.0296  0.0172  0.8032
 5634SOL    HW228536   0.045   1.655   0.879 -0.1473  1.5896  0.9255
 5635SOL     OW28537   0.330   3.336  12.061  0.0191  0.3282 -0.2884
 5635SOL    HW128538   0.312   3.361  12.151 -1.1378  1.8208 -0.9278
 5635SOL    HW228539   0.381   3.407  12.022  0.6546 -0.2768 -0.5570
 5636SOL     OW28540   3.256   1.274   2.010  0.3793  0.0636  1.0449
 5636SOL    HW128541   3.196   1.337   1.972  0.0044 -2.5420 -2.7151
 5636SOL    HW228542   3.199   1.199   1.992  0.1590  0.5676 -0.4181
 5637SOL     OW28543   1.158   1.797   8.484  0.0778  0.0412  0.3408
 5637SOL    HW128544   1.121   1.869   8.434  4.0654  1.9669  0.1935
 5637SOL    HW228545   1.081   1.765   8.531 -2.2819  4.2579 -0.6790
 5638SOL     OW28546   2.994   4.205   6.468  0.2163  0.1344 -0.1269
 5638SOL    HW128547   2.932   4.134   6.481  0.0179  0.5217  1.1016
 5638SOL    HW228548   3.041   4.178   6.389  2.9338 -2.2402  2.2996
 5639SOL     OW28549   3.220   1.719   5.643 -0.5341 -0.1935  0.7342
 5639SOL    HW128550   3.159   1.770   5.589 -0.1444  1.3945  1.8069
 5639SOL    HW228551   3.250   1.787   5.703  0.1787  1.3608 -1.3487
 5640SOL     OW28552   1.471   1.891  14.531  0.8346  0.2824 -0.4702
 5640SOL    HW128553   1.439   1.979  14.510  2.1091  1.2307  1.6088
 5640SOL    HW228554   1.391   1.848  14.559  1.5628 -0.5402  0.3710
 5641SOL     OW28555   3.488   0.989   4.151 -0.5636 -0.4533  0.4119
 5641SOL    HW128556   3.418   1.023   4.207 -1.0366  1.0746 -1.1150
 5641SOL    HW228557   3.511   0.908   4.195 -1.5811 -2.2978 -2.4470
 5642SOL     OW28558   2.729   0.448   7.894 -0.1280  0.2586  0.0803
 5642SOL    HW128559   2.666   0.500   7.943 -0.5865  0.5903 -0.8555
 5642SOL    HW228560   2.782   0.512   7.845 -0.7335 -2.0025 -3.5593
 5643SOL     OW28561   3.578   0.302   4.859 -0.3575 -0.2396  0.1532
 5643SOL    HW128562   3.530   0.345   4.929  0.1102  1.9561 -0.8813
 5643SOL    HW228563   3.593   0.371   4.794 -0.1429  1.2606  1.7814
 5644SOL     OW28564   1.094   3.020   3.658 -0.2538  0.0184 -0.3426
 5644SOL    HW128565   1.033   2.965   3.608 -0.1441  0.4994 -1.0077
 5644SOL    HW228566   1.064   3.003   3.747 -2.1285 -0.3550 -1.0526
 5645SOL     OW28567   2.555   2.994  13.858 -0.5391  0.0692  0.1721
 5645SOL    HW128568   2.565   2.900  13.843  1.4343  0.3701 -0.4557
 5645SOL    HW228569   2.505   3.003  13.938 -0.9104 -1.4803  0.1144
 5646SOL     OW28570   2.487   0.679  12.146 -0.2555  0.2911 -0.1008
 5646SOL    HW128571   2.450   0.753  12.098  0.8902  0.9903  0.0937
 5646SOL    HW228572   2.407   0.626  12.150 -1.2107  1.7025 -0.8076
 5647SOL     OW28573   3.383   3.779  14.469  0.4682  0.3510 -0.2815
 5647SOL    HW128574   3.418   3.775  14.558 -1.3917 -0.0246  0.4205
 5647SOL    HW228575   3.415   3.696  14.434  1.1792  0.5965 -0.2177
 5648SOL     OW28576   3.896   3.607   6.447  0.5935  0.1539  0.3395
 5648SOL    HW128577   3.832   3.537   6.460  1.4995 -0.4076  1.6462
 5648SOL    HW228578   3.857   3.682   6.490  1.0513  1.4242 -1.4452
 5649SOL     OW28579   4.608   0.148   0.135 -0.7863  0.0475 -0.3186
 5649SOL    HW128580   4.563   0.210   0.192  2.0195 -0.6093  2.5837
 5649SOL    HW228581   4.540   0.081   0.136 -0.2978 -0.4937 -2.7085
 5650SOL     OW28582   0.785   4.582   8.040 -0.1609 -0.2715  0.8081
 5650SOL    HW128583   0.741   4.633   8.108 -0.2903  1.1220 -0.2944
 5650SOL    HW228584   0.761   4.631   7.961  2.1292 -0.2988  0.0827
 5651SOL     OW28585   1.835   0.952   6.891  0.3126  0.4296  0.0696
 5651SOL    HW128586   1.929   0.939   6.877  0.0182  0.1355 -1.6575
 5651SOL    HW228587   1.790   0.869   6.905 -2.2452  1.7502 -0.2101
 5652SOL     OW28588   1.087   0.393   1.450  0.3645 -0.8132 -0.2858
 5652SOL    HW128589   1.074   0.417   1.359  2.2699 -2.9167 -1.1182
 5652SOL    HW228590   1.014   0.435   1.496  0.8281 -1.4235  1.0267
 5653SOL     OW28591   0.871   0.026  11.480  0.5274  0.4957  0.2031
 5653SOL    HW128592   0.916   0.110  11.492  1.5758 -0.0945  0.4098
 5653SOL    HW228593   0.796   0.054  11.427  0.2613  0.4260  0.5427
 5654SOL     OW28594   3.249   1.210   5.269 -0.2753 -0.0092 -0.1525
 5654SOL    HW128595   3.315   1.162   5.319  0.1535 -1.5358 -2.1717
 5654SOL    HW228596   3.173   1.195   5.325 -2.1512  0.4530 -2.5862
 5655SOL     OW28597   3.627   2.874  14.718  0.5043 -0.5073 -0.1008
 5655SOL    HW128598   3.697   2.828  14.673  0.9563 -0.5523  0.6630
 5655SOL    HW228599   3.611   2.822  14.796  0.7621  0.6982  0.7570
 5656SOL     OW28600   2.849   4.316  17.140  0.3373  0.0137  0.0741
 5656SOL    HW128601   2.810   4.388  17.190 -1.5859  0.7465 -2.4740
 5656SOL    HW228602   2.939   4.350  17.133 -0.5385  2.4943  0.6615
 5657SOL     OW28603   1.632   1.544   0.137  0.5503 -0.1739 -0.2525
 5657SOL    HW128604   1.629   1.500   0.052 -0.5716  1.9519 -1.3067
 5657SOL    HW228605   1.644   1.637   0.123  1.6029 -0.4846 -1.4062
 5658SOL     OW28606   4.087   0.111   4.443 -0.1208 -0.3249 -0.3591
 5658SOL    HW128607   4.063   0.030   4.397  1.1892  0.1850 -1.9246
 5658SOL    HW228608   4.020   0.100   4.510  2.9833 -1.4536  2.5520
 5659SOL     OW28609   4.140   3.853   5.790 -0.0571  0.2645  0.3009
 5659SOL    HW128610   4.228   3.815   5.783  0.2610  1.2643 -1.0871
 5659SOL    HW228611   4.151   3.914   5.863 -1.9378 -0.7575  1.4613
 5660SOL     OW28612   1.103   0.254  12.260 -0.1066  0.4599  0.5083
 5660SOL    HW128613   1.191   0.252  12.223 -0.0431 -2.6939  0.8213
 5660SOL    HW228614   1.094   0.159  12.246 -0.3892  0.7149 -1.0424
 5661SOL     OW28615   0.563   1.478   9.061  0.2107  0.5966 -0.2121
 5661SOL    HW128616   0.522   1.561   9.088  0.9828  1.2298 -1.0011
 5661SOL    HW228617   0.486   1.430   9.028  0.6718 -1.5386  1.8516
 5662SOL     OW28618   0.985   4.258   6.589  0.0615 -0.7652 -0.4117
 5662SOL    HW128619   0.928   4.284   6.661 -0.6300 -1.7015 -0.6202
 5662SOL    HW228620   0.963   4.324   6.523  0.9255  1.1068  1.1859
 5663SOL     OW28621   2.221   4.066   1.682 -0.0548 -0.7058 -0.0264
 5663SOL    HW128622   2.211   4.143   1.627  1.2276  2.1211  3.7134
 5663SOL    HW228623   2.145   4.011   1.661  1.5135 -3.4495  1.3721
 5664SOL     OW28624   3.112   3.423  12.096  0.4395 -0.2779  0.6732
 5664SOL    HW128625   3.107   3.380  12.011 -1.6950  1.7014 -0.2203
 5664SOL    HW228626   3.092   3.515  12.075 -1.1577 -0.4529  1.3821
 5665SOL     OW28627   1.834   1.280   5.312 -0.1898  0.0263  0.4667
 5665SOL    HW128628   1.823   1.366   5.271 -1.7538  0.8194  2.5105
 5665SOL    HW228629   1.918   1.247   5.280 -0.8424 -1.9879  0.8238
 5666SOL     OW28630   0.026   4.067   2.112  0.1134 -0.6066 -0.7438
 5666SOL    HW128631   4.682   4.022   2.131  0.9758 -1.8599 -0.0245
 5666SOL    HW228632   4.737   4.154   2.081 -1.4704 -0.9452 -0.2990
 5667SOL     OW28633   0.919   1.373  10.747 -0.2524 -0.0270  0.3154
 5667SOL    HW128634   0.856   1.434  10.710  0.5074 -0.1747 -1.2309
 5667SOL    HW228635   0.984   1.438  10.775 -0.5619  0.2729  0.3353
 5668SOL     OW28636   4.059   4.692   9.092 -0.2442  0.2108  0.9193
 5668SOL    HW128637   3.983   4.727   9.139 -0.4989  2.9713 -1.5305
 5668SOL    HW228638   4.006   4.676   9.013  1.8734  1.6404 -0.7703
 5669SOL     OW28639   1.094   0.636  15.607  0.1347  0.2138  0.1595
 5669SOL    HW128640   1.117   0.544  15.618  0.7509  0.4231  0.6330
 5669SOL    HW228641   1.144   0.651  15.527  0.4964  0.1970  0.3793
 5670SOL     OW28642   2.230   4.540  17.144 -0.6532  0.3495 -0.4898
 5670SOL    HW128643   2.220   4.634  17.129 -0.5099  0.7990  2.1202
 5670SOL    HW228644   2.265   4.511  17.060 -0.8862 -3.3937  0.7366
 5671SOL     OW28645   2.830   2.565  15.746 -0.6630  0.4667  0.0021
 5671SOL    HW128646   2.884   2.623  15.693  1.2471 -0.1236  1.2939
 5671SOL    HW228647   2.835   2.491  15.686 -1.0805  1.3416 -1.0915
 5672SOL     OW28648   1.417   3.784   8.295  0.1782  0.0032  0.0400
 5672SOL    HW128649   1.394   3.802   8.204  0.3901 -0.2979 -0.0732
 5672SOL    HW228650   1.445   3.873   8.315 -0.6376  0.4230 -0.7054
 5673SOL     OW28651   3.157   2.789   1.428  0.1226 -0.3847 -0.2495
 5673SOL    HW128652   3.131   2.877   1.457 -2.3366 -1.0848 -0.3284
 5673SOL    HW228653   3.104   2.771   1.351  0.2873 -0.6090 -0.3105
 5674SOL     OW28654   4.654   3.153   8.539  0.5485 -0.1932 -0.3617
 5674SOL    HW128655   4.707   3.150   8.618  0.5354 -1.3248 -0.3998
 5674SOL    HW228656   4.568   3.123   8.567  0.6117  0.8948  1.0153
 5675SOL     OW28657   0.858   2.657   7.500  0.5323  0.0516 -0.0040
 5675SOL    HW128658   0.889   2.738   7.539 -1.9406  1.5533 -1.1652
 5675SOL    HW228659   0.806   2.679   7.422 -0.9891 -2.0460  0.3969
 5676SOL     OW28660   3.075   0.692   3.654 -0.2429 -0.2588  0.0969
 5676SOL    HW128661   3.030   0.774   3.633 -1.4688 -0.8290  0.5101
 5676SOL    HW228662   3.113   0.722   3.737  1.1573 -1.9495  0.0770
 5677SOL     OW28663   2.184   4.344   4.337  0.5139  0.4922 -0.9570
 5677SOL    HW128664   2.100   4.362   4.295 -0.9263 -2.6175  0.5973
 5677SOL    HW228665   2.176   4.407   4.409  0.1095  1.3433 -1.7516
 5678SOL     OW28666   1.190   2.572   5.273 -0.1379 -0.8341  0.3329
 5678SOL    HW128667   1.146   2.540   5.195  3.5128  0.6750 -2.3277
 5678SOL    HW228668   1.276   2.587   5.236  1.2392 -3.3702  2.5122
 5679SOL     OW28669   1.495   2.211   9.808 -0.2390 -0.4517 -0.3211
 5679SOL    HW128670   1.488   2.196   9.903  2.3037  1.8506  0.2648
 5679SOL    HW228671   1.414   2.172   9.776 -0.7606 -1.2417  1.9277
 5680SOL     OW28672   2.253   1.820   4.502 -0.3210  0.0441 -0.8523
 5680SOL    HW128673   2.313   1.871   4.447  1.6275 -1.4709 -0.1280
 5680SOL    HW228674   2.211   1.892   4.549  1.6347  0.5301  0.1880
 5681SOL     OW28675   2.721   0.529   8.448  0.6578  0.7948 -0.0044
 5681SOL    HW128676   2.815   0.510   8.459  0.7779 -0.1209 -2.4936
 5681SOL    HW228677   2.688   0.440   8.446  0.3070  0.9277 -0.0449
 5682SOL     OW28678   1.211   3.691  11.669  0.0856  0.1287 -0.1298
 5682SOL    HW128679   1.282   3.756  11.667  0.1320  0.1136  0.7833
 5682SOL    HW228680   1.245   3.622  11.613 -0.1152 -2.3854  2.8134
 5683SOL     OW28681   4.564   0.998   5.340  0.3668 -0.1552 -0.3294
 5683SOL    HW128682   4.613   1.075   5.368  1.0402 -0.5179 -0.4906
 5683SOL    HW228683   4.615   0.923   5.371 -2.2268 -2.0944 -0.7650
 5684SOL     OW28684   1.997   1.827   2.983 -0.4382  0.9336 -0.3496
 5684SOL    HW128685   1.924   1.790   2.933 -1.1154  1.8259 -0.0327
 5684SOL    HW228686   1.941   1.884   3.035 -0.3190  0.6413  0.0938
 5685SOL     OW28687   3.225   1.815   2.547 -0.3159  0.1984 -0.0028
 5685SOL    HW128688   3.203   1.807   2.640 -0.4105  0.9581  0.0403
 5685SOL    HW228689   3.293   1.748   2.535 -1.0481 -0.5679  0.1033
 5686SOL     OW28690   1.196   2.568  13.648 -0.7221  0.0634 -0.1434
 5686SOL    HW128691   1.239   2.491  13.687  0.2293  0.8754  0.4033
 5686SOL    HW228692   1.205   2.558  13.553 -1.4890 -1.7415 -0.0416
 5687SOL     OW28693   1.041   4.184   8.102  0.3592  0.8185  0.1797
 5687SOL    HW128694   1.045   4.280   8.107 -1.5110  1.0334 -2.3623
 5687SOL    HW228695   0.947   4.171   8.096  0.4970  0.1165 -0.5400
 5688SOL     OW28696   4.367   2.733   2.495 -0.1754 -0.1091  0.6667
 5688SOL    HW128697   4.396   2.711   2.406  1.7213 -2.5604  1.8906
 5688SOL    HW228698   4.316   2.809   2.468  0.3629  0.0901  0.2279
 5689SOL     OW28699   2.629   4.559   7.710 -0.1848  0.0359 -0.0708
 5689SOL    HW128700   2.537   4.576   7.728 -0.0223  1.3940 -0.5484
 5689SOL    HW228701   2.645   4.626   7.644  0.1341  0.3268  0.2987
 5690SOL     OW28702   3.678   0.842   0.043 -0.4135 -0.5315  0.2864
 5690SOL    HW128703   3.741   0.772   0.060 -1.8115 -1.6847  0.6793
 5690SOL    HW228704   3.673   0.887   0.127 -2.5231  0.6734 -0.4695
 5691SOL     OW28705   3.103   0.504  15.557 -0.5366 -0.0024 -0.1650
 5691SOL    HW128706   3.093   0.419  15.515  0.3547  0.4447 -1.2651
 5691SOL    HW228707   3.010   0.515  15.576 -0.1487 -0.3675  2.0413
 5692SOL     OW28708   3.038   1.356   7.481  0.3172 -0.0312  0.5642
 5692SOL    HW128709   3.030   1.276   7.429 -0.9314  1.5264 -1.6321
 5692SOL    HW228710   3.010   1.329   7.568  0.4498 -1.3434  0.2059
 5693SOL     OW28711   0.415   0.220  17.218  0.6466  0.4336  0.2253
 5693SOL    HW128712   0.361   0.219  17.140  0.3931 -0.3051  0.4139
 5693SOL    HW228713   0.494   0.251  17.175  1.4577 -0.0585  1.3462
 5694SOL     OW28714   0.981   0.043   4.147 -0.3570  0.1206  0.2053
 5694SOL    HW128715   1.062   0.092   4.159  1.4822 -2.4734 -1.5670
 5694SOL    HW228716   0.990   0.046   4.052 -0.3816 -0.0391  0.1980
 5695SOL     OW28717   1.389   1.763  12.421  0.1393 -0.2219 -0.1773
 5695SOL    HW128718   1.461   1.753  12.358  0.5603 -1.9192  0.6030
 5695SOL    HW228719   1.332   1.690  12.398  1.0141 -1.2820  1.0606
 5696SOL     OW28720   0.530   2.963   7.613  0.1420 -0.5931 -0.2796
 5696SOL    HW128721   0.523   2.924   7.700  2.1918  0.4365  0.3274
 5696SOL    HW228722   0.516   3.055   7.633 -1.1518 -0.7299 -0.5101
 5697SOL     OW28723   3.837   2.193  14.738 -0.1018  0.6055  0.2232
 5697SOL    HW128724   3.870   2.140  14.810  0.2392 -2.3797 -2.1248
 5697SOL    HW228725   3.744   2.179  14.754  0.1257 -2.4312 -1.1061
 5698SOL     OW28726   0.761   3.961   0.628  0.0413  0.5146  0.6744
 5698SOL    HW128727   0.793   4.030   0.687  0.4980  0.8497  0.0340
 5698SOL    HW228728   0.841   3.945   0.578  0.0203  1.0763  0.4611
 5699SOL     OW28729   3.794   2.693  15.117  0.2609  0.3634 -0.2267
 5699SOL    HW128730   3.878   2.665  15.153 -1.8827 -2.4149  2.5698
 5699SOL    HW228731   3.741   2.661  15.190  0.2159  0.0656 -0.3944
 5700SOL     OW28732   3.304   0.920   5.153  0.0514 -0.7198  0.4763
 5700SOL    HW128733   3.382   0.953   5.108  0.9937 -0.5048  2.2771
 5700SOL    HW228734   3.307   0.972   5.233 -0.7491  0.0505  0.0095
 5701SOL     OW28735   0.331   3.334   5.334  0.6158  0.6190 -0.0335
 5701SOL    HW128736   0.290   3.250   5.353 -1.3177  1.8935  1.4297
 5701SOL    HW228737   0.327   3.382   5.416 -0.8587  0.4542 -0.0106
 5702SOL     OW28738   2.195   1.642   9.203  0.1985  0.5285  0.4704
 5702SOL    HW128739   2.181   1.736   9.196  0.6721  0.5009 -0.8171
 5702SOL    HW228740   2.238   1.629   9.119 -0.8717  2.7117 -0.4040
 5703SOL     OW28741   1.358   2.643   3.258 -0.1416  0.1094 -0.2881
 5703SOL    HW128742   1.274   2.670   3.221  0.2164 -1.2786 -2.1007
 5703SOL    HW228743   1.341   2.566   3.312 -0.1146  0.7662  0.6595
 5704SOL     OW28744   2.270   4.368   7.798  0.3288 -0.5794 -0.4184
 5704SOL    HW128745   2.296   4.310   7.870 -0.1127 -0.8483 -0.4756
 5704SOL    HW228746   2.224   4.304   7.743 -0.7087  1.5289 -1.9658
 5705SOL     OW28747   0.715   4.174  14.503 -0.5855 -0.3044  0.5002
 5705SOL    HW128748   0.624   4.188  14.478 -0.6568 -1.3237  0.1945
 5705SOL    HW228749   0.742   4.265  14.515  0.8352 -0.4077 -1.8590
 5706SOL     OW28750   1.797   0.117   5.001 -1.1517  0.5379  0.1781
 5706SOL    HW128751   1.780   0.088   4.911  1.9695 -1.6632  0.2841
 5706SOL    HW228752   1.739   0.059   5.050 -0.8570  0.8446  0.8894
 5707SOL     OW28753   2.330   0.333   7.721  0.1167 -0.0714  0.2384
 5707SOL    HW128754   2.411   0.290   7.692  0.9946  2.1534 -0.6364
 5707SOL    HW228755   2.296   0.400   7.662 -0.0047 -1.6041 -1.4492
 5708SOL     OW28756   2.619   0.926   3.222  0.2308  0.6234 -0.1190
 5708SOL    HW128757   2.572   1.008   3.205  1.3822  1.6528  1.6728
 5708SOL    HW228758   2.694   0.960   3.272  0.3146  1.0072 -0.5034
 5709SOL     OW28759   3.622   3.948  12.629  0.1612 -0.0560  0.3953
 5709SOL    HW128760   3.625   3.966  12.723  2.3693 -1.8182  0.6593
 5709SOL    HW228761   3.669   4.024  12.593  1.6944 -2.0598 -1.8625
 5710SOL     OW28762   0.788   2.870   2.051  0.4949  0.3609 -0.5503
 5710SOL    HW128763   0.711   2.924   2.035  1.2705  1.6778  0.2082
 5710SOL    HW228764   0.738   2.797   2.087 -0.2627  1.8832  1.4864
 5711SOL     OW28765   4.244   1.743  14.040  0.5574 -0.4702  0.1273
 5711SOL    HW128766   4.195   1.663  14.024  0.9716 -0.6081 -0.4241
 5711SOL    HW228767   4.264   1.776  13.953  0.3082 -1.2102 -0.2052
 5712SOL     OW28768   0.858   2.344   2.973 -0.6029  0.2774 -0.2433
 5712SOL    HW128769   0.892   2.419   2.924  0.8029  0.5607  1.1958
 5712SOL    HW228770   0.890   2.362   3.061 -0.3327 -1.2999 -0.0301
 5713SOL     OW28771   2.650   1.960   0.225  0.1690 -0.2131  0.0540
 5713SOL    HW128772   2.565   1.936   0.262  0.2346 -0.7918 -0.1601
 5713SOL    HW228773   2.623   1.982   0.136  0.8331 -0.1588 -0.1386
 5714SOL     OW28774   1.953   2.537  17.748 -0.1610 -0.4467 -0.2215
 5714SOL    HW128775   1.900   2.600  17.698 -0.3241 -1.5431 -1.4241
 5714SOL    HW228776   1.954   2.471  17.679  1.5373 -1.9961  1.2770
 5715SOL     OW28777   4.705   2.676   1.643 -0.6943 -0.3290  0.9667
 5715SOL    HW128778   0.023   2.662   1.719 -0.8821  0.5585  1.2802
 5715SOL    HW228779   0.008   2.615   1.582 -1.5854 -1.0328  1.0626
 5716SOL     OW28780   0.017   1.547   2.600 -0.2287 -0.0734 -0.4092
 5716SOL    HW128781   0.070   1.549   2.679 -0.5439  2.9776 -0.2946
 5716SOL    HW228782   4.673   1.510   2.633 -0.8059 -0.2470 -2.0005
 5717SOL     OW28783   1.769   4.100   0.570  0.0415 -0.2106 -0.0691
 5717SOL    HW128784   1.765   4.095   0.475  0.5210 -0.1235 -0.0939
 5717SOL    HW228785   1.700   4.165   0.583  0.4098  0.1300  0.1465
 5718SOL     OW28786   3.744   0.567   3.128 -0.2767  0.0899 -0.2551
 5718SOL    HW128787   3.751   0.514   3.208 -1.4690  0.8678  0.3713
 5718SOL    HW228788   3.650   0.561   3.112 -0.0544 -1.5360 -0.9520
 5719SOL     OW28789   0.712   1.032  12.586  0.1460  0.1307 -0.2491
 5719SOL    HW128790   0.703   1.117  12.631 -2.0414 -1.3980  2.2053
 5719SOL    HW228791   0.674   0.977  12.655  0.7712 -1.2181 -1.0060
 5720SOL     OW28792   0.679   1.126  10.336 -0.0697 -0.3775  0.3577
 5720SOL    HW128793   0.719   1.195  10.388 -0.7482  0.5021 -0.2825
 5720SOL    HW228794   0.602   1.161  10.290  0.2580  0.5807  0.5490
 5721SOL     OW28795   0.344   4.207   0.970 -0.0772 -0.2572  0.1853
 5721SOL    HW128796   0.413   4.155   1.012  0.4977 -0.0623 -0.5138
 5721SOL    HW228797   0.344   4.161   0.886 -0.8476  2.0800 -1.0814
 5722SOL     OW28798   2.848   4.538  14.336  0.1456 -0.3537  0.1834
 5722SOL    HW128799   2.844   4.516  14.243  0.8614 -0.3344  0.1537
 5722SOL    HW228800   2.823   4.630  14.326 -1.6874 -0.4504  3.7513
 5723SOL     OW28801   1.106   2.974  13.169 -0.2869  0.2032  0.2919
 5723SOL    HW128802   1.157   3.046  13.131 -0.0866  0.2924  0.7350
 5723SOL    HW228803   1.064   2.943  13.088  0.9500  0.5829 -0.4986
 5724SOL     OW28804   4.130   4.074   5.601  0.0774  0.1670  0.9972
 5724SOL    HW128805   4.119   4.002   5.664 -1.5409 -1.2411 -0.9189
 5724SOL    HW228806   4.063   4.042   5.541 -2.1058  0.3932  3.2812
 5725SOL     OW28807   1.488   3.346  15.582 -0.1607  0.5441  0.3500
 5725SOL    HW128808   1.555   3.414  15.573 -0.0032  0.3398 -0.0184
 5725SOL    HW228809   1.406   3.389  15.557  0.4457  1.7808  0.5018
 5726SOL     OW28810   0.962   0.788  15.782  0.0567 -0.5453 -0.4974
 5726SOL    HW128811   0.985   0.733  15.856  1.6329  1.7008  0.7001
 5726SOL    HW228812   1.008   0.733  15.718 -0.6284  0.0018 -1.4693
 5727SOL     OW28813   2.973   2.984   8.422  0.5264 -0.0298 -0.1430
 5727SOL    HW128814   2.961   2.892   8.399  1.4215 -0.3962  0.8519
 5727SOL    HW228815   2.955   2.979   8.516 -1.5596  0.2441 -0.5328
 5728SOL     OW28816   2.856   1.762   5.242  0.4549  0.1854  0.1299
 5728SOL    HW128817   2.824   1.849   5.220 -0.3196  0.0915  0.8952
 5728SOL    HW228818   2.776   1.714   5.261  0.2815  0.4490  0.0614
 5729SOL     OW28819   0.353   3.346   1.101  0.7413  0.0230 -0.6263
 5729SOL    HW128820   0.290   3.414   1.077 -0.4279 -0.7443  0.2793
 5729SOL    HW228821   0.390   3.382   1.181  1.9054 -3.0320  0.1697
 5730SOL     OW28822   2.138   2.239   0.231  0.0256  0.3981 -0.1566
 5730SOL    HW128823   2.066   2.232   0.293  0.2855  2.4041  0.4054
 5730SOL    HW228824   2.120   2.327   0.197  3.1585  0.6821 -1.1169
 5731SOL     OW28825   2.721   0.985   7.842 -0.1493  0.3912 -0.0466
 5731SOL    HW128826   2.709   0.957   7.752  0.4623 -0.7239  0.2135
 5731SOL    HW228827   2.631   0.970   7.871  0.4393  1.0104  2.1337
 5732SOL     OW28828   1.654   4.669   9.440  0.0917 -1.1256 -0.3263
 5732SOL    HW128829   1.645   4.605   9.368  0.9778  0.2051 -1.6246
 5732SOL    HW228830   1.676   0.012   9.395 -2.5264 -0.3995 -0.2869
 5733SOL     OW28831   4.528   1.732   5.180  1.3244 -0.5525 -0.1611
 5733SOL    HW128832   4.541   1.789   5.103  0.2600 -1.4086 -0.9755
 5733SOL    HW228833   4.579   1.787   5.240  1.8134 -0.5860 -0.5436
 5734SOL     OW28834   2.716   2.236   5.944 -0.6026 -0.3069 -0.4203
 5734SOL    HW128835   2.680   2.221   6.031  0.2996 -2.1034 -0.3681
 5734SOL    HW228836   2.758   2.315   5.976 -1.4766  0.0194 -0.0703
 5735SOL     OW28837   4.706   1.837   5.381 -0.2935 -0.1868 -0.5929
 5735SOL    HW128838   0.024   1.908   5.411 -0.7198 -0.5193  0.9576
 5735SOL    HW228839   4.636   1.833   5.445  0.9611  0.4834  0.8114
 5736SOL     OW28840   2.604   2.823  17.573 -0.0714  0.3049 -0.4878
 5736SOL    HW128841   2.651   2.764  17.513 -0.2991  0.8423 -1.1934
 5736SOL    HW228842   2.622   2.911  17.540 -0.0982  0.9644  1.2566
 5737SOL     OW28843   0.928   3.981   1.735  0.1538 -0.4644 -0.2205
 5737SOL    HW128844   0.928   3.885   1.732  1.4170 -0.4550 -0.7273
 5737SOL    HW228845   0.900   3.988   1.644  3.5905 -1.1829 -1.3533
 5738SOL     OW28846   1.510   1.307  17.192  0.1112  0.2114 -0.4397
 5738SOL    HW128847   1.467   1.387  17.219 -0.8234 -0.5569  0.3408
 5738SOL    HW228848   1.482   1.242  17.257  0.8234  0.0996 -0.2435
 5739SOL     OW28849   1.512   0.804   7.539 -0.3877 -0.1008  0.6021
 5739SOL    HW128850   1.599   0.770   7.558  0.9240  2.8199 -0.2021
 5739SOL    HW228851   1.455   0.744   7.587 -0.6664 -1.4627 -1.4210
 5740SOL     OW28852   3.853   4.114   0.859  0.3456 -0.6621 -0.1753
 5740SOL    HW128853   3.800   4.126   0.938  0.4209 -3.5484  0.2955
 5740SOL    HW228854   3.787   4.084   0.796 -0.2626  0.2969 -0.0046
 5741SOL     OW28855   2.918   1.177   2.997  1.1802  0.0487  0.1084
 5741SOL    HW128856   2.969   1.097   2.983 -0.3026 -0.6125 -1.3949
 5741SOL    HW228857   2.977   1.244   2.963  1.1033  0.1410  0.1583
 5742SOL     OW28858   1.213   3.154   6.510 -0.2278  0.0550  0.3857
 5742SOL    HW128859   1.292   3.183   6.464  0.3074 -0.4827  0.9585
 5742SOL    HW228860   1.151   3.217   6.474  0.1106  0.3767  0.3608
 5743SOL     OW28861   3.700   3.490   6.629 -0.5517  0.4113 -0.8067
 5743SOL    HW128862   3.686   3.401   6.661 -0.4186  0.6339 -0.1437
 5743SOL    HW228863   3.615   3.519   6.596 -0.7503  0.8823  0.1298
 5744SOL     OW28864   3.878   3.069  12.647 -0.2171 -0.0134 -0.2512
 5744SOL    HW128865   3.826   3.003  12.602 -0.3793 -1.4156  1.9808
 5744SOL    HW228866   3.963   3.063  12.604  0.4624  3.6958  0.5867
 5745SOL     OW28867   0.844   3.492   2.261 -0.0317  0.4542  0.1863
 5745SOL    HW128868   0.770   3.473   2.319 -1.4436  0.1525 -1.6994
 5745SOL    HW228869   0.835   3.583   2.233  0.8040  0.5800  0.3285
 5746SOL     OW28870   0.033   3.178  13.098 -0.0721  0.2483  0.0342
 5746SOL    HW128871   0.024   3.270  13.074  1.1340  0.9233  2.1475
 5746SOL    HW228872   0.026   3.137  13.012 -0.9536 -1.5263  0.9538
 5747SOL     OW28873   0.877   3.070  12.990  0.3896 -0.5712 -0.3098
 5747SOL    HW128874   0.921   2.987  12.973  2.3580 -0.4649  4.0158
 5747SOL    HW228875   0.812   3.050  13.058  1.5819 -0.6247  0.8174
 5748SOL     OW28876   2.312   0.625  15.432  0.0296 -0.0011 -0.0518
 5748SOL    HW128877   2.246   0.556  15.441 -0.9542  0.8599 -0.5266
 5748SOL    HW228878   2.264   0.669  15.361 -0.2919 -0.4415 -0.1073
 5749SOL     OW28879   3.949   1.527   7.650 -0.4225  0.1839  0.2523
 5749SOL    HW128880   3.919   1.565   7.568 -0.2073  1.0816  0.5849
 5749SOL    HW228881   3.979   1.609   7.691 -2.0184  0.3596  1.0560
 5750SOL     OW28882   3.384   1.971   4.104 -0.0882  0.3924 -0.4539
 5750SOL    HW128883   3.445   1.962   4.178 -0.8850 -1.8403 -0.0636
 5750SOL    HW228884   3.364   2.063   4.117  1.2580  0.4466  1.3787
 5751SOL     OW28885   2.715   3.128   8.635  0.5346 -0.0338  0.2010
 5751SOL    HW128886   2.639   3.069   8.631 -0.1359  0.8505 -0.1154
 5751SOL    HW228887   2.789   3.068   8.643 -0.2098 -0.9348  0.4479
 5752SOL     OW28888   2.211   1.952   4.083  0.1776  0.2052  0.4811
 5752SOL    HW128889   2.138   1.890   4.086  0.9432 -0.7335 -0.3393
 5752SOL    HW228890   2.175   2.005   4.011 -0.2346  0.7059  1.0558
 5753SOL     OW28891   0.753   0.627   2.773 -0.3623 -0.4519  1.2720
 5753SOL    HW128892   0.713   0.700   2.821  0.5849  1.1400 -0.3616
 5753SOL    HW228893   0.822   0.601   2.835 -0.1330 -0.0345  1.1917
 5754SOL     OW28894   4.520   4.440   6.523  0.1917  0.3563  0.5016
 5754SOL    HW128895   4.516   4.380   6.598 -0.2840 -1.4068 -0.9503
 5754SOL    HW228896   4.584   4.504   6.555 -0.5886  0.9436  0.8842
 5755SOL     OW28897   0.656   1.675  15.163 -0.3413 -0.0699  0.1401
 5755SOL    HW128898   0.580   1.732  15.170 -0.6808 -0.5438  0.3519
 5755SOL    HW228899   0.635   1.609  15.229  2.5455 -1.5896 -0.4316
 5756SOL     OW28900   3.069   2.070  14.968  0.4068 -0.0991  0.2907
 5756SOL    HW128901   2.998   2.120  15.008  0.0359 -1.9841  1.9721
 5756SOL    HW228902   3.056   2.090  14.875  2.7151 -1.0469 -0.2298
 5757SOL     OW28903   3.170   3.197   2.405 -0.3575 -0.0213 -0.9044
 5757SOL    HW128904   3.168   3.232   2.494 -1.1938  1.9617 -1.6945
 5757SOL    HW228905   3.262   3.169   2.406 -0.1967  0.4645 -1.6204
 5758SOL     OW28906   3.349   3.518   2.427 -0.5605 -0.4524 -0.2492
 5758SOL    HW128907   3.388   3.605   2.433 -1.5819 -0.0317  0.2573
 5758SOL    HW228908   3.307   3.512   2.513  2.1858 -0.4608  1.1090
 5759SOL     OW28909   0.086   0.578   5.537 -0.5320 -0.5286  0.5775
 5759SOL    HW128910   0.167   0.580   5.587 -0.7732 -1.0967  0.9925
 5759SOL    HW228911   0.026   0.537   5.599  0.1945 -0.4249  1.3487
 5760SOL     OW28912   0.716   4.617   9.068 -0.1642  1.0269 -0.0645
 5760SOL    HW128913   0.672   4.537   9.040  2.3598 -1.0645  2.0037
 5760SOL    HW228914   0.660   4.682   9.025  0.9637  1.6727 -0.5506
 5761SOL     OW28915   1.633   2.001   1.576 -0.4008 -0.3345  0.5518
 5761SOL    HW128916   1.706   1.963   1.528  0.2281  1.1394  0.3481
 5761SOL    HW228917   1.670   2.052   1.647 -1.8340 -0.2753  1.2593
 5762SOL     OW28918   2.855   3.585  15.833  0.1167  0.3477 -0.5262
 5762SOL    HW128919   2.820   3.585  15.744  0.6669  0.6717 -0.7443
 5762SOL    HW228920   2.777   3.618  15.877  0.8959  0.0246  1.0991
 5763SOL     OW28921   4.243   0.896   8.658 -0.0560 -0.1103 -0.0350
 5763SOL    HW128922   4.209   0.951   8.728  1.2773 -0.0043  0.5347
 5763SOL    HW228923   4.213   0.811   8.690 -0.0261  0.3870  1.2999
 5764SOL     OW28924   4.227   2.553  17.111 -0.0384 -0.3192  0.1613
 5764SOL    HW128925   4.150   2.594  17.071  0.1948 -0.6327 -0.6118
 5764SOL    HW228926   4.235   2.587  17.200  1.7160  0.9897 -0.5002
 5765SOL     OW28927   1.015   1.935   5.487 -0.6777 -0.1046 -0.4713
 5765SOL    HW128928   1.043   1.920   5.577  0.1976  0.9005 -0.5670
 5765SOL    HW228929   1.050   1.859   5.441 -0.8516  1.3790 -3.0675
 5766SOL     OW28930   1.730   3.860   5.141 -0.0463  0.5030 -0.2095
 5766SOL    HW128931   1.805   3.833   5.193 -1.8235 -2.6014  0.7385
 5766SOL    HW228932   1.779   3.883   5.062 -1.8238 -0.0910 -1.5033
 5767SOL     OW28933   2.895   2.016   3.429  0.5880 -0.0815 -0.6711
 5767SOL    HW128934   2.932   1.928   3.428  0.4220 -0.1537 -0.5361
 5767SOL    HW228935   2.814   2.020   3.378 -0.8203 -2.9783  1.3545
 5768SOL     OW28936   1.437   3.511  15.000 -0.0562  0.2063 -0.4597
 5768SOL    HW128937   1.520   3.535  14.960  0.7360  0.3520  1.2579
 5768SOL    HW228938   1.465   3.499  15.091 -0.0612  1.1532 -0.3298
 5769SOL     OW28939   0.583   3.998  10.545 -0.2588 -0.0728  0.2234
 5769SOL    HW128940   0.532   3.960  10.474 -1.4149  2.3981 -0.2594
 5769SOL    HW228941   0.624   3.923  10.587 -0.6983 -1.1243 -1.2303
 5770SOL     OW28942   0.509   0.151   6.900  0.6974  0.1687 -0.5889
 5770SOL    HW128943   0.448   0.196   6.842  0.5773  1.5461  0.6002
 5770SOL    HW228944   0.490   0.187   6.987  1.4841  2.5180 -1.3670
 5771SOL     OW28945   1.286   0.345   7.442  0.4080  0.3754  0.2905
 5771SOL    HW128946   1.329   0.293   7.510  0.1012 -1.8369 -1.1794
 5771SOL    HW228947   1.354   0.365   7.378 -0.0368  0.8097 -0.0395
 5772SOL     OW28948   4.663   0.370   4.484 -0.2789 -0.0705  0.0596
 5772SOL    HW128949   4.707   0.292   4.518  0.8707  0.6753  0.2788
 5772SOL    HW228950   4.648   0.416   4.567 -0.2906  1.5888 -0.8562
 5773SOL     OW28951   3.372   3.308   6.923 -0.1277 -0.5322  0.6043
 5773SOL    HW128952   3.285   3.329   6.956  1.9582  4.4666  2.8761
 5773SOL    HW228953   3.366   3.306   6.827  0.2882 -6.0192  0.7001
 5774SOL     OW28954   2.794   2.883  10.793  0.0049 -0.3102 -1.0411
 5774SOL    HW128955   2.799   2.978  10.785  1.5369 -0.5001 -2.2187
 5774SOL    HW228956   2.711   2.888  10.842  1.4101 -3.1467  1.6272
 5775SOL     OW28957   3.822   1.045  10.668  0.7783 -0.1056  0.1219
 5775SOL    HW128958   3.893   1.109  10.668 -0.6960  1.5211 -0.3563
 5775SOL    HW228959   3.828   1.021  10.760  0.6594  0.4831  0.2846
 5776SOL     OW28960   0.471   3.507   8.135  0.0584  0.1084 -0.6638
 5776SOL    HW128961   0.502   3.427   8.177  0.2735 -0.3467 -1.6890
 5776SOL    HW228962   0.550   3.561   8.137  0.0879  0.0095  1.2763
 5777SOL     OW28963   2.085   1.172   6.560 -0.7582 -0.6099  0.2919
 5777SOL    HW128964   2.065   1.079   6.546  0.3389 -1.0817  1.8903
 5777SOL    HW228965   2.003   1.215   6.539 -0.1200  0.6080  0.3222
 5778SOL     OW28966   3.796   2.726   2.260 -0.6368  0.4682 -0.1491
 5778SOL    HW128967   3.735   2.775   2.204 -3.4383 -1.2433  1.4045
 5778SOL    HW228968   3.761   2.637   2.253  3.9225 -1.3685  0.0471
 5779SOL     OW28969   3.480   4.712   2.871  0.4315  0.2861 -0.5165
 5779SOL    HW128970   3.554   0.032   2.890  0.2864 -0.2028  1.5336
 5779SOL    HW228971   3.425   0.037   2.825 -0.6891  0.1312  0.5933
 5780SOL     OW28972   0.679   0.041   8.194  0.7799  0.0564 -0.1474
 5780SOL    HW128973   0.686   0.035   8.290 -0.6856 -0.6134 -0.0805
 5780SOL    HW228974   0.598   0.093   8.190  1.3044  0.9080  0.1994
 5781SOL     OW28975   3.789   0.755  10.836 -0.8109  0.1460  0.2290
 5781SOL    HW128976   3.716   0.806  10.872  0.5077  0.8795  1.8609
 5781SOL    HW228977   3.862   0.814  10.855  0.5588 -1.3381 -0.4920
 5782SOL     OW28978   2.193   0.124   7.795  0.1244  0.4066 -0.0934
 5782SOL    HW128979   2.231   0.211   7.784 -1.2525  0.9320 -0.7454
 5782SOL    HW228980   2.142   0.130   7.714  0.4627  1.1198 -0.2518
 5783SOL     OW28981   0.142   3.674  13.683  0.2815 -0.2667  0.5016
 5783SOL    HW128982   0.236   3.687  13.695  0.4867  1.1159 -2.8910
 5783SOL    HW228983   0.110   3.758  13.715 -0.5950 -0.7886  1.0104
 5784SOL     OW28984   3.549   4.229  12.751 -0.2035 -0.2262 -0.5599
 5784SOL    HW128985   3.563   4.152  12.806  0.1291 -0.9286 -1.6380
 5784SOL    HW228986   3.562   4.305  12.808 -0.2395 -2.0512  1.8563
 5785SOL     OW28987   4.001   4.394   3.577  0.1217 -0.0407  0.1367
 5785SOL    HW128988   4.047   4.478   3.577 -0.7190  0.4207  1.1025
 5785SOL    HW228989   4.067   4.342   3.623  0.0407 -1.1112 -0.9627
 5786SOL     OW28990   0.641   2.488   4.222  0.8497  0.2622 -0.5305
 5786SOL    HW128991   0.658   2.581   4.233  3.2890 -0.4856  2.2635
 5786SOL    HW228992   0.720   2.471   4.172  0.3481 -0.1124 -1.1940
 5787SOL     OW28993   2.183   1.806   2.191  0.1527 -0.3031  0.5094
 5787SOL    HW128994   2.157   1.787   2.281  0.4408  2.5122  1.1809
 5787SOL    HW228995   2.197   1.721   2.150 -1.2730 -0.7111  0.8704
 5788SOL     OW28996   0.318   1.090   9.009  0.3862  0.7056 -0.5687
 5788SOL    HW128997   0.234   1.061   9.044  1.5458 -0.4468  1.2673
 5788SOL    HW228998   0.321   1.034   8.932  0.4332 -2.1399  1.4767
 5789SOL     OW28999   4.139   1.769  14.834 -0.0016  0.2231  0.0377
 5789SOL    HW129000   4.133   1.846  14.777  0.8782 -1.5579 -2.4132
 5789SOL    HW229001   4.206   1.798  14.896  2.1411 -1.2763 -1.6235
 5790SOL     OW29002   2.157   2.036   2.885  0.1425 -0.1468 -0.5559
 5790SOL    HW129003   2.106   1.959   2.909  1.8500 -1.1527 -0.0793
 5790SOL    HW229004   2.186   2.070   2.970 -1.6345 -1.1026  0.4277
 5791SOL     OW29005   0.873   4.067   8.495  0.2387 -0.3336 -0.8103
 5791SOL    HW129006   0.864   4.084   8.588  1.8495  1.0691 -0.9224
 5791SOL    HW229007   0.907   3.978   8.498 -0.3808 -0.6267 -2.2348
 5792SOL     OW29008   2.206   4.665   8.699 -0.0720 -0.4888 -0.5697
 5792SOL    HW129009   2.206   0.008   8.650  1.2108 -0.2992 -0.2387
 5792SOL    HW229010   2.222   4.598   8.633  1.1692 -1.1886  0.4361
 5793SOL     OW29011   0.409   2.296   2.214  0.5243 -0.2673  0.1903
 5793SOL    HW129012   0.358   2.366   2.255  1.7039 -0.9612  2.8502
 5793SOL    HW229013   0.492   2.344   2.220  0.4974 -0.1103 -0.6728
 5794SOL     OW29014   2.425   2.299   1.515 -0.0911  0.3903  0.0636
 5794SOL    HW129015   2.483   2.365   1.476  1.2228 -1.3277 -0.8409
 5794SOL    HW229016   2.358   2.366   1.529 -1.8333 -1.3315 -0.1755
 5795SOL     OW29017   1.276   2.468   1.865  0.1557 -0.3359  0.1975
 5795SOL    HW129018   1.275   2.529   1.791 -0.9186  0.5904  0.9831
 5795SOL    HW229019   1.291   2.389   1.814 -2.0253 -0.7475  0.2106
 5796SOL     OW29020   0.599   1.730   5.359 -0.6531 -0.9855  0.0051
 5796SOL    HW129021   0.681   1.704   5.317 -1.3888  0.1347 -2.1332
 5796SOL    HW229022   0.546   1.721   5.280  0.5948 -0.7527 -0.8591
 5797SOL     OW29023   1.169   1.653  13.139 -0.0544 -0.3330 -0.1366
 5797SOL    HW129024   1.120   1.631  13.060 -1.1627 -0.8804  0.7074
 5797SOL    HW229025   1.134   1.577  13.185 -0.4328  0.7411  1.3649
 5798SOL     OW29026   4.660   0.167   6.388  0.0466 -0.1010  0.2876
 5798SOL    HW129027   4.575   0.138   6.353  0.2887 -0.4270 -0.0427
 5798SOL    HW229028   4.660   0.251   6.342 -0.8249  1.0415  2.3922
 5799SOL     OW29029   3.786   1.407   4.197  0.9609 -0.2332 -0.1458
 5799SOL    HW129030   3.768   1.317   4.168  3.4632 -0.6015 -0.5548
 5799SOL    HW229031   3.721   1.458   4.148  0.3881 -0.2034  0.6379
 5800SOL     OW29032   3.563   3.908   0.206  0.1953  0.4851  0.0282
 5800SOL    HW129033   3.624   3.939   0.139 -1.3846  0.7655 -1.2968
 5800SOL    HW229034   3.476   3.899   0.166 -0.4801  0.1644  1.5574
 5801SOL     OW29035   3.354   0.081   6.911  0.0972 -0.1883 -0.4245
 5801SOL    HW129036   3.321   0.003   6.866 -0.2946 -0.5407  0.4834
 5801SOL    HW229037   3.364   0.050   7.001 -0.6492  0.9660  0.0465
 5802SOL     OW29038   2.695   1.401   0.022 -0.1065  0.4404  0.1718
 5802SOL    HW129039   2.689   1.368  17.684 -0.1204 -2.8241  1.3510
 5802SOL    HW229040   2.604   1.422   0.044  0.5123  0.3295  2.8960
 5803SOL     OW29041   2.940   0.196   2.707 -0.0374  1.2796  0.0190
 5803SOL    HW129042   2.952   0.202   2.612  0.8757  2.7696  0.2324
 5803SOL    HW229043   2.846   0.200   2.723 -0.1063  1.7367 -0.4895
 5804SOL     OW29044   2.990   2.243   4.176 -0.0412 -0.5433  0.1096
 5804SOL    HW129045   2.952   2.163   4.139  1.3096 -0.1136 -2.2049
 5804SOL    HW229046   2.912   2.299   4.173  0.6528  0.4318  0.3787
 5805SOL     OW29047   0.621   0.169   3.680 -0.4733 -0.0714 -0.1033
 5805SOL    HW129048   0.566   0.090   3.686 -0.2231 -0.3098 -1.0380
 5805SOL    HW229049   0.615   0.182   3.586 -1.0308  0.6496  0.0353
 5806SOL     OW29050   1.890   3.463   1.302 -0.2162  0.4859  0.4665
 5806SOL    HW129051   1.929   3.550   1.310 -0.7174  0.5553  2.1430
 5806SOL    HW229052   1.969   3.409   1.313  0.3498  1.1572 -0.2972
 5807SOL     OW29053   3.387   1.632   4.291  0.1585  0.0666  0.4954
 5807SOL    HW129054   3.303   1.623   4.246  0.6092  0.2408 -0.3799
 5807SOL    HW229055   3.410   1.724   4.276 -0.0444 -0.1298 -1.0398
 5808SOL     OW29056   2.103   2.729   0.188  0.7169  0.4156 -0.0547
 5808SOL    HW129057   2.078   2.669   0.118 -0.1440 -0.5660  1.0935
 5808SOL    HW229058   2.192   2.753   0.162  1.0929 -1.5054 -0.5493
 5809SOL     OW29059   2.380   1.888   5.315 -0.4976  0.7491  0.3575
 5809SOL    HW129060   2.406   1.957   5.376 -0.1448  0.6290  0.3446
 5809SOL    HW229061   2.337   1.937   5.245 -1.2873 -1.7119 -0.8775
 5810SOL     OW29062   3.784   2.339  16.044 -0.4360  0.1249  0.0808
 5810SOL    HW129063   3.851   2.401  16.072 -1.7805  1.1017  1.1638
 5810SOL    HW229064   3.839   2.277  15.996 -0.8105 -0.1015 -0.0579
 5811SOL     OW29065   2.254   3.931  10.050  0.1631  0.4005 -0.3731
 5811SOL    HW129066   2.344   3.919  10.080  0.5335  1.1224 -1.1821
 5811SOL    HW229067   2.240   4.024  10.066 -0.3853  0.1017  0.9465
 5812SOL     OW29068   2.414   4.029  15.498  0.2811  0.5153 -0.0850
 5812SOL    HW129069   2.444   3.941  15.474  0.9269  0.8758 -0.5981
 5812SOL    HW229070   2.499   4.072  15.492 -0.6015  2.1771 -0.5656
 5813SOL     OW29071   1.305   4.431  11.893  0.0938 -0.0551 -0.4657
 5813SOL    HW129072   1.232   4.478  11.851  0.2804 -0.6055 -1.4113
 5813SOL    HW229073   1.324   4.503  11.953  0.7420  0.0098 -0.7460
 5814SOL     OW29074   1.772   2.763   8.316 -0.1968  0.0233  0.3599
 5814SOL    HW129075   1.733   2.774   8.403 -1.0692 -3.1207  0.4070
 5814SOL    HW229076   1.736   2.834   8.263  1.6385  0.6670 -0.0162
 5815SOL     OW29077   1.536   3.000   6.553 -0.0077 -0.2842  0.8269
 5815SOL    HW129078   1.528   3.094   6.569 -0.3105  0.1814 -2.0278
 5815SOL    HW229079   1.448   2.965   6.569 -0.6970  0.9139 -0.3274
 5816SOL     OW29080   3.290   4.239  16.054  0.3585 -1.2176 -0.4258
 5816SOL    HW129081   3.302   4.299  15.981 -3.4199 -1.1140 -0.9855
 5816SOL    HW229082   3.377   4.203  16.075  0.1767 -1.4566 -0.0769
 5817SOL     OW29083   4.123   2.809  15.054 -0.1592 -0.2224  0.1411
 5817SOL    HW129084   4.168   2.726  15.045  0.2578 -0.1123  1.1885
 5817SOL    HW229085   4.188   2.870  15.091 -1.3572  2.0796 -1.5779
 5818SOL     OW29086   4.427   3.767  15.558 -0.0168 -0.1303  0.0307
 5818SOL    HW129087   4.509   3.719  15.559  0.5516  0.8364 -1.1434
 5818SOL    HW229088   4.449   3.819  15.481 -0.0364 -0.0465  0.0810
 5819SOL     OW29089   4.034   3.717   2.768  0.3090 -0.1492  0.1453
 5819SOL    HW129090   4.099   3.710   2.839 -1.6158  0.1221  1.9422
 5819SOL    HW229091   4.072   3.654   2.707  1.4383  0.9514 -0.2952
 5820SOL     OW29092   1.001   0.360  10.698 -0.4185 -0.3211  0.6242
 5820SOL    HW129093   1.037   0.278  10.731  1.5999  0.8058  1.2599
 5820SOL    HW229094   0.982   0.401  10.783  1.4159  3.0675 -0.5898
 5821SOL     OW29095   2.011   1.172   1.121 -0.0429  0.4055 -0.0740
 5821SOL    HW129096   2.013   1.169   1.025 -0.4206 -2.1541  0.0021
 5821SOL    HW229097   2.076   1.238   1.142  0.8994 -0.6031  0.1764
 5822SOL     OW29098   1.265   4.588   0.548  0.1370  0.1621 -0.0147
 5822SOL    HW129099   1.326   4.601   0.475  1.6434  0.1012  1.2384
 5822SOL    HW229100   1.217   4.508   0.528 -0.2515  0.8454 -1.8892
 5823SOL     OW29101   2.151   3.023   2.441 -0.2926  0.8538 -0.4569
 5823SOL    HW129102   2.097   2.974   2.379  0.3468  0.4441 -0.6924
 5823SOL    HW229103   2.239   3.005   2.409 -0.1988 -1.9123  1.3305
 5824SOL     OW29104   4.118   2.402   6.947 -0.5695 -0.3297  0.1767
 5824SOL    HW129105   4.115   2.434   7.037 -0.7732 -1.9008  0.7251
 5824SOL    HW229106   4.153   2.475   6.896  0.7508 -0.3748  1.0214
 5825SOL     OW29107   0.343   0.561  14.475 -0.5473  0.5150  0.3581
 5825SOL    HW129108   0.358   0.535  14.384  1.1153  2.3602  0.1086
 5825SOL    HW229109   0.279   0.495  14.504  0.5683 -0.9275 -0.4468
 5826SOL     OW29110   3.636   4.217  12.255 -0.4260  0.7952  0.1665
 5826SOL    HW129111   3.613   4.293  12.201  0.2926  0.0424 -1.1909
 5826SOL    HW229112   3.604   4.244  12.341  2.1298  0.7146  1.1551
 5827SOL     OW29113   0.861   0.867   5.885  0.2983  0.0607  0.0969
 5827SOL    HW129114   0.880   0.879   5.791 -0.3947  0.6281  0.0320
 5827SOL    HW229115   0.872   0.772   5.884 -3.1926 -0.3596  0.5059
 5828SOL     OW29116   0.854   0.742  10.235 -0.9247  0.1978 -0.5267
 5828SOL    HW129117   0.907   0.760  10.158 -0.3571 -0.5264 -0.3023
 5828SOL    HW229118   0.864   0.820  10.290  0.5818  0.4603 -1.1845
 5829SOL     OW29119   3.254   0.446   9.013  0.1295  0.2042  0.0493
 5829SOL    HW129120   3.248   0.351   9.020 -2.1973  0.5128  2.2809
 5829SOL    HW229121   3.349   0.451   9.019  0.2683  1.6333 -3.4697
 5830SOL     OW29122   0.637   0.143   2.508  0.6630 -0.1668 -0.2148
 5830SOL    HW129123   0.578   0.196   2.453  1.6943  0.7998 -0.4003
 5830SOL    HW229124   0.627   0.191   2.591 -0.0552  0.5233 -0.6951
 5831SOL     OW29125   0.914   1.814   8.117  0.1284  0.5148  0.1014
 5831SOL    HW129126   0.845   1.880   8.116  0.1554  0.5495  1.1007
 5831SOL    HW229127   0.978   1.868   8.163  1.2141  0.5524 -1.4546
 5832SOL     OW29128   3.562   1.257   8.806 -0.0287  0.0953 -0.0969
 5832SOL    HW129129   3.632   1.292   8.862  1.7558 -0.9778 -1.6226
 5832SOL    HW229130   3.497   1.327   8.810  0.6013  0.6925 -0.3120
 5833SOL     OW29131   2.571   1.477  16.451 -0.5738 -0.2268  0.3467
 5833SOL    HW129132   2.522   1.430  16.384 -0.8646 -0.5958  0.8186
 5833SOL    HW229133   2.528   1.562  16.452 -0.3643 -0.1191  0.3253
 5834SOL     OW29134   2.575   2.631   7.799 -0.6457  0.2314  0.3635
 5834SOL    HW129135   2.549   2.579   7.722 -2.6580  0.4173  0.9260
 5834SOL    HW229136   2.544   2.579   7.873  0.1423 -0.5657  0.1316
 5835SOL     OW29137   3.962   1.623   7.371  0.5671 -0.1027 -0.0552
 5835SOL    HW129138   3.964   1.563   7.297  1.1045  2.0046 -1.7662
 5835SOL    HW229139   4.044   1.671   7.358  1.3973 -1.0100  1.9108
 5836SOL     OW29140   0.956   1.606   8.685 -0.3749  0.0068 -0.1955
 5836SOL    HW129141   0.915   1.530   8.726  1.4184 -1.4237 -1.0943
 5836SOL    HW229142   0.895   1.677   8.707 -0.5171 -0.0481 -0.4103
 5837SOL     OW29143   4.287   0.660   5.653 -0.5599 -0.1587  0.3950
 5837SOL    HW129144   4.318   0.618   5.733 -0.5812  0.2783  0.6337
 5837SOL    HW229145   4.233   0.598   5.603 -0.5992 -0.2194  0.5147
 5838SOL     OW29146   1.158   3.304  17.509 -0.0904 -0.1912 -0.7276
 5838SOL    HW129147   1.158   3.261  17.594 -0.8855 -1.7024 -1.4835
 5838SOL    HW229148   1.107   3.383  17.530 -0.7309 -0.5856 -0.8023
 5839SOL     OW29149   4.696   3.269   4.495  0.0651 -1.0449  0.3014
 5839SOL    HW129150   0.025   3.246   4.559  1.9607 -0.7226 -1.5596
 5839SOL    HW229151   4.683   3.363   4.507  0.6360 -0.7596 -1.3303
 5840SOL     OW29152   4.030   1.026   9.699  0.0728 -0.7208  0.2961
 5840SOL    HW129153   3.965   0.965   9.663  0.2933 -0.6677 -0.1964
 5840SOL    HW229154   4.111   1.007   9.652  0.4915 -2.1281  1.5631
 5841SOL     OW29155   1.829   3.314   9.902  0.4189 -0.1318 -0.5910
 5841SOL    HW129156   1.876   3.377   9.957 -0.6458 -0.4110  0.6446
 5841SOL    HW229157   1.853   3.233   9.948 -0.1341 -0.0866 -0.2292
 5842SOL     OW29158   3.558   2.490   5.563 -0.4597  0.5362 -0.1892
 5842SOL    HW129159   3.484   2.431   5.547  0.4460 -0.9754  1.2500
 5842SOL    HW229160   3.621   2.447   5.506 -0.5256  2.5801 -1.7728
 5843SOL     OW29161   4.326   1.370   6.969 -1.0346  0.1216 -0.0890
 5843SOL    HW129162   4.363   1.434   7.030  1.1776 -0.5557 -0.7405
 5843SOL    HW229163   4.361   1.414   6.892 -0.1796  0.7227  0.6430
 5844SOL     OW29164   3.608   0.547  10.720 -0.0305  0.2725 -0.5738
 5844SOL    HW129165   3.659   0.612  10.769 -0.6119 -0.6277  1.2206
 5844SOL    HW229166   3.669   0.515  10.654  1.0644  2.3469 -0.5898
 5845SOL     OW29167   2.563   1.213   3.228 -0.2165 -0.7111 -0.0421
 5845SOL    HW129168   2.637   1.265   3.196  0.7406 -2.4654 -0.7057
 5845SOL    HW229169   2.492   1.250   3.177 -1.8904 -1.2629  1.8749
 5846SOL     OW29170   0.941   1.353   6.202 -0.0784 -0.1537 -0.0675
 5846SOL    HW129171   0.917   1.264   6.227 -1.6389 -0.5164 -2.9009
 5846SOL    HW229172   0.976   1.345   6.114  0.3954  0.2990  0.0751
 5847SOL     OW29173   0.928   3.384  16.960  0.3865 -0.6273  0.2968
 5847SOL    HW129174   0.992   3.448  16.991 -2.5982  2.0011  1.0824
 5847SOL    HW229175   0.936   3.327  17.037  3.9653  1.3275  1.3301
 5848SOL     OW29176   1.334   0.146   9.735 -0.6341 -0.3339 -0.3200
 5848SOL    HW129177   1.337   0.242   9.745 -0.4959 -0.2705 -0.9551
 5848SOL    HW229178   1.416   0.117   9.774 -0.0976 -1.9230 -2.6095
 5849SOL     OW29179   2.419   3.786   9.163 -0.4326 -0.5580 -0.1979
 5849SOL    HW129180   2.420   3.880   9.144  1.9188  0.0476  3.0465
 5849SOL    HW229181   2.449   3.751   9.078  3.1873  1.8528  0.0670
 5850SOL     OW29182   2.901   1.844   1.166  0.2751 -0.1892  0.5090
 5850SOL    HW129183   2.943   1.852   1.251 -1.3682  2.5210  1.0654
 5850SOL    HW229184   2.843   1.771   1.186 -0.4262  0.5583  1.2287
 5851SOL     OW29185   0.294   1.178   4.372  0.1766 -0.0795  0.7159
 5851SOL    HW129186   0.330   1.179   4.460 -1.9224  2.9540  1.5634
 5851SOL    HW229187   0.287   1.269   4.343  3.2387  0.2149  0.9096
 5852SOL     OW29188   4.433   0.099   8.312 -0.0107 -0.3655 -0.7859
 5852SOL    HW129189   4.438   0.010   8.346  3.5649 -0.1237 -0.7067
 5852SOL    HW229190   4.395   0.089   8.225 -0.8498  1.6624 -0.6514
 5853SOL     OW29191   4.281   0.432   4.831  0.3071 -0.3191 -0.3703
 5853SOL    HW129192   4.340   0.457   4.902  0.6140  1.4305 -1.2194
 5853SOL    HW229193   4.243   0.357   4.875 -0.9470  1.2562  1.2404
 5854SOL     OW29194   2.719   1.252   9.494  0.5374 -0.0737  0.3952
 5854SOL    HW129195   2.712   1.225   9.402 -3.0642  0.3959  0.5356
 5854SOL    HW229196   2.634   1.292   9.513  0.1519 -0.2231 -1.0279
 5855SOL     OW29197   3.589   2.799   8.912  0.9798  0.3018  0.0447
 5855SOL    HW129198   3.524   2.757   8.969  0.8395  0.6730  0.1533
 5855SOL    HW229199   3.589   2.891   8.936  1.4380  0.5929 -1.0563
 5856SOL     OW29200   4.010   1.259  10.649  0.4391 -0.8885 -0.3235
 5856SOL    HW129201   3.982   1.349  10.663  3.5327 -0.1523  1.2820
 5856SOL    HW229202   4.099   1.261  10.684  1.0818  2.5138 -2.0986
 5857SOL     OW29203   1.242   2.305  10.270  0.6439 -0.0807  0.1024
 5857SOL    HW129204   1.198   2.388  10.256  1.6807  0.5408  0.5197
 5857SOL    HW229205   1.180   2.238  10.241  0.3306 -0.0940  0.8117
 5858SOL     OW29206   3.290   3.785   4.236 -0.1044 -0.3851 -0.6858
 5858SOL    HW129207   3.208   3.770   4.190 -1.0779 -0.6282  1.1463
 5858SOL    HW229208   3.302   3.694   4.265 -1.2629 -0.4979 -0.5714
 5859SOL     OW29209   2.287   0.630   6.122 -0.0971  0.3890 -0.6373
 5859SOL    HW129210   2.372   0.607   6.085  0.0893  0.1934 -0.0943
 5859SOL    HW229211   2.317   0.620   6.212 -3.9050  3.3452  0.9393
 5860SOL     OW29212   0.375   3.066   2.969 -0.3748 -0.7668 -0.4555
 5860SOL    HW129213   0.446   3.129   2.981  1.1019 -2.2189 -1.5120
 5860SOL    HW229214   0.426   2.989   2.943  2.6202  0.6174  1.3172
 5861SOL     OW29215   0.902   1.616   0.588 -0.2068  0.3130 -0.2000
 5861SOL    HW129216   0.909   1.685   0.655 -2.3564  0.8273 -0.5058
 5861SOL    HW229217   0.882   1.540   0.642 -0.6997  0.1386 -0.6302
 5862SOL     OW29218   0.240   2.306   4.441  0.2755  0.3138 -0.1162
 5862SOL    HW129219   0.296   2.383   4.431 -1.9942  2.1639  1.4275
 5862SOL    HW229220   0.276   2.257   4.514  1.2588  0.9032 -0.1965
 5863SOL     OW29221   2.846   1.880   9.042  0.3557  0.5236  0.0773
 5863SOL    HW129222   2.759   1.904   9.074  0.3254 -0.3433  0.6439
 5863SOL    HW229223   2.839   1.785   9.044 -0.0633  0.5251 -1.1643
 5864SOL     OW29224   0.836   3.858   6.110 -0.0615  0.4183  0.7627
 5864SOL    HW129225   0.925   3.874   6.079 -1.0482  0.1703 -2.1603
 5864SOL    HW229226   0.805   3.815   6.030 -0.0322  0.5528  0.6792
 5865SOL     OW29227   3.130   4.338   4.715 -0.1559 -0.2228  0.3542
 5865SOL    HW129228   3.196   4.282   4.674  0.4907  1.2346 -0.5902
 5865SOL    HW229229   3.153   4.330   4.807 -1.2506 -0.5154  0.6093
 5866SOL     OW29230   3.262   3.295   5.086  0.4327 -0.1002  0.0019
 5866SOL    HW129231   3.353   3.275   5.111  0.0439 -0.8772  0.7728
 5866SOL    HW229232   3.281   3.357   5.016  0.6157  1.5059  1.4771
 5867SOL     OW29233   4.601   1.900  10.090  0.0044 -0.2912 -0.2313
 5867SOL    HW129234   4.646   1.978  10.125 -0.0272 -1.0056  1.4069
 5867SOL    HW229235   4.548   1.935  10.019 -0.3721 -0.1851  0.0989
 5868SOL     OW29236   1.465   1.103   8.421  0.1329  0.3719  0.3213
 5868SOL    HW129237   1.382   1.148   8.433 -0.4992 -0.0046 -2.7018
 5868SOL    HW229238   1.501   1.141   8.341 -0.5084  1.6246  0.6340
 5869SOL     OW29239   2.974   3.766  11.059 -0.4633 -0.4697 -0.2443
 5869SOL    HW129240   2.923   3.785  11.138  0.1023 -0.3486  0.0938
 5869SOL    HW229241   3.025   3.690  11.089 -0.0643  0.1324  0.6214
 5870SOL     OW29242   3.951   4.336   7.166  0.1249  1.0584  0.1579
 5870SOL    HW129243   3.941   4.412   7.109 -0.2913 -0.4805 -1.8240
 5870SOL    HW229244   3.858   4.322   7.179  0.1498  0.2330 -0.5102
 5871SOL     OW29245   1.717   1.047   2.892 -0.3774  0.1211 -0.5155
 5871SOL    HW129246   1.683   0.984   2.955  0.9516  1.3145  1.4018
 5871SOL    HW229247   1.810   1.045   2.913 -0.4409 -1.5318 -0.3877
 5872SOL     OW29248   3.886   1.854   4.413  0.9239  0.1319  0.2383
 5872SOL    HW129249   3.831   1.926   4.382  1.3846  0.2711 -0.2465
 5872SOL    HW229250   3.954   1.848   4.346  1.4760 -1.4450  0.9299
 5873SOL     OW29251   3.230   4.333   8.656  0.1599 -0.1023 -0.4402
 5873SOL    HW129252   3.154   4.370   8.700 -0.2575  1.7957 -2.7556
 5873SOL    HW229253   3.264   4.266   8.715 -0.5455  1.8266  2.1300
 5874SOL     OW29254   0.247   1.764   2.566  0.0855 -0.2432 -0.2021
 5874SOL    HW129255   0.306   1.689   2.564  0.2421 -0.1506  0.9619
 5874SOL    HW229256   0.182   1.739   2.631  1.1531 -0.4683  0.7695
 5875SOL     OW29257   3.534   1.842   1.857 -0.4760  0.1745 -0.7875
 5875SOL    HW129258   3.525   1.865   1.950  2.0298 -0.5651 -0.3710
 5875SOL    HW229259   3.605   1.903   1.843  0.8896 -1.0938  0.6284
 5876SOL     OW29260   1.316   0.145   6.387  0.1805 -0.2040  0.1077
 5876SOL    HW129261   1.263   0.225   6.381  0.9366  0.3458  0.7933
 5876SOL    HW229262   1.376   0.163   6.459 -0.7661 -1.2537  1.1648
 5877SOL     OW29263   0.176   2.297   3.606 -0.2006  0.3454  0.5944
 5877SOL    HW129264   0.093   2.327   3.643 -1.3535 -1.4224 -0.5690
 5877SOL    HW229265   0.238   2.338   3.666  2.4615  0.2319 -2.0934
 5878SOL     OW29266   0.183   1.522   8.180 -0.2324 -0.0689  0.0884
 5878SOL    HW129267   0.209   1.562   8.097  1.8447 -0.4481  0.5615
 5878SOL    HW229268   0.195   1.590   8.246 -1.2927 -0.8608  1.1048
 5879SOL     OW29269   2.010   0.236   6.530 -0.2941 -0.0519  0.5381
 5879SOL    HW129270   1.922   0.231   6.492  0.3510 -0.9941 -0.8022
 5879SOL    HW229271   2.027   0.147   6.559 -1.5023 -0.6922 -0.7096
 5880SOL     OW29272   4.115   1.863   4.234 -0.6324 -0.0131 -0.1639
 5880SOL    HW129273   4.177   1.937   4.236  0.7148 -1.0710 -2.6702
 5880SOL    HW229274   4.173   1.795   4.200 -1.3180 -0.6478 -0.0499
 5881SOL     OW29275   3.872   1.930   2.178 -0.1998  0.5631 -0.6643
 5881SOL    HW129276   3.889   2.010   2.128  0.3503  0.4535 -0.6525
 5881SOL    HW229277   3.904   1.863   2.118  1.9530  0.3823  0.6695
 5882SOL     OW29278   2.402   2.331   3.381 -0.1608 -0.1990 -0.4314
 5882SOL    HW129279   2.371   2.382   3.307  0.2284  1.2429  0.3960
 5882SOL    HW229280   2.464   2.273   3.337 -0.3855  0.0169 -1.0270
 5883SOL     OW29281   2.893   4.447   7.323 -0.2033 -0.1318  0.9640
 5883SOL    HW129282   2.888   4.541   7.306 -0.0307  0.2846  3.2573
 5883SOL    HW229283   2.934   4.448   7.410  1.8301  1.7865 -0.0029
 5884SOL     OW29284   0.336   2.289   5.080 -0.2540  0.0536  0.2119
 5884SOL    HW129285   0.321   2.230   5.006 -2.0631 -1.2958  1.6336
 5884SOL    HW229286   0.431   2.299   5.077 -0.0126 -2.4305 -0.1839
 5885SOL     OW29287   1.271   1.984  14.197 -0.5893 -0.3584 -0.3329
 5885SOL    HW129288   1.334   1.914  14.213 -3.0115 -2.1973  1.0942
 5885SOL    HW229289   1.190   1.935  14.210 -0.7443  0.0326  0.2032
 5886SOL     OW29290   1.833   4.556   7.786 -0.9578  0.0153  0.3662
 5886SOL    HW129291   1.870   4.604   7.860 -0.3370 -1.5147  1.0582
 5886SOL    HW229292   1.740   4.561   7.805 -1.0337 -0.9654  0.2374
 5887SOL     OW29293   3.953   2.219   6.563  0.0496 -0.3339  0.0568
 5887SOL    HW129294   3.858   2.216   6.560  0.1190  0.2551 -2.8419
 5887SOL    HW229295   3.972   2.166   6.641 -0.6653 -1.2143 -0.3694
 5888SOL     OW29296   2.479   2.344  17.175  0.1086 -0.1855 -0.2134
 5888SOL    HW129297   2.504   2.419  17.229  0.8273 -1.5551  1.3450
 5888SOL    HW229298   2.431   2.397  17.112 -0.4732 -0.2422  0.1879
 5889SOL     OW29299   4.285   1.663  13.261  0.1759 -0.0175  0.7249
 5889SOL    HW129300   4.315   1.753  13.247 -0.4060  0.0017 -0.4142
 5889SOL    HW229301   4.306   1.655  13.354  0.0636  0.4013  0.7879
 5890SOL     OW29302   2.493   3.742   3.615 -0.2184  0.3821  0.1875
 5890SOL    HW129303   2.423   3.803   3.637  0.6982  2.1313 -1.7753
 5890SOL    HW229304   2.562   3.799   3.647  0.4733 -1.1218  1.3925
 5891SOL     OW29305   0.668   0.084  11.280  0.1031 -0.2150  0.2350
 5891SOL    HW129306   0.637   0.175  11.282  0.8165  0.0237  0.5228
 5891SOL    HW229307   0.740   0.092  11.217 -0.8987  3.6629 -0.4237
 5892SOL     OW29308   0.223   3.680   1.481  0.5307  0.1392 -0.9391
 5892SOL    HW129309   0.159   3.688   1.410  0.8669  0.4362 -1.2071
 5892SOL    HW229310   0.206   3.767   1.515  1.3490 -0.3654  0.7693
 5893SOL     OW29311   1.278   3.331  14.877  0.6592 -0.0894 -0.1449
 5893SOL    HW129312   1.332   3.408  14.892 -1.9832  1.8216 -0.2849
 5893SOL    HW229313   1.284   3.284  14.960  1.9309  0.1140 -0.1304
 5894SOL     OW29314   1.983   1.044   2.917 -0.3713 -0.1861 -0.1242
 5894SOL    HW129315   2.008   1.032   3.009  0.0859 -0.1613 -0.2470
 5894SOL    HW229316   2.068   1.061   2.877  0.4426 -1.8142  0.9107
 5895SOL     OW29317   2.210   2.794   6.122 -0.2432  0.0277  0.4637
 5895SOL    HW129318   2.203   2.846   6.042  2.7619  1.0004  0.8450
 5895SOL    HW229319   2.246   2.855   6.187  0.6948  0.4981 -0.4877
 5896SOL     OW29320   1.430   1.135   4.060 -0.2143 -0.2691 -0.2741
 5896SOL    HW129321   1.386   1.158   3.978 -0.8954 -0.0014  0.1719
 5896SOL    HW229322   1.359   1.116   4.121 -0.6676  0.8100 -0.4699
 5897SOL     OW29323   3.746   3.536   2.259 -0.6921  0.3684 -0.1645
 5897SOL    HW129324   3.745   3.462   2.199 -0.3179  0.3480 -0.1446
 5897SOL    HW229325   3.690   3.496   2.326 -1.1672 -0.1132 -0.8518
 5898SOL     OW29326   3.743   1.503  11.044  0.5655  0.7776  0.2364
 5898SOL    HW129327   3.793   1.557  11.105  0.2580  1.2873  0.0433
 5898SOL    HW229328   3.758   1.413  11.071 -0.0127 -0.0117 -2.0907
 5899SOL     OW29329   4.270   2.728   5.556 -0.2863 -0.4995  0.1268
 5899SOL    HW129330   4.365   2.718   5.547 -0.4914 -0.6144 -1.9324
 5899SOL    HW229331   4.240   2.719   5.466 -1.3504  0.6283  0.3717
 5900SOL     OW29332   4.227   3.152   2.087  0.1170 -0.1324  0.1127
 5900SOL    HW129333   4.138   3.155   2.123 -0.7319 -0.1459 -1.9960
 5900SOL    HW229334   4.215   3.194   2.002  1.3179 -0.6025 -0.2796
 5901SOL     OW29335   2.228   3.089   9.288 -0.0832 -0.9465  0.3351
 5901SOL    HW129336   2.227   3.183   9.309 -0.8681 -0.6731 -0.9506
 5901SOL    HW229337   2.157   3.061   9.345  0.0905  1.8670  1.9330
 5902SOL     OW29338   2.924   0.634  16.207 -0.1087 -0.5284 -0.3040
 5902SOL    HW129339   2.957   0.644  16.296 -1.0143 -1.2731  0.1263
 5902SOL    HW229340   2.858   0.703  16.213 -1.1574 -1.4418 -1.2021
 5903SOL     OW29341   3.718   2.919   9.250  0.5702 -0.0676  0.4764
 5903SOL    HW129342   3.695   2.839   9.203  0.4448  1.4200 -1.9838
 5903SOL    HW229343   3.704   2.978   9.176  0.7523  0.7997  1.1309
 5904SOL     OW29344   3.103   0.009  11.059  0.7228  0.3978 -0.6807
 5904SOL    HW129345   3.098   0.053  11.144  1.7708 -1.4717  0.3440
 5904SOL    HW229346   3.097   0.089  11.007 -2.1820  0.6730  0.0786
 5905SOL     OW29347   4.510   2.660  12.066 -0.3379 -0.1555  0.1836
 5905SOL    HW129348   4.599   2.648  12.033 -0.5721  0.9876 -0.8707
 5905SOL    HW229349   4.502   2.590  12.131 -1.5969 -1.0287 -0.9309
 5906SOL     OW29350   2.850   1.018   4.077 -0.3708  0.1507 -0.5119
 5906SOL    HW129351   2.848   1.113   4.075 -0.5264  0.1214 -1.6933
 5906SOL    HW229352   2.852   1.002   4.172  0.2576 -2.0292 -0.8825
 5907SOL     OW29353   3.150   0.920  17.573 -0.3893 -0.2223  0.2910
 5907SOL    HW129354   3.192   1.001  17.601 -2.6232  1.9386 -2.6334
 5907SOL    HW229355   3.074   0.902  17.629  0.5373 -1.4062  1.1680
 5908SOL     OW29356   2.253   1.052  15.422 -0.1429  0.4574 -0.2168
 5908SOL    HW129357   2.163   1.024  15.405  0.4734 -1.3709 -0.4517
 5908SOL    HW229358   2.233   1.144  15.434  1.0852  0.4920  1.6188
 5909SOL     OW29359   3.475   2.520   3.380  1.3274  0.3693 -0.1856
 5909SOL    HW129360   3.442   2.530   3.469 -0.3993 -0.2460 -0.7563
 5909SOL    HW229361   3.463   2.606   3.342 -1.8180  0.0547  0.1655
 5910SOL     OW29362   1.438   0.523   1.893 -0.0929  0.8406  0.3230
 5910SOL    HW129363   1.477   0.536   1.807 -2.1804  0.2868 -0.6889
 5910SOL    HW229364   1.391   0.606   1.908  1.6813  1.2050  3.9753
 5911SOL     OW29365   0.770   0.824   3.210 -0.1650  0.1110 -0.0260
 5911SOL    HW129366   0.742   0.890   3.274 -1.5938  0.9608 -1.5297
 5911SOL    HW229367   0.817   0.762   3.266  0.6333 -2.6794 -3.8722
 5912SOL     OW29368   4.530   1.766   2.318  0.8065 -0.4639 -0.2551
 5912SOL    HW129369   4.474   1.698   2.280 -1.2758 -0.7238  3.2891
 5912SOL    HW229370   4.459   1.826   2.340  0.0908 -0.1681 -3.2748
 5913SOL     OW29371   4.101   3.511  12.597 -0.2344 -0.0199 -0.1624
 5913SOL    HW129372   4.031   3.449  12.615  1.4346 -1.8810 -0.0822
 5913SOL    HW229373   4.153   3.448  12.547 -1.2280 -0.5204 -0.5568
 5914SOL     OW29374   2.041   1.124   3.983 -0.6931  0.0818  0.4711
 5914SOL    HW129375   2.078   1.151   4.068  1.3764 -0.2643 -0.3206
 5914SOL    HW229376   1.959   1.174   3.990 -0.7149 -0.1613  1.9639
 5915SOL     OW29377   2.312   3.970   7.833 -0.4554  0.1646 -0.2886
 5915SOL    HW129378   2.257   3.891   7.830  0.2036 -0.3076  0.0882
 5915SOL    HW229379   2.303   4.001   7.742  0.3082  0.5628 -0.2257
 5916SOL     OW29380   1.171   4.682  12.162 -0.5528  0.6414  0.0570
 5916SOL    HW129381   1.174   4.621  12.236  1.4253  1.0637  0.3091
 5916SOL    HW229382   1.082   4.657  12.136 -0.5976 -0.2533  1.0771
 5917SOL     OW29383   4.332   4.320   0.117 -1.0265 -0.6304  0.0180
 5917SOL    HW129384   4.251   4.361   0.087 -1.2477  0.2820  1.8646
 5917SOL    HW229385   4.366   4.276   0.039 -0.7707  0.8901 -0.7400
 5918SOL     OW29386   1.723   2.932   6.365 -0.7116  0.2493  0.1730
 5918SOL    HW129387   1.648   2.942   6.423 -0.4892  1.8881  0.1506
 5918SOL    HW229388   1.694   2.986   6.292  1.4185  0.3269 -0.6133
 5919SOL     OW29389   2.295   1.373   0.567  0.6016 -0.0128 -0.8061
 5919SOL    HW129390   2.251   1.288   0.562 -2.3884  1.5659 -1.0807
 5919SOL    HW229391   2.224   1.426   0.602 -0.0051 -0.3171 -1.5568
 5920SOL     OW29392   1.125   2.395   4.035  0.2289 -0.0959  0.1576
 5920SOL    HW129393   1.149   2.308   4.065  1.6498  0.4207  0.5428
 5920SOL    HW229394   1.180   2.404   3.957  0.3705  1.4856  0.4326
 5921SOL     OW29395   1.362   2.441  11.261  0.0719 -0.1028 -0.3282
 5921SOL    HW129396   1.413   2.521  11.253  1.6928 -0.9198  1.8519
 5921SOL    HW229397   1.311   2.437  11.180 -1.2342  0.6121  0.4553
 5922SOL     OW29398   1.015   3.779   1.282 -0.1376 -0.0317 -0.1966
 5922SOL    HW129399   0.964   3.740   1.353 -0.4516  0.3297 -0.2201
 5922SOL    HW229400   1.061   3.851   1.325  2.3425 -0.8605 -1.4428
 5923SOL     OW29401   1.276   1.109   7.599 -0.1778 -0.3243  0.2475
 5923SOL    HW129402   1.286   1.014   7.592 -1.0478 -0.3740 -0.3941
 5923SOL    HW229403   1.311   1.120   7.687 -2.3522 -1.8633  1.3105
 5924SOL     OW29404   2.005   1.382   7.724 -0.2517 -0.2652  0.1839
 5924SOL    HW129405   2.058   1.346   7.653 -2.0111 -1.3410 -0.5671
 5924SOL    HW229406   1.979   1.301   7.768 -0.8606 -1.4834 -2.4370
 5925SOL     OW29407   3.279   3.325   7.602  0.1528 -0.2334 -0.2169
 5925SOL    HW129408   3.319   3.339   7.688  0.1961 -0.6568 -0.1655
 5925SOL    HW229409   3.326   3.243   7.585  1.4473  0.6108 -0.7296
 5926SOL     OW29410   0.026   1.118   3.658 -0.8941  0.0168 -0.8229
 5926SOL    HW129411   0.110   1.143   3.697 -1.2365  1.9237 -1.3189
 5926SOL    HW229412   4.710   1.195   3.670 -1.3889 -0.2896 -1.1198
 5927SOL     OW29413   0.842   1.953   1.284  0.0919 -0.5855 -0.2322
 5927SOL    HW129414   0.769   2.013   1.296 -0.9068 -1.8074 -0.1481
 5927SOL    HW229415   0.879   1.959   1.372  0.1317  2.1910 -0.4638
 5928SOL     OW29416   1.821   1.265   1.286  0.0589 -0.0046  0.0685
 5928SOL    HW129417   1.887   1.233   1.225  2.6995  2.0941  1.8172
 5928SOL    HW229418   1.854   1.349   1.318 -1.0482  0.5816 -0.3346
 5929SOL     OW29419   2.712   4.688  16.954 -0.6025  0.0972  0.0840
 5929SOL    HW129420   2.660   4.617  16.990  1.0516 -0.7293  0.8805
 5929SOL    HW229421   2.694   0.005  17.030  2.5710  2.1488 -0.6291
 5930SOL     OW29422   3.079   2.599   4.202 -0.1748 -0.8472 -0.1507
 5930SOL    HW129423   3.025   2.554   4.268 -0.9808  1.4025  0.7310
 5930SOL    HW229424   3.106   2.677   4.251 -2.2310 -0.4241  0.3478
 5931SOL     OW29425   1.200   4.580   6.194 -0.4195  0.1535  0.3718
 5931SOL    HW129426   1.140   4.616   6.129 -0.4595  0.7073  0.7083
 5931SOL    HW229427   1.141   4.526   6.247  0.6646 -1.3306  0.0575
 5932SOL     OW29428   2.321   2.349   6.799 -0.4096  0.0097  0.5643
 5932SOL    HW129429   2.345   2.356   6.891  0.3244 -2.4780  0.5658
 5932SOL    HW229430   2.344   2.435   6.763 -0.0068 -0.0080  0.7728
 5933SOL     OW29431   0.571   2.548  12.438  0.3829 -0.8512  0.2595
 5933SOL    HW129432   0.484   2.586  12.452  0.3334 -1.0816  0.5830
 5933SOL    HW229433   0.576   2.565  12.344 -0.8574  0.0829  0.3678
 5934SOL     OW29434   3.643   2.542   3.682 -0.0543 -0.0943 -0.1711
 5934SOL    HW129435   3.548   2.558   3.684 -0.3174 -1.6852  0.4181
 5934SOL    HW229436   3.679   2.603   3.747 -0.6509 -0.1255  0.1940
 5935SOL     OW29437   2.012   1.945  17.149 -0.0005 -0.2955 -0.0212
 5935SOL    HW129438   2.105   1.958  17.169 -0.0840 -0.0789  0.2202
 5935SOL    HW229439   2.007   1.902  17.063 -0.6378 -2.2893  1.0284
 5936SOL     OW29440   0.640   2.539   8.323  0.5943 -0.1222  0.1578
 5936SOL    HW129441   0.656   2.576   8.236 -0.4312 -1.2421 -0.4936
 5936SOL    HW229442   0.546   2.524   8.333 -0.0661  3.0879 -1.3698
 5937SOL     OW29443   3.657   3.006   8.116 -0.1306 -0.1636 -0.2902
 5937SOL    HW129444   3.585   3.068   8.101  1.1017  1.5708  1.0512
 5937SOL    HW229445   3.610   2.922   8.119  0.4493 -0.3973  2.1684
 5938SOL     OW29446   1.457   1.430   8.590 -0.3546 -0.5593 -0.0528
 5938SOL    HW129447   1.456   1.526   8.587 -0.4854 -0.5745 -0.5200
 5938SOL    HW229448   1.373   1.410   8.631 -0.8934  0.4271 -0.6646
 5939SOL     OW29449   2.751   0.124  14.658  0.3309  0.2667  0.8778
 5939SOL    HW129450   2.800   0.116  14.576 -0.2753 -1.3925  0.6735
 5939SOL    HW229451   2.697   0.201  14.636 -0.0202 -0.2426 -0.0622
 5940SOL     OW29452   0.955   0.012   6.977  0.1100 -0.3887 -0.0453
 5940SOL    HW129453   0.957   4.700   6.896 -0.3455 -1.5156  0.6485
 5940SOL    HW229454   0.929   0.100   6.948  1.8452  0.4773  1.0315
 5941SOL     OW29455   0.082   4.246  12.416 -0.0134 -0.3351  0.0344
 5941SOL    HW129456   0.171   4.233  12.386 -0.7175  0.6373 -2.4710
 5941SOL    HW229457   0.064   4.152  12.408 -0.3845 -0.2956  0.3578
 5942SOL     OW29458   0.582   3.475  11.642  0.3194  0.2660 -0.1236
 5942SOL    HW129459   0.513   3.478  11.575 -0.6645 -1.6131  0.7869
 5942SOL    HW229460   0.651   3.434  11.591  1.2453  0.1434  1.2341
 5943SOL     OW29461   2.684   2.380   6.245  0.4196  0.6996 -0.3911
 5943SOL    HW129462   2.641   2.454   6.287  2.7890  0.8259  1.8095
 5943SOL    HW229463   2.693   2.310   6.310 -2.5586 -0.1795 -0.9322
 5944SOL     OW29464   2.661   1.646   5.506  0.1318  0.4189 -0.6264
 5944SOL    HW129465   2.602   1.670   5.434  0.1743 -0.3710 -0.9263
 5944SOL    HW229466   2.657   1.552   5.490  1.0816 -0.1843  2.6775
 5945SOL     OW29467   3.081   0.616   4.481 -0.1043 -0.3337  0.4544
 5945SOL    HW129468   3.106   0.615   4.388  1.4255 -1.8741  0.8808
 5945SOL    HW229469   3.165   0.633   4.523 -1.4002 -0.0931  2.8981
 5946SOL     OW29470   4.237   1.303   3.794 -0.1256 -0.1727 -0.3380
 5946SOL    HW129471   4.224   1.208   3.799  0.6857 -0.3451 -1.4629
 5946SOL    HW229472   4.318   1.308   3.844 -0.1134 -0.4516 -0.3289
 5947SOL     OW29473   3.011   1.722   3.459  0.3715  0.3195  0.3468
 5947SOL    HW129474   3.076   1.720   3.530  0.0423  2.5980  0.7137
 5947SOL    HW229475   2.964   1.642   3.483  0.0189  0.1978 -0.7611
 5948SOL     OW29476   1.933   0.992   6.286 -0.2402  0.1138 -0.1866
 5948SOL    HW129477   1.905   0.926   6.349 -0.4134  0.6114  0.2662
 5948SOL    HW229478   2.026   0.971   6.280 -0.3090 -0.0654 -0.6038
 5949SOL     OW29479   3.402   1.382   6.753 -0.3450  0.1469  0.2357
 5949SOL    HW129480   3.491   1.365   6.784 -0.0782 -2.3620 -1.8851
 5949SOL    HW229481   3.381   1.289   6.739 -0.5488  0.3841 -1.0669
 5950SOL     OW29482   0.908   2.575  14.655 -0.5861 -0.5161  0.3760
 5950SOL    HW129483   0.856   2.568  14.735 -0.8097  2.0431  0.4500
 5950SOL    HW229484   0.860   2.631  14.594 -0.0981 -2.9611 -2.2795
 5951SOL     OW29485   3.484   1.477   7.098  0.6893 -0.1945 -0.2751
 5951SOL    HW129486   3.429   1.543   7.056  3.2250  2.1738  0.1201
 5951SOL    HW229487   3.459   1.482   7.190 -1.3423 -1.6550 -0.7342
 5952SOL     OW29488   3.260   1.108   1.417  0.5507  0.0976 -0.4877
 5952SOL    HW129489   3.199   1.036   1.401  1.5303 -0.6385 -0.9816
 5952SOL    HW229490   3.217   1.182   1.374 -0.7170  1.0849  2.5265
 5953SOL     OW29491   1.650   3.203   4.314 -0.5420 -0.0662 -0.6100
 5953SOL    HW129492   1.745   3.205   4.324 -0.6951 -3.1230  1.8212
 5953SOL    HW229493   1.634   3.211   4.220 -1.0965 -2.9726 -0.7614
 5954SOL     OW29494   2.831   0.725   5.917 -0.3829 -0.3501 -0.4266
 5954SOL    HW129495   2.874   0.809   5.903 -1.5338  0.4056  0.6232
 5954SOL    HW229496   2.904   0.679   5.960  0.8851 -0.3039 -2.5001
 5955SOL     OW29497   2.874   3.177   0.655  0.0396 -0.1340 -0.5711
 5955SOL    HW129498   2.922   3.151   0.576 -1.3247  0.5980 -1.6320
 5955SOL    HW229499   2.795   3.216   0.619 -1.1906 -2.6878 -0.6699
 5956SOL     OW29500   3.710   2.759   3.838  0.1608  0.0057  0.5878
 5956SOL    HW129501   3.732   2.850   3.823  3.8303 -0.8634  0.5676
 5956SOL    HW229502   3.702   2.747   3.933  0.1787  0.2772  0.6220
 5957SOL     OW29503   3.352   3.420   8.720  0.5398 -0.0972  0.0873
 5957SOL    HW129504   3.395   3.336   8.738  2.5767  1.3568  2.0028
 5957SOL    HW229505   3.260   3.396   8.724  0.0266  2.1460  1.5001
 5958SOL     OW29506   2.664   1.311   8.121  0.0042 -0.0293 -0.4503
 5958SOL    HW129507   2.638   1.298   8.212 -0.1328  1.7124 -0.2298
 5958SOL    HW229508   2.585   1.355   8.090 -1.0160 -1.2659  0.4539
 5959SOL     OW29509   0.468   3.526   1.726  0.0165 -0.2695  0.6711
 5959SOL    HW129510   0.375   3.514   1.709  0.2817 -0.0285 -0.9887
 5959SOL    HW229511   0.467   3.614   1.762  1.5879  1.9415 -4.6794
 5960SOL     OW29512   0.360   4.091   7.490  0.0753  0.0018 -0.1422
 5960SOL    HW129513   0.378   4.183   7.507  0.5270 -0.1941  0.4513
 5960SOL    HW229514   0.449   4.059   7.505  0.0838  0.2780  0.3664
 5961SOL     OW29515   2.656   4.556   0.469 -0.0194  0.8326  0.1731
 5961SOL    HW129516   2.598   4.494   0.425  0.6695 -1.1748  2.0884
 5961SOL    HW229517   2.596   4.587   0.537  0.5313 -1.5774  1.7512
 5962SOL     OW29518   0.862   2.979  11.438  0.1763 -0.1754 -0.1978
 5962SOL    HW129519   0.941   2.992  11.385  1.4299 -0.8611  1.5202
 5962SOL    HW229520   0.843   2.887  11.421  0.2358 -0.5045  1.5164
 5963SOL     OW29521   2.729   2.638   8.549 -0.4779 -0.4808  0.0968
 5963SOL    HW129522   2.674   2.692   8.606 -1.0371  0.8294 -1.7194
 5963SOL    HW229523   2.745   2.565   8.609  1.1747 -0.9055 -0.8643
 5964SOL     OW29524   2.870   0.862   3.003 -0.1913  0.2843  0.0665
 5964SOL    HW129525   2.790   0.911   2.983  1.8737  2.0606 -3.8845
 5964SOL    HW229526   2.898   0.844   2.913  0.0645 -1.9837  0.5991
 5965SOL     OW29527   1.454   1.502   5.622 -0.9228 -0.1988 -0.0323
 5965SOL    HW129528   1.461   1.480   5.715 -1.2799 -1.3520 -0.2690
 5965SOL    HW229529   1.515   1.439   5.585 -0.0526 -0.7526  2.3426
 5966SOL     OW29530   0.951   0.980   8.242 -0.2621 -0.0073  0.4556
 5966SOL    HW129531   0.868   1.021   8.216 -0.2114  1.3507  2.4163
 5966SOL    HW229532   0.921   0.979   8.333  0.5705  2.2940  0.7521
 5967SOL     OW29533   1.910   3.564   7.384 -0.3117  0.4319  0.4954
 5967SOL    HW129534   1.824   3.522   7.380  0.1542 -0.5779  1.0596
 5967SOL    HW229535   1.927   3.539   7.475  3.1162 -2.0676 -0.8033
 5968SOL     OW29536   1.260   3.084   1.570 -0.1845  0.2282 -0.0012
 5968SOL    HW129537   1.253   3.093   1.665 -0.9683 -0.6998  0.0358
 5968SOL    HW229538   1.346   3.123   1.556 -0.4982  0.2435 -1.8318
 5969SOL     OW29539   1.095   2.926   9.957 -0.3472 -0.0189  0.1615
 5969SOL    HW129540   1.000   2.922   9.969 -0.5400  0.5974 -1.2231
 5969SOL    HW229541   1.119   2.834   9.956 -0.4594 -0.0181 -1.8870
 5970SOL     OW29542   1.911   4.538   3.799 -0.3063 -1.0316  0.6163
 5970SOL    HW129543   1.941   4.615   3.752 -0.7610 -0.6463  0.9552
 5970SOL    HW229544   1.993   4.514   3.842 -0.2451 -2.6158 -0.3732
 5971SOL     OW29545   1.487   0.007  14.811  0.1619 -0.0655  0.1818
 5971SOL    HW129546   1.536   4.733  14.730 -1.3696 -1.5128 -0.4971
 5971SOL    HW229547   1.494   0.102  14.821  0.8920 -0.3359  2.4444
 5972SOL     OW29548   2.138   1.733   2.704 -0.2717 -0.3738  0.3643
 5972SOL    HW129549   2.079   1.664   2.734 -2.6825  1.0784 -1.0644
 5972SOL    HW229550   2.077   1.796   2.667  0.0212 -0.7268 -0.7249
 5973SOL     OW29551   3.839   1.288   5.678  0.0476  0.6185  0.7195
 5973SOL    HW129552   3.768   1.227   5.661  1.6180 -0.8596 -0.4995
 5973SOL    HW229553   3.796   1.369   5.650  0.2637  1.2474  2.2115
 5974SOL     OW29554   3.851   4.027  15.472  0.1483  0.1409 -0.0988
 5974SOL    HW129555   3.900   4.021  15.554  1.2244 -0.4632 -0.7765
 5974SOL    HW229556   3.916   3.995  15.408 -1.3360 -0.8124 -1.1212
 5975SOL     OW29557   0.634   4.034   7.597  0.1212 -0.6444  0.3233
 5975SOL    HW129558   0.692   4.036   7.521  0.8889 -1.3460  0.8834
 5975SOL    HW229559   0.698   4.006   7.662 -1.2754 -1.2556  1.4421
 5976SOL     OW29560   1.655   2.816   9.730  0.1880 -0.5261  0.2787
 5976SOL    HW129561   1.702   2.838   9.810 -0.8336  1.6190  0.2941
 5976SOL    HW229562   1.722   2.763   9.685  0.5073  0.2720 -0.1928
 5977SOL     OW29563   1.049   4.396   7.659  0.3943 -0.0742  0.3901
 5977SOL    HW129564   1.038   4.491   7.650 -1.1982 -0.3624 -0.8841
 5977SOL    HW229565   0.997   4.380   7.737  0.0442  1.4606  0.4748
 5978SOL     OW29566   4.416   3.731   5.171 -0.0936  0.1914 -0.1801
 5978SOL    HW129567   4.401   3.650   5.220  0.8167 -0.6566 -1.3194
 5978SOL    HW229568   4.392   3.796   5.237 -0.2530 -2.4427  2.3589
 5979SOL     OW29569   1.197   3.507   3.182 -0.1914 -0.1034  0.0201
 5979SOL    HW129570   1.196   3.493   3.087 -0.5126  1.6923 -0.2411
 5979SOL    HW229571   1.272   3.564   3.197 -0.2270 -0.3600  1.1615
 5980SOL     OW29572   3.549   4.499   7.841  0.4596 -0.2169 -0.3867
 5980SOL    HW129573   3.501   4.477   7.921 -0.3254 -0.9167 -1.0489
 5980SOL    HW229574   3.538   4.594   7.840 -0.8177 -0.3501  0.3934
 5981SOL     OW29575   3.419   1.565   1.994 -0.3215 -0.3787  0.4023
 5981SOL    HW129576   3.360   1.637   2.016  0.6979  0.2655  1.0097
 5981SOL    HW229577   3.368   1.492   2.029 -1.0510 -0.3195 -0.5306
 5982SOL     OW29578   3.394   2.074   7.722  0.3322  0.0680  0.0123
 5982SOL    HW129579   3.476   2.025   7.714 -1.6556 -3.4440  0.9433
 5982SOL    HW229580   3.321   2.017   7.747  1.6687 -1.5731  0.1370
 5983SOL     OW29581   3.420   1.309   5.535  0.5350  0.2414  0.0221
 5983SOL    HW129582   3.430   1.275   5.624 -2.5101  1.3530  0.7770
 5983SOL    HW229583   3.329   1.281   5.528  1.1248 -1.2989 -1.6585
 5984SOL     OW29584   1.248   2.277   9.141 -0.2894 -0.0173  0.2775
 5984SOL    HW129585   1.163   2.242   9.115  0.0661  0.6714 -1.7753
 5984SOL    HW229586   1.313   2.261   9.073  0.3551 -0.4603  1.0003
 5985SOL     OW29587   4.026   2.944  13.347  0.1363 -0.1322 -0.5756
 5985SOL    HW129588   4.007   2.851  13.330  1.4301 -0.0223 -2.7114
 5985SOL    HW229589   4.075   2.963  13.267  0.3282 -0.2809 -0.4931
 5986SOL     OW29590   1.992   0.944   3.759 -0.2630 -0.2358  0.3872
 5986SOL    HW129591   1.950   1.026   3.731  1.5801  0.3232 -0.7636
 5986SOL    HW229592   2.018   0.974   3.845 -2.1512  2.7694 -0.0882
 5987SOL     OW29593   0.885   0.884   4.833  0.2357 -0.1255  0.6331
 5987SOL    HW129594   0.896   0.805   4.886  1.9000 -0.1807  0.2007
 5987SOL    HW229595   0.916   0.852   4.748 -0.3418 -1.0018  0.7555
 5988SOL     OW29596   3.250   0.543   2.848  0.4708  0.1067  0.4543
 5988SOL    HW129597   3.204   0.508   2.924 -0.8521  1.2837  0.2009
 5988SOL    HW229598   3.184   0.528   2.780 -0.7851  0.5078  1.5954
 5989SOL     OW29599   2.977   0.401   1.391  0.0131  0.0228 -0.0384
 5989SOL    HW129600   3.045   0.358   1.339 -0.8976  0.9108 -1.9644
 5989SOL    HW229601   2.993   0.368   1.480  0.1681  0.0378 -0.0608
 5990SOL     OW29602   0.634   3.089   1.955 -0.6975 -0.0532 -0.4257
 5990SOL    HW129603   0.660   3.058   1.868  0.1511 -0.9593  0.1473
 5990SOL    HW229604   0.599   3.177   1.942  0.3098  0.6346  1.4549
 5991SOL     OW29605   0.426   0.487   4.313 -0.3906  0.1123  0.0359
 5991SOL    HW129606   0.340   0.502   4.274 -0.9598 -1.1508  0.7954
 5991SOL    HW229607   0.433   0.562   4.372 -2.0282 -0.2281  0.6654
 5992SOL     OW29608   3.828   2.453   2.737  0.0046 -0.1910 -0.4691
 5992SOL    HW129609   3.801   2.544   2.732 -1.1496 -0.4173  1.6872
 5992SOL    HW229610   3.855   2.439   2.828  1.4099 -2.0855 -1.1538
 5993SOL     OW29611   3.518   2.220   4.294  0.7843 -0.0729 -0.0058
 5993SOL    HW129612   3.430   2.228   4.257  1.6871  0.4879 -1.9990
 5993SOL    HW229613   3.529   2.311   4.320 -2.6853 -0.1164  1.7134
 5994SOL     OW29614   0.826   0.127   4.748 -0.3576  0.2849  0.4492
 5994SOL    HW129615   0.766   0.140   4.821 -1.3363 -1.2879 -0.0653
 5994SOL    HW229616   0.878   0.053   4.780 -1.3278 -2.2114 -3.7180
 5995SOL     OW29617   2.956   0.239   3.855  0.6850 -0.2620 -0.0337
 5995SOL    HW129618   2.971   0.326   3.891  1.2165 -0.8505  1.1629
 5995SOL    HW229619   3.044   0.204   3.866  0.8462  0.7781  2.0504
 5996SOL     OW29620   0.081   1.599   4.109 -0.4981 -0.4159  0.4617
 5996SOL    HW129621   0.067   1.582   4.016  0.7885  0.7839  0.0378
 5996SOL    HW229622   4.729   1.626   4.127  0.4293  0.8571  3.3768
 5997SOL     OW29623   4.502   3.927   2.152 -0.4088  0.3614  0.2387
 5997SOL    HW129624   4.557   3.878   2.213 -0.5144  0.5758  0.5091
 5997SOL    HW229625   4.435   3.868   2.117 -1.2466  0.3107  1.9321
 5998SOL     OW29626   1.901   2.395   3.736  0.0897 -0.1938  0.0767
 5998SOL    HW129627   1.927   2.476   3.692 -2.5897 -0.0033 -1.1491
 5998SOL    HW229628   1.882   2.344   3.657  0.0962 -0.6683  0.3782
 5999SOL     OW29629   3.538   1.243  17.597  0.1802 -0.3756  0.5693
 5999SOL    HW129630   3.490   1.162  17.616 -1.8747  0.3921 -1.3994
 5999SOL    HW229631   3.547   1.230  17.503  1.3116 -0.5400  0.6986
 6000SOL     OW29632   0.223   1.396   4.649  0.6424  0.4590  0.6850
 6000SOL    HW129633   0.187   1.464   4.593 -0.6214 -0.9806 -0.2486
 6000SOL    HW229634   0.147   1.337   4.656  0.4770  0.3819 -1.9414
 6001SOL     OW29635   4.571   3.629   1.054  0.4285 -0.5364 -0.9813
 6001SOL    HW129636   4.619   3.609   0.973  0.6900  0.3164 -1.0312
 6001SOL    HW229637   4.481   3.605   1.032  0.0633  1.2122 -1.4216
 6002SOL     OW29638   2.957   4.334  15.673 -0.3947  0.2714  0.0095
 6002SOL    HW129639   3.039   4.298  15.706  0.6298  1.9473 -0.7240
 6002SOL    HW229640   2.903   4.350  15.750 -0.7638  0.3859 -0.2694
 6003SOL     OW29641   2.464   4.349   4.422  0.0752 -0.1163  0.1460
 6003SOL    HW129642   2.384   4.401   4.420  0.6741  0.7601 -0.5002
 6003SOL    HW229643   2.499   4.389   4.342 -1.4408  1.2578  0.1749
 6004SOL     OW29644   2.775   1.217   6.399 -0.8170  0.1020 -0.5484
 6004SOL    HW129645   2.819   1.170   6.470  0.6434 -1.5638 -2.5427
 6004SOL    HW229646   2.805   1.158   6.329  1.0161  0.4936 -0.0780
 6005SOL     OW29647   3.742   0.702   4.781  0.9534  0.2727 -0.0719
 6005SOL    HW129648   3.751   0.776   4.841  0.0620  2.1487 -2.2652
 6005SOL    HW229649   3.825   0.710   4.733  1.9972 -1.2194  1.4878
 6006SOL     OW29650   2.448   4.450  16.156  0.2080  0.0613  0.5027
 6006SOL    HW129651   2.468   4.442  16.063  1.7942 -0.0536  0.8605
 6006SOL    HW229652   2.513   4.514  16.184  0.4877 -0.9795  2.2745
 6007SOL     OW29653   0.271   1.820  16.395 -0.2883  0.1311 -0.6324
 6007SOL    HW129654   0.241   1.850  16.310 -0.6058 -0.2119 -0.6409
 6007SOL    HW229655   0.354   1.779  16.368 -0.2284  0.0278 -0.3058
 6008SOL     OW29656   2.902   3.307   2.866  0.2633  0.0980 -0.1082
 6008SOL    HW129657   2.857   3.350   2.793  2.3427  3.0040  0.3174
 6008SOL    HW229658   2.905   3.375   2.933 -1.2427 -0.3209  0.3857
 6009SOL     OW29659   4.612   4.670   9.379 -0.4145 -0.5448  0.2956
 6009SOL    HW129660   4.571   4.725   9.446 -3.8764 -3.3384  0.5179
 6009SOL    HW229661   4.569   4.587   9.400 -0.0222 -0.4548  1.4929
 6010SOL     OW29662   3.271   3.977   2.461  0.2958  0.1970  0.3761
 6010SOL    HW129663   3.289   4.034   2.536  1.6524  2.2467 -1.5136
 6010SOL    HW229664   3.203   4.019   2.409  0.6533 -0.6570 -0.7678
 6011SOL     OW29665   2.035   1.093   5.710 -0.4337  0.7505  0.3329
 6011SOL    HW129666   2.071   1.172   5.750 -0.6721  0.9225  0.1993
 6011SOL    HW229667   1.944   1.095   5.738 -0.4167 -0.6608  0.5264
 6012SOL     OW29668   1.861   3.356   0.480 -0.1891 -0.4786 -0.0549
 6012SOL    HW129669   1.907   3.343   0.563 -0.3210 -0.2587  0.0520
 6012SOL    HW229670   1.819   3.273   0.456 -1.1412 -0.1725  0.5593
 6013SOL     OW29671   2.450   0.721   3.350  0.3278  0.5221  0.5705
 6013SOL    HW129672   2.400   0.642   3.330  0.0751  0.5877  0.9460
 6013SOL    HW229673   2.540   0.708   3.320 -0.3908  0.6913 -1.6807
 6014SOL     OW29674   4.260   0.682   4.701 -0.2786  0.0451  0.0751
 6014SOL    HW129675   4.249   0.598   4.746 -1.7167  0.0252 -0.3383
 6014SOL    HW229676   4.348   0.709   4.728 -0.6538  0.9638  0.3449
 6015SOL     OW29677   0.265   3.646   0.717 -0.2582 -0.0044 -0.1079
 6015SOL    HW129678   0.286   3.737   0.694 -1.0820  0.0847 -0.5027
 6015SOL    HW229679   0.233   3.612   0.633  1.2103  0.7250 -0.9620
 6016SOL     OW29680   1.783   4.341   2.838 -0.2924  0.0471 -0.2267
 6016SOL    HW129681   1.717   4.315   2.773  0.1581 -0.3666 -0.5193
 6016SOL    HW229682   1.857   4.283   2.820  0.9124  1.1935  0.9850
 6017SOL     OW29683   1.106   0.450  10.136 -0.1442 -0.0628  0.2311
 6017SOL    HW129684   1.108   0.505  10.058  1.2434  0.7639  0.8465
 6017SOL    HW229685   1.085   0.512  10.206  0.2017  0.9489 -0.5546
 6018SOL     OW29686   1.794   4.624   1.577 -0.6330  0.1837 -0.0990
 6018SOL    HW129687   1.881   4.612   1.617 -1.8045 -0.3614  2.2981
 6018SOL    HW229688   1.752   4.682   1.641  0.0421  3.4887 -2.6453
 6019SOL     OW29689   0.067   1.645  10.462 -0.1348 -0.4257 -0.1526
 6019SOL    HW129690   4.736   1.594  10.503  0.5102 -1.0845  0.1215
 6019SOL    HW229691   0.015   1.721  10.438 -1.3290 -1.5837 -1.2240
 6020SOL     OW29692   3.646   3.902   5.048  0.1918 -0.3274  0.6058
 6020SOL    HW129693   3.589   3.955   4.993  0.6700 -0.1059  0.3175
 6020SOL    HW229694   3.602   3.819   5.066 -1.7229  0.8840  1.5445
 6021SOL     OW29695   2.547   1.179   5.961  0.5439  0.0675 -0.6402
 6021SOL    HW129696   2.492   1.105   5.934 -1.2707  0.7847  1.1264
 6021SOL    HW229697   2.568   1.212   5.874 -0.2130  0.4616 -0.6715
 6022SOL     OW29698   0.578   2.705   1.616 -0.0440  0.0305  0.5182
 6022SOL    HW129699   0.520   2.745   1.551 -0.4963 -2.1378 -0.4254
 6022SOL    HW229700   0.659   2.709   1.566  0.0901  0.1748  0.7455
 6023SOL     OW29701   1.965   0.622   1.092 -0.2382 -0.1782  0.1645
 6023SOL    HW129702   1.901   0.602   1.024 -1.5297 -2.9184  2.1843
 6023SOL    HW229703   1.925   0.591   1.173 -0.1829  0.5703  0.4780
 6024SOL     OW29704   4.510   2.967   8.215 -0.0899 -0.2058  0.5905
 6024SOL    HW129705   4.530   3.059   8.232  0.6592 -0.5304  1.4738
 6024SOL    HW229706   4.415   2.971   8.207 -0.1358  1.7651  2.1479
 6025SOL     OW29707   3.924   4.653   4.933 -0.1086 -0.3399 -0.0699
 6025SOL    HW129708   3.870   4.726   4.962  0.6271  1.2265 -2.7008
 6025SOL    HW229709   3.948   4.615   5.018 -0.0639 -0.5249 -0.1663
 6026SOL     OW29710   0.540   0.098   1.646  0.1716  0.0701  0.1334
 6026SOL    HW129711   0.559   0.009   1.677  0.2424  0.1461  0.3061
 6026SOL    HW229712   0.446   0.094   1.628  0.2634  1.0490 -0.5477
 6027SOL     OW29713   0.250   4.602   6.943  0.2166 -0.6892 -0.0347
 6027SOL    HW129714   0.243   4.536   6.874  1.1555 -0.1015 -0.6943
 6027SOL    HW229715   0.257   4.672   6.877  1.8895 -0.4057  0.4345
 6028SOL     OW29716   0.465   1.761  12.256 -0.2998 -0.0095 -0.4961
 6028SOL    HW129717   0.454   1.831  12.191 -0.6307 -1.8738 -2.4417
 6028SOL    HW229718   0.496   1.809  12.333  0.2590 -1.2305  0.0474
 6029SOL     OW29719   0.774   1.107   7.363 -0.0008  0.4820  0.2139
 6029SOL    HW129720   0.838   1.167   7.402  1.4950 -0.5698 -0.6287
 6029SOL    HW229721   0.784   1.033   7.423 -0.9092 -0.3992 -0.7175
 6030SOL     OW29722   2.664   3.733  11.777 -0.3298  0.0244  0.2445
 6030SOL    HW129723   2.669   3.803  11.843  2.5403 -0.7050  0.7755
 6030SOL    HW229724   2.679   3.656  11.831 -1.2794  0.0460  0.5570
 6031SOL     OW29725   3.413   0.922   2.235  0.5799  0.2042 -0.5751
 6031SOL    HW129726   3.393   0.848   2.292 -0.5402  0.9357 -0.0088
 6031SOL    HW229727   3.471   0.875   2.175 -0.2435  0.4482 -1.5703
 6032SOL     OW29728   0.519   3.861  11.842 -0.5332  0.2384 -0.0609
 6032SOL    HW129729   0.545   3.952  11.849  0.6434 -0.1886  1.2096
 6032SOL    HW229730   0.588   3.817  11.793  0.9036  0.5090  1.7037
 6033SOL     OW29731   0.272   1.242   2.632 -0.3370  0.3338  0.5009
 6033SOL    HW129732   0.359   1.232   2.671  0.0070 -2.4151 -0.9621
 6033SOL    HW229733   0.299   1.216   2.543 -1.1922  2.3308 -0.3355
 6034SOL     OW29734   0.482   1.021   7.373  0.7489 -0.5701  0.0545
 6034SOL    HW129735   0.568   1.045   7.340  0.1180  0.9162 -0.5465
 6034SOL    HW229736   0.430   1.079   7.317  0.0745 -1.7761 -0.5683
 6035SOL     OW29737   0.740   3.636   1.819 -0.2125 -0.1818  0.1733
 6035SOL    HW129738   0.695   3.562   1.859  0.4146 -0.3078  0.6498
 6035SOL    HW229739   0.685   3.706   1.852  0.3989  1.0258 -1.3689
 6036SOL     OW29740   3.875   4.565   1.015  0.4218 -0.2124  0.4935
 6036SOL    HW129741   3.803   4.508   0.987 -1.0085  2.5041 -1.2876
 6036SOL    HW229742   3.937   4.506   1.060  2.2478  1.5801  0.3307
 6037SOL     OW29743   3.061   2.443   1.624 -0.4129  0.4076  0.2016
 6037SOL    HW129744   3.056   2.461   1.530  0.2158  0.9369  0.2740
 6037SOL    HW229745   2.970   2.455   1.651 -0.6358 -0.4129 -0.1908
 6038SOL     OW29746   0.170   3.602   7.962  0.0894 -0.4218 -0.3381
 6038SOL    HW129747   0.152   3.648   8.044 -0.4066  1.1037 -1.3001
 6038SOL    HW229748   0.204   3.673   7.906 -3.7344  1.6278 -0.0797
 6039SOL     OW29749   3.053   4.156   3.913 -0.1293  0.4268  0.4978
 6039SOL    HW129750   3.098   4.232   3.951  0.5686  0.8704 -1.2237
 6039SOL    HW229751   3.135   4.119   3.880 -0.2649  0.1655  0.4555
 6040SOL     OW29752   4.006   4.495   6.040  0.4811 -0.1685 -0.2297
 6040SOL    HW129753   4.070   4.431   6.007 -1.4804 -1.7549 -0.9668
 6040SOL    HW229754   3.937   4.440   6.078  0.5754 -0.6126 -0.6901
 6041SOL     OW29755   2.684   1.615   9.597  0.3265 -0.3907  0.4603
 6041SOL    HW129756   2.625   1.672   9.549 -0.0938 -1.4406 -0.2594
 6041SOL    HW229757   2.624   1.579   9.662 -1.2527 -2.4758 -2.1959
 6042SOL     OW29758   2.289   4.567   7.339  0.0428 -0.4439 -0.6028
 6042SOL    HW129759   2.218   4.625   7.312  0.9690  0.2022 -1.6756
 6042SOL    HW229760   2.250   4.537   7.421  0.0472 -0.9583 -0.7847
 6043SOL     OW29761   1.576   1.320   3.385  0.1406  0.2475 -0.1724
 6043SOL    HW129762   1.621   1.403   3.402 -1.3036  0.7098  1.3526
 6043SOL    HW229763   1.511   1.344   3.318  0.4619 -0.2385 -0.6601
 6044SOL     OW29764   3.109   2.497  10.890 -0.0314  0.4220  0.0011
 6044SOL    HW129765   3.098   2.522  10.982  0.7687 -1.3530  0.5671
 6044SOL    HW229766   3.196   2.458  10.891  0.3154  1.1778 -1.9697
 6045SOL     OW29767   3.925   3.623  16.643 -0.1104 -0.0055  0.6484
 6045SOL    HW129768   3.998   3.684  16.655  0.6073 -0.4214 -1.5806
 6045SOL    HW229769   3.930   3.593  16.552  0.2291 -2.6527  1.5186
 6046SOL     OW29770   0.109   2.930   8.156 -0.2906  0.0494 -0.2125
 6046SOL    HW129771   0.161   2.893   8.228 -0.1863  0.0584 -0.2831
 6046SOL    HW229772   0.048   2.976   8.214 -1.2568  1.6825 -2.5181
 6047SOL     OW29773   1.827   3.530   2.806  0.0692  0.1976  0.2256
 6047SOL    HW129774   1.886   3.467   2.765  0.2188  1.2448 -1.1678
 6047SOL    HW229775   1.858   3.540   2.896 -0.4187 -1.7973  0.6175
 6048SOL     OW29776   1.412   1.601   5.925  0.4928  0.9470  0.1830
 6048SOL    HW129777   1.417   1.675   5.865 -0.3464  0.9723  0.1492
 6048SOL    HW229778   1.323   1.579   5.900  0.2375 -0.2786  2.1756
 6049SOL     OW29779   0.956   1.417  17.104  0.1638  0.0026 -0.1817
 6049SOL    HW129780   0.959   1.333  17.060  0.5171  0.8159 -1.7180
 6049SOL    HW229781   1.025   1.455  17.049  0.0063 -0.1426 -0.4777
 6050SOL     OW29782   0.443   2.406   2.905 -0.3178 -0.5015 -0.3072
 6050SOL    HW129783   0.442   2.392   2.811  1.9110  0.7596 -0.5020
 6050SOL    HW229784   0.356   2.375   2.932 -0.3244  1.2969  1.7503
 6051SOL     OW29785   0.474   3.325   4.423  0.5983 -0.7363  0.1216
 6051SOL    HW129786   0.495   3.256   4.360 -1.6754  0.0210 -1.5006
 6051SOL    HW229787   0.447   3.270   4.496 -3.3262 -0.8340 -1.3646
 6052SOL     OW29788   3.725   0.153   2.106 -0.2814  0.8313  0.5677
 6052SOL    HW129789   3.816   0.170   2.132  0.6354 -0.8970 -1.4426
 6052SOL    HW229790   3.710   0.229   2.050  0.1798  0.3304 -0.2467
 6053SOL     OW29791   0.628   0.618   1.038  0.0631 -0.3266 -0.3657
 6053SOL    HW129792   0.657   0.695   0.989 -0.2236 -0.3528 -0.5754
 6053SOL    HW229793   0.602   0.569   0.960 -0.4461  0.1984 -0.5271
 6054SOL     OW29794   1.793   4.268   4.655  0.0991 -0.1556 -0.2347
 6054SOL    HW129795   1.800   4.358   4.686  1.0653  0.1687 -1.4178
 6054SOL    HW229796   1.769   4.282   4.564  1.8939  0.6157 -0.5887
 6055SOL     OW29797   1.173   3.189   1.336  0.2331  0.0747  0.6916
 6055SOL    HW129798   1.086   3.184   1.374 -0.3080 -0.3344 -0.6351
 6055SOL    HW229799   1.220   3.155   1.413 -0.0984  1.5631  1.5425
 6056SOL     OW29800   0.860   1.135   6.762  0.0512  0.6359 -0.4399
 6056SOL    HW129801   0.826   1.059   6.716 -2.1852  2.8350 -2.3874
 6056SOL    HW229802   0.880   1.198   6.693  0.5268  0.8199 -0.1336
 6057SOL     OW29803   0.165   4.472  15.029 -0.2225 -0.2469 -0.0954
 6057SOL    HW129804   0.191   4.384  15.000 -2.2954 -0.7816 -0.3388
 6057SOL    HW229805   0.216   4.485  15.108 -1.2582  0.9461  0.3837
 6058SOL     OW29806   2.853   1.950  17.137  0.4435 -0.2391  0.5685
 6058SOL    HW129807   2.814   1.959  17.224  1.8751 -0.7416  1.2709
 6058SOL    HW229808   2.784   1.986  17.082  0.3014  0.1155  0.9809
 6059SOL     OW29809   3.479   4.308   2.620  0.3431 -0.2652 -0.0662
 6059SOL    HW129810   3.562   4.309   2.574 -0.0466 -0.3814 -0.7622
 6059SOL    HW229811   3.489   4.238   2.684 -0.0788 -0.6555 -0.4317
 6060SOL     OW29812   4.419   0.271   0.312 -0.0062 -0.1093  0.1399
 6060SOL    HW129813   4.470   0.253   0.391 -2.1495  2.2438  2.0511
 6060SOL    HW229814   4.345   0.304   0.363 -1.2006  1.4143 -2.5865
 6061SOL     OW29815   4.388   4.020   8.767 -0.5524  0.3608 -0.2422
 6061SOL    HW129816   4.436   4.068   8.700 -0.2834 -0.7340 -0.8370
 6061SOL    HW229817   4.386   4.086   8.836  1.1504  0.1238  0.0394
 6062SOL     OW29818   1.253   0.610  13.886  0.2547 -0.0897 -0.1125
 6062SOL    HW129819   1.163   0.639  13.904  0.3509 -0.1823  0.5065
 6062SOL    HW229820   1.278   0.676  13.821 -1.7524  0.0820 -0.7297
 6063SOL     OW29821   0.259   1.240   4.960 -0.0410  0.4182  0.5707
 6063SOL    HW129822   0.334   1.249   4.901  0.9989  1.2038  2.0116
 6063SOL    HW229823   0.213   1.157   4.952  0.4395  0.1719  0.4035
 6064SOL     OW29824   1.246   2.139  13.275  0.1640  0.2811 -0.1561
 6064SOL    HW129825   1.201   2.162  13.356  0.6384 -1.0514  0.4914
 6064SOL    HW229826   1.228   2.045  13.269  1.0485  0.0458  0.9378
 6065SOL     OW29827   1.098   3.271   1.080  0.1280 -0.1923  0.3305
 6065SOL    HW129828   1.079   3.225   1.162  2.4657 -0.1867  0.8944
 6065SOL    HW229829   1.084   3.363   1.103  2.5480  0.8805 -2.5134
 6066SOL     OW29830   2.844   3.221   7.747 -0.1101 -0.4736 -0.0468
 6066SOL    HW129831   2.853   3.129   7.722 -0.7991 -0.9411  1.4090
 6066SOL    HW229832   2.762   3.204   7.792  0.9856  2.8590  3.2432
 6067SOL     OW29833   1.074   2.045   6.688  0.0839  0.1764  0.4109
 6067SOL    HW129834   1.093   2.074   6.777  0.1803  1.0842  0.0927
 6067SOL    HW229835   1.091   1.951   6.701 -2.1592 -0.2321  0.4198
 6068SOL     OW29836   0.443   4.581   6.036 -0.2361 -0.2886  0.2945
 6068SOL    HW129837   0.539   4.585   6.036 -0.3044  1.1292 -0.1743
 6068SOL    HW229838   0.426   4.486   6.041  0.5961 -0.3409  1.9981
 6069SOL     OW29839   3.528   0.049   6.225  0.0814 -0.0634  0.1080
 6069SOL    HW129840   3.518   0.102   6.304  0.4466 -0.9715  0.7603
 6069SOL    HW229841   3.440   0.017   6.203  0.5640 -0.4234 -1.2877
 6070SOL     OW29842   3.623   0.190   4.119  0.5947  0.5634 -0.4284
 6070SOL    HW129843   3.576   0.114   4.085  2.7247 -0.5853 -0.7929
 6070SOL    HW229844   3.656   0.164   4.204 -0.0637 -0.6269 -0.5391
 6071SOL     OW29845   0.890   4.434   7.407  0.7020 -0.6601  0.0739
 6071SOL    HW129846   0.946   4.414   7.482  2.1390 -1.3859 -1.1902
 6071SOL    HW229847   0.925   4.515   7.370 -0.7796 -0.1693 -0.2522
 6072SOL     OW29848   3.802   2.209   5.630  0.2010 -0.2509 -0.7725
 6072SOL    HW129849   3.733   2.216   5.695  0.9373 -1.5939  0.1517
 6072SOL    HW229850   3.866   2.154   5.676  1.1343  0.7779 -0.8226
 6073SOL     OW29851   2.717   0.060   7.477  0.2679 -0.3011  0.0707
 6073SOL    HW129852   2.647   0.051   7.412  0.0264  1.1877  0.1162
 6073SOL    HW229853   2.692   0.147   7.509  1.2821  0.8254 -2.1374
 6074SOL     OW29854   3.342   1.381  12.723 -0.1801 -0.1137  0.5246
 6074SOL    HW129855   3.426   1.344  12.750 -0.4355 -0.6961  0.5311
 6074SOL    HW229856   3.303   1.392  12.810 -0.1451  0.0908  0.5152
 6075SOL     OW29857   1.449   3.153   3.506  0.1965 -0.3360 -0.2653
 6075SOL    HW129858   1.464   3.246   3.525 -1.8022 -0.0388 -0.1852
 6075SOL    HW229859   1.493   3.138   3.423 -2.2814 -1.7775 -1.3118
 6076SOL     OW29860   3.118   1.058  11.904  0.4788  0.0677  0.4702
 6076SOL    HW129861   3.167   1.063  11.822 -0.0865  0.8095  0.1804
 6076SOL    HW229862   3.104   0.964  11.916  0.1817 -0.1563 -1.5585
 6077SOL     OW29863   4.163   0.139   3.348  0.0597 -0.1311 -0.1551
 6077SOL    HW129864   4.076   0.136   3.387  0.0945  1.3132  0.0493
 6077SOL    HW229865   4.207   0.200   3.407 -0.7969  0.5413 -0.2048
 6078SOL     OW29866   2.174   1.703   7.564 -0.1399  0.3311 -0.0715
 6078SOL    HW129867   2.174   1.632   7.501 -1.2753 -0.1421  0.4551
 6078SOL    HW229868   2.239   1.676   7.628  1.7776  0.9672 -1.7285
 6079SOL     OW29869   0.977   1.402   5.156  0.0911  0.1411  0.0200
 6079SOL    HW129870   1.066   1.380   5.183  1.0017  0.4691 -2.6924
 6079SOL    HW229871   0.977   1.497   5.168 -1.8881  0.0017  1.0163
 6080SOL     OW29872   1.832   1.217  16.781 -0.2135 -0.0640 -0.2098
 6080SOL    HW129873   1.794   1.266  16.853 -1.9500 -1.2691 -0.3195
 6080SOL    HW229874   1.772   1.250  16.713  1.1089 -0.7154 -1.7067
 6081SOL     OW29875   0.164   2.183  16.674 -0.1614 -0.5218 -0.3040
 6081SOL    HW129876   0.186   2.091  16.657  0.7910 -0.5472  1.0815
 6081SOL    HW229877   0.103   2.198  16.602 -1.3128  0.2897  0.8413
 6082SOL     OW29878   4.164   2.137   5.624 -0.1988  0.2559  0.1054
 6082SOL    HW129879   4.233   2.131   5.558  1.1226  0.2296  1.4882
 6082SOL    HW229880   4.205   2.090   5.697 -0.9014  0.2687  0.5074
 6083SOL     OW29881   3.222   3.422   5.559  0.1818  0.1564  0.0119
 6083SOL    HW129882   3.260   3.454   5.478 -2.0875  1.8033 -0.3665
 6083SOL    HW229883   3.173   3.495   5.596  0.4775  0.6671 -0.6237
 6084SOL     OW29884   0.678   4.386   4.190  0.2572  0.4892 -0.6071
 6084SOL    HW129885   0.763   4.341   4.196 -0.4715 -0.5063  2.0454
 6084SOL    HW229886   0.705   4.475   4.211  0.4301  0.4530 -0.6706
 6085SOL     OW29887   0.960   2.411   7.829  0.4586 -0.0257  0.0239
 6085SOL    HW129888   1.028   2.353   7.863 -0.9067 -0.2371  2.4100
 6085SOL    HW229889   0.962   2.380   7.739 -3.2492 -1.3617  0.3779
 6086SOL     OW29890   1.461   1.759   8.933 -0.2874 -0.6998 -0.2952
 6086SOL    HW129891   1.398   1.799   8.992 -0.6477 -2.8430  0.7633
 6086SOL    HW229892   1.511   1.835   8.902  2.6989 -3.3320 -1.9256
 6087SOL     OW29893   3.103   2.738  12.173  0.1321  0.7942  0.7614
 6087SOL    HW129894   3.141   2.742  12.085 -0.3103 -0.7384  0.5075
 6087SOL    HW229895   3.132   2.653  12.205 -0.4697  0.3502  0.1557
 6088SOL     OW29896   2.037   4.488   6.676 -0.4079  0.2407  0.2714
 6088SOL    HW129897   2.026   4.448   6.762 -0.1791  2.6159  1.4018
 6088SOL    HW229898   2.051   4.413   6.618  0.6835  0.8799 -0.2786
 6089SOL     OW29899   0.937   1.977   2.069  0.2575  0.0232 -0.6453
 6089SOL    HW129900   0.990   2.056   2.079  1.4504 -0.8630 -0.0454
 6089SOL    HW229901   0.912   1.967   2.161  1.3793 -0.5701 -0.4043
 6090SOL     OW29902   3.715   1.493   8.142 -0.0230 -0.1997 -0.2297
 6090SOL    HW129903   3.627   1.517   8.169  1.5380  1.6033  3.1851
 6090SOL    HW229904   3.712   1.518   8.049  0.6441 -0.0942 -0.2290
 6091SOL     OW29905   0.101   2.200   8.045 -0.0286 -0.1757 -0.4664
 6091SOL    HW129906   0.117   2.268   7.980 -2.7202 -1.2084 -2.1734
 6091SOL    HW229907   0.148   2.246   8.115  0.1250  0.2266 -0.8364
 6092SOL     OW29908   0.593   4.567   9.646 -0.7151 -0.6311 -0.1827
 6092SOL    HW129909   0.642   4.572   9.728  1.8055  1.9942 -1.8635
 6092SOL    HW229910   0.518   4.515   9.675 -3.6009  2.7884 -1.5445
 6093SOL     OW29911   3.591   0.775   9.630  0.0706 -0.1271  0.0958
 6093SOL    HW129912   3.539   0.767   9.710  0.1008  2.1017  0.3352
 6093SOL    HW229913   3.608   0.869   9.629 -0.6330 -0.0272 -1.7245
 6094SOL     OW29914   4.037   1.506   0.314  0.4751 -0.0372  0.0942
 6094SOL    HW129915   4.030   1.481   0.406  0.3615 -3.1986 -0.7684
 6094SOL    HW229916   4.113   1.564   0.311  1.9218 -1.8916  0.6000
 6095SOL     OW29917   2.106   3.380  13.592  0.3003 -0.8061  0.0140
 6095SOL    HW129918   2.201   3.387  13.583  0.2338  0.9308  0.7220
 6095SOL    HW229919   2.080   3.306  13.646 -0.7627 -1.4192 -1.3088
 6096SOL     OW29920   3.027   2.811   3.143  0.4738 -0.2658  0.4183
 6096SOL    HW129921   2.994   2.801   3.232 -1.3558  0.2620 -0.2015
 6096SOL    HW229922   2.962   2.865   3.098  0.2001  0.4705  1.7007
 6097SOL     OW29923   3.084   2.720  10.704 -0.2993  0.3991  0.3861
 6097SOL    HW129924   3.075   2.647  10.764  1.0053 -0.1439 -0.0651
 6097SOL    HW229925   3.179   2.713  10.694 -0.2880  0.8906  0.1122
 6098SOL     OW29926   0.200   0.279   5.767  0.6141  0.4612  0.0564
 6098SOL    HW129927   0.291   0.307   5.782  0.9624 -1.2347  1.1611
 6098SOL    HW229928   0.146   0.357   5.775 -1.1602 -0.7970  0.4610
 6099SOL     OW29929   4.234   3.341  12.436  0.2158  0.9311 -0.2738
 6099SOL    HW129930   4.254   3.254  12.469 -2.2924 -0.1976 -1.7205
 6099SOL    HW229931   4.288   3.347  12.357  2.0762  4.2247  1.2564
 6100SOL     OW29932   4.515   3.951   6.358  0.4967  0.2873 -0.4110
 6100SOL    HW129933   4.605   3.982   6.346  0.7287 -0.7064 -1.2808
 6100SOL    HW229934   4.474   4.034   6.382 -2.4610 -1.3082 -0.0532
 6101SOL     OW29935   2.657   1.162   4.368 -0.0539  0.1115  0.3356
 6101SOL    HW129936   2.665   1.241   4.315 -0.4149 -0.6370 -0.8252
 6101SOL    HW229937   2.744   1.151   4.406 -0.2866 -0.3133  0.7580
 6102SOL     OW29938   0.239   2.869   7.849 -0.2438  0.4618 -0.8257
 6102SOL    HW129939   0.168   2.929   7.874  0.2464  0.8540 -0.3910
 6102SOL    HW229940   0.210   2.864   7.757 -0.2348 -0.6211 -0.7737
 6103SOL     OW29941   4.331   2.576   4.558 -0.9335  0.9148  0.0410
 6103SOL    HW129942   4.412   2.613   4.591 -0.7030 -0.9389  1.5623
 6103SOL    HW229943   4.288   2.560   4.642 -0.3766  2.5671  0.6318
 6104SOL     OW29944   4.705   3.405   5.269 -0.0585 -0.6879 -0.0716
 6104SOL    HW129945   4.628   3.353   5.290 -0.1906  0.8884  3.4532
 6104SOL    HW229946   4.696   3.470   5.340 -2.8962  0.9847 -1.9650
 6105SOL     OW29947   0.074   2.383   8.543 -0.7484  0.5484  0.1327
 6105SOL    HW129948   0.029   2.463   8.572 -1.9036  0.3373 -1.0972
 6105SOL    HW229949   0.100   2.338   8.623  1.2616  1.5817  0.0466
 6106SOL     OW29950   1.926   3.462   5.309 -0.3216 -0.5767  0.3889
 6106SOL    HW129951   2.012   3.425   5.287 -0.5465 -0.8940  0.0445
 6106SOL    HW229952   1.887   3.497   5.229  1.8014  1.4355  0.2314
 6107SOL     OW29953   0.652   1.393   5.396  0.0396  0.2802 -0.2786
 6107SOL    HW129954   0.648   1.414   5.490 -1.8675  1.3790 -0.5978
 6107SOL    HW229955   0.627   1.301   5.388 -0.1578  0.4285 -1.3652
 6108SOL     OW29956   3.632   2.102  15.052  0.3323 -0.1106  0.7652
 6108SOL    HW129957   3.608   2.088  14.960 -0.2776 -0.3069  0.9488
 6108SOL    HW229958   3.713   2.052  15.050 -0.0297 -0.7059  1.0697
 6109SOL     OW29959   4.394   2.516   8.893 -0.5920  0.3242 -0.3539
 6109SOL    HW129960   4.416   2.467   8.972 -1.5286 -2.0168 -1.5475
 6109SOL    HW229961   4.329   2.462   8.848  0.7601 -2.4501  1.0119
 6110SOL     OW29962   3.641   0.184   5.982 -0.3578 -0.7431 -0.4444
 6110SOL    HW129963   3.721   0.131   5.974 -1.2647 -2.0051 -1.1718
 6110SOL    HW229964   3.621   0.156   6.071 -0.1972  2.1580  0.4860
 6111SOL     OW29965   3.370   0.192   2.720 -0.4652  0.5914 -0.1884
 6111SOL    HW129966   3.338   0.224   2.635 -3.2135 -1.6740  0.0166
 6111SOL    HW229967   3.416   0.270   2.751  1.2391 -0.3893 -0.2509
 6112SOL     OW29968   4.461   1.211  11.134  0.5321  0.1563 -0.2836
 6112SOL    HW129969   4.390   1.150  11.156  0.1513  0.5028 -0.5559
 6112SOL    HW229970   4.520   1.199  11.208 -1.1864 -0.3986  0.9864
 6113SOL     OW29971   3.849   2.073   4.988 -0.3360 -0.2304 -0.3953
 6113SOL    HW129972   3.822   2.012   4.919  0.9018 -1.2874  0.0738
 6113SOL    HW229973   3.803   2.027   5.059 -2.4794  2.0313 -0.3009
 6114SOL     OW29974   3.828   3.653  17.134  0.1544  0.2481 -0.1186
 6114SOL    HW129975   3.763   3.583  17.130  1.1198 -0.6257 -0.5656
 6114SOL    HW229976   3.829   3.683  17.044  3.3376 -0.0851 -0.1937
 6115SOL     OW29977   4.152   2.928   9.575  0.4601  0.4702 -0.1870
 6115SOL    HW129978   4.134   2.981   9.653  1.4896  0.7915 -0.1669
 6115SOL    HW229979   4.070   2.922   9.526  0.1302 -1.5118  0.6063
 6116SOL     OW29980   4.354   1.555  10.244  0.0863 -0.4640 -0.1851
 6116SOL    HW129981   4.351   1.614  10.169 -1.3613 -1.2913 -0.7484
 6116SOL    HW229982   4.413   1.492  10.203 -1.0924 -0.3730 -1.9961
 6117SOL     OW29983   2.158   3.979   5.167 -0.1896  0.3488  0.4689
 6117SOL    HW129984   2.202   4.010   5.245 -0.1216  0.4762  0.3800
 6117SOL    HW229985   2.066   3.975   5.191 -0.2512  1.5990  0.3985
 6118SOL     OW29986   4.512   4.407   0.298  0.5016 -0.5806 -0.1234
 6118SOL    HW129987   4.502   4.382   0.390 -1.3108 -1.3918 -0.5440
 6118SOL    HW229988   4.432   4.372   0.259  1.0500 -0.0570 -1.7331
 6119SOL     OW29989   2.690   1.841   4.733 -0.5275 -0.4420 -0.1704
 6119SOL    HW129990   2.686   1.930   4.768  0.3197 -0.5330  0.1579
 6119SOL    HW229991   2.632   1.794   4.793 -2.2647 -1.6566 -2.8061
 6120SOL     OW29992   1.024   0.446   5.236 -0.2338  0.1240 -0.0106
 6120SOL    HW129993   1.037   0.359   5.199  1.3401  0.2379  0.2572
 6120SOL    HW229994   1.083   0.496   5.179 -1.5235  2.5106  0.7418
 6121SOL     OW29995   1.513   0.401   7.989 -0.0422 -0.1191 -0.2340
 6121SOL    HW129996   1.541   0.311   7.975  0.0639  0.2292 -2.3607
 6121SOL    HW229997   1.435   0.382   8.040  0.7009 -2.2539  0.1190
 6122SOL     OW29998   0.474   3.953   4.576  0.3480 -0.3681  0.2538
 6122SOL    HW129999   0.409   3.944   4.647  0.2220  0.7588  0.2851
 6122SOL    HW230000   0.511   3.865   4.580  1.2327  0.0981  2.2360
 6123SOL     OW30001   1.472   0.853   6.585  0.3327 -0.5449 -1.2917
 6123SOL    HW130002   1.477   0.892   6.498 -0.6639 -0.1370 -1.1697
 6123SOL    HW230003   1.526   0.774   6.588  1.1323  0.0298 -0.6091
 6124SOL     OW30004   0.904   4.670   0.402  0.2042  0.5849  0.8716
 6124SOL    HW130005   0.902   4.599   0.337  1.2737  2.5776 -1.3312
 6124SOL    HW230006   0.980   4.640   0.453  0.0341  0.9803  1.3550
 6125SOL     OW30007   0.745   1.600  14.325  0.1645  0.2164 -0.2365
 6125SOL    HW130008   0.832   1.562  14.332 -1.4530 -3.7837 -1.7738
 6125SOL    HW230009   0.738   1.660  14.251  0.5072 -0.7879 -1.0758
 6126SOL     OW30010   0.412   1.695  15.941 -0.3398  0.0172 -0.3928
 6126SOL    HW130011   0.335   1.653  15.904  0.5431 -0.6055 -1.5096
 6126SOL    HW230012   0.451   1.620  15.985 -2.0052 -0.3642  0.4373
 6127SOL     OW30013   2.795   1.940  10.270 -0.2868  0.1150  0.0391
 6127SOL    HW130014   2.889   1.948  10.251 -0.2690  0.0705  0.1080
 6127SOL    HW230015   2.778   2.034  10.271 -0.1182  0.1431  0.3149
 6128SOL     OW30016   4.052   0.044   7.135  0.6091  0.0398  0.0672
 6128SOL    HW130017   4.014   0.008   7.215 -0.2715  3.4908  1.2051
 6128SOL    HW230018   4.017   4.720   7.071 -0.5094  0.9021 -0.1688
 6129SOL     OW30019   0.377   2.492   8.269  0.3466  0.3290 -0.2220
 6129SOL    HW130020   0.396   2.481   8.176  3.3565  0.2341  0.3796
 6129SOL    HW230021   0.329   2.413   8.290 -1.2796  1.4046  0.0869
 6130SOL     OW30022   4.008   1.746  16.427  0.0627  0.1400  0.2657
 6130SOL    HW130023   4.063   1.768  16.502  0.8373  0.0561 -0.2802
 6130SOL    HW230024   4.021   1.817  16.363  1.3036 -0.7542 -0.4551
 6131SOL     OW30025   3.216   0.986  16.107  0.0285  0.3147 -0.5359
 6131SOL    HW130026   3.186   0.895  16.108  0.7976  0.0688  1.1971
 6131SOL    HW230027   3.257   0.998  16.193  1.1188 -1.4731 -0.8033
 6132SOL     OW30028   4.129   3.013   4.311  0.2666 -0.3838  0.0215
 6132SOL    HW130029   4.153   2.931   4.353 -0.0193  0.5469  1.9930
 6132SOL    HW230030   4.191   3.074   4.351 -2.3266  2.0450  0.4230
 6133SOL     OW30031   3.101   2.526  13.482 -0.0402 -0.0152  0.3445
 6133SOL    HW130032   3.150   2.546  13.561  0.2758 -0.4134  0.2526
 6133SOL    HW230033   3.118   2.607  13.435 -0.5956 -0.2647 -0.2889
 6134SOL     OW30034   4.287   0.506   6.880 -0.5400  0.1494 -0.3722
 6134SOL    HW130035   4.264   0.413   6.871  0.5165 -0.1764  0.3108
 6134SOL    HW230036   4.265   0.524   6.972  2.3741 -0.6170  0.4633
 6135SOL     OW30037   1.300   1.890   7.586 -0.1960 -0.1357  0.5192
 6135SOL    HW130038   1.384   1.877   7.629  0.2885  0.7875 -0.1773
 6135SOL    HW230039   1.339   1.907   7.501 -0.1413  1.7977  0.9475
 6136SOL     OW30040   4.411   4.450   8.600 -0.1195  0.1822  0.4648
 6136SOL    HW130041   4.338   4.434   8.660 -1.6602  0.5570 -1.2848
 6136SOL    HW230042   4.481   4.438   8.663  0.4055  1.4539  0.1177
 6137SOL     OW30043   1.715   3.686   7.952  0.0550  0.4965  0.2195
 6137SOL    HW130044   1.690   3.729   7.870  2.0814 -0.3225 -0.7974
 6137SOL    HW230045   1.648   3.618   7.947 -0.0661  0.7484 -1.4097
 6138SOL     OW30046   4.041   4.704   3.666 -0.1978 -0.1448 -0.2609
 6138SOL    HW130047   4.113   4.723   3.726 -1.9931  0.5236  1.6759
 6138SOL    HW230048   3.973   4.690   3.732  2.1610 -1.3663  1.8946
 6139SOL     OW30049   2.877   0.427   8.687 -0.0549  0.4684 -0.0319
 6139SOL    HW130050   2.902   0.505   8.736  1.1666  0.4173 -0.5599
 6139SOL    HW230051   2.813   0.391   8.748 -0.3952  0.7764 -0.2139
 6140SOL     OW30052   1.829   0.757  11.066 -0.0247 -0.4867  0.2737
 6140SOL    HW130053   1.882   0.829  11.100  1.1319 -1.4886  0.5819
 6140SOL    HW230054   1.828   0.699  11.142  1.7604 -1.0720 -0.1577
 6141SOL     OW30055   1.516   3.064   8.181 -0.0077  0.2395 -0.0072
 6141SOL    HW130056   1.491   3.112   8.101 -0.3396 -0.0223 -0.0610
 6141SOL    HW230057   1.449   3.108   8.234  0.1704  1.1959 -0.5566
 6142SOL     OW30058   4.689   2.512   5.584 -0.0503 -0.8262  0.0857
 6142SOL    HW130059   0.014   2.483   5.650  0.8462  0.2058 -0.3300
 6142SOL    HW230060   4.612   2.474   5.625 -1.9818  2.9023 -0.1117
 6143SOL     OW30061   3.397   0.108   7.993  0.6163  0.6101 -0.4869
 6143SOL    HW130062   3.403   0.201   8.012  1.9719  0.8218 -1.9685
 6143SOL    HW230063   3.424   0.084   8.082  0.0957 -1.9646 -1.0107
 6144SOL     OW30064   3.137   1.315  13.740 -0.3599  0.3686 -0.3338
 6144SOL    HW130065   3.229   1.309  13.767 -0.9435  1.5730  1.8559
 6144SOL    HW230066   3.101   1.379  13.801  0.9985 -0.0250  0.8954
 6145SOL     OW30067   3.483   2.338   5.765 -0.0608 -0.0206  0.0599
 6145SOL    HW130068   3.523   2.396   5.701 -3.5025 -0.2204 -2.2692
 6145SOL    HW230069   3.454   2.402   5.830 -0.1076  0.6220 -0.6022
 6146SOL     OW30070   4.656   4.018   7.040 -0.6833  0.4627  0.5905
 6146SOL    HW130071   4.618   3.961   7.107 -0.8346  0.0084  0.1156
 6146SOL    HW230072   4.573   4.047   7.000 -1.8259 -1.7313  1.3731
 6147SOL     OW30073   2.513   0.319   7.399 -0.1800  0.1275  0.3699
 6147SOL    HW130074   2.530   0.329   7.493  0.7064  0.3390  0.1895
 6147SOL    HW230075   2.436   0.263   7.392  1.3957 -1.7666 -1.7443
 6148SOL     OW30076   3.474   1.504   6.460 -0.5266  0.0804 -0.1312
 6148SOL    HW130077   3.436   1.462   6.382  3.0758  0.0356 -1.8853
 6148SOL    HW230078   3.445   1.445   6.529 -0.2645 -2.3040 -2.0504
 6149SOL     OW30079   3.519   3.922  12.380 -0.1829 -0.5563 -0.5324
 6149SOL    HW130080   3.528   3.928  12.475 -0.0124 -1.7303 -0.4741
 6149SOL    HW230081   3.514   4.014  12.354 -2.6832 -0.8547 -1.0882
 6150SOL     OW30082   3.080   0.443   3.032  0.0701 -0.2428 -0.1027
 6150SOL    HW130083   3.077   0.350   3.010 -0.3475 -0.2216 -0.1371
 6150SOL    HW230084   2.989   0.467   3.051 -0.1262 -1.5845  0.6690
 6151SOL     OW30085   4.167   0.608   8.757  0.0301 -0.4304  0.1070
 6151SOL    HW130086   4.076   0.616   8.786  0.4980 -0.0151  1.4521
 6151SOL    HW230087   4.187   0.515   8.749 -0.6491 -0.5089 -0.7612
 6152SOL     OW30088   2.386   3.139   6.061  0.0822 -0.1082 -0.6291
 6152SOL    HW130089   2.452   3.171   6.000 -0.8111  0.1576 -1.4590
 6152SOL    HW230090   2.353   3.071   6.002 -1.7774 -1.5421  2.0441
 6153SOL     OW30091   2.264   2.817   9.464  0.0923 -0.4739  1.2406
 6153SOL    HW130092   2.251   2.823   9.559 -2.2552  1.6536  0.7911
 6153SOL    HW230093   2.182   2.855   9.433  0.5452 -1.5884 -1.3408
 6154SOL     OW30094   1.462   0.485   5.916  0.3550  0.3314  0.1426
 6154SOL    HW130095   1.385   0.533   5.886  1.0245  0.8527 -0.7326
 6154SOL    HW230096   1.429   0.399   5.942  0.9693  0.0890  0.1373
 6155SOL     OW30097   1.022   2.847   4.073  0.1917  0.5452  0.3574
 6155SOL    HW130098   0.990   2.863   3.985  2.8139  0.0922 -0.6664
 6155SOL    HW230099   0.986   2.914   4.132 -1.6380  1.4917 -1.8399
 6156SOL     OW30100   3.132   3.280  17.039 -0.0784 -0.5282  0.7966
 6156SOL    HW130101   3.164   3.237  16.960 -1.2146  1.0366 -0.5214
 6156SOL    HW230102   3.136   3.209  17.102 -1.5135  1.6170  3.2804
 6157SOL     OW30103   3.971   2.150  15.923 -0.2462  0.3338 -0.2655
 6157SOL    HW130104   3.962   2.057  15.903 -0.3935  0.9015 -2.7694
 6157SOL    HW230105   4.066   2.167  15.925 -0.4914  1.6651  0.3278
 6158SOL     OW30106   2.852   0.421   0.687 -0.3358 -0.4263 -0.0132
 6158SOL    HW130107   2.810   0.483   0.627 -1.1776 -0.4464  0.5681
 6158SOL    HW230108   2.886   0.468   0.763 -0.7430 -0.5289  0.2280
 6159SOL     OW30109   3.228   4.100   2.759  0.3337  0.4387 -0.0254
 6159SOL    HW130110   3.321   4.101   2.784  0.7214 -0.8776 -1.3940
 6159SOL    HW230111   3.175   4.060   2.828  0.1762 -1.8497 -1.4541
 6160SOL     OW30112   0.259   3.311   5.995 -0.0550  0.0821  0.1243
 6160SOL    HW130113   0.229   3.395   5.959 -0.2029  0.1847  0.4851
 6160SOL    HW230114   0.242   3.248   5.925 -0.9437  2.3509 -1.7251
 6161SOL     OW30115   4.620   4.514  14.960  0.0723 -0.2983  0.1902
 6161SOL    HW130116   4.613   4.610  14.963 -0.3138 -0.2756 -1.4058
 6161SOL    HW230117   4.708   4.509  14.996  1.0317  1.6491 -1.9559
 6162SOL     OW30118   3.085   4.611   9.000  0.5040 -0.2222  0.1469
 6162SOL    HW130119   2.999   4.575   9.021  0.1485 -0.3332 -1.4655
 6162SOL    HW230120   3.105   4.655   9.083  0.1553  0.4021 -0.0956
 6163SOL     OW30121   2.135   1.251   7.527 -0.0659  0.4303  0.0319
 6163SOL    HW130122   2.113   1.263   7.435  1.8030  0.2710 -0.4532
 6163SOL    HW230123   2.177   1.166   7.517 -0.0070  0.4202  0.3644
 6164SOL     OW30124   0.193   0.870   3.861 -0.1295 -0.3321 -0.3264
 6164SOL    HW130125   0.255   0.797   3.866  1.4047  0.9185 -1.0878
 6164SOL    HW230126   0.219   0.921   3.784  0.6509 -1.4613 -0.8107
 6165SOL     OW30127   1.173   0.245   8.828 -0.2466  0.0464 -0.0380
 6165SOL    HW130128   1.188   0.180   8.759 -0.9030 -0.1924  0.0372
 6165SOL    HW230129   1.103   0.204   8.880 -0.6427  2.5317  1.3849
 6166SOL     OW30130   0.454   4.096   5.687  0.3316 -0.3127  0.3025
 6166SOL    HW130131   0.366   4.132   5.699 -0.1657 -2.8352  4.1682
 6166SOL    HW230132   0.441   4.065   5.598  2.3730 -0.2096 -0.0334
 6167SOL     OW30133   2.494   0.033  14.838 -0.7616 -0.1548 -0.3813
 6167SOL    HW130134   2.433   4.701  14.861 -1.4245  0.2971 -0.7690
 6167SOL    HW230135   2.529   0.001  14.755  0.4516 -1.5196  0.6581
 6168SOL     OW30136   1.708   4.177   6.831  0.1704 -0.1733 -0.0514
 6168SOL    HW130137   1.719   4.119   6.756  1.5155  0.2032 -0.1414
 6168SOL    HW230138   1.711   4.263   6.789 -1.0216  0.2650  0.7468
 6169SOL     OW30139   4.010   1.161   3.589  0.1966  0.1991 -0.0080
 6169SOL    HW130140   3.931   1.118   3.555 -0.5153  0.3777  1.3982
 6169SOL    HW230141   3.979   1.250   3.607  0.9042  0.4532 -0.0488
 6170SOL     OW30142   0.927   0.257  10.084  0.5162 -0.4617  0.4365
 6170SOL    HW130143   1.004   0.309  10.107 -0.1309  0.8813 -0.4310
 6170SOL    HW230144   0.877   0.304  10.018 -0.6859 -0.4391  1.3561
 6171SOL     OW30145   3.268   2.883   4.751 -0.2465 -0.0647 -0.4643
 6171SOL    HW130146   3.239   2.806   4.702 -0.5548 -0.6147  0.5765
 6171SOL    HW230147   3.291   2.851   4.838  0.8761 -1.6453 -1.3380
 6172SOL     OW30148   0.037   4.362   9.390 -0.4080  0.7008  0.2626
 6172SOL    HW130149   4.687   4.357   9.428  0.9932  0.6087  3.4375
 6172SOL    HW230150   0.079   4.415   9.458  1.3767  0.1335 -0.4052
 6173SOL     OW30151   4.587   3.559  10.644 -0.4067 -0.3389  0.1066
 6173SOL    HW130152   4.573   3.466  10.661  0.1571 -0.6089 -0.9471
 6173SOL    HW230153   4.497   3.585  10.666 -0.7592  0.6331 -2.4534
 6174SOL     OW30154   2.531   2.618   6.554 -0.4068  0.7056  0.2301
 6174SOL    HW130155   2.542   2.700   6.506 -1.5733  0.8992  0.2896
 6174SOL    HW230156   2.438   2.618   6.578 -0.8513  0.0605 -1.5204
 6175SOL     OW30157   2.932   0.208   6.180  0.1839 -0.3307 -0.3195
 6175SOL    HW130158   2.960   0.129   6.135  0.2876  1.0312 -2.6597
 6175SOL    HW230159   2.980   0.278   6.134 -0.0529  1.3777  2.0169
 6176SOL     OW30160   2.105   3.134  17.105 -0.2684  0.0930  0.2820
 6176SOL    HW130161   2.187   3.169  17.140 -0.4770 -0.1110  0.9877
 6176SOL    HW230162   2.128   3.041  17.109  4.4229  1.3546  2.9376
 6177SOL     OW30163   3.255   2.577   9.408  0.1214 -0.6377  0.0774
 6177SOL    HW130164   3.306   2.560   9.329 -0.2507 -0.0387 -0.2812
 6177SOL    HW230165   3.174   2.529   9.393  0.6120 -1.1269 -0.9955
 6178SOL     OW30166   3.905   3.626   6.773 -0.2445  0.4465  0.2966
 6178SOL    HW130167   3.829   3.589   6.729  1.3520 -0.7130 -1.5094
 6178SOL    HW230168   3.978   3.568   6.749 -0.2285  0.2109  0.9160
 6179SOL     OW30169   2.139   0.476   4.118 -0.3320  0.2114 -0.2037
 6179SOL    HW130170   2.053   0.508   4.091  0.1871  0.5416 -1.4927
 6179SOL    HW230171   2.111   0.439   4.202 -1.6334 -1.6860 -1.4515
 6180SOL     OW30172   4.499   2.855   8.786  0.4642  0.1361 -0.1961
 6180SOL    HW130173   4.495   2.945   8.754 -1.9781 -1.3113 -4.0615
 6180SOL    HW230174   4.577   2.821   8.742  0.2011 -1.1331  0.3106
 6181SOL     OW30175   2.410   2.086   4.202 -0.0938  0.4733  0.3511
 6181SOL    HW130176   2.326   2.042   4.189  0.4734  0.5978 -3.4941
 6181SOL    HW230177   2.388   2.166   4.155 -2.0148 -0.4234 -0.2837
 6182SOL     OW30178   3.645   2.074   7.319 -0.2300  0.1457 -0.5659
 6182SOL    HW130179   3.697   2.078   7.239  0.8309 -1.4420  0.0286
 6182SOL    HW230180   3.703   2.033   7.384  0.5744  0.4390 -1.0919
 6183SOL     OW30181   2.160   3.235   5.075 -0.1841 -0.4259 -0.1054
 6183SOL    HW130182   2.116   3.302   5.023  1.4887 -0.2689 -1.3050
 6183SOL    HW230183   2.250   3.265   5.076 -0.5071  0.5385 -0.5621
 6184SOL     OW30184   0.903   0.599   5.871 -0.3870 -0.2294  0.5350
 6184SOL    HW130185   0.911   0.558   5.785 -1.4082 -2.1846  1.3535
 6184SOL    HW230186   0.857   0.526   5.912 -0.1053  0.7772  2.6603
 6185SOL     OW30187   0.336   0.709   4.819 -0.0691  0.2611  0.1998
 6185SOL    HW130188   0.282   0.732   4.743 -0.6607  0.3334  0.6397
 6185SOL    HW230189   0.405   0.649   4.792 -0.3259  0.1392 -0.1814
 6186SOL     OW30190   4.010   2.895   5.208 -0.4733  0.2559 -0.4891
 6186SOL    HW130191   3.988   2.959   5.275  1.0224  0.1126  0.1307
 6186SOL    HW230192   3.943   2.899   5.139  0.1792  1.2231 -1.0525
 6187SOL     OW30193   2.841   4.736   8.700  0.7981 -0.1792 -0.1659
 6187SOL    HW130194   2.762   4.685   8.718 -0.3213  1.5790 -0.1074
 6187SOL    HW230195   2.806   0.076   8.658 -0.1750 -1.3016 -1.4763
 6188SOL     OW30196   1.716   1.798   6.126  0.2077  0.1159  0.0753
 6188SOL    HW130197   1.751   1.858   6.061  3.3247  1.4745  3.0019
 6188SOL    HW230198   1.622   1.816   6.117  0.0554 -1.0092 -0.5296
 6189SOL     OW30199   0.235   0.534   4.132  0.2655 -0.2085 -0.1771
 6189SOL    HW130200   0.231   0.471   4.060  2.6894 -0.5436 -0.0181
 6189SOL    HW230201   0.142   0.554   4.142  0.4707  0.0934  1.1476
 6190SOL     OW30202   3.902   0.246   0.020 -0.1043  0.3323  0.0138
 6190SOL    HW130203   3.816   0.252  17.728 -1.2488 -0.2971  2.2083
 6190SOL    HW230204   3.877   0.269   0.109  1.6175  3.0172 -0.2148
 6191SOL     OW30205   1.242   4.058   3.396 -0.1240  0.2312  0.5969
 6191SOL    HW130206   1.241   4.054   3.301 -0.5325  0.3511  0.5962
 6191SOL    HW230207   1.323   4.105   3.417  0.3189 -0.0893 -0.4032
 6192SOL     OW30208   0.629   0.561   8.342 -0.2030  0.0984  0.1463
 6192SOL    HW130209   0.572   0.521   8.276 -1.6809 -0.2849  1.6638
 6192SOL    HW230210   0.634   0.650   8.308 -1.4902 -0.2929 -1.0640
 6193SOL     OW30211   3.212   4.719   9.270 -0.6004  0.3478 -0.3198
 6193SOL    HW130212   3.208   4.627   9.296  2.4590  1.8306  5.2751
 6193SOL    HW230213   3.306   4.736   9.271 -0.0874 -2.3519 -1.3138
 6194SOL     OW30214   2.207   2.836  10.022 -0.0858 -0.6888 -0.4288
 6194SOL    HW130215   2.185   2.879  10.104  2.1256 -2.4243  1.0472
 6194SOL    HW230216   2.297   2.868  10.010 -0.0766  0.2024  2.1269
 6195SOL     OW30217   0.853   3.838   5.826  0.2027  0.1999 -0.2583
 6195SOL    HW130218   0.904   3.818   5.747  1.0516 -0.4442  0.4537
 6195SOL    HW230219   0.778   3.778   5.820 -1.9267  2.9591 -1.0627
 6196SOL     OW30220   1.511   0.310   4.532  0.4069 -0.2469 -0.0537
 6196SOL    HW130221   1.475   0.302   4.620 -0.6410 -0.2568 -0.4762
 6196SOL    HW230222   1.559   0.391   4.544  0.8811 -0.6910  1.0196
 6197SOL     OW30223   1.334   0.761   7.093 -0.1112  0.3395  0.0845
 6197SOL    HW130224   1.392   0.789   7.164 -0.3431 -1.0798  0.8300
 6197SOL    HW230225   1.357   0.823   7.023  1.6231 -0.5048 -0.0864
 6198SOL     OW30226   4.050   2.354   3.599 -0.0346  0.0588 -0.1302
 6198SOL    HW130227   4.105   2.418   3.644 -1.4853  0.4392  1.1019
 6198SOL    HW230228   4.045   2.392   3.512 -0.7750  0.1789 -0.0362
 6199SOL     OW30229   2.031   4.439  11.260 -0.4256  0.3103 -0.0906
 6199SOL    HW130230   1.970   4.396  11.319  1.2152 -0.3158  1.1464
 6199SOL    HW230231   2.004   4.386  11.185  0.7005  0.7595 -0.8229
 6200SOL     OW30232   1.574   2.430   1.770 -0.5491 -0.1166  0.0635
 6200SOL    HW130233   1.534   2.513   1.743 -0.9594 -0.3243  0.0375
 6200SOL    HW230234   1.646   2.415   1.708 -0.8769 -3.5272  0.5071
 6201SOL     OW30235   2.152   4.503   2.378  0.8406  0.6159 -0.3539
 6201SOL    HW130236   2.108   4.506   2.463  0.1023 -0.5764 -0.7011
 6201SOL    HW230237   2.223   4.442   2.398  0.1058  0.3393  1.3802
 6202SOL     OW30238   0.319   0.191  14.139 -0.7260 -0.0729  0.4328
 6202SOL    HW130239   0.288   0.133  14.069  1.0236 -0.8569  0.2842
 6202SOL    HW230240   0.298   0.144  14.219  5.2123  0.6655  2.4597
 6203SOL     OW30241   2.181   1.627   3.090  0.5466  0.0784  0.4539
 6203SOL    HW130242   2.166   1.548   3.038 -0.8298  0.5251  0.1482
 6203SOL    HW230243   2.150   1.697   3.033  4.0730  1.2099 -0.0510
 6204SOL     OW30244   0.181   0.061   5.957 -0.1243 -0.2947  0.5227
 6204SOL    HW130245   0.211   0.120   5.888  1.8944 -2.5493 -0.5619
 6204SOL    HW230246   0.249   4.732   5.968 -0.0322 -0.1061  1.0990
 6205SOL     OW30247   3.484   0.378   8.026 -0.2730  0.0995 -0.2513
 6205SOL    HW130248   3.499   0.396   8.119 -0.6974  0.8101 -0.3174
 6205SOL    HW230249   3.571   0.355   7.994 -0.7864  0.2149 -1.7474
 6206SOL     OW30250   1.526   3.103   4.527 -0.1826  0.7180 -0.2908
 6206SOL    HW130251   1.559   3.133   4.442 -2.3583 -0.6934 -1.6292
 6206SOL    HW230252   1.591   3.125   4.594 -1.9831  0.0799  1.6518
 6207SOL     OW30253   3.805   0.574  13.482  0.0657  0.2233 -0.4255
 6207SOL    HW130254   3.779   0.532  13.564  2.2046 -2.2228 -0.9982
 6207SOL    HW230255   3.726   0.612  13.444 -0.5354 -0.6420 -0.0283
 6208SOL     OW30256   3.978   0.506  11.617 -0.2210 -0.0326  0.2664
 6208SOL    HW130257   4.023   0.422  11.617  0.3021  0.2533 -2.1814
 6208SOL    HW230258   4.022   0.559  11.550 -1.3554  1.2245  0.5088
 6209SOL     OW30259   1.258   1.048   2.887 -0.4232  0.2200 -0.3813
 6209SOL    HW130260   1.166   1.057   2.862  0.0420  0.6719 -1.9072
 6209SOL    HW230261   1.291   1.138   2.895  2.2561 -0.8515  0.6396
 6210SOL     OW30262   2.779   0.365   5.112  0.3437  0.1736 -0.1590
 6210SOL    HW130263   2.869   0.334   5.123 -0.8086 -2.0568  2.6895
 6210SOL    HW230264   2.754   0.331   5.026 -0.6837  0.6763 -0.0605
 6211SOL     OW30265   2.997   4.496   7.575 -0.0940  0.2739 -0.5880
 6211SOL    HW130266   3.092   4.502   7.579  0.0142 -1.9786  0.7095
 6211SOL    HW230267   2.973   4.580   7.614 -0.3468  0.2422 -0.6745
 6212SOL     OW30268   2.526   3.541   3.153  0.0887  0.4293 -0.3244
 6212SOL    HW130269   2.496   3.625   3.190  0.0349 -0.6962  2.1485
 6212SOL    HW230270   2.475   3.479   3.205  0.3253  0.5398  0.0435
 6213SOL     OW30271   2.605   2.176   3.264  0.6143  0.0367 -0.3358
 6213SOL    HW130272   2.653   2.238   3.320  1.0488  0.4314 -1.1435
 6213SOL    HW230273   2.666   2.171   3.191  0.7472 -1.1313 -0.1371
 6214SOL     OW30274   4.029   3.907  16.916  0.3371 -0.2729 -0.3927
 6214SOL    HW130275   4.009   3.992  16.876  0.1035 -0.4085 -0.5599
 6214SOL    HW230276   4.091   3.921  16.988  1.4560 -0.9322 -1.2418
 6215SOL     OW30277   2.565   4.032   3.345 -0.0939  0.4524  0.6818
 6215SOL    HW130278   2.572   4.090   3.421 -1.2858  1.5394 -0.0451
 6215SOL    HW230279   2.642   4.068   3.300  0.3912 -0.1869  0.9961
 6216SOL     OW30280   0.927   3.630  14.064  0.1232  0.5867  0.5909
 6216SOL    HW130281   1.008   3.680  14.074  1.0627 -1.0591  1.1521
 6216SOL    HW230282   0.866   3.704  14.067  2.1566  2.2995 -0.9460
 6217SOL     OW30283   3.163   1.799   1.568  0.2632  0.5401 -0.1018
 6217SOL    HW130284   3.236   1.745   1.538 -0.2983 -0.0068 -0.4770
 6217SOL    HW230285   3.212   1.864   1.619  0.8918  0.0870 -0.1349
 6218SOL     OW30286   2.655   3.308   3.362 -0.1838  0.4599  0.0338
 6218SOL    HW130287   2.577   3.289   3.414  1.0714  3.0812  2.8633
 6218SOL    HW230288   2.668   3.399   3.389  1.0288  1.6173 -4.5271
 6219SOL     OW30289   0.923   4.479   5.782 -0.1662 -0.3634 -0.4058
 6219SOL    HW130290   1.011   4.511   5.764  0.6400 -1.6941  1.1082
 6219SOL    HW230291   0.933   4.388   5.811  0.8035 -0.6831 -1.7544
 6220SOL     OW30292   1.742   4.447   4.413 -0.2707  0.2745  0.2618
 6220SOL    HW130293   1.733   4.538   4.386 -1.3413 -0.3790 -1.5481
 6220SOL    HW230294   1.827   4.435   4.370 -1.6692 -1.8308 -1.9502
 6221SOL     OW30295   3.432   1.554   8.079 -0.5832  0.2793 -0.2048
 6221SOL    HW130296   3.392   1.640   8.065 -0.5303  0.8217  2.9565
 6221SOL    HW230297   3.384   1.489   8.029  0.3643  2.4572 -3.9115
 6222SOL     OW30298   2.208   2.163   8.043 -0.2839 -0.2029 -0.1606
 6222SOL    HW130299   2.165   2.109   7.977  1.9079 -1.0068 -0.9253
 6222SOL    HW230300   2.206   2.242   7.989  0.7401 -0.7546 -0.9929
 6223SOL     OW30301   1.242   1.097   7.152 -0.6552  0.2251  0.1826
 6223SOL    HW130302   1.247   1.128   7.242  0.3019  0.8304 -0.0792
 6223SOL    HW230303   1.182   1.025   7.169 -1.6266  0.9460 -0.1954
 6224SOL     OW30304   0.510   4.261   2.255 -0.0227 -0.0267  0.8953
 6224SOL    HW130305   0.511   4.342   2.204  0.8130  0.5448  1.8135
 6224SOL    HW230306   0.417   4.236   2.258 -0.3951  1.0612 -1.8199
 6225SOL     OW30307   2.179   0.061   8.101 -0.3608 -0.4799 -0.3398
 6225SOL    HW130308   2.129   0.137   8.072 -0.9123 -0.4418  0.7226
 6225SOL    HW230309   2.270   0.088   8.089 -0.7853  1.1973  0.2575
 6226SOL     OW30310   0.952   3.781   4.273  0.0506  0.2656  0.3676
 6226SOL    HW130311   0.858   3.792   4.256  0.3813  2.5037 -0.0246
 6226SOL    HW230312   0.950   3.798   4.367  1.9560 -0.0171  0.4470
 6227SOL     OW30313   2.239   2.091   5.723 -0.2159  0.4975 -0.0450
 6227SOL    HW130314   2.296   2.141   5.781 -0.4008  0.7107 -0.0480
 6227SOL    HW230315   2.309   2.027   5.708 -0.0714  0.4650  0.7535
 6228SOL     OW30316   3.591   0.808   4.381 -0.2340 -0.6002  0.0524
 6228SOL    HW130317   3.664   0.748   4.400 -0.1712 -0.9079 -1.2152
 6228SOL    HW230318   3.562   0.761   4.303  1.3981  0.5999 -1.2727
 6229SOL     OW30319   4.308   0.248   4.340 -0.1507 -0.0706 -0.0171
 6229SOL    HW130320   4.227   0.205   4.366 -0.2297 -0.9985 -1.8440
 6229SOL    HW230321   4.377   0.192   4.376  0.8385  1.0455 -0.1534
 6230SOL     OW30322   4.719   2.073   3.863  0.2753 -0.1620  0.7656
 6230SOL    HW130323   0.043   2.143   3.882  0.4102 -0.0219 -0.1893
 6230SOL    HW230324   0.032   2.002   3.903  0.5027 -0.6598 -0.3939
 6231SOL     OW30325   0.596   3.095  16.259  0.1111  0.9677 -0.2935
 6231SOL    HW130326   0.557   3.130  16.340 -2.0362  1.5613 -1.5676
 6231SOL    HW230327   0.519   3.061  16.214  0.4405 -0.4236  0.2147
 6232SOL     OW30328   2.217   3.164   8.203  0.0665 -0.0091 -0.2186
 6232SOL    HW130329   2.143   3.200   8.253 -0.2602 -1.4889  0.4000
 6232SOL    HW230330   2.284   3.181   8.270  1.0207  0.3932 -1.2746
 6233SOL     OW30331   0.235   2.398   7.945 -0.4317  0.4872  0.6102
 6233SOL    HW130332   0.283   2.434   7.871  0.4495 -2.0907 -0.0680
 6233SOL    HW230333   0.194   2.478   7.979 -0.3762  0.2021  1.3434
 6234SOL     OW30334   0.363   1.777   6.135 -0.2283  0.4175 -0.5084
 6234SOL    HW130335   0.456   1.801   6.144 -0.1229  0.3546 -1.4629
 6234SOL    HW230336   0.365   1.742   6.046  2.8049  0.8750 -0.6440
 6235SOL     OW30337   3.899   2.130   7.966  0.2249 -0.0104 -0.0430
 6235SOL    HW130338   3.822   2.073   7.976 -0.1576  0.9180  2.2115
 6235SOL    HW230339   3.882   2.191   8.038  0.3894 -1.2331  1.0254
 6236SOL     OW30340   2.118   4.376  11.665 -0.2532  0.3183 -0.0177
 6236SOL    HW130341   2.135   4.415  11.751  0.3040 -1.4304  0.6657
 6236SOL    HW230342   2.162   4.293  11.682  0.0521  0.5346  0.2400
 6237SOL     OW30343   3.715   1.225   9.206 -0.0989  0.2186 -0.0645
 6237SOL    HW130344   3.699   1.313   9.239  2.7910  0.9521 -0.5564
 6237SOL    HW230345   3.687   1.175   9.282  0.2460  0.1427  0.0154
 6238SOL     OW30346   4.474   2.326   7.870  0.0054 -0.0628 -0.6774
 6238SOL    HW130347   4.520   2.286   7.795  1.9569  2.0078 -0.5758
 6238SOL    HW230348   4.534   2.398   7.887 -3.1432  2.1361  0.9883
 6239SOL     OW30349   4.612   4.668  17.551 -0.0553 -0.1952  0.5524
 6239SOL    HW130350   4.608   4.726  17.475 -0.2407  0.3046  0.9501
 6239SOL    HW230351   4.663   4.715  17.617 -1.9703  0.2499  1.6978
 6240SOL     OW30352   0.114   2.863  12.034  0.5011 -0.0595 -0.2138
 6240SOL    HW130353   0.162   2.789  12.069 -2.3488 -2.2091 -0.8483
 6240SOL    HW230354   0.115   2.839  11.941 -2.9806 -1.1760  0.0236
 6241SOL     OW30355   0.510   0.427  10.297 -0.0049 -0.0598 -0.1218
 6241SOL    HW130356   0.603   0.448  10.301 -0.0409 -0.3112  2.0698
 6241SOL    HW230357   0.508   0.386  10.384 -0.0314  0.1844 -0.0070
 6242SOL     OW30358   2.799   0.221  12.189 -0.0280  0.0902 -0.2436
 6242SOL    HW130359   2.719   0.169  12.183 -0.1527  0.0219  2.1232
 6242SOL    HW230360   2.751   0.301  12.213  0.2869  0.7155 -1.6795
 6243SOL     OW30361   0.237   1.487   1.634  0.1472 -0.1556 -0.0976
 6243SOL    HW130362   0.264   1.400   1.665  0.0658  0.0840  0.6397
 6243SOL    HW230363   0.155   1.488   1.683  0.7549  0.1171  0.8945
 6244SOL     OW30364   4.609   0.941   4.477 -0.6571 -0.1846  0.0847
 6244SOL    HW130365   4.530   0.995   4.475 -1.8045 -1.8004  1.7129
 6244SOL    HW230366   4.577   0.860   4.516  0.2347 -1.0914 -1.0611
 6245SOL     OW30367   1.982   3.567   8.850 -0.8647  0.5836  0.2220
 6245SOL    HW130368   1.998   3.474   8.868 -0.9242  0.5288  0.0063
 6245SOL    HW230369   2.066   3.611   8.846  1.0181 -3.0649 -0.2423
 6246SOL     OW30370   2.296   2.716  17.310 -0.0365  0.3356  0.7101
 6246SOL    HW130371   2.279   2.687  17.399  1.3374  1.7916  1.4438
 6246SOL    HW230372   2.382   2.675  17.302  0.6817  1.9624  0.2638
 6247SOL     OW30373   3.049   1.239   0.717 -0.2544  0.5331 -0.2558
 6247SOL    HW130374   2.957   1.262   0.701 -0.8172  0.6826  3.1400
 6247SOL    HW230375   3.082   1.290   0.643  1.0067 -0.9309 -0.6930
 6248SOL     OW30376   1.171   0.000   7.437 -0.0438 -0.3701  0.1202
 6248SOL    HW130377   1.112   0.066   7.473 -0.6900  0.6183 -2.8081
 6248SOL    HW230378   1.130   4.715   7.354  0.9644 -2.3933  0.1870
 6249SOL     OW30379   0.504   0.794  11.349 -0.1128 -0.1212 -0.4453
 6249SOL    HW130380   0.485   0.745  11.269  0.1618  0.0845 -0.6411
 6249SOL    HW230381   0.508   0.727  11.416  2.3469  1.0273  0.5537
 6250SOL     OW30382   0.305   0.088   8.107  0.4356 -0.6630 -0.2331
 6250SOL    HW130383   0.260   0.135   8.036  1.7802  0.2590 -0.4738
 6250SOL    HW230384   0.394   0.101   8.072 -0.2032  1.8928 -0.9325
 6251SOL     OW30385   0.538   0.441   9.387  0.1396  0.1967 -0.2614
 6251SOL    HW130386   0.614   0.469   9.439  0.3690  0.7409 -0.8867
 6251SOL    HW230387   0.548   0.471   9.296 -2.4702  1.2362 -0.1945
 6252SOL     OW30388   3.754   4.116   2.110 -0.2100  0.1548  0.1334
 6252SOL    HW130389   3.822   4.052   2.088  0.0800 -0.0985  1.7213
 6252SOL    HW230390   3.739   4.099   2.203 -1.4518 -1.2368 -0.3251
 6253SOL     OW30391   0.471   2.110   7.957  0.1519  0.7632 -0.6530
 6253SOL    HW130392   0.420   2.167   7.899  0.9024  0.7577 -1.3130
 6253SOL    HW230393   0.544   2.088   7.899 -0.7571 -0.3564 -1.3728
 6254SOL     OW30394   3.262   0.953   8.854 -0.4241 -0.1963  0.8177
 6254SOL    HW130395   3.230   1.031   8.899  0.7206  1.3036 -0.9689
 6254SOL    HW230396   3.231   0.879   8.905 -0.4524 -0.5536  0.2846
 6255SOL     OW30397   3.516   3.255   5.217  0.2537  0.4656  0.1761
 6255SOL    HW130398   3.560   3.176   5.188  1.5121  0.8203  1.1290
 6255SOL    HW230399   3.584   3.320   5.199  1.0294 -0.5958 -0.7318
 6256SOL     OW30400   1.940   0.888   7.834  0.2170  0.0551 -0.1072
 6256SOL    HW130401   1.955   0.850   7.748  1.1394  0.6899 -0.2180
 6256SOL    HW230402   2.016   0.855   7.882  1.9327  3.4410 -0.5010
 6257SOL     OW30403   0.714   3.095  12.470 -0.0296 -0.0756  0.4281
 6257SOL    HW130404   0.622   3.072  12.488  0.4477 -0.1061  2.8371
 6257SOL    HW230405   0.760   3.081  12.553  0.0712 -0.3346  0.3269
 6258SOL     OW30406   3.903   3.567   9.731 -0.0125 -0.8499  0.4652
 6258SOL    HW130407   3.839   3.631   9.703 -0.3204 -1.4308 -0.1764
 6258SOL    HW230408   3.941   3.542   9.647  1.3981  0.5477  0.6875
 6259SOL     OW30409   3.943   2.975   9.385 -0.0515  0.8270 -0.0311
 6259SOL    HW130410   3.966   2.979   9.292 -0.1512  1.0205 -0.0470
 6259SOL    HW230411   3.850   2.959   9.370 -0.0928 -0.7605  1.9252
 6260SOL     OW30412   4.729   3.720   3.549 -0.2425  0.5360 -0.2693
 6260SOL    HW130413   4.706   3.701   3.640 -0.8006  0.6685 -0.3832
 6260SOL    HW230414   4.715   3.630   3.521  2.9019 -0.5547  1.6577
 6261SOL     OW30415   1.363   3.995   8.947 -0.7653  0.2983 -0.1416
 6261SOL    HW130416   1.367   3.992   8.851 -1.0255  0.2704 -0.1527
 6261SOL    HW230417   1.372   4.089   8.958 -0.2642  0.1136  1.0173
 6262SOL     OW30418   1.114   1.598   7.595 -0.0331  0.3017 -0.1902
 6262SOL    HW130419   1.057   1.634   7.663  0.6769  0.3229  0.3962
 6262SOL    HW230420   1.050   1.575   7.528 -1.1623  0.7819  0.7223
 6263SOL     OW30421   4.628   0.865   2.568 -0.5199 -0.0147 -0.6332
 6263SOL    HW130422   4.573   0.941   2.548 -0.3553  0.2714 -0.0080
 6263SOL    HW230423   4.561   0.799   2.582  0.6607 -1.1371 -0.3144
 6264SOL     OW30424   1.792   4.496   5.484 -0.1565 -0.2410  0.0801
 6264SOL    HW130425   1.785   4.590   5.466  0.4159 -0.1200  0.4979
 6264SOL    HW230426   1.851   4.493   5.559 -1.5259 -0.7587  1.1269
 6265SOL     OW30427   3.164   1.254  14.080 -0.2142  0.4559 -0.1750
 6265SOL    HW130428   3.175   1.190  14.010  1.8738  1.9206 -1.1881
 6265SOL    HW230429   3.069   1.265  14.083 -0.0528  2.2245 -1.6900
 6266SOL     OW30430   2.242   2.132   1.695 -0.0155  0.0795 -0.1323
 6266SOL    HW130431   2.308   2.167   1.635 -1.9953  2.6635 -0.7861
 6266SOL    HW230432   2.167   2.186   1.669 -0.8602 -0.5950  0.8950
 6267SOL     OW30433   4.452   2.051   3.998  0.1712  0.4239  0.6882
 6267SOL    HW130434   4.372   2.092   3.965  0.0944  0.3319  0.7608
 6267SOL    HW230435   4.519   2.098   3.948 -0.4444  0.2612 -0.2904
 6268SOL     OW30436   1.479   3.981   1.160  0.0337 -0.5281  0.3129
 6268SOL    HW130437   1.453   3.898   1.200  1.0991 -2.2125 -2.5131
 6268SOL    HW230438   1.566   3.980   1.201 -0.2669 -1.6694  0.9424
 6269SOL     OW30439   0.661   3.445   3.394  0.2910  0.5491  0.3714
 6269SOL    HW130440   0.745   3.468   3.354 -0.1074  0.1556 -0.6731
 6269SOL    HW230441   0.610   3.417   3.319  0.9560  2.4874 -0.8316
 6270SOL     OW30442   1.077   4.298  13.042  0.5083 -0.6063  0.0134
 6270SOL    HW130443   1.132   4.375  13.056  3.0392 -2.5069  0.3804
 6270SOL    HW230444   1.078   4.254  13.127 -0.2819 -1.8156 -0.5943
 6271SOL     OW30445   2.398   0.972   3.454  0.3325 -0.3269 -0.6124
 6271SOL    HW130446   2.447   0.908   3.403  0.6281 -1.4512  1.0524
 6271SOL    HW230447   2.315   0.927   3.470  0.6463 -0.2919  1.1169
 6272SOL     OW30448   0.253   0.677   9.716 -0.0146  0.1526 -0.5260
 6272SOL    HW130449   0.197   0.608   9.752 -0.3743  0.2155 -0.9565
 6272SOL    HW230450   0.290   0.630   9.641 -0.6068  0.5756 -1.0822
 6273SOL     OW30451   2.477   1.319  16.263 -0.3649  0.5308 -0.7001
 6273SOL    HW130452   2.477   1.318  16.167  0.1529 -1.2216 -0.6833
 6273SOL    HW230453   2.448   1.231  16.288 -1.0554  1.7914  2.7972
 6274SOL     OW30454   1.774   3.206  15.830 -0.3629  0.2449 -0.1438
 6274SOL    HW130455   1.829   3.162  15.766 -3.2206 -2.9161 -0.4105
 6274SOL    HW230456   1.689   3.165  15.815  0.0658 -0.0553 -1.7795
 6275SOL     OW30457   3.788   3.763  12.511  0.6655 -0.4502  0.2906
 6275SOL    HW130458   3.784   3.830  12.443  1.0110  0.7945  1.5218
 6275SOL    HW230459   3.726   3.807  12.569  0.7146  0.0582 -0.0480
 6276SOL     OW30460   4.081   3.937  11.620 -0.2016  0.2795 -0.2033
 6276SOL    HW130461   4.136   3.949  11.697 -1.0743  0.1130  0.4519
 6276SOL    HW230462   4.066   3.842  11.617  0.8856  0.0806  0.5005
 6277SOL     OW30463   1.433   4.719   0.052 -0.4015 -0.5500  0.0229
 6277SOL    HW130464   1.501   0.045   0.035  1.2538 -1.7788  2.0438
 6277SOL    HW230465   1.479   4.635   0.047  0.2897 -0.2020  0.5482
 6278SOL     OW30466   1.885   1.200  17.151  0.4330  0.6664  0.1955
 6278SOL    HW130467   1.808   1.224  17.100  0.1996 -1.0963 -0.2620
 6278SOL    HW230468   1.932   1.138  17.095  2.0208  1.3453  0.7730
 6279SOL     OW30469   1.339   3.115  10.642  0.2378 -0.4897  0.0232
 6279SOL    HW130470   1.302   3.100  10.556 -0.5648  0.1494  0.2668
 6279SOL    HW230471   1.424   3.070  10.634  0.9758  0.6049  1.5692
 6280SOL     OW30472   0.687   1.517   3.790  0.5381  0.2036  0.5398
 6280SOL    HW130473   0.755   1.461   3.828  1.3710  0.1214 -1.0638
 6280SOL    HW230474   0.679   1.479   3.703  1.4453  0.9192  0.1494
 6281SOL     OW30475   2.670   3.068   8.128  0.2975  0.0483 -0.6992
 6281SOL    HW130476   2.653   2.998   8.066  0.7801 -2.2065  1.7315
 6281SOL    HW230477   2.644   3.019   8.206  0.7753  1.5887  0.4436
 6282SOL     OW30478   4.220   3.448   6.274  0.1827  0.2661  0.4573
 6282SOL    HW130479   4.224   3.487   6.361 -0.9651 -0.4926  0.8506
 6282SOL    HW230480   4.236   3.526   6.221 -1.9736  2.4276  3.0327
 6283SOL     OW30481   1.464   0.795   8.374  0.2405 -0.1803 -0.1343
 6283SOL    HW130482   1.417   0.878   8.365  0.5074 -0.2378 -1.8682
 6283SOL    HW230483   1.393   0.732   8.386  2.0309 -2.2145 -0.1820
 6284SOL     OW30484   4.474   4.651  13.304 -0.2575 -0.5906 -0.1418
 6284SOL    HW130485   4.543   4.717  13.301 -0.9705  0.0257 -2.5116
 6284SOL    HW230486   4.407   4.689  13.247  0.2175 -1.3071 -1.1708
 6285SOL     OW30487   3.153   4.626   1.796  0.0835  0.2932  0.4663
 6285SOL    HW130488   3.183   4.638   1.706 -1.0933  0.6579  0.1279
 6285SOL    HW230489   3.203   4.694   1.841  3.6143 -1.7983 -0.2889
 6286SOL     OW30490   4.307   1.236   2.459  0.2729  0.4931 -0.6258
 6286SOL    HW130491   4.279   1.263   2.372  0.0946  0.3554 -0.6102
 6286SOL    HW230492   4.287   1.320   2.499  0.6257  1.2004 -1.9234
 6287SOL     OW30493   1.064   1.808  14.329 -0.6274  0.3139 -0.1050
 6287SOL    HW130494   1.035   1.763  14.250  0.1823  1.8792 -1.2743
 6287SOL    HW230495   1.027   1.750  14.397  2.0928  0.6503  1.6769
 6288SOL     OW30496   0.739   4.018   4.289  0.3890  0.2709 -0.3264
 6288SOL    HW130497   0.732   4.067   4.371 -1.1926 -2.5332  1.1899
 6288SOL    HW230498   0.650   3.983   4.280  1.6473 -2.3933 -2.4748
 6289SOL     OW30499   3.592   3.931   2.988 -0.3701  0.2220  0.4232
 6289SOL    HW130500   3.668   3.922   3.046 -0.0621 -2.0061 -0.3215
 6289SOL    HW230501   3.559   3.842   2.993 -1.4614  0.5568 -0.9775
 6290SOL     OW30502   2.488   3.021   8.876 -0.5012  0.3262  0.3054
 6290SOL    HW130503   2.572   2.983   8.901  0.1723  1.3164 -0.4253
 6290SOL    HW230504   2.447   3.012   8.962  3.4228  3.4110  2.5472
 6291SOL     OW30505   3.427   4.662   6.576 -0.4705 -0.2698 -0.0004
 6291SOL    HW130506   3.374   4.646   6.654  0.7354 -0.4342  0.7880
 6291SOL    HW230507   3.509   4.620   6.604 -0.4042 -0.5783 -0.6633
 6292SOL     OW30508   2.082   0.184  10.719  0.1917 -0.0047  0.3357
 6292SOL    HW130509   2.073   0.278  10.705  1.7981 -0.1567 -1.6890
 6292SOL    HW230510   2.006   0.151  10.671 -1.1844  0.2149  2.3444
 6293SOL     OW30511   4.540   1.130   6.835 -0.4772  0.5973  0.4107
 6293SOL    HW130512   4.524   1.042   6.870 -0.7338  0.4390 -0.1009
 6293SOL    HW230513   4.546   1.179   6.917  0.5319 -0.0938  0.7506
 6294SOL     OW30514   3.405   0.776   8.665  0.1447  0.0281 -0.2871
 6294SOL    HW130515   3.328   0.831   8.653  0.3108 -0.1720 -2.2106
 6294SOL    HW230516   3.440   0.804   8.750  3.0123 -0.8329 -1.1886
 6295SOL     OW30517   3.011   4.597   5.254  0.6983 -0.1971  0.0430
 6295SOL    HW130518   2.971   4.542   5.321 -2.3954 -1.5756 -2.9162
 6295SOL    HW230519   3.037   4.523   5.199  2.5777  1.5657 -1.4491
 6296SOL     OW30520   3.322   1.364   7.884 -0.1686 -0.0666 -0.1692
 6296SOL    HW130521   3.347   1.342   7.794 -0.8671 -3.2087  0.4049
 6296SOL    HW230522   3.354   1.284   7.928  0.5899  0.5550  0.4058
 6297SOL     OW30523   0.609   0.366  11.283  0.6400 -0.5475 -0.0614
 6297SOL    HW130524   0.654   0.441  11.244  1.1208 -0.5314  0.5150
 6297SOL    HW230525   0.642   0.376  11.372 -0.2266  1.8790 -0.0044
 6298SOL     OW30526   0.539   3.273   8.248 -0.0678  0.0630 -0.1642
 6298SOL    HW130527   0.573   3.200   8.196  2.5618 -1.2721  3.3797
 6298SOL    HW230528   0.485   3.217   8.304 -1.3451  0.5644 -0.8910
 6299SOL     OW30529   3.284   2.704  15.170 -0.0330  0.3965 -0.7933
 6299SOL    HW130530   3.199   2.682  15.207  0.6986  1.2627  1.4477
 6299SOL    HW230531   3.334   2.749  15.239 -0.9610 -0.6852  0.5793
 6300SOL     OW30532   2.386   2.246   0.922 -0.5451 -0.2431 -0.7457
 6300SOL    HW130533   2.306   2.272   0.876 -0.7138 -2.7193 -1.8755
 6300SOL    HW230534   2.405   2.316   0.984  0.1755 -0.6540 -0.5060
 6301SOL     OW30535   0.294   1.438  11.104 -0.8450 -0.0190  0.0759
 6301SOL    HW130536   0.350   1.480  11.038 -3.4276  0.3844 -1.8456
 6301SOL    HW230537   0.298   1.509  11.168 -2.7391  1.2671 -1.2238
 6302SOL     OW30538   2.651   3.579   4.968  0.2128 -0.2964  0.0376
 6302SOL    HW130539   2.581   3.564   4.905 -0.3996  0.5859  0.5082
 6302SOL    HW230540   2.643   3.502   5.026 -2.0795 -0.5028 -0.5483
 6303SOL     OW30541   2.931   3.716   2.001  0.4706 -0.4127  0.0012
 6303SOL    HW130542   2.928   3.796   1.948  0.7048 -0.3705  0.0534
 6303SOL    HW230543   2.923   3.742   2.093  1.9128  0.8191 -0.2243
 6304SOL     OW30544   0.807   1.597   4.118 -0.0610 -0.2555 -0.1020
 6304SOL    HW130545   0.839   1.675   4.073  0.6375  0.0332  0.8947
 6304SOL    HW230546   0.771   1.624   4.202 -0.1302  0.1847 -0.2703
 6305SOL     OW30547   1.406   1.181   6.242  0.0452 -0.2258  0.3403
 6305SOL    HW130548   1.443   1.264   6.211 -0.8089  0.2859  0.6662
 6305SOL    HW230549   1.365   1.139   6.167 -0.5531  1.5965 -0.3563
 6306SOL     OW30550   4.652   3.174   7.344  0.2961 -0.1344  0.1565
 6306SOL    HW130551   4.593   3.099   7.345 -0.0069  0.0963 -0.3329
 6306SOL    HW230552   4.600   3.249   7.316 -0.8129 -1.4369 -1.2577
 6307SOL     OW30553   4.032   0.187   0.445  0.2050  0.0794 -0.6846
 6307SOL    HW130554   4.087   0.264   0.456  1.9260 -1.1867 -0.3581
 6307SOL    HW230555   4.042   0.135   0.526  0.0006  0.1330 -0.6242
 6308SOL     OW30556   0.465   3.004   9.136  0.3659 -0.2174  0.1756
 6308SOL    HW130557   0.558   3.020   9.152  0.4051 -3.3584  2.9591
 6308SOL    HW230558   0.418   3.070   9.188  1.6059  1.7326 -1.1718
 6309SOL     OW30559   1.599   2.280   8.707 -0.1586  0.3254 -0.2933
 6309SOL    HW130560   1.686   2.303   8.740  0.9562 -2.5542 -1.1907
 6309SOL    HW230561   1.601   2.292   8.612 -2.3628 -0.3666 -0.4425
 6310SOL     OW30562   0.409   3.810   4.974  0.1280  0.3095 -0.0051
 6310SOL    HW130563   0.494   3.777   4.943  0.1511 -0.7171  1.1762
 6310SOL    HW230564   0.351   3.735   4.959  1.3093 -0.4231 -0.9312
 6311SOL     OW30565   1.524   1.754   2.150  0.5872  0.3243  0.0206
 6311SOL    HW130566   1.507   1.845   2.126  3.3339  0.5658 -0.9797
 6311SOL    HW230567   1.519   1.754   2.246  0.1226  1.8039  0.0056
 6312SOL     OW30568   2.657   2.047  16.943 -0.5919 -0.2463 -0.5334
 6312SOL    HW130569   2.616   1.971  16.984 -0.8412  0.9491  1.4265
 6312SOL    HW230570   2.587   2.081  16.888  1.2215  2.4131 -1.1891
 6313SOL     OW30571   0.800   4.512   3.121 -0.0624  0.4512 -0.2524
 6313SOL    HW130572   0.886   4.485   3.152  0.4377 -0.2788 -2.3434
 6313SOL    HW230573   0.809   4.607   3.132 -0.4647  0.2357  1.9460
 6314SOL     OW30574   1.502   1.657   3.619 -0.0917 -0.3706  0.1542
 6314SOL    HW130575   1.426   1.599   3.617  0.8524 -1.5990 -0.1078
 6314SOL    HW230576   1.489   1.718   3.691 -0.3915 -0.8875  0.5390
 6315SOL     OW30577   2.079   0.690   3.787  0.2232  0.9091  0.0312
 6315SOL    HW130578   2.001   0.642   3.816  0.9401  0.4789  1.2348
 6315SOL    HW230579   2.050   0.780   3.801  1.6597  1.1659  1.2934
 6316SOL     OW30580   0.205   1.010  15.989 -0.0502 -0.2847  0.0147
 6316SOL    HW130581   0.179   0.928  15.946 -1.4137  0.0904  0.1316
 6316SOL    HW230582   0.299   0.998  15.977  0.0440  0.7444 -0.2242
 6317SOL     OW30583   4.563   2.034   0.214  0.3209  0.0882  0.2952
 6317SOL    HW130584   4.530   1.950   0.181 -0.1532  0.7505 -0.9227
 6317SOL    HW230585   4.481   2.083   0.210 -0.3926 -1.1179  0.1022
 6318SOL     OW30586   2.984   1.256   9.201 -0.3251 -0.3525  0.2544
 6318SOL    HW130587   2.898   1.229   9.171 -0.8429  0.1811  1.2831
 6318SOL    HW230588   2.969   1.349   9.219  2.4984 -0.6220  3.9389
 6319SOL     OW30589   0.306   2.978   8.899 -0.2713  0.5760  0.1338
 6319SOL    HW130590   0.291   3.073   8.898  0.0661  0.6195 -0.8132
 6319SOL    HW230591   0.372   2.978   8.969  0.4793 -2.9298 -0.5824
 6320SOL     OW30592   3.019   2.416   6.503 -0.1995  0.0660 -0.2814
 6320SOL    HW130593   2.998   2.471   6.428 -0.8124  0.1111 -0.0783
 6320SOL    HW230594   2.970   2.457   6.575  1.3495 -0.3782  1.0235
 6321SOL     OW30595   3.473   4.059   5.452 -0.0906 -0.2217 -0.7197
 6321SOL    HW130596   3.503   4.078   5.541  1.1909  1.0635 -1.4101
 6321SOL    HW230597   3.438   4.145   5.429 -0.0784  0.1119  0.5419
 6322SOL     OW30598   3.608   0.125  13.881 -0.6869 -0.1140  0.0953
 6322SOL    HW130599   3.659   0.065  13.826 -0.7465  1.5379 -1.7655
 6322SOL    HW230600   3.600   0.069  13.958  0.0568 -0.9851 -0.4689
 6323SOL     OW30601   2.217   4.033   4.407 -0.4809  0.0779  0.4264
 6323SOL    HW130602   2.214   4.071   4.319  1.4099  0.4563  0.5221
 6323SOL    HW230603   2.165   4.102   4.447 -0.1531  0.0965  0.8124
 6324SOL     OW30604   0.413   2.920   8.071  0.1154  0.0040  0.5571
 6324SOL    HW130605   0.350   2.956   8.010 -1.1314 -0.2789  1.6760
 6324SOL    HW230606   0.476   2.992   8.070  0.9149 -0.7683 -3.9663
 6325SOL     OW30607   2.092   1.655  10.695  0.2062  0.6103  0.0863
 6325SOL    HW130608   2.159   1.710  10.737 -0.2379  2.2881 -1.3813
 6325SOL    HW230609   2.122   1.644  10.605  1.5313  1.2254  0.4408
 6326SOL     OW30610   1.354   0.207   8.431  0.0478 -0.2099 -0.2139
 6326SOL    HW130611   1.293   0.173   8.497  0.1905 -0.0119  0.0236
 6326SOL    HW230612   1.408   0.129   8.415  0.2655 -0.1529  0.2223
 6327SOL     OW30613   2.799   1.496   7.462  0.4443  0.2912  0.0691
 6327SOL    HW130614   2.862   1.426   7.477 -2.0086 -1.3645  2.7240
 6327SOL    HW230615   2.804   1.494   7.367 -1.2510 -1.0330  0.0078
 6328SOL     OW30616   3.667   0.992  15.838 -0.0288  0.3602  0.6307
 6328SOL    HW130617   3.667   0.900  15.812 -2.8655  1.0412 -1.7340
 6328SOL    HW230618   3.576   1.020  15.829 -0.0675 -0.0660 -0.2206
 6329SOL     OW30619   2.363   1.644   5.450  0.2125 -0.0747 -0.6636
 6329SOL    HW130620   2.271   1.658   5.471  0.4633 -0.0187  0.3681
 6329SOL    HW230621   2.374   1.731   5.411  1.3155 -0.2847 -0.8415
 6330SOL     OW30622   1.259   2.315   5.888  0.0182 -0.4535 -0.3822
 6330SOL    HW130623   1.229   2.229   5.919 -0.9273  0.1992  0.5382
 6330SOL    HW230624   1.339   2.327   5.939 -0.5461  2.1445 -0.1561
 6331SOL     OW30625   2.210   2.644  11.164 -0.1041 -0.2310 -0.0261
 6331SOL    HW130626   2.188   2.586  11.238  3.3179 -1.2732  0.1879
 6331SOL    HW230627   2.212   2.729  11.207 -1.1328  0.2778 -0.9928
 6332SOL     OW30628   1.615   0.417   5.238 -0.2288  0.1030  0.7500
 6332SOL    HW130629   1.599   0.363   5.316  0.3457 -0.7305  0.2908
 6332SOL    HW230630   1.708   0.431   5.259  0.0534 -3.6447  2.0993
 6333SOL     OW30631   1.263   4.540   3.958  0.2569  0.3108 -0.1169
 6333SOL    HW130632   1.249   4.485   4.035  0.3672 -0.0385 -0.3462
 6333SOL    HW230633   1.352   4.570   3.978  0.2379 -0.1246  0.6141
 6334SOL     OW30634   4.465   4.490   5.582 -0.0938  0.3537  0.0533
 6334SOL    HW130635   4.455   4.407   5.535  2.9967  0.8581 -1.5206
 6334SOL    HW230636   4.375   4.493   5.615 -0.6632  0.1991 -1.4756
 6335SOL     OW30637   3.088   3.085   8.939  0.1138 -0.1218  0.1876
 6335SOL    HW130638   3.111   3.007   8.988  0.2117 -0.4404 -0.3712
 6335SOL    HW230639   3.028   3.119   9.006  0.5040 -1.4007  1.1755
 6336SOL     OW30640   3.851   2.716   3.352 -0.1012 -0.3668  0.8484
 6336SOL    HW130641   3.768   2.759   3.372  0.7245  0.5073  2.4309
 6336SOL    HW230642   3.829   2.624   3.337  0.6733 -0.6017  1.1057
 6337SOL     OW30643   3.368   2.588   5.880  0.2971  0.8241  0.0695
 6337SOL    HW130644   3.292   2.567   5.933 -0.1993 -2.1603 -1.8227
 6337SOL    HW230645   3.427   2.636   5.937  2.7290  0.0287 -1.7656
 6338SOL     OW30646   0.708   1.277   9.844 -0.1172  0.0401 -0.2560
 6338SOL    HW130647   0.687   1.232   9.762 -0.1193 -1.8664  0.7840
 6338SOL    HW230648   0.654   1.355   9.838 -2.9551 -1.8903  0.1386
 6339SOL     OW30649   0.415   0.739   4.057  0.3514 -0.2448 -0.0590
 6339SOL    HW130650   0.457   0.697   3.982 -0.7433 -3.0494  0.8836
 6339SOL    HW230651   0.342   0.685   4.088  0.1911  0.1016  0.1681
 6340SOL     OW30652   0.884   2.481   4.088 -0.5584  0.1680  0.1086
 6340SOL    HW130653   0.978   2.466   4.078 -0.5744 -0.4164  0.8414
 6340SOL    HW230654   0.864   2.464   3.996 -0.2386 -0.8208  0.2194
 6341SOL     OW30655   2.431   2.004   6.025  0.4853  0.6595  0.6397
 6341SOL    HW130656   2.402   1.984   6.114 -1.2367 -0.2421 -0.1263
 6341SOL    HW230657   2.399   2.094   6.018 -0.8568  0.0579 -0.9517
 6342SOL     OW30658   3.943   0.560  12.060  0.7907  0.1081 -0.3904
 6342SOL    HW130659   3.889   0.490  12.024 -0.1061  0.9540 -0.6963
 6342SOL    HW230660   3.923   0.627  11.994 -2.0848 -1.3457 -0.9720
 6343SOL     OW30661   3.107   4.291   5.813  0.3241 -0.5958 -0.5021
 6343SOL    HW130662   3.021   4.250   5.820 -0.1022  0.4236  0.1676
 6343SOL    HW230663   3.130   4.315   5.903  0.5571 -0.6268 -0.5530
 6344SOL     OW30664   0.931   0.447   5.658 -0.0208 -0.2899  0.2795
 6344SOL    HW130665   0.860   0.420   5.600 -0.5552  1.4501  0.1150
 6344SOL    HW230666   1.003   0.435   5.597  1.3568 -1.3328  2.1450
 6345SOL     OW30667   0.177   2.276   9.268 -0.0008  0.3768 -0.6524
 6345SOL    HW130668   0.253   2.287   9.212 -0.4259  1.2861 -1.0411
 6345SOL    HW230669   0.175   2.353   9.324  1.7920  1.0836 -1.5568
 6346SOL     OW30670   3.910   3.040   8.187  0.0187  0.2231  0.1047
 6346SOL    HW130671   3.821   3.019   8.158  0.8764 -2.9929 -0.2114
 6346SOL    HW230672   3.934   2.952   8.217  0.3747 -0.2645 -1.5736
 6347SOL     OW30673   4.549   2.224  11.443  0.6248 -0.0844 -0.0189
 6347SOL    HW130674   4.642   2.208  11.431  0.8500  1.6977 -0.5954
 6347SOL    HW230675   4.552   2.283  11.518  1.3599  0.8807 -0.8064
 6348SOL     OW30676   4.356   1.770   6.530  0.4281 -0.2846 -0.3538
 6348SOL    HW130677   4.314   1.852   6.557 -2.4011 -1.5135 -1.1197
 6348SOL    HW230678   4.450   1.787   6.540  0.6594 -1.6095 -0.2485
 6349SOL     OW30679   0.407   4.398   1.544  0.3483 -0.1527  0.4295
 6349SOL    HW130680   0.339   4.453   1.507  1.4181 -0.3146 -1.7621
 6349SOL    HW230681   0.363   4.314   1.537 -0.2478  0.2317 -0.3973
 6350SOL     OW30682   4.401   1.664  16.574  0.5495  0.2434 -0.5664
 6350SOL    HW130683   4.390   1.683  16.481 -1.9688 -1.7438 -0.6587
 6350SOL    HW230684   4.329   1.714  16.611  0.3051 -0.1864 -0.4552
 6351SOL     OW30685   1.410   2.075   6.455  0.0938 -0.3604  0.6110
 6351SOL    HW130686   1.365   2.090   6.538 -1.1449 -0.3542 -0.0603
 6351SOL    HW230687   1.344   2.021   6.411  0.9699 -1.0221  0.1169
 6352SOL     OW30688   1.877   0.537   9.694  0.0867 -0.2634 -0.5462
 6352SOL    HW130689   1.968   0.526   9.667 -0.3313 -1.8738 -1.3301
 6352SOL    HW230690   1.872   0.623   9.736  0.3238 -0.6250  0.2248
 6353SOL     OW30691   3.243   0.881  15.705 -0.2570 -0.1180 -0.4778
 6353SOL    HW130692   3.181   0.813  15.732 -0.1144  0.5185  1.4266
 6353SOL    HW230693   3.297   0.838  15.639 -0.2547 -0.2072 -0.4182
 6354SOL     OW30694   4.267   1.114   4.075 -0.9210  0.2122 -0.3119
 6354SOL    HW130695   4.356   1.116   4.039 -0.8172 -2.8375 -0.2545
 6354SOL    HW230696   4.259   1.023   4.105  1.4042 -0.4511 -1.6657
 6355SOL     OW30697   2.169   0.718   1.244 -0.0925 -0.4542 -0.0337
 6355SOL    HW130698   2.115   0.796   1.258  0.3063 -0.0237 -0.8598
 6355SOL    HW230699   2.112   0.670   1.184  1.4416 -0.9341 -1.1147
 6356SOL     OW30700   1.693   3.778  14.675 -0.3900  0.1906  0.3687
 6356SOL    HW130701   1.754   3.810  14.741  1.5511 -0.2300 -1.2080
 6356SOL    HW230702   1.752   3.741  14.609 -2.1226 -2.7263  0.4428
 6357SOL     OW30703   1.911   1.485   5.121  0.3024  0.0962  0.3078
 6357SOL    HW130704   1.904   1.514   5.030 -0.0756  0.6217  0.5022
 6357SOL    HW230705   1.897   1.565   5.171  0.4500  0.0205  0.4702
 6358SOL     OW30706   4.143   2.146   6.367  0.1153  0.2089 -0.5378
 6358SOL    HW130707   4.217   2.133   6.426 -1.1474  0.4643  1.1115
 6358SOL    HW230708   4.070   2.181   6.418  1.8252  0.6624  1.6042
 6359SOL     OW30709   1.386   3.203  14.654  0.5878 -0.3239 -0.1892
 6359SOL    HW130710   1.374   3.275  14.715 -1.2639 -0.5016 -0.3456
 6359SOL    HW230711   1.458   3.159  14.700  2.0999  0.5632 -1.6817
 6360SOL     OW30712   2.911   3.626  11.584 -0.1763 -0.0458 -0.5355
 6360SOL    HW130713   2.843   3.643  11.650  1.2210  3.7508 -0.1230
 6360SOL    HW230714   2.971   3.697  11.607  0.4610 -0.1817 -1.7949
 6361SOL     OW30715   1.508   2.604  14.928  0.0541 -0.2658  0.0652
 6361SOL    HW130716   1.565   2.643  14.993  0.1982  1.3052 -1.0078
 6361SOL    HW230717   1.455   2.681  14.911  0.6519  0.2786  0.6734
 6362SOL     OW30718   2.183   0.115  16.181  0.0802  0.4550 -0.2049
 6362SOL    HW130719   2.176   0.031  16.227  0.2526  0.6828  0.2279
 6362SOL    HW230720   2.103   0.156  16.214  0.0697  0.4284 -0.1972
 6363SOL     OW30721   0.444   2.505   8.701  0.4064 -0.5665 -0.1640
 6363SOL    HW130722   0.476   2.476   8.616  1.6654 -0.4570  0.2804
 6363SOL    HW230723   0.494   2.587   8.707 -1.4809  0.6063 -0.2174
 6364SOL     OW30724   2.644   0.672   8.681  0.5065 -0.1991 -0.0873
 6364SOL    HW130725   2.586   0.615   8.732  0.6411  0.5009  0.8493
 6364SOL    HW230726   2.662   0.612   8.608  0.8841 -0.5255  0.2813
 6365SOL     OW30727   4.334   4.055   1.057  0.1326  0.2026  0.5235
 6365SOL    HW130728   4.331   4.086   1.147 -2.1361  2.9623 -0.5180
 6365SOL    HW230729   4.305   3.965   1.070  0.0944  0.4264  1.9376
 6366SOL     OW30730   0.916   1.090   2.542 -0.5591 -0.5230  1.0886
 6366SOL    HW130731   0.833   1.053   2.510 -0.3553 -0.0772  0.0475
 6366SOL    HW230732   0.968   1.010   2.539 -0.5487 -0.4750 -0.4266
 6367SOL     OW30733   1.825   4.738   8.276  0.1623 -0.3098 -0.1918
 6367SOL    HW130734   1.842   4.647   8.251  0.4983 -0.3910  0.3309
 6367SOL    HW230735   1.751   4.716   8.333  0.1270  1.8494  0.5813
 6368SOL     OW30736   0.931   2.107  17.312  0.2137  0.0910  0.4315
 6368SOL    HW130737   0.898   2.118  17.401  2.4614 -0.8919  1.3803
 6368SOL    HW230738   0.899   2.020  17.288  0.2128 -0.1459  1.3108
 6369SOL     OW30739   4.382   1.910  13.181 -0.0500  0.1532  0.3987
 6369SOL    HW130740   4.368   2.001  13.207 -1.0535  0.6969 -1.9624
 6369SOL    HW230741   4.411   1.915  13.090  0.9221  3.5224  0.9031
 6370SOL     OW30742   0.626   2.876   9.852 -0.0538  0.0638  0.5688
 6370SOL    HW130743   0.660   2.932   9.783  2.0289 -0.9457  0.7721
 6370SOL    HW230744   0.603   2.794   9.809  0.9099  1.2872 -2.2364
 6371SOL     OW30745   2.947   3.945  15.614  0.0756  0.5227  0.4491
 6371SOL    HW130746   3.012   4.010  15.640 -0.5679  1.4439 -0.2518
 6371SOL    HW230747   3.002   3.876  15.579  0.1916 -0.1339  1.9093
 6372SOL     OW30748   2.037   4.049  11.246 -0.1463  0.0780 -0.5477
 6372SOL    HW130749   2.047   3.957  11.272  0.7481  0.5790  0.8693
 6372SOL    HW230750   2.095   4.097  11.305  0.4353  0.0299 -1.0764
 6373SOL     OW30751   3.909   0.436   6.566  0.1785  0.2505 -0.0380
 6373SOL    HW130752   3.890   0.492   6.490 -3.8498 -1.9222 -0.6556
 6373SOL    HW230753   3.971   0.490   6.614  1.9281  1.0790 -3.2162
 6374SOL     OW30754   3.086   4.218   7.706 -0.5544 -0.0454  0.6691
 6374SOL    HW130755   3.012   4.273   7.680 -1.0509 -1.3347 -0.6795
 6374SOL    HW230756   3.100   4.158   7.632  1.7462  0.1692  0.9333
 6375SOL     OW30757   3.188   2.478   6.067  0.1285 -0.6439 -0.3421
 6375SOL    HW130758   3.201   2.514   6.155 -0.8597 -0.0964 -0.4172
 6375SOL    HW230759   3.124   2.412   6.093  0.8414 -0.5158  1.7331
 6376SOL     OW30760   3.672   2.896   3.478 -0.3684 -0.0288 -0.1450
 6376SOL    HW130761   3.584   2.894   3.516  0.1780  0.3577  1.1455
 6376SOL    HW230762   3.728   2.863   3.549 -0.8136 -0.2809  0.0899
 6377SOL     OW30763   0.809   4.490   4.790  0.1255 -0.0618 -0.2076
 6377SOL    HW130764   0.864   4.554   4.836  0.5170  0.5229 -1.5081
 6377SOL    HW230765   0.873   4.428   4.755 -0.8228 -1.9722  1.3916
 6378SOL     OW30766   1.187   1.426   8.678  0.2428  0.2405 -0.1772
 6378SOL    HW130767   1.127   1.501   8.680 -2.1226 -1.6674 -0.4745
 6378SOL    HW230768   1.167   1.392   8.765 -0.5859  2.1865  0.4043
 6379SOL     OW30769   2.568   2.365  15.268  0.0022 -0.3759 -0.0845
 6379SOL    HW130770   2.543   2.376  15.176  1.1192  1.0353 -0.2110
 6379SOL    HW230771   2.496   2.312  15.303 -0.7941 -0.2997 -1.6077
 6380SOL     OW30772   2.942   4.727   7.863  0.5085 -0.0195  0.3838
 6380SOL    HW130773   2.925   4.635   7.884 -0.3509 -0.1736 -0.9982
 6380SOL    HW230774   3.031   0.005   7.892  1.2432 -0.6731 -1.5237
 6381SOL     OW30775   4.397   4.363   4.799  0.5010  0.0889  0.0601
 6381SOL    HW130776   4.412   4.298   4.731 -1.2274 -2.8784  2.5505
 6381SOL    HW230777   4.384   4.304   4.873 -0.9081  2.5437  1.7835
 6382SOL     OW30778   4.409   1.546  11.318 -0.0451 -0.6637  0.4793
 6382SOL    HW130779   4.381   1.494  11.393 -3.0925  0.3306  0.0463
 6382SOL    HW230780   4.453   1.617  11.365  0.0130 -0.0943 -0.4139
 6383SOL     OW30781   0.723   0.186   5.885 -0.1777  0.4580 -0.3829
 6383SOL    HW130782   0.694   0.203   5.795 -0.9034  0.2900 -0.1787
 6383SOL    HW230783   0.752   0.097   5.868 -2.1531 -0.2367 -0.1472
 6384SOL     OW30784   4.498   0.674  12.474  0.1125 -0.4286  0.2800
 6384SOL    HW130785   4.461   0.643  12.391 -0.7142 -0.0413  0.5097
 6384SOL    HW230786   4.531   0.761  12.452  1.3924 -0.8180  0.6551
 6385SOL     OW30787   0.762   0.496   9.509 -0.3696 -0.4035  0.3079
 6385SOL    HW130788   0.843   0.449   9.490 -0.3987 -0.3135 -0.0366
 6385SOL    HW230789   0.746   0.462   9.598  0.0970 -2.5387 -0.4176
 6386SOL     OW30790   0.160   0.050  14.345 -0.3645 -0.5712  0.0165
 6386SOL    HW130791   0.126   4.703  14.316 -1.7370 -0.3834  1.0540
 6386SOL    HW230792   0.099   0.061  14.418 -1.5896  0.1500 -1.1136
 6387SOL     OW30793   0.240   2.770   6.772  0.0185 -0.3669  0.2986
 6387SOL    HW130794   0.223   2.765   6.866 -1.4157  0.9660  0.1076
 6387SOL    HW230795   0.285   2.854   6.765  0.6109 -0.8221 -1.2091
 6388SOL     OW30796   4.373   0.098   2.683 -0.4530 -0.0513  0.0511
 6388SOL    HW130797   4.465   0.120   2.668 -0.2892 -1.3097 -0.7816
 6388SOL    HW230798   4.344   0.057   2.602  1.4403 -2.3613  0.5436
 6389SOL     OW30799   0.333   3.760   6.649  0.1944  0.2702  0.1241
 6389SOL    HW130800   0.407   3.820   6.655  0.1732  0.3113 -0.0476
 6389SOL    HW230801   0.312   3.752   6.742 -1.9380 -1.3778 -0.4919
 6390SOL     OW30802   1.664   3.545  13.708 -0.2516 -0.4126  0.4925
 6390SOL    HW130803   1.710   3.555  13.624 -0.4801  2.5415  0.7066
 6390SOL    HW230804   1.585   3.508  13.669  0.4971 -2.8476  1.2866
 6391SOL     OW30805   0.135   1.228   0.154 -0.1105  0.1737  0.3759
 6391SOL    HW130806   0.145   1.189   0.067 -0.6708 -0.6988  0.6978
 6391SOL    HW230807   0.041   1.219   0.165 -0.4156  0.9051 -1.8557
 6392SOL     OW30808   2.103   3.103   0.309 -0.0393 -0.1432  0.1480
 6392SOL    HW130809   2.091   3.081   0.401 -2.3002 -1.8096 -0.5500
 6392SOL    HW230810   2.183   3.053   0.290  0.9483  1.8052 -0.8754
 6393SOL     OW30811   1.109   2.222   0.726  0.4922 -0.0335  0.0905
 6393SOL    HW130812   1.101   2.210   0.631 -2.1835 -1.9930  0.5513
 6393SOL    HW230813   1.066   2.308   0.729 -1.6678 -1.1508  1.4243
 6394SOL     OW30814   2.649   0.904   8.914 -0.2502  0.1751  0.2505
 6394SOL    HW130815   2.587   0.854   8.861 -0.4154  1.1386 -0.4814
 6394SOL    HW230816   2.590   0.977   8.936  0.8962  0.4187  2.5199
 6395SOL     OW30817   4.454   1.569   0.935 -0.0621 -0.7990  0.5074
 6395SOL    HW130818   4.418   1.481   0.930 -0.1531 -0.7453  0.2183
 6395SOL    HW230819   4.548   1.550   0.936  0.4728  1.7636 -0.4950
 6396SOL     OW30820   4.338   1.164  12.906  0.2864 -0.9923 -0.0592
 6396SOL    HW130821   4.314   1.139  12.995  1.0363  1.6163  0.8638
 6396SOL    HW230822   4.256   1.205  12.878  0.3879 -0.9612 -0.3124
 6397SOL     OW30823   1.611   1.799   1.270  0.1904  0.5211  0.6072
 6397SOL    HW130824   1.650   1.878   1.307  1.9983 -0.0043 -0.1746
 6397SOL    HW230825   1.526   1.810   1.313  0.3566 -0.3022  1.1485
 6398SOL     OW30826   4.255   0.027   9.277  0.3096  0.2648  1.4143
 6398SOL    HW130827   4.310   0.045   9.201 -0.4729  1.6218  1.1564
 6398SOL    HW230828   4.182   4.718   9.238  0.0064  0.3583  1.8682
 6399SOL     OW30829   1.437   0.629  13.394  0.8780  0.6247  0.2517
 6399SOL    HW130830   1.365   0.652  13.336 -0.9260  0.0434  2.2474
 6399SOL    HW230831   1.411   0.546  13.436 -1.5898  0.5076 -1.5355
 6400SOL     OW30832   3.954   1.200   0.253  0.3388  0.3083  0.8746
 6400SOL    HW130833   4.014   1.168   0.186 -0.9588  0.6576 -0.4426
 6400SOL    HW230834   3.965   1.294   0.246 -0.1634  0.3501  0.6593
 6401SOL     OW30835   1.454   4.582  10.552  0.5190 -0.2115 -0.5089
 6401SOL    HW130836   1.411   4.566  10.636 -2.2146  0.2745 -1.8275
 6401SOL    HW230837   1.484   4.672  10.557 -1.2461  0.3190  0.2773
 6402SOL     OW30838   3.075   4.057   4.236 -0.6284 -0.4451  0.0866
 6402SOL    HW130839   3.156   4.077   4.190 -0.3558 -2.9647 -0.5489
 6402SOL    HW230840   3.025   4.012   4.168 -0.7587 -1.4474  0.8498
 6403SOL     OW30841   0.540   3.235   2.667  0.1347  0.1081  0.6857
 6403SOL    HW130842   0.447   3.246   2.645  0.5210 -0.1684 -1.0976
 6403SOL    HW230843   0.548   3.143   2.641 -5.9526 -1.1625  3.1791
 6404SOL     OW30844   2.503   4.369   6.867 -0.2164  0.2422  0.0962
 6404SOL    HW130845   2.455   4.416   6.935 -1.8565  0.7603 -1.4148
 6404SOL    HW230846   2.571   4.433   6.846  0.1048 -0.0311  0.2909
 6405SOL     OW30847   3.337   3.759   1.754  0.1696  0.0731 -0.4076
 6405SOL    HW130848   3.429   3.783   1.753 -0.1200  0.9922 -3.4729
 6405SOL    HW230849   3.329   3.734   1.847  0.1199 -0.1882 -0.4812
 6406SOL     OW30850   4.020   2.568   4.335 -0.4559 -0.1509 -0.3969
 6406SOL    HW130851   3.932   2.566   4.297 -1.8356  1.9278  2.6478
 6406SOL    HW230852   4.045   2.476   4.328  3.2107  0.7780  0.7162
 6407SOL     OW30853   1.753   1.992   0.794 -0.2873  0.1112 -0.0565
 6407SOL    HW130854   1.844   1.964   0.802 -0.1915  0.9575  1.7480
 6407SOL    HW230855   1.710   1.917   0.836  0.8830 -1.5877 -1.8834
 6408SOL     OW30856   2.366   3.431  14.141 -0.3939  0.2143 -0.4119
 6408SOL    HW130857   2.329   3.487  14.073  1.3469  0.5373 -1.0937
 6408SOL    HW230858   2.327   3.463  14.222  0.9848  2.3374 -0.6032
 6409SOL     OW30859   1.700   3.985   1.349 -0.5038 -0.8135  0.4588
 6409SOL    HW130860   1.621   4.038   1.354  0.9378  1.2004  2.2164
 6409SOL    HW230861   1.770   4.043   1.379 -2.0286 -0.6609  3.6478
 6410SOL     OW30862   4.039   1.048   8.143  0.2299  0.4918  0.0999
 6410SOL    HW130863   3.966   0.989   8.161  1.0265 -0.7005 -0.5935
 6410SOL    HW230864   4.057   1.022   8.053 -4.0091 -0.5444 -0.4627
 6411SOL     OW30865   2.366   4.006   7.009  0.3971  0.2416  0.0771
 6411SOL    HW130866   2.296   4.066   7.034  0.2980 -0.0523  0.5172
 6411SOL    HW230867   2.380   4.044   6.923 -1.0440 -0.3845 -0.4393
 6412SOL     OW30868   4.550   4.596   8.102  0.0239  0.2629  0.3125
 6412SOL    HW130869   4.532   4.641   8.185  0.7961  0.3621  0.4272
 6412SOL    HW230870   4.524   4.506   8.118 -0.9113  0.2684 -1.2087
 6413SOL     OW30871   3.655   4.639   7.557  0.0598 -0.0116  0.3353
 6413SOL    HW130872   3.666   4.707   7.491  0.0196 -0.5967 -0.2643
 6413SOL    HW230873   3.612   4.687   7.629  1.1170  1.9574 -0.3370
 6414SOL     OW30874   1.204   1.467   1.762  0.2589  0.5103  0.8204
 6414SOL    HW130875   1.258   1.541   1.790 -0.2103  0.6612  1.3405
 6414SOL    HW230876   1.133   1.509   1.714  0.8169 -0.3139 -0.7041
 6415SOL     OW30877   2.959   2.419   2.115  0.1817  0.0536  0.3616
 6415SOL    HW130878   2.993   2.440   2.029  1.8919  0.9732  1.2664
 6415SOL    HW230879   3.032   2.368   2.151  1.5837  1.5937 -0.3246
 6416SOL     OW30880   1.900   0.585   1.378 -0.1088 -0.4840 -0.2767
 6416SOL    HW130881   1.962   0.590   1.450 -0.4469 -1.9274  0.1090
 6416SOL    HW230882   1.824   0.635   1.409 -0.0140 -0.6251  0.1767
 6417SOL     OW30883   2.566   1.622   7.551 -0.1912 -0.3112 -0.0535
 6417SOL    HW130884   2.647   1.606   7.503 -0.6201 -0.6651 -0.6605
 6417SOL    HW230885   2.514   1.547   7.523 -0.6338  0.4405 -1.2800
 6418SOL     OW30886   4.414   1.058   0.034 -0.2226 -0.1007  0.3698
 6418SOL    HW130887   4.348   1.060   0.103  0.6369 -1.7096  1.2495
 6418SOL    HW230888   4.394   1.139  17.740  0.6264 -0.3588 -0.4546
 6419SOL     OW30889   2.231   4.266   2.642 -0.0096 -0.2338  0.1863
 6419SOL    HW130890   2.302   4.213   2.679 -0.6004 -1.4136 -0.3482
 6419SOL    HW230891   2.254   4.261   2.549  2.0805 -0.9915  0.7374
 6420SOL     OW30892   1.496   4.299   9.251  0.3654  0.2704 -0.1319
 6420SOL    HW130893   1.453   4.300   9.336  0.1411 -0.4730 -0.2300
 6420SOL    HW230894   1.589   4.302   9.274  0.5645 -0.1708 -0.8640
 6421SOL     OW30895   0.922   0.308   8.159 -0.2788  0.1803  0.2877
 6421SOL    HW130896   0.966   0.333   8.241 -2.7953 -1.5551  2.1720
 6421SOL    HW230897   0.960   0.380   8.109 -0.3364 -0.4171 -0.6107
 6422SOL     OW30898   4.271   4.381  10.651 -0.3985  0.6527  0.1701
 6422SOL    HW130899   4.316   4.376  10.566  0.5839  0.5623  0.7020
 6422SOL    HW230900   4.344   4.364  10.711  1.5796  0.6243 -2.2298
 6423SOL     OW30901   3.919   4.304   4.993  0.4894 -0.1645  0.0413
 6423SOL    HW130902   3.838   4.347   4.965 -0.9442 -0.9959  2.9779
 6423SOL    HW230903   3.955   4.386   5.027 -3.4316  1.5313  0.0911
 6424SOL     OW30904   0.916   0.621   3.335  0.0719  0.2639 -0.0180
 6424SOL    HW130905   0.868   0.543   3.362 -1.6851  1.1987 -0.3982
 6424SOL    HW230906   0.987   0.582   3.284  0.3248  0.4434  0.1984
 6425SOL     OW30907   1.634   1.080  11.006  0.3328 -0.1449  0.2782
 6425SOL    HW130908   1.712   1.071  10.952  1.1288  2.0369  1.0744
 6425SOL    HW230909   1.653   1.138  11.081  1.8768 -0.2124 -0.0635
 6426SOL     OW30910   4.044   1.335   4.733  0.7064  0.1178  0.3850
 6426SOL    HW130911   4.111   1.373   4.676  1.0815  1.6703  1.8419
 6426SOL    HW230912   3.987   1.291   4.670 -2.2022  3.0780  0.9559
 6427SOL     OW30913   3.702   0.606   7.887  0.6406  0.3920 -0.5731
 6427SOL    HW130914   3.630   0.666   7.904 -1.2289 -0.8760 -4.0355
 6427SOL    HW230915   3.693   0.607   7.792 -0.8745 -0.5081 -0.4350
 6428SOL     OW30916   3.043   1.493  13.920  0.1983  0.0246 -0.1407
 6428SOL    HW130917   2.952   1.519  13.907 -0.0304 -0.8370 -0.2641
 6428SOL    HW230918   3.079   1.563  13.974 -2.7414  0.8794  0.6928
 6429SOL     OW30919   0.561   1.557   3.425 -0.5724 -0.0695 -0.4400
 6429SOL    HW130920   0.525   1.501   3.355 -2.4448  0.7703 -0.1516
 6429SOL    HW230921   0.643   1.515   3.450 -1.0367 -0.9633 -0.3907
 6430SOL     OW30922   2.041   0.480   8.677  0.2829  0.0183  0.1047
 6430SOL    HW130923   2.065   0.525   8.595 -0.4835 -2.5290 -1.5294
 6430SOL    HW230924   1.952   0.454   8.652  1.2569 -2.5161 -0.7553
 6431SOL     OW30925   2.866   0.199   3.153 -0.1085  0.7960 -0.6833
 6431SOL    HW130926   2.843   0.196   3.246  1.3319 -1.3483 -0.3786
 6431SOL    HW230927   2.955   0.163   3.156 -0.0643  0.9470 -0.2261
 6432SOL     OW30928   1.922   3.222   2.854  0.0043 -0.1623 -0.2475
 6432SOL    HW130929   1.858   3.209   2.784  0.0663 -0.1279 -0.3102
 6432SOL    HW230930   1.999   3.238   2.800  0.4712  0.0551  0.4823
 6433SOL     OW30931   4.592   2.213   6.775 -0.2466  0.2194 -0.9377
 6433SOL    HW130932   4.583   2.124   6.808 -0.4683  0.5717 -0.0473
 6433SOL    HW230933   4.676   2.200   6.730 -0.4205 -1.8122 -0.6756
 6434SOL     OW30934   4.238   1.385  10.819 -0.5777 -0.2030 -0.3921
 6434SOL    HW130935   4.193   1.398  10.903 -1.1971  2.5488 -1.1294
 6434SOL    HW230936   4.328   1.406  10.847 -1.0339  0.6113  0.4542
 6435SOL     OW30937   0.612   4.382   3.300 -0.1858  0.2684 -0.0307
 6435SOL    HW130938   0.675   4.319   3.334 -0.6920 -0.5349 -0.6040
 6435SOL    HW230939   0.658   4.411   3.221 -0.9440 -0.2444 -0.6592
 6436SOL     OW30940   2.977   3.518  10.883  0.5180  0.6562 -0.3291
 6436SOL    HW130941   2.946   3.609  10.880 -1.0512  0.1507  0.4378
 6436SOL    HW230942   3.025   3.512  10.965  1.4180  0.4157 -0.8715
 6437SOL     OW30943   1.860   2.492   8.592  0.4230 -0.3185 -0.4957
 6437SOL    HW130944   1.780   2.457   8.554 -0.1138 -0.1273  0.4638
 6437SOL    HW230945   1.855   2.446   8.676  0.8242  1.9974  0.7907
 6438SOL     OW30946   4.494   0.792   7.792  0.2309 -0.3668  0.0359
 6438SOL    HW130947   4.497   0.768   7.885 -1.3489 -1.8154 -0.2976
 6438SOL    HW230948   4.573   0.846   7.799  1.2305 -1.7300 -0.6889
 6439SOL     OW30949   0.174   0.799   7.472  0.2182 -0.6393  0.3659
 6439SOL    HW130950   0.140   0.744   7.543  1.1642  0.3055  1.5475
 6439SOL    HW230951   0.247   0.849   7.509  1.0022 -1.0786 -0.5838
 6440SOL     OW30952   2.179   2.564   9.562 -0.3964  0.0302  0.3549
 6440SOL    HW130953   2.145   2.617   9.634 -1.8442 -0.1206 -0.2304
 6440SOL    HW230954   2.128   2.586   9.484  0.8166 -1.0965 -0.7705
 6441SOL     OW30955   3.158   1.914   4.475  0.2115 -0.0584  0.1602
 6441SOL    HW130956   3.066   1.899   4.498 -0.6985  0.3260 -3.2332
 6441SOL    HW230957   3.184   1.834   4.520  0.9638  1.2019  1.9818
 6442SOL     OW30958   2.349   3.473  16.156  0.3598 -0.3315  0.4195
 6442SOL    HW130959   2.290   3.544  16.132 -0.0181 -0.2927  1.4774
 6442SOL    HW230960   2.285   3.410  16.188  0.7992 -0.8196  0.3363
 6443SOL     OW30961   2.278   3.738   3.155  0.0107  0.0835  0.6181
 6443SOL    HW130962   2.352   3.768   3.207 -0.3120  2.3857 -0.2487
 6443SOL    HW230963   2.315   3.702   3.075  1.0660 -1.8062  1.9551
 6444SOL     OW30964   0.281   2.527   2.305  0.0204  0.2673 -0.0235
 6444SOL    HW130965   0.268   2.616   2.271 -0.5328  0.5289  0.8696
 6444SOL    HW230966   0.310   2.543   2.394 -0.1024  0.6557 -0.0497
 6445SOL     OW30967   0.301   3.797   1.065 -0.0377 -0.5013  0.6983
 6445SOL    HW130968   0.328   3.851   1.139 -3.7786 -0.7985  2.2676
 6445SOL    HW230969   0.206   3.807   1.065 -0.3990 -3.8608 -2.9372
 6446SOL     OW30970   0.154   0.024   3.506  0.1387  0.0820 -0.2988
 6446SOL    HW130971   0.122   4.719   3.585 -2.6819  2.1173 -0.3269
 6446SOL    HW230972   0.098   4.731   3.435  0.6113  2.2520 -1.6237
 6447SOL     OW30973   2.943   1.584   4.982 -0.6013  0.6471  0.3658
 6447SOL    HW130974   3.035   1.565   4.999 -0.8085 -0.1434  0.5970
 6447SOL    HW230975   2.915   1.588   5.074 -1.1599  2.8397  0.1103
 6448SOL     OW30976   3.464   4.250   5.971  0.0916 -0.5555  0.0624
 6448SOL    HW130977   3.470   4.267   6.065 -0.8551 -0.7087  0.1442
 6448SOL    HW230978   3.454   4.155   5.967 -1.2863 -0.2784 -2.8322
 6449SOL     OW30979   1.337   4.214   7.198  0.2446  0.3952  0.0473
 6449SOL    HW130980   1.429   4.206   7.173  0.0855 -0.4628 -0.2490
 6449SOL    HW230981   1.343   4.249   7.287  0.0881  0.0399  0.1971
 6450SOL     OW30982   1.050   1.833   1.571 -0.4865 -0.0893 -0.4576
 6450SOL    HW130983   1.047   1.870   1.659 -0.5914  1.2004 -1.0020
 6450SOL    HW230984   0.976   1.775   1.583 -1.5469  0.7239 -2.9385
 6451SOL     OW30985   4.257   2.136   4.580 -0.0428  0.4435 -0.5702
 6451SOL    HW130986   4.210   2.072   4.526 -0.2719  1.6911 -1.8589
 6451SOL    HW230987   4.263   2.090   4.664 -1.4780  1.8326  0.3115
 6452SOL     OW30988   4.066   0.780   7.005  0.2387  0.2981  0.4759
 6452SOL    HW130989   4.096   0.698   7.043 -1.4233 -0.6939 -0.3650
 6452SOL    HW230990   4.134   0.836   7.043 -0.2932  1.0135  0.3870
 6453SOL     OW30991   4.486   1.105   7.882  0.0853 -0.3181  0.5364
 6453SOL    HW130992   4.403   1.152   7.877 -0.2098 -0.8925  0.1610
 6453SOL    HW230993   4.453   1.040   7.943  1.3623 -1.2706  0.2024
 6454SOL     OW30994   0.807   2.721   3.267 -0.3017  0.1664  0.4760
 6454SOL    HW130995   0.826   2.805   3.224  3.9788 -0.1983  1.5983
 6454SOL    HW230996   0.781   2.741   3.357 -0.0178 -0.0778  0.6131
 6455SOL     OW30997   3.808   0.817   7.010  0.3141  0.1631 -0.4948
 6455SOL    HW130998   3.820   0.907   7.041  0.5092 -0.1648  0.4000
 6455SOL    HW230999   3.901   0.794   7.005  0.5070  0.8237 -0.0389
 6456SOL     OW31000   0.980   4.458   8.164  0.9654 -0.3883 -0.6432
 6456SOL    HW131001   0.987   4.477   8.258 -0.2384  0.1507 -0.6670
 6456SOL    HW231002   0.899   4.499   8.133  1.2609  0.8187  0.1727
 6457SOL     OW31003   1.982   3.997  14.487 -0.1535 -0.3415  0.0591
 6457SOL    HW131004   1.967   4.033  14.400  0.1734  0.1229  0.1955
 6457SOL    HW231005   1.900   4.027  14.526  0.5795  1.3984  0.2427
 6458SOL     OW31006   4.583   2.402  16.018 -0.1394  1.0302  0.3997
 6458SOL    HW131007   4.645   2.459  16.065  2.4500 -1.7385  0.3622
 6458SOL    HW231008   4.640   2.330  15.992 -1.1041  0.4414 -0.0623
 6459SOL     OW31009   0.002   1.491   0.985  0.0265 -0.3517 -0.1308
 6459SOL    HW131010   0.030   1.403   0.961  1.8251  0.4874 -1.0508
 6459SOL    HW231011   4.708   1.475   1.074  0.5557 -0.4655  0.0419
 6460SOL     OW31012   0.180   1.398   7.573  0.5337  0.0124 -0.0355
 6460SOL    HW131013   0.259   1.357   7.608 -0.8909 -2.2883  0.5085
 6460SOL    HW231014   0.142   1.437   7.651  1.1912  1.0765 -0.2433
 6461SOL     OW31015   0.992   3.655   7.223  0.3535 -0.5641 -0.0267
 6461SOL    HW131016   0.968   3.575   7.176 -1.4199  0.5627 -1.0587
 6461SOL    HW231017   0.961   3.721   7.160  0.5902 -0.2148  0.2233
 6462SOL     OW31018   4.047   0.634   6.703  0.1923  0.4696 -0.0745
 6462SOL    HW131019   4.004   0.639   6.789  0.0956  0.5643 -0.1282
 6462SOL    HW231020   4.086   0.720   6.688 -0.0306  1.1809  3.4284
 6463SOL     OW31021   0.797   1.693   9.079 -0.4934 -0.2041 -0.4137
 6463SOL    HW131022   0.746   1.612   9.086  0.2988 -0.7380 -0.8543
 6463SOL    HW231023   0.884   1.667   9.110  0.8611  1.1180 -3.1804
 6464SOL     OW31024   0.198   3.765   1.869 -0.3032 -0.0305  0.3326
 6464SOL    HW131025   0.207   3.675   1.840  2.2555  0.4821 -0.5239
 6464SOL    HW231026   0.141   3.758   1.945  0.4393 -0.3855  0.8531
 6465SOL     OW31027   3.827   2.211   7.155  0.4348 -0.2381  0.0003
 6465SOL    HW131028   3.912   2.212   7.200  0.3533  0.8134  0.1304
 6465SOL    HW231029   3.828   2.292   7.105 -1.3918 -0.5354 -0.4950
 6466SOL     OW31030   0.417   0.667   3.548  0.0275 -0.1287 -0.8313
 6466SOL    HW131031   0.394   0.664   3.641  2.9726  1.2413 -0.0439
 6466SOL    HW231032   0.336   0.627   3.519  2.1170 -4.9607  0.0650
 6467SOL     OW31033   2.187   2.649  11.556 -0.0189  0.4479  0.1784
 6467SOL    HW131034   2.258   2.705  11.525 -0.0641  0.5351  0.2321
 6467SOL    HW231035   2.217   2.562  11.530 -1.3826  0.0096  0.0686
 6468SOL     OW31036   1.978   0.396   2.887  0.0879 -0.5051 -0.3952
 6468SOL    HW131037   1.916   0.323   2.889  1.8697 -2.1333 -3.8888
 6468SOL    HW231038   1.937   0.461   2.945  0.5183 -1.3754  0.8867
 6469SOL     OW31039   0.555   3.010   4.813 -0.0659 -0.4076  0.3471
 6469SOL    HW131040   0.617   2.987   4.883  1.4315 -1.9470 -1.4805
 6469SOL    HW231041   0.482   3.029   4.872  0.4912  1.4797  0.4479
 6470SOL     OW31042   4.670   2.422   8.265  0.2574 -0.0444  0.1570
 6470SOL    HW131043   4.688   2.374   8.184  2.1653  0.5234  0.2417
 6470SOL    HW231044   4.672   2.348   8.325 -2.7822 -0.5012 -0.3132
 6471SOL     OW31045   1.738   1.142  15.399  0.2083 -0.4248  0.3874
 6471SOL    HW131046   1.833   1.130  15.398  0.3596  0.6685  1.1454
 6471SOL    HW231047   1.709   1.166  15.311 -2.1473  0.1444  1.3345
 6472SOL     OW31048   2.622   2.712   7.058 -0.1971 -0.0251  0.3686
 6472SOL    HW131049   2.598   2.793   7.013  1.3989  0.0697 -0.3251
 6472SOL    HW231050   2.689   2.727   7.124 -0.9741  0.3768  1.0561
 6473SOL     OW31051   3.682   4.293   5.460  0.3331 -0.0743 -0.5669
 6473SOL    HW131052   3.663   4.220   5.402 -2.2808 -1.2197  1.7332
 6473SOL    HW231053   3.639   4.270   5.543  0.6149  2.4219  0.2647
 6474SOL     OW31054   2.664   4.061   2.453 -0.7859 -0.3890 -0.2701
 6474SOL    HW131055   2.601   4.045   2.382 -0.7119 -0.3361 -0.3471
 6474SOL    HW231056   2.676   3.971   2.484 -0.7191 -0.5287 -0.6952
 6475SOL     OW31057   3.269   4.659   4.826  0.2223  0.6452  0.4385
 6475SOL    HW131058   3.187   4.676   4.873 -0.6199  1.3616 -1.2842
 6475SOL    HW231059   3.286   4.725   4.759  0.1721 -0.8653 -1.0777
 6476SOL     OW31060   4.002   0.867  10.109 -0.3912  0.7253  0.5853
 6476SOL    HW131061   3.960   0.938  10.061  1.1404  0.4073 -1.2167
 6476SOL    HW231062   4.085   0.866  10.061  0.0247 -0.6487  1.3344
 6477SOL     OW31063   1.657   1.639  11.765  0.9548 -0.0761 -0.0155
 6477SOL    HW131064   1.684   1.598  11.683  1.1723  0.1031 -0.0323
 6477SOL    HW231065   1.742   1.640  11.811  0.7014 -0.5553  0.4711
 6478SOL     OW31066   0.547   0.702   6.442  0.2882  0.4051 -0.1343
 6478SOL    HW131067   0.526   0.783   6.396 -0.6442  1.3772  1.9776
 6478SOL    HW231068   0.474   0.652   6.406 -1.1126  1.4965  1.1594
 6479SOL     OW31069   3.488   2.768   1.395  0.4588  0.3777  0.4936
 6479SOL    HW131070   3.417   2.732   1.449  1.1910 -2.8783 -0.6777
 6479SOL    HW231071   3.453   2.759   1.307 -0.3726 -0.0976  0.8677
 6480SOL     OW31072   0.237   0.729   4.555  0.2814  0.3260 -0.5222
 6480SOL    HW131073   0.193   0.668   4.496 -2.3926  0.2135  1.5724
 6480SOL    HW231074   0.315   0.757   4.509  2.4704 -2.2400  1.5760
 6481SOL     OW31075   0.029   0.522   7.384  0.2721 -0.0340 -0.5373
 6481SOL    HW131076   0.123   0.526   7.398  0.1048 -0.9673  0.8780
 6481SOL    HW231077   0.008   0.612   7.358 -0.0865 -0.1473 -0.6458
 6482SOL     OW31078   0.110   0.535   4.922 -0.1594 -0.1575 -0.2505
 6482SOL    HW131079   0.177   0.599   4.894  0.6409 -2.0852 -2.8044
 6482SOL    HW231080   0.052   0.528   4.846 -0.3857 -2.1742  0.1209
 6483SOL     OW31081   0.051   3.452   3.026 -0.2649  0.1325 -0.1937
 6483SOL    HW131082   4.702   3.466   3.062 -0.0619  0.1668  0.2863
 6483SOL    HW231083   0.100   3.529   3.056  4.8394 -2.5870 -1.4848
 6484SOL     OW31084   4.006   2.912  15.424 -0.0170 -0.2628 -0.5835
 6484SOL    HW131085   4.024   2.933  15.332 -0.0483  0.7361 -0.3576
 6484SOL    HW231086   4.059   2.835  15.447 -1.0729 -0.7619  0.1478
 6485SOL     OW31087   3.129   0.474  10.847  0.0432  0.6224 -0.1390
 6485SOL    HW131088   3.033   0.482  10.851 -0.1005  0.1792 -2.4825
 6485SOL    HW231089   3.147   0.482  10.941 -0.8366  0.5523  0.0336
 6486SOL     OW31090   2.777   4.158   5.250  0.5638 -0.5173 -0.1992
 6486SOL    HW131091   2.859   4.144   5.204  2.5470  0.0959  3.1497
 6486SOL    HW231092   2.724   4.087   5.213  1.1051 -1.6295  1.1857
 6487SOL     OW31093   2.658   3.923   5.186 -0.5962 -0.5470  0.0319
 6487SOL    HW131094   2.606   3.847   5.211 -0.5436 -1.2361 -1.9883
 6487SOL    HW231095   2.669   3.908   5.092  1.1437  1.5417 -0.0914
 6488SOL     OW31096   3.280   1.865   5.248  0.4655 -0.0244 -0.2582
 6488SOL    HW131097   3.279   1.883   5.154 -0.6601 -0.1222 -0.2689
 6488SOL    HW231098   3.372   1.882   5.270 -0.1291  2.9644 -0.0500
 6489SOL     OW31099   3.783   0.439   8.505 -0.2546  0.0685 -0.4378
 6489SOL    HW131100   3.714   0.390   8.460 -1.3261 -0.3560  1.6721
 6489SOL    HW231101   3.725   0.475   8.571 -0.3434 -1.3048  0.2388
 6490SOL     OW31102   0.993   3.516  13.423  0.5219  0.4258  0.5952
 6490SOL    HW131103   0.959   3.510  13.334 -1.2009 -0.2555  1.2963
 6490SOL    HW231104   1.073   3.562  13.400  0.6934  0.0032  0.3536
 6491SOL     OW31105   1.674   3.608  14.910 -0.6210  0.3180  0.4406
 6491SOL    HW131106   1.680   3.661  14.831 -0.6680  0.0278  0.2408
 6491SOL    HW231107   1.761   3.571  14.923 -1.0650 -0.8087  0.2699
 6492SOL     OW31108   0.217   1.707   8.374  0.4029  0.0029  0.2402
 6492SOL    HW131109   0.189   1.687   8.463 -0.7220  0.6698  0.0436
 6492SOL    HW231110   0.312   1.699   8.376  0.3480 -0.7531  0.0496
 6493SOL     OW31111   0.909   0.834   8.526 -0.0343 -0.7011 -0.9001
 6493SOL    HW131112   0.963   0.912   8.540  3.1588 -3.0820 -0.0243
 6493SOL    HW231113   0.941   0.774   8.593  0.6227  1.4835  0.7077
 6494SOL     OW31114   2.974   2.402   3.882 -0.0108  0.3550  0.0573
 6494SOL    HW131115   2.932   2.337   3.939  1.8573  0.9239  2.0958
 6494SOL    HW231116   2.906   2.432   3.822  0.5831  1.3641 -0.1191
 6495SOL     OW31117   0.921   2.999   8.189 -0.4234 -0.4657 -0.1412
 6495SOL    HW131118   0.885   3.003   8.278 -2.1719 -0.8022 -0.8326
 6495SOL    HW231119   0.929   2.905   8.171 -0.7156 -0.0214 -2.4771
 6496SOL     OW31120   0.075   0.304   6.148  0.4654  0.9769 -0.1351
 6496SOL    HW131121   0.090   0.224   6.098  1.5198  0.6816  0.6594
 6496SOL    HW231122   0.160   0.341   6.126  0.7140  0.1229 -0.5661
 6497SOL     OW31123   0.981   4.214   3.284  0.2965  0.4804  0.7617
 6497SOL    HW131124   1.068   4.198   3.320  0.7223 -1.0843 -1.0231
 6497SOL    HW231125   0.998   4.195   3.192 -0.9377 -0.0849  0.6405
 6498SOL     OW31126   1.529   0.642  14.369  0.1109 -0.9711 -0.1720
 6498SOL    HW131127   1.527   0.687  14.454 -1.0448  1.7063 -1.6100
 6498SOL    HW231128   1.506   0.553  14.396 -1.3828 -0.7138 -0.6010
 6499SOL     OW31129   2.800   2.420   9.510  0.0494  0.4792 -0.5818
 6499SOL    HW131130   2.798   2.372   9.427  2.9509 -1.7062  0.5895
 6499SOL    HW231131   2.734   2.487   9.496 -1.3255 -0.9199 -0.7976
 6500SOL     OW31132   0.976   0.892   8.844 -0.1517 -0.1400  0.3841
 6500SOL    HW131133   0.999   0.839   8.768  1.1298  1.3118 -0.2342
 6500SOL    HW231134   0.883   0.866   8.844 -0.9881  2.8903  2.6102
 6501SOL     OW31135   1.033   2.678   7.869  0.5121 -0.1231  0.3713
 6501SOL    HW131136   1.013   2.585   7.868 -1.8921  0.4245 -2.9689
 6501SOL    HW231137   0.946   2.712   7.848  1.6756  1.3353 -2.1467
 6502SOL     OW31138   4.315   0.059  13.659 -0.0729 -0.3597 -0.6985
 6502SOL    HW131139   4.233   0.070  13.610 -0.0271  2.6285 -0.1476
 6502SOL    HW231140   4.290   4.722  13.712 -0.7331 -0.4188 -1.0896
 6503SOL     OW31141   2.131   3.387   5.600  0.5252 -0.1249 -0.1731
 6503SOL    HW131142   2.070   3.438   5.653 -0.2793  0.9915 -2.1854
 6503SOL    HW231143   2.176   3.455   5.551  2.1273 -1.3461 -0.4047
 6504SOL     OW31144   0.605   2.257   5.839  0.5166  0.0972 -0.3860
 6504SOL    HW131145   0.639   2.202   5.768  2.2112  0.9497 -0.2475
 6504SOL    HW231146   0.579   2.183   5.893  0.8140  1.4028  1.5484
 6505SOL     OW31147   3.110   0.666  14.058  0.5373  0.1921 -0.3294
 6505SOL    HW131148   3.080   0.668  14.149  1.2157  1.2211 -0.1278
 6505SOL    HW231149   3.110   0.757  14.027  2.0218  0.5776  0.8347
 6506SOL     OW31150   0.087   0.763   6.275 -0.8224 -0.2712 -0.3866
 6506SOL    HW131151   0.084   0.805   6.361 -0.5047 -1.0911  0.0346
 6506SOL    HW231152   0.012   0.704   6.267  0.1535 -1.7558  1.1752
 6507SOL     OW31153   1.857   4.566  17.544 -0.1821 -0.1356 -0.0754
 6507SOL    HW131154   1.888   4.604  17.627 -1.7297 -1.1623  0.9631
 6507SOL    HW231155   1.936   4.513  17.531 -0.4752 -0.5070 -0.3410
 6508SOL     OW31156   3.963   1.141   4.342  0.1359 -0.2711  0.7752
 6508SOL    HW131157   3.877   1.120   4.306  0.8465  0.1298 -1.1277
 6508SOL    HW231158   3.998   1.211   4.287 -1.7927  0.4396  0.4456
 6509SOL     OW31159   0.398   4.665   9.015  0.2563  0.2878 -0.3816
 6509SOL    HW131160   0.369   4.714   9.092 -1.3513 -0.5029 -0.4886
 6509SOL    HW231161   0.316   4.642   8.970  0.6404  1.4851 -1.6886
 6510SOL     OW31162   4.617   2.725   2.995  0.0176 -0.1098  0.1519
 6510SOL    HW131163   4.704   2.718   3.035 -0.4583 -3.0390  0.7119
 6510SOL    HW231164   4.623   2.817   2.971 -2.2608  0.3997  1.5399
 6511SOL     OW31165   0.204   4.109   5.120  0.4449 -0.3608 -0.3702
 6511SOL    HW131166   0.121   4.124   5.165  0.1455  1.8544 -1.6734
 6511SOL    HW231167   0.223   4.015   5.117  2.4044 -0.0878  3.1337
 6512SOL     OW31168   0.513   2.524   4.495  0.1421 -0.6186 -0.2148
 6512SOL    HW131169   0.567   2.451   4.466 -0.1851 -1.9825  2.5758
 6512SOL    HW231170   0.484   2.492   4.581 -0.3045 -0.7260 -0.4047
 6513SOL     OW31171   4.055   3.065  11.824  0.0769  0.1190 -0.5878
 6513SOL    HW131172   4.096   3.062  11.910  0.4308  1.7586 -0.7089
 6513SOL    HW231173   3.973   3.014  11.823 -0.7267  1.3987 -0.6206
 6514SOL     OW31174   4.227   0.973   7.621 -0.7035 -0.4126 -0.2293
 6514SOL    HW131175   4.164   0.993   7.552 -0.1540  1.1076 -0.2887
 6514SOL    HW231176   4.299   1.031   7.595 -1.3458  1.1789  1.5400
 6515SOL     OW31177   4.183   0.674   5.195  0.3196  0.4053 -0.3333
 6515SOL    HW131178   4.173   0.765   5.166  1.2834  1.0475  1.3336
 6515SOL    HW231179   4.255   0.679   5.257 -0.9044  0.2324  1.1110
 6516SOL     OW31180   1.790   3.401   3.706 -0.7557  0.5296 -0.4685
 6516SOL    HW131181   1.885   3.399   3.695 -0.6953  2.9329 -0.2569
 6516SOL    HW231182   1.757   3.412   3.617  0.2826 -1.9187 -1.1441
 6517SOL     OW31183   3.522   1.379   4.736 -0.3069 -0.5184 -0.5772
 6517SOL    HW131184   3.439   1.339   4.761 -0.0643 -2.3544 -2.7826
 6517SOL    HW231185   3.521   1.364   4.642  0.5259 -0.9861 -0.5119
 6518SOL     OW31186   0.745   0.315   8.855  0.2091 -0.0048 -0.6390
 6518SOL    HW131187   0.778   0.294   8.943 -1.6701  0.7704  0.2596
 6518SOL    HW231188   0.797   0.393   8.836 -0.2069 -0.0848 -2.0833
 6519SOL     OW31189   3.141   1.548   4.182 -0.1427 -0.3403 -0.1684
 6519SOL    HW131190   3.117   1.580   4.095  3.3296 -0.3589 -1.1686
 6519SOL    HW231191   3.087   1.600   4.242 -0.0299 -0.7929  0.3297
 6520SOL     OW31192   2.348   1.621   5.090 -0.1398  0.1270 -0.0291
 6520SOL    HW131193   2.337   1.531   5.122  1.2408  0.4334  1.3123
 6520SOL    HW231194   2.269   1.664   5.122 -1.0250 -0.3786 -1.5223
 6521SOL     OW31195   0.871   0.349   2.133  0.9695 -0.1156 -0.2841
 6521SOL    HW131196   0.781   0.325   2.111  0.9807  0.6867 -1.2162
 6521SOL    HW231197   0.855   0.428   2.185 -1.3093 -0.1087 -1.0258
 6522SOL     OW31198   0.511   0.532   4.675 -0.4269 -0.2836 -0.3140
 6522SOL    HW131199   0.551   0.447   4.659 -0.0096 -0.0831 -0.3420
 6522SOL    HW231200   0.530   0.570   4.589  0.5040  3.3551  1.4940
 6523SOL     OW31201   3.410   3.540   2.149  0.1476 -0.2421 -0.4220
 6523SOL    HW131202   3.497   3.507   2.170 -0.6642 -1.3518  1.2227
 6523SOL    HW231203   3.373   3.540   2.237  0.9398  1.4518 -0.1037
 6524SOL     OW31204   2.850   1.064   6.191  0.3813  0.0580  0.0962
 6524SOL    HW131205   2.781   1.012   6.148 -0.5971  0.8064  0.7613
 6524SOL    HW231206   2.909   0.989   6.201 -0.9150 -0.6666  2.2642
 6525SOL     OW31207   1.645   2.421   1.336 -0.2884  0.2203 -0.2461
 6525SOL    HW131208   1.659   2.498   1.281 -3.2421 -0.6438 -2.1676
 6525SOL    HW231209   1.658   2.348   1.275 -0.7715 -0.4934  0.4935
 6526SOL     OW31210   3.270   3.692   4.912 -0.1937  0.1658  0.4773
 6526SOL    HW131211   3.342   3.684   4.975  0.2189  0.9950  0.1117
 6526SOL    HW231212   3.236   3.779   4.934 -2.4225 -0.9164  1.3527
 6527SOL     OW31213   2.876   2.282  11.644 -0.1306  0.0608 -0.2838
 6527SOL    HW131214   2.948   2.249  11.697  0.0959  0.7141 -0.1765
 6527SOL    HW231215   2.811   2.212  11.651 -1.5329  1.1314 -2.8032
 6528SOL     OW31216   1.096   0.633  10.376  0.2883  0.0354 -0.2624
 6528SOL    HW131217   1.011   0.666  10.405  1.0703  1.9691 -0.1468
 6528SOL    HW231218   1.135   0.599  10.456  0.8411  0.7609 -0.2138
 6529SOL     OW31219   1.056   1.948   6.427 -0.0621  0.5174  0.0444
 6529SOL    HW131220   1.123   1.881   6.418 -0.6870 -0.0723 -0.2325
 6529SOL    HW231221   1.068   1.985   6.515  2.7238 -0.9136  0.2727
 6530SOL     OW31222   0.161   4.156   7.977 -1.0159 -0.1643 -0.8014
 6530SOL    HW131223   0.236   4.109   7.941 -0.6961  0.0938 -0.4568
 6530SOL    HW231224   0.104   4.151   7.900 -2.0421 -0.1291 -0.0462
 6531SOL     OW31225   4.334   1.481  16.158 -0.1360  0.3266  0.1374
 6531SOL    HW131226   4.426   1.457  16.149 -0.6843 -0.9504 -2.1996
 6531SOL    HW231227   4.289   1.398  16.148  2.4506 -1.0734  0.1863
 6532SOL     OW31228   4.514   1.380  10.915  0.3813  0.5460 -0.0426
 6532SOL    HW131229   4.482   1.326  10.988 -0.0865 -0.6480 -1.1266
 6532SOL    HW231230   4.604   1.350  10.903  0.0347 -1.1527  1.4771
 6533SOL     OW31231   1.936   1.289   9.675 -0.2066  0.6188 -0.0741
 6533SOL    HW131232   1.923   1.194   9.666  1.4043  0.4449 -0.4952
 6533SOL    HW231233   1.872   1.300   9.746 -0.2472  3.0837 -0.5172
 6534SOL     OW31234   2.869   0.831   7.508 -0.2093  0.2822 -0.1606
 6534SOL    HW131235   2.774   0.828   7.496 -0.3965  1.2803  1.0720
 6534SOL    HW231236   2.876   0.896   7.439 -3.2026 -0.4955 -1.2084
 6535SOL     OW31237   0.980   1.100   5.424  0.2500 -0.2174  0.4836
 6535SOL    HW131238   1.062   1.124   5.382  0.9821 -3.4245  0.0532
 6535SOL    HW231239   0.915   1.115   5.355  0.0806  0.1852  0.7277
 6536SOL     OW31240   1.527   0.843   3.966 -0.4688  0.3163  1.1817
 6536SOL    HW131241   1.443   0.855   4.010 -0.1367 -1.5240  2.3220
 6536SOL    HW231242   1.527   0.901   3.890  2.0302 -0.2210  0.7821
 6537SOL     OW31243   4.403   3.972   5.559  0.0683  0.3630  0.0826
 6537SOL    HW131244   4.430   4.048   5.610 -0.6011 -0.0185  1.0050
 6537SOL    HW231245   4.311   3.998   5.560 -0.5314 -1.7535 -0.5014
 6538SOL     OW31246   1.267   4.491  14.608 -0.3104 -0.4439 -0.0035
 6538SOL    HW131247   1.238   4.479  14.518 -1.1968 -0.5782  0.2991
 6538SOL    HW231248   1.201   4.554  14.638  0.3665 -0.3251  1.2321
 6539SOL     OW31249   3.502   2.755   8.383  0.6298 -0.1482  1.2314
 6539SOL    HW131250   3.521   2.845   8.411  1.1142  0.6890 -1.7583
 6539SOL    HW231251   3.508   2.777   8.290 -0.3819 -1.5960  0.8229
 6540SOL     OW31252   2.729   2.104   7.292 -0.4141  0.0693  0.5410
 6540SOL    HW131253   2.759   2.165   7.225  2.4842 -1.4743  0.4004
 6540SOL    HW231254   2.659   2.071   7.235 -0.7761 -0.5895  1.3602
 6541SOL     OW31255   0.689   2.094   8.991  0.3362 -0.2851  0.3937
 6541SOL    HW131256   0.743   2.045   9.053  2.7545  0.1444 -1.3423
 6541SOL    HW231257   0.599   2.061   8.989  0.2067  0.1682 -2.0129
 6542SOL     OW31258   2.194   3.993   8.728  0.2451  0.5991 -0.0904
 6542SOL    HW131259   2.098   3.997   8.729  0.1829 -0.0810 -3.0199
 6542SOL    HW231260   2.210   3.978   8.635 -1.5699 -1.1480 -0.1182
 6543SOL     OW31261   1.466   0.843   3.388  0.2019 -0.3031  0.2389
 6543SOL    HW131262   1.389   0.836   3.332  0.3379 -3.5328  0.4456
 6543SOL    HW231263   1.436   0.789   3.460 -2.6971  2.6390  1.2433
 6544SOL     OW31264   4.483   1.801   5.527  0.0859 -0.1619  0.0144
 6544SOL    HW131265   4.433   1.874   5.490  0.7757 -0.2480 -1.0770
 6544SOL    HW231266   4.469   1.805   5.622 -0.9739  0.8147 -0.1904
 6545SOL     OW31267   4.369   3.533   2.270  0.2880  0.4235  0.2459
 6545SOL    HW131268   4.402   3.475   2.202  0.1199 -1.4975  1.8215
 6545SOL    HW231269   4.332   3.606   2.219 -0.7464 -1.5941 -1.8632
 6546SOL     OW31270   1.138   2.174   6.918  0.4700 -0.5102  0.4450
 6546SOL    HW131271   1.073   2.137   6.978  0.3950 -1.4749 -0.2314
 6546SOL    HW231272   1.150   2.266   6.941 -1.6695 -0.9804  3.4858
 6547SOL     OW31273   4.500   4.058  15.940  0.0529 -0.3560  0.0975
 6547SOL    HW131274   4.583   4.054  15.892 -1.2551 -1.0715 -2.0915
 6547SOL    HW231275   4.444   3.996  15.893  0.5242 -0.1758 -0.7149
 6548SOL     OW31276   0.505   3.563  12.026 -0.4540 -0.0003 -0.5706
 6548SOL    HW131277   0.579   3.541  12.083 -0.7382  0.7225  0.0742
 6548SOL    HW231278   0.543   3.549  11.939  0.5922 -0.5358 -0.0263
 6549SOL     OW31279   2.215   0.829   8.551 -0.2210 -0.2374 -0.2461
 6549SOL    HW131280   2.133   0.867   8.584 -1.2099 -1.0912 -1.7467
 6549SOL    HW231281   2.228   0.764   8.620  1.2659  1.9628  1.5511
 6550SOL     OW31282   1.400   2.168  14.407  0.0636 -0.3536  0.3260
 6550SOL    HW131283   1.358   2.109  14.345  0.6179 -0.2906 -0.1168
 6550SOL    HW231284   1.376   2.254  14.372 -1.4313 -1.0170 -0.2292
 6551SOL     OW31285   1.365   3.058  14.413 -0.5174  0.5631  0.0958
 6551SOL    HW131286   1.361   3.081  14.505 -0.9765 -0.8921  0.4426
 6551SOL    HW231287   1.401   3.140  14.381  2.2060 -0.8212 -0.4494
 6552SOL     OW31288   1.034   3.511   9.064  0.2214  0.0469 -0.4697
 6552SOL    HW131289   1.079   3.427   9.059  0.6672  0.2967 -0.6656
 6552SOL    HW231290   1.107   3.573   9.066 -1.4951  2.1078 -2.0251
 6553SOL     OW31291   1.726   4.620   2.822 -0.1994  0.0436 -0.6288
 6553SOL    HW131292   1.739   4.529   2.850  3.3132  1.4817  2.2249
 6553SOL    HW231293   1.743   4.617   2.727 -1.5624 -2.6012 -0.7978
 6554SOL     OW31294   1.707   3.547   6.743  0.0554 -0.4401  0.5297
 6554SOL    HW131295   1.769   3.525   6.674 -1.8718  3.8591 -2.5491
 6554SOL    HW231296   1.636   3.584   6.690  0.7385 -0.6404 -0.5124
 6555SOL     OW31297   0.934   1.294   6.581  0.8296 -0.5046 -0.4371
 6555SOL    HW131298   0.881   1.370   6.556  0.4528 -0.7179 -0.2853
 6555SOL    HW231299   0.914   1.240   6.505 -0.2925 -0.2454 -0.3286
 6556SOL     OW31300   3.266   1.697   8.353  0.0306  0.3331  0.1674
 6556SOL    HW131301   3.303   1.684   8.266 -0.0123  1.2884  0.0046
 6556SOL    HW231302   3.179   1.658   8.350  0.2904 -0.0377 -2.1727
 6557SOL     OW31303   3.011   0.430   6.386 -0.3935 -0.5106  0.7523
 6557SOL    HW131304   2.983   0.386   6.306 -1.1990 -1.4570  1.5518
 6557SOL    HW231305   2.969   0.379   6.455  0.1134 -1.6793  0.1875
 6558SOL     OW31306   2.952   0.080   7.615 -0.4531  0.3445  0.2880
 6558SOL    HW131307   2.868   0.068   7.571  0.9583  0.8836 -2.5579
 6558SOL    HW231308   2.934   0.057   7.706  0.7059  1.8316  0.8948
 6559SOL     OW31309   2.765   2.014   5.802 -0.4134 -0.1779  0.7672
 6559SOL    HW131310   2.856   1.989   5.818  0.7303  4.2756  1.2082
 6559SOL    HW231311   2.764   2.089   5.862  2.1773 -0.2601  0.8900
 6560SOL     OW31312   3.510   2.940  15.015 -0.4075  0.2137 -0.4925
 6560SOL    HW131313   3.454   2.919  14.941  1.7243 -2.1839 -1.4222
 6560SOL    HW231314   3.544   3.025  14.986  1.5695 -0.5611 -0.4151
 6561SOL     OW31315   2.894   4.291  10.985  0.5140 -0.0555 -0.3023
 6561SOL    HW131316   2.905   4.375  10.939  2.7000 -0.0519  0.2233
 6561SOL    HW231317   2.988   4.284  11.004  0.5903 -0.0197 -0.6509
 6562SOL     OW31318   4.395   1.969   9.874  0.4490  1.1933 -0.5364
 6562SOL    HW131319   4.337   1.897   9.849 -0.6323  1.8736 -0.0002
 6562SOL    HW231320   4.330   2.033   9.846  1.3351  1.2668 -2.4889
 6563SOL     OW31321   1.659   3.512   2.290  0.0839 -0.2631 -0.1871
 6563SOL    HW131322   1.625   3.430   2.256 -0.8160  0.5688 -1.2761
 6563SOL    HW231323   1.577   3.548   2.324 -0.4858  0.4901 -2.3639
 6564SOL     OW31324   2.722   1.988  17.373 -0.1703 -0.2102  0.5573
 6564SOL    HW131325   2.694   1.897  17.385  0.4050 -0.4381  0.1900
 6564SOL    HW231326   2.729   2.019  17.463  0.0358  1.7734 -0.1370
 6565SOL     OW31327   0.197   3.951   6.424 -0.0449 -0.5644 -0.0703
 6565SOL    HW131328   0.284   3.991   6.417 -0.3039  0.0501  0.2924
 6565SOL    HW231329   0.232   3.862   6.411 -1.2011 -1.2037  1.1637
 6566SOL     OW31330   4.612   4.672   7.212 -0.2241  0.2130 -0.5834
 6566SOL    HW131331   4.600   4.595   7.157  0.3269  1.1326 -1.9771
 6566SOL    HW231332   4.673   4.723   7.158 -0.6236  1.0697 -0.2274
 6567SOL     OW31333   0.977   1.144   2.174  0.1841 -0.1345  0.0308
 6567SOL    HW131334   0.911   1.105   2.116 -0.2594  1.1127 -0.2973
 6567SOL    HW231335   1.042   1.074   2.175  1.4190  1.0362  0.7723
 6568SOL     OW31336   2.366   2.415  17.672 -0.5422  0.0650 -0.0297
 6568SOL    HW131337   2.323   2.497  17.648  1.3952  1.6816  2.0260
 6568SOL    HW231338   2.456   2.444  17.687 -1.2542  1.6540  1.2655
 6569SOL     OW31339   0.031   2.249  16.459 -0.1816 -0.7393 -0.4629
 6569SOL    HW131340   0.033   2.199  16.377  0.2123 -0.9406 -0.3286
 6569SOL    HW231341   4.680   2.284  16.458 -0.0070 -0.3127 -1.1467
 6570SOL     OW31342   2.496   4.587   3.453 -0.2697  0.1390  0.6346
 6570SOL    HW131343   2.536   4.539   3.526  0.0953 -0.3855  0.0824
 6570SOL    HW231344   2.468   4.516   3.396  0.3328  1.4388 -1.2797
 6571SOL     OW31345   2.476   1.649   1.446  0.1076 -0.1899 -0.2081
 6571SOL    HW131346   2.556   1.669   1.494  0.7192  0.2016 -1.3908
 6571SOL    HW231347   2.485   1.564   1.402  2.0792  0.1284 -0.4076
 6572SOL     OW31348   4.222   2.644  10.103 -0.2516  0.1986  0.1592
 6572SOL    HW131349   4.316   2.645  10.084  0.1110  0.8557  2.0265
 6572SOL    HW231350   4.205   2.562  10.057  2.7319 -0.3454  0.0190
 6573SOL     OW31351   2.886   0.306   5.571 -0.1575 -0.0740 -0.1364
 6573SOL    HW131352   2.867   0.400   5.578  0.8618  0.1064  0.3210
 6573SOL    HW231353   2.804   0.257   5.569 -0.3272  0.2805 -1.7620
 6574SOL     OW31354   1.536   3.512  12.635  0.1554 -0.3807 -0.4210
 6574SOL    HW131355   1.452   3.495  12.593  0.9237 -0.5530 -1.9089
 6574SOL    HW231356   1.531   3.605  12.657  0.2550 -0.8665  1.6003
 6575SOL     OW31357   2.355   3.978   5.352 -0.1389 -0.5827 -0.3565
 6575SOL    HW131358   2.382   4.060   5.311 -0.5651 -0.3805 -0.2327
 6575SOL    HW231359   2.350   4.000   5.445 -1.0137  1.8095 -0.9651
 6576SOL     OW31360   1.743   2.205   2.550 -0.7156  0.2049 -0.2161
 6576SOL    HW131361   1.775   2.158   2.472  0.7352 -1.5068  1.3840
 6576SOL    HW231362   1.800   2.174   2.621 -0.9554  2.2980  0.8728
 6577SOL     OW31363   0.203   2.749   2.754  0.9624 -0.2390 -0.0605
 6577SOL    HW131364   0.162   2.667   2.781 -0.6454  1.4604  2.7546
 6577SOL    HW231365   0.248   2.775   2.835 -1.1763  4.1301 -0.2274
 6578SOL     OW31366   1.984   2.735   2.520 -0.5942  0.3571  0.3705
 6578SOL    HW131367   1.891   2.731   2.495 -0.2011 -0.1163 -0.9721
 6578SOL    HW231368   2.024   2.744   2.434  0.1198 -0.0698  0.6634
 6579SOL     OW31369   4.035   3.797   4.077  0.0104  0.0868  0.0443
 6579SOL    HW131370   4.124   3.828   4.095  0.8017 -2.2300  0.1449
 6579SOL    HW231371   4.043   3.715   4.028  1.2950  0.0919  0.2467
 6580SOL     OW31372   3.162   3.949   1.803 -0.3659  0.6903 -0.6202
 6580SOL    HW131373   3.223   3.877   1.787 -0.3861  0.8839 -1.5978
 6580SOL    HW231374   3.153   3.995   1.719  0.3341  0.3476 -0.8814
 6581SOL     OW31375   1.242   2.139   9.736  0.3254 -0.1630  0.0328
 6581SOL    HW131376   1.179   2.070   9.755 -0.9170  0.1874 -2.7305
 6581SOL    HW231377   1.217   2.161   9.646  0.4078  0.7692  0.2328
 6582SOL     OW31378   1.668   4.595   8.693  0.2955 -0.4641  0.0173
 6582SOL    HW131379   1.751   4.638   8.712  0.3309  0.1045 -1.4187
 6582SOL    HW231380   1.707   4.512   8.664  2.0937 -1.0164  4.0543
 6583SOL     OW31381   2.406   3.299   0.513  0.4587  0.2276  1.2354
 6583SOL    HW131382   2.315   3.328   0.515  0.6635  0.9234  0.5588
 6583SOL    HW231383   2.410   3.209   0.544 -0.8258 -1.6886 -4.0177
 6584SOL     OW31384   2.907   1.290  17.503 -0.4642  0.7447 -0.4354
 6584SOL    HW131385   2.956   1.239  17.438 -0.5272  0.0439  0.0684
 6584SOL    HW231386   2.934   1.249  17.585 -0.8395  0.4128 -0.4760
 6585SOL     OW31387   4.389   1.437   8.324 -0.1998 -0.4239 -0.3641
 6585SOL    HW131388   4.425   1.349   8.311 -0.5385 -0.3647 -1.7104
 6585SOL    HW231389   4.313   1.410   8.376  0.3049 -1.1134  0.0234
 6586SOL     OW31390   0.993   0.252   1.912 -0.0927  0.5447  0.1715
 6586SOL    HW131391   1.073   0.300   1.933 -0.4984  2.0695 -1.7485
 6586SOL    HW231392   0.935   0.284   1.980  0.0495  1.2506 -0.0358
 6587SOL     OW31393   4.157   0.998   3.315 -0.0621 -1.1118  0.0723
 6587SOL    HW131394   4.147   0.997   3.410  0.4444  1.2181  0.1522
 6587SOL    HW231395   4.245   1.032   3.301 -0.4490 -0.9944 -2.0862
 6588SOL     OW31396   2.920   1.128   4.500 -0.2553  0.4806  0.2661
 6588SOL    HW131397   2.919   1.222   4.518 -0.7791  0.5170  0.0484
 6588SOL    HW231398   2.951   1.099   4.586 -0.6769  1.9524  0.9163
 6589SOL     OW31399   3.682   4.074   3.715 -0.5426  0.2721  0.2167
 6589SOL    HW131400   3.735   4.015   3.662 -0.6941  0.0482  0.3113
 6589SOL    HW231401   3.593   4.082   3.680 -0.5146 -2.5369 -0.4972
 6590SOL     OW31402   3.725   2.880  10.139  0.2026  0.0404  0.9054
 6590SOL    HW131403   3.796   2.907  10.198  0.6631 -1.4213  1.0352
 6590SOL    HW231404   3.763   2.795  10.113 -0.2920 -0.6622  2.4667
 6591SOL     OW31405   3.782   3.592  13.028  0.1328 -0.6082  0.2825
 6591SOL    HW131406   3.754   3.680  13.056  0.4016 -0.5342  0.3170
 6591SOL    HW231407   3.760   3.600  12.936  2.0763 -1.7185 -0.2721
 6592SOL     OW31408   4.458   4.320   7.528  0.1583  0.0122  0.2937
 6592SOL    HW131409   4.448   4.269   7.448 -1.7330 -1.3942  1.4286
 6592SOL    HW231410   4.403   4.398   7.518  1.9357  0.9851 -1.8902
 6593SOL     OW31411   2.073   3.846   4.692  0.3749 -0.3256  0.3934
 6593SOL    HW131412   2.042   3.936   4.698  0.5146 -0.3048  0.7812
 6593SOL    HW231413   2.028   3.818   4.612  1.0174 -1.6270  0.4742
 6594SOL     OW31414   0.176   2.302   8.308  0.3459  0.2913 -0.6603
 6594SOL    HW131415   0.137   2.350   8.381  1.5461 -2.2582  1.6790
 6594SOL    HW231416   0.236   2.237   8.345  1.1171  3.1796  3.2293
 6595SOL     OW31417   3.623   1.603   4.917 -0.4688  0.2529 -0.3274
 6595SOL    HW131418   3.602   1.532   4.856  2.5726 -1.2783  0.3565
 6595SOL    HW231419   3.697   1.566   4.965 -2.0021 -2.2750  0.0816
 6596SOL     OW31420   0.398   4.283  13.779 -0.0870  0.2909  0.2364
 6596SOL    HW131421   0.481   4.235  13.773 -0.9642 -1.2867  0.6398
 6596SOL    HW231422   0.364   4.269  13.691  1.1523  1.3374 -0.4154
 6597SOL     OW31423   0.364   1.934   3.815  0.2019 -0.9284 -0.4793
 6597SOL    HW131424   0.433   1.938   3.880 -0.1323 -1.1452 -0.1109
 6597SOL    HW231425   0.377   2.015   3.766 -0.6167  0.7676  2.0966
 6598SOL     OW31426   1.775   0.720   4.924  0.8634  0.5137 -0.1405
 6598SOL    HW131427   1.704   0.662   4.895  0.3412 -0.4766  3.1764
 6598SOL    HW231428   1.762   0.721   5.019 -0.6176 -1.8255 -0.3435
 6599SOL     OW31429   1.565   2.516   5.827 -0.0141 -0.0180  0.7211
 6599SOL    HW131430   1.515   2.491   5.905  0.6909 -0.7636  0.9417
 6599SOL    HW231431   1.649   2.483   5.859  0.5564  1.5927  0.8619
 6600SOL     OW31432   3.778   1.483   0.604 -0.0502 -0.1342 -0.3599
 6600SOL    HW131433   3.864   1.476   0.562  0.1139 -3.1861  0.4546
 6600SOL    HW231434   3.772   1.401   0.655 -0.7306 -0.9768 -1.7981
 6601SOL     OW31435   3.891   2.493  12.228  0.0907  0.1576  0.4433
 6601SOL    HW131436   3.945   2.546  12.286 -1.6316  0.8119  1.4312
 6601SOL    HW231437   3.952   2.437  12.180  0.7808  0.5954  0.8159
 6602SOL     OW31438   1.248   0.898   3.934 -0.5319 -0.3434  0.1508
 6602SOL    HW131439   1.205   0.983   3.929 -0.3049 -0.2097  0.5067
 6602SOL    HW231440   1.229   0.862   3.847 -0.5875  1.8725 -0.7599
 6603SOL     OW31441   0.821   1.825   6.668  0.5969  0.1428  0.1089
 6603SOL    HW131442   0.847   1.737   6.637 -1.3964 -0.9565  1.6118
 6603SOL    HW231443   0.896   1.850   6.722 -0.6874  0.1923  1.8565
 6604SOL     OW31444   1.164   1.930   3.937 -0.3797 -0.2770  0.2225
 6604SOL    HW131445   1.180   2.013   3.982 -0.5032 -0.6322  0.9248
 6604SOL    HW231446   1.215   1.870   3.991 -0.3945  0.6501  1.2684
 6605SOL     OW31447   0.079   1.149   8.824 -0.2301  0.5043  0.2836
 6605SOL    HW131448   0.097   1.055   8.829 -1.8825  0.1710  0.1010
 6605SOL    HW231449   0.009   1.165   8.888 -0.1480  1.9650 -0.0045
 6606SOL     OW31450   2.206   2.896   1.494 -0.2662 -0.0910 -1.1405
 6606SOL    HW131451   2.138   2.943   1.542  0.1338 -0.5000 -0.1656
 6606SOL    HW231452   2.275   2.882   1.559 -0.4834  2.2517 -0.4211
 6607SOL     OW31453   1.654   4.616   6.534  0.0397 -0.1855  0.1574
 6607SOL    HW131454   1.711   4.664   6.474  0.1936 -0.0146  0.4393
 6607SOL    HW231455   1.579   4.591   6.480 -0.5371  0.8613  0.4711
 6608SOL     OW31456   2.621   0.644   0.813  0.3071 -0.4877  0.0485
 6608SOL    HW131457   2.713   0.658   0.790  0.6856  0.9225  2.4194
 6608SOL    HW231458   2.587   0.602   0.734  2.6097  0.0755 -1.2568
 6609SOL     OW31459   1.551   1.778   2.425  0.1918  0.1771 -0.3062
 6609SOL    HW131460   1.637   1.735   2.424 -0.2268 -0.7006  1.1918
 6609SOL    HW231461   1.509   1.736   2.500  0.9179  1.9917  1.1116
 6610SOL     OW31462   2.941   3.726  16.518 -0.2052  0.0411  0.6681
 6610SOL    HW131463   2.969   3.802  16.467 -0.6221 -0.9418 -1.0140
 6610SOL    HW231464   2.985   3.737  16.603 -0.5215  0.7076  0.7437
 6611SOL     OW31465   3.793   2.484   4.208  0.2027  0.7923 -0.1055
 6611SOL    HW131466   3.708   2.467   4.250 -1.4227 -0.2916 -3.8160
 6611SOL    HW231467   3.802   2.408   4.150 -0.8824 -0.1242  0.9244
 6612SOL     OW31468   1.736   4.169   3.484  0.2023 -0.1244  0.4397
 6612SOL    HW131469   1.783   4.230   3.541  0.8965 -0.3639  0.1192
 6612SOL    HW231470   1.807   4.149   3.423 -0.8705 -0.3516 -0.7414
 6613SOL     OW31471   1.645   0.875   9.192 -0.0956 -0.0210  0.5079
 6613SOL    HW131472   1.713   0.875   9.259  1.1156 -0.8591 -0.7156
 6613SOL    HW231473   1.659   0.964   9.160  0.3807 -0.0359  0.6709
 6614SOL     OW31474   4.338   4.249   5.044 -0.1397  0.0226  0.0636
 6614SOL    HW131475   4.388   4.174   5.076 -1.1691 -0.9233 -0.5315
 6614SOL    HW231476   4.251   4.208   5.044  2.0434 -4.6348  1.7452
 6615SOL     OW31477   1.821   1.044   2.018 -0.7735 -0.5668 -0.0443
 6615SOL    HW131478   1.909   1.007   2.022 -0.4402  0.0776 -1.5352
 6615SOL    HW231479   1.774   0.971   1.978 -1.8241 -0.8124  1.6613
 6616SOL     OW31480   3.724   3.270   7.346 -0.5230  0.5165  0.2947
 6616SOL    HW131481   3.732   3.179   7.374  1.3587  0.5336 -0.2082
 6616SOL    HW231482   3.662   3.260   7.273  0.4004 -1.0371 -0.2671
 6617SOL     OW31483   4.020   0.146   5.423 -0.5487 -0.3027  0.1803
 6617SOL    HW131484   4.008   0.124   5.516 -1.6963  0.3581  0.1814
 6617SOL    HW231485   3.962   0.088   5.374 -0.7474  0.0887 -0.0491
 6618SOL     OW31486   0.269   3.583   2.641  0.3495 -0.9533 -0.0659
 6618SOL    HW131487   0.288   3.628   2.723  1.9853 -1.0604 -0.4018
 6618SOL    HW231488   0.217   3.508   2.671  0.1307 -1.1207 -0.8643
 6619SOL     OW31489   1.809   2.522   6.652 -0.5569 -0.2310  0.3147
 6619SOL    HW131490   1.813   2.618   6.653 -0.0249 -0.2522  0.3892
 6619SOL    HW231491   1.759   2.512   6.733  0.5890  0.7223  1.1363
 6620SOL     OW31492   3.352   3.526   7.196  0.2235  0.5100  0.5381
 6620SOL    HW131493   3.412   3.453   7.182 -0.8196  0.2958 -2.7455
 6620SOL    HW231494   3.382   3.557   7.282  1.3063 -1.0540  0.7256
 6621SOL     OW31495   2.801   4.691   1.953 -0.7887  0.4268 -0.5241
 6621SOL    HW131496   2.706   4.700   1.958 -0.6651  0.4020  1.6940
 6621SOL    HW231497   2.827   4.703   2.044  0.3247 -1.2022 -0.6152
 6622SOL     OW31498   1.745   0.113   9.274 -0.0284 -1.0582  0.7402
 6622SOL    HW131499   1.723   0.202   9.300  2.7889  0.3548 -1.6114
 6622SOL    HW231500   1.694   0.110   9.193 -2.5040  0.4303  2.2388
 6623SOL     OW31501   2.906   1.100   6.582 -0.1639  0.3475  0.3770
 6623SOL    HW131502   2.840   1.031   6.597 -0.3014  0.7939  1.8329
 6623SOL    HW231503   2.955   1.088   6.664 -1.0912 -0.9578  0.7518
 6624SOL     OW31504   0.982   3.946   9.005  0.3086 -0.4864  0.2190
 6624SOL    HW131505   0.947   4.033   9.022 -0.7439 -0.6336 -1.2240
 6624SOL    HW231506   1.027   3.919   9.086  1.4063 -3.3005 -1.3151
 6625SOL     OW31507   4.256   2.255   3.987  0.5513 -0.2828 -0.0141
 6625SOL    HW131508   4.180   2.312   3.979  0.4618 -0.0629  2.4680
 6625SOL    HW231509   4.330   2.296   3.942  1.3069  0.2895  1.7311
 6626SOL     OW31510   2.961   0.705   6.546  0.1565  0.5257 -0.2221
 6626SOL    HW131511   2.983   0.630   6.602 -0.8580  1.8312  1.9219
 6626SOL    HW231512   3.004   0.683   6.463 -1.5200 -0.4316 -0.8390
 6627SOL     OW31513   2.274   0.206   6.431  0.7962  0.5129  0.7488
 6627SOL    HW131514   2.184   0.208   6.462  0.3742  2.4825 -0.6638
 6627SOL    HW231515   2.295   0.113   6.419 -0.2149  0.3788  0.0470
 6628SOL     OW31516   1.151   3.052   9.397 -0.8397  0.2726 -0.4621
 6628SOL    HW131517   1.126   3.004   9.476 -3.3321  2.1754 -0.0982
 6628SOL    HW231518   1.238   3.018   9.376  0.1430  0.7586  2.8253
 6629SOL     OW31519   2.390   2.749  11.425 -1.2993  0.6107 -0.0626
 6629SOL    HW131520   2.474   2.790  11.446 -0.0246 -0.4007 -3.1320
 6629SOL    HW231521   2.417   2.671  11.377 -1.0842  0.4256  0.3611
 6630SOL     OW31522   3.797   0.533   3.670  0.0408 -0.3444  0.0553
 6630SOL    HW131523   3.703   0.543   3.677  0.1578  1.4585 -0.9686
 6630SOL    HW231524   3.802   0.478   3.592 -0.0836 -1.3418  0.7524
 6631SOL     OW31525   3.981   3.558  13.209  0.0150 -0.1338 -0.3751
 6631SOL    HW131526   3.929   3.565  13.129  1.6950 -0.6478 -1.5152
 6631SOL    HW231527   4.021   3.473  13.192  0.6762 -0.6368  3.7281
 6632SOL     OW31528   3.436   0.966   3.882  0.7974 -0.2081 -0.0336
 6632SOL    HW131529   3.424   0.973   3.977 -0.2240  0.1853 -0.1908
 6632SOL    HW231530   3.528   0.942   3.875  1.2286  1.1723  0.8944
 6633SOL     OW31531   3.045   3.950  15.306  0.3062 -0.3841  0.1413
 6633SOL    HW131532   3.133   3.915  15.314  1.1030  1.2634 -1.3736
 6633SOL    HW231533   2.996   3.869  15.293 -0.1955 -0.1135  0.3178
 6634SOL     OW31534   2.450   3.785   2.512  0.1877  0.1304  0.2529
 6634SOL    HW131535   2.368   3.826   2.486 -0.4703 -1.6621 -0.4969
 6634SOL    HW231536   2.424   3.739   2.592  0.3483  0.7004  0.6288
 6635SOL     OW31537   3.735   1.954   8.755  0.1756  0.3221  0.3385
 6635SOL    HW131538   3.729   1.875   8.808 -1.8458 -0.3057 -0.8544
 6635SOL    HW231539   3.785   2.009   8.815  1.9588 -2.1109  1.0962
 6636SOL     OW31540   3.935   2.782   4.749  0.1003 -0.3373  0.3427
 6636SOL    HW131541   3.906   2.870   4.724  0.0414 -0.4105  0.1546
 6636SOL    HW231542   3.852   2.738   4.767  0.6378 -1.0623  1.0281
 6637SOL     OW31543   1.303   3.888  15.841  0.4460 -0.3754  0.1421
 6637SOL    HW131544   1.302   3.793  15.837  1.3493 -0.4264  1.1079
 6637SOL    HW231545   1.381   3.909  15.893  0.1223  0.3232  0.3456
 6638SOL     OW31546   4.607   2.701  15.842  0.2467  0.0417  0.4074
 6638SOL    HW131547   4.609   2.626  15.901 -0.4287  1.1249  1.7824
 6638SOL    HW231548   4.700   2.724  15.846  0.2764 -0.0635  0.3187
 6639SOL     OW31549   0.235   4.519   5.477 -0.8175  0.9571 -0.2472
 6639SOL    HW131550   0.216   4.578   5.551 -0.0759 -0.8730  1.4009
 6639SOL    HW231551   0.239   4.584   5.407  1.4685  2.0720  0.9186
 6640SOL     OW31552   3.090   3.081   3.482 -0.3364  0.5773 -0.5890
 6640SOL    HW131553   3.025   3.099   3.551  0.3956  0.7464  0.0582
 6640SOL    HW231554   3.031   3.063   3.409  0.5413 -1.6226 -0.7548
 6641SOL     OW31555   1.595   0.765   1.768 -0.2403 -0.6585 -0.1187
 6641SOL    HW131556   1.550   0.850   1.777  1.0310 -0.1478  1.5142
 6641SOL    HW231557   1.554   0.737   1.686 -0.3174  1.9256 -0.9779
 6642SOL     OW31558   1.193   4.638   9.707  0.2784 -0.2304  0.1110
 6642SOL    HW131559   1.233   4.724   9.703 -0.3196 -0.0328 -1.4524
 6642SOL    HW231560   1.243   4.587   9.645 -0.7250 -1.3619  0.2280
 6643SOL     OW31561   1.992   1.360   2.213  0.1344 -0.2106  0.3288
 6643SOL    HW131562   1.949   1.322   2.290 -1.5917 -1.7698 -1.4039
 6643SOL    HW231563   1.932   1.348   2.140 -1.6126 -0.7538  1.8624
 6644SOL     OW31564   4.551   0.801   7.470  0.1504 -0.1149  0.1701
 6644SOL    HW131565   4.626   0.825   7.525 -0.3034 -0.1050  0.7887
 6644SOL    HW231566   4.482   0.833   7.529 -0.4683 -0.9179 -0.1218
 6645SOL     OW31567   3.838   0.128   0.638  0.4092  0.0339  0.0595
 6645SOL    HW131568   3.805   0.212   0.671  2.5085 -0.5529  3.5281
 6645SOL    HW231569   3.845   0.148   0.544  0.6607  1.0563  0.2924
 6646SOL     OW31570   0.055   0.893   2.769  0.3322  0.0961 -0.3043
 6646SOL    HW131571   0.053   0.801   2.796  1.7201  0.5091  1.2121
 6646SOL    HW231572   4.733   0.886   2.695 -1.9720 -1.1134  1.6314
 6647SOL     OW31573   4.538   3.308  10.695  0.0888 -0.2434  0.2579
 6647SOL    HW131574   4.553   3.238  10.758 -0.1741 -0.6440 -0.1244
 6647SOL    HW231575   4.487   3.263  10.628 -2.3459  1.4701  0.9447
 6648SOL     OW31576   3.038   4.580   4.606 -0.0344  0.4291 -0.5821
 6648SOL    HW131577   3.038   4.613   4.696 -0.9527  0.0003 -0.4235
 6648SOL    HW231578   3.073   4.492   4.618  1.7431  1.3478  1.1167
 6649SOL     OW31579   3.442   2.816  16.648  0.5986  0.6508 -0.8403
 6649SOL    HW131580   3.368   2.805  16.707  0.3460  1.1907 -1.0491
 6649SOL    HW231581   3.410   2.860  16.569  0.7617 -2.2292 -2.5113
 6650SOL     OW31582   4.299   0.037  11.574  0.0609  0.1872  0.2448
 6650SOL    HW131583   4.237   0.097  11.616  0.6658  0.6509  0.4820
 6650SOL    HW231584   4.382   0.061  11.615  1.0860  1.2682 -2.4309
 6651SOL     OW31585   3.372   3.992   1.537  0.5388 -0.3495  0.3493
 6651SOL    HW131586   3.281   3.972   1.520  0.6788 -0.0743 -0.6916
 6651SOL    HW231587   3.411   3.905   1.542 -1.0703 -1.1378 -1.1239
 6652SOL     OW31588   0.315   0.710   8.974  0.3441 -0.3750  0.2010
 6652SOL    HW131589   0.290   0.657   8.898  1.7571 -0.0048 -0.5185
 6652SOL    HW231590   0.263   0.785   8.944  1.2681  0.7880  1.4953
 6653SOL     OW31591   0.384   3.666   7.542 -0.3720 -0.5756  0.1371
 6653SOL    HW131592   0.385   3.571   7.544  1.9366 -0.6183 -2.4808
 6653SOL    HW231593   0.461   3.680   7.487 -1.2372  1.8297 -0.4693
 6654SOL     OW31594   4.390   1.165  16.272 -0.4101 -0.4743 -0.3796
 6654SOL    HW131595   4.304   1.206  16.285 -0.7122 -0.9227 -0.9865
 6654SOL    HW231596   4.376   1.111  16.194  0.0396 -0.2361 -0.6275
 6655SOL     OW31597   1.342   0.271  12.137 -0.0925  0.3655  0.2554
 6655SOL    HW131598   1.417   0.212  12.127 -0.2527  0.5466 -2.0235
 6655SOL    HW231599   1.354   0.335  12.066 -0.0843  1.3251  1.1195
 6656SOL     OW31600   3.257   4.304  12.145  0.3064  0.8033  0.5410
 6656SOL    HW131601   3.274   4.211  12.158 -1.5116  0.2476 -0.9149
 6656SOL    HW231602   3.333   4.345  12.186  0.8815  0.1622  0.1194
 6657SOL     OW31603   2.088   0.108   3.031 -0.4061  0.6253  0.2370
 6657SOL    HW131604   2.086   0.029   2.978 -0.4250  1.5614 -1.1765
 6657SOL    HW231605   2.167   0.151   2.997 -1.0073  1.5419 -0.0196
 6658SOL     OW31606   1.676   2.468   9.792 -0.2504  0.2405 -0.2382
 6658SOL    HW131607   1.695   2.490   9.883 -0.4943  2.1737 -0.6457
 6658SOL    HW231608   1.620   2.390   9.798 -0.8561  0.4578 -3.1883
 6659SOL     OW31609   3.003   2.449   5.112  0.2088 -0.2940 -0.2067
 6659SOL    HW131610   3.064   2.379   5.138  0.4456  0.7635  2.1002
 6659SOL    HW231611   3.061   2.519   5.084 -2.4547  1.1251 -2.1878
 6660SOL     OW31612   2.158   0.650   2.193 -0.5436  0.2447  0.5446
 6660SOL    HW131613   2.180   0.681   2.105 -1.0816  2.4938  1.2097
 6660SOL    HW231614   2.176   0.730   2.242  2.6526 -0.7501  1.0064
 6661SOL     OW31615   0.346   2.100   8.371  0.0404 -0.3778 -0.2450
 6661SOL    HW131616   0.281   2.057   8.426  0.8409 -0.8928  0.3039
 6661SOL    HW231617   0.359   2.026   8.311  0.6634 -0.9893  0.6401
 6662SOL     OW31618   4.613   2.400   1.801 -0.2798  0.5501  0.3049
 6662SOL    HW131619   4.682   2.381   1.737 -0.8902 -3.1563  0.7485
 6662SOL    HW231620   4.663   2.391   1.882 -1.2302 -2.3433  0.5559
 6663SOL     OW31621   3.070   3.745  14.088 -0.0044  0.0434 -0.4326
 6663SOL    HW131622   3.157   3.785  14.096  0.4019 -0.4614 -2.3517
 6663SOL    HW231623   3.050   3.756  13.995 -2.2255 -1.1246 -0.0971
 6664SOL     OW31624   1.423   3.617   2.369 -0.0250  0.0033  0.2387
 6664SOL    HW131625   1.427   3.649   2.459  3.4609 -1.0578  0.4603
 6664SOL    HW231626   1.329   3.598   2.368  0.2093 -1.1086 -0.5260
 6665SOL     OW31627   3.172   1.411   5.084 -0.3118 -0.1836 -0.3585
 6665SOL    HW131628   3.164   1.359   5.164 -1.0164 -0.3775 -0.5543
 6665SOL    HW231629   3.240   1.475   5.104  0.3531 -0.9576 -0.1206
 6666SOL     OW31630   3.288   2.898  11.325  0.1409  0.2414 -0.1090
 6666SOL    HW131631   3.295   2.923  11.233 -2.1116 -1.3382 -0.6992
 6666SOL    HW231632   3.200   2.936  11.338 -1.1557 -2.7004 -0.3010
 6667SOL     OW31633   2.884   3.728  15.355 -0.7105  0.6485 -0.3235
 6667SOL    HW131634   2.907   3.661  15.419 -1.0809 -2.2389 -3.2056
 6667SOL    HW231635   2.877   3.669  15.279 -0.4292 -1.8387  1.5915
 6668SOL     OW31636   3.612   0.211  12.766  0.3414  0.2170  0.1245
 6668SOL    HW131637   3.693   0.257  12.786  0.8727 -1.1207  1.0911
 6668SOL    HW231638   3.551   0.276  12.800  1.3606  0.4646  1.4935
 6669SOL     OW31639   0.578   2.243   3.081 -0.0159  0.2416 -0.2340
 6669SOL    HW131640   0.647   2.208   3.025 -0.0080 -0.0375 -0.0531
 6669SOL    HW231641   0.533   2.303   3.022  0.0573  0.3875 -0.1412
 6670SOL     OW31642   4.227   0.752   6.079  0.2298 -0.6447  0.1852
 6670SOL    HW131643   4.316   0.785   6.064 -0.8307  1.2806 -1.8978
 6670SOL    HW231644   4.171   0.799   6.018  1.7482  2.4299  1.1222
 6671SOL     OW31645   4.610   3.666   5.652  0.1384 -0.4818  0.5015
 6671SOL    HW131646   4.617   3.652   5.558  1.5245 -0.8237  0.6497
 6671SOL    HW231647   4.702   3.685   5.672  0.0497  1.9172 -1.4223
 6672SOL     OW31648   1.090   3.916  14.419  0.4802 -0.8189  0.2013
 6672SOL    HW131649   1.105   3.889  14.329 -0.6948 -1.7306  0.2840
 6672SOL    HW231650   1.136   4.000  14.423 -0.4337 -0.3111  0.1665
 6673SOL     OW31651   2.359   4.609   7.754 -0.0575  0.7970 -0.0318
 6673SOL    HW131652   2.319   4.522   7.757  1.3020  0.1064 -1.5567
 6673SOL    HW231653   2.280   4.662   7.740 -1.2814 -0.6440  1.5098
 6674SOL     OW31654   2.612   0.423  12.289 -0.3956  0.2522 -0.3539
 6674SOL    HW131655   2.585   0.350  12.345 -2.1385  1.2669  0.1260
 6674SOL    HW231656   2.533   0.459  12.248 -0.6925  1.7426  1.5150
 6675SOL     OW31657   0.602   0.308   2.158  0.0305  0.4795  0.2575
 6675SOL    HW131658   0.527   0.260   2.124 -0.9972  1.7849  0.6696
 6675SOL    HW231659   0.567   0.379   2.211 -1.3403 -0.9078  1.1828
 6676SOL     OW31660   1.518   3.237   2.226  0.0566  0.3476 -0.0922
 6676SOL    HW131661   1.485   3.199   2.308 -1.1233  0.3107 -0.5926
 6676SOL    HW231662   1.604   3.195   2.230 -0.4491 -0.6055  1.0011
 6677SOL     OW31663   2.919   3.193   4.327 -0.2615 -0.0996 -0.5321
 6677SOL    HW131664   2.917   3.135   4.402 -1.2276 -0.6936 -1.0219
 6677SOL    HW231665   2.844   3.164   4.275 -1.3952 -1.0683  1.6676
 6678SOL     OW31666   4.262   1.575   6.341  0.1560  0.2278 -0.1762
 6678SOL    HW131667   4.348   1.533   6.336 -0.0122 -0.0515 -0.7519
 6678SOL    HW231668   4.291   1.646   6.399 -2.3530  0.9056  0.2405
 6679SOL     OW31669   4.575   3.363   3.709  0.1120  0.3497  0.6363
 6679SOL    HW131670   4.647   3.396   3.762  0.9019 -2.0708  1.1028
 6679SOL    HW231671   4.592   3.405   3.625  0.3617 -0.3048  0.3552
 6680SOL     OW31672   2.339   4.273  13.878 -0.3178 -0.8527  0.0937
 6680SOL    HW131673   2.358   4.301  13.968  2.1687  2.1791 -1.4256
 6680SOL    HW231674   2.379   4.186  13.876 -1.2621 -1.2816 -0.2802
 6681SOL     OW31675   2.264   0.097   5.126 -0.5274 -0.0558 -0.2125
 6681SOL    HW131676   2.295   0.159   5.192  0.1639  0.1521 -0.7264
 6681SOL    HW231677   2.303   0.016   5.158 -0.8853 -0.0407  0.2581
 6682SOL     OW31678   1.917   2.299   6.517 -0.1229  0.0844  0.3396
 6682SOL    HW131679   1.873   2.375   6.555  0.8539  2.2941 -2.9172
 6682SOL    HW231680   1.894   2.307   6.424 -1.0654 -0.5640  0.5152
 6683SOL     OW31681   4.606   1.126   5.633 -0.0238  0.7331  0.2900
 6683SOL    HW131682   4.553   1.191   5.588  0.2705  0.8939  0.1742
 6683SOL    HW231683   4.570   1.113   5.721 -2.6121 -1.0655 -1.0395
 6684SOL     OW31684   3.973   4.010  13.071  0.3227  0.4715 -0.1114
 6684SOL    HW131685   4.045   4.060  13.033  0.9964 -1.0624 -0.8551
 6684SOL    HW231686   3.956   3.956  12.994  0.0859 -0.3573  0.5273
 6685SOL     OW31687   1.090   0.348   5.864 -0.1486 -0.0147  0.5423
 6685SOL    HW131688   1.128   0.436   5.864  2.4096 -1.1139  1.9525
 6685SOL    HW231689   1.050   0.346   5.777  0.3515  1.5264  0.2793
 6686SOL     OW31690   0.774   0.451   7.609 -0.0397 -0.0820  0.2488
 6686SOL    HW131691   0.869   0.449   7.611 -0.1267 -2.6823  1.4550
 6686SOL    HW231692   0.753   0.529   7.661  0.2352  0.6571 -0.7476
 6687SOL     OW31693   3.242   4.104   6.311  0.3071 -0.0390  0.0777
 6687SOL    HW131694   3.334   4.126   6.296  0.2701  0.8521  1.1524
 6687SOL    HW231695   3.260   4.021   6.354  2.7522  1.0687  1.1664
 6688SOL     OW31696   3.175   2.298   3.774 -0.0790  0.0404 -0.3951
 6688SOL    HW131697   3.103   2.237   3.760 -0.4397  0.3343  0.1812
 6688SOL    HW231698   3.125   2.351   3.836 -1.0324 -0.4143 -0.7601
 6689SOL     OW31699   1.687   2.361   5.436  0.2342  0.1921  0.1846
 6689SOL    HW131700   1.594   2.377   5.417  0.0062  0.2031  1.2564
 6689SOL    HW231701   1.732   2.419   5.374  0.3180  0.2713  0.3192
 6690SOL     OW31702   3.229   2.654   0.911 -0.5199 -0.1129  0.8972
 6690SOL    HW131703   3.254   2.569   0.876 -0.3619 -0.3616  1.6147
 6690SOL    HW231704   3.185   2.702   0.840  1.1902  1.4340  0.8843
 6691SOL     OW31705   1.712   0.953   2.610 -0.4586  0.2493  0.0065
 6691SOL    HW131706   1.784   0.967   2.671 -0.1435 -0.1173 -0.2811
 6691SOL    HW231707   1.646   0.907   2.663  0.2027  0.2149  0.8060
 6692SOL     OW31708   1.858   2.035   2.359  0.2653 -0.0495  0.2108
 6692SOL    HW131709   1.914   2.107   2.328 -2.3905  0.9374 -2.3321
 6692SOL    HW231710   1.836   1.989   2.278  0.9630  0.5797 -0.3385
 6693SOL     OW31711   0.885   2.304   4.923  0.4886  0.2499  0.1138
 6693SOL    HW131712   0.916   2.382   4.877 -0.7408  0.3684 -0.5242
 6693SOL    HW231713   0.879   2.239   4.853  0.1193  0.8923 -0.4475
 6694SOL     OW31714   2.723   1.371   5.471  0.0705  0.2044  0.2519
 6694SOL    HW131715   2.713   1.283   5.433  1.2065  0.9781 -1.8378
 6694SOL    HW231716   2.806   1.395   5.430 -0.7115  1.0241 -0.8620
 6695SOL     OW31717   0.655   2.877   5.682 -0.9095  0.3116  0.4794
 6695SOL    HW131718   0.728   2.826   5.647 -1.8220 -2.5049  2.7217
 6695SOL    HW231719   0.583   2.845   5.628 -0.9045  2.3166 -0.6844
 6696SOL     OW31720   0.518   1.691  16.309  0.0598  0.2888 -0.4203
 6696SOL    HW131721   0.570   1.635  16.366 -2.6280 -2.3848 -0.6323
 6696SOL    HW231722   0.493   1.630  16.240 -0.5735 -0.2143  0.2595
 6697SOL     OW31723   0.992   3.176   3.190 -0.2606 -0.3775 -0.0903
 6697SOL    HW131724   0.973   3.231   3.114  0.7456 -2.1444 -1.6202
 6697SOL    HW231725   1.047   3.232   3.245 -0.0758 -1.5832  0.9415
 6698SOL     OW31726   0.695   2.323   6.561  0.2382  0.0777  0.2392
 6698SOL    HW131727   0.708   2.417   6.549  3.3371 -0.2453  0.8969
 6698SOL    HW231728   0.772   2.301   6.614  0.2487  1.1222  0.6589
 6699SOL     OW31729   3.972   2.511   7.679 -0.2591 -0.9583  0.3907
 6699SOL    HW131730   3.879   2.494   7.697 -0.7720  3.7849  2.2535
 6699SOL    HW231731   4.004   2.421   7.686 -0.9270 -1.2156  0.1974
 6700SOL     OW31732   2.994   0.830   5.478  0.1810 -0.5501 -0.2480
 6700SOL    HW131733   2.936   0.865   5.411  1.1178  0.2737 -0.6336
 6700SOL    HW231734   3.011   0.897   5.544 -0.7477 -1.8274  1.2814
 6701SOL     OW31735   2.588   1.418   6.761  0.0903 -0.2960  0.1709
 6701SOL    HW131736   2.556   1.478   6.693  0.7289 -0.5586 -0.3545
 6701SOL    HW231737   2.579   1.465   6.844 -1.4105  1.9893 -1.2928
 6702SOL     OW31738   1.642   4.635   7.162  0.1748  0.5025  0.2929
 6702SOL    HW131739   1.602   4.700   7.220  0.2709 -1.3370  2.4168
 6702SOL    HW231740   1.615   4.553   7.205  3.1311 -0.0428  1.0558
 6703SOL     OW31741   1.638   0.846  16.661  0.0894  0.6515 -0.0920
 6703SOL    HW131742   1.560   0.790  16.660  0.6927 -0.1577 -3.2018
 6703SOL    HW231743   1.644   0.870  16.568  3.0150  0.8996  0.1638
 6704SOL     OW31744   1.770   2.078   3.648  0.0781 -0.7401 -0.4788
 6704SOL    HW131745   1.745   2.026   3.572 -2.4520  0.9817 -0.8386
 6704SOL    HW231746   1.690   2.075   3.700 -0.3061  3.5146 -0.7714
 6705SOL     OW31747   3.606   4.106  13.197 -0.5898 -0.1787 -0.3737
 6705SOL    HW131748   3.659   4.167  13.145 -2.2965  1.8357  0.2721
 6705SOL    HW231749   3.530   4.156  13.225 -1.3211 -0.3388 -2.0955
 6706SOL     OW31750   2.508   4.722  12.261  0.3110  0.3953  0.0493
 6706SOL    HW131751   2.455   4.643  12.273  0.3166  0.1739 -1.3861
 6706SOL    HW231752   2.594   4.681  12.252 -0.4891 -1.0901 -0.9001
 6707SOL     OW31753   0.535   2.033   1.591 -0.1193  0.1264 -0.4580
 6707SOL    HW131754   0.567   1.974   1.660  1.3614  1.2704 -0.1544
 6707SOL    HW231755   0.616   2.082   1.575 -0.6442  1.1456 -0.0387
 6708SOL     OW31756   1.280   4.625  10.901  0.5625 -0.0032  0.2226
 6708SOL    HW131757   1.315   4.688  10.965  1.4312 -1.6180  1.3593
 6708SOL    HW231758   1.233   4.557  10.950  1.9467 -1.8238 -0.9694
 6709SOL     OW31759   1.372   0.262   4.758 -0.0025 -0.5678 -0.1183
 6709SOL    HW131760   1.296   0.205   4.767 -1.3530  0.8247 -2.6419
 6709SOL    HW231761   1.393   0.276   4.850  1.8003  0.0344 -0.6141
 6710SOL     OW31762   3.443   0.510   6.244 -0.3814  0.6145 -0.5184
 6710SOL    HW131763   3.451   0.555   6.327  2.1767 -0.6047 -0.1210
 6710SOL    HW231764   3.526   0.523   6.198 -0.1197  2.9453  0.6338
 6711SOL     OW31765   3.645   1.986   7.944  0.3224 -0.1089  0.4664
 6711SOL    HW131766   3.588   2.057   7.914  1.5493  0.5628 -0.2707
 6711SOL    HW231767   3.670   1.946   7.861  0.2106  0.8497 -0.0335
 6712SOL     OW31768   2.450   1.529   2.496 -0.4299 -0.0017  0.0143
 6712SOL    HW131769   2.443   1.617   2.532 -2.3188 -0.8523  1.7271
 6712SOL    HW231770   2.535   1.509   2.536  0.0901  0.3238 -0.9197
 6713SOL     OW31771   2.606   4.273   1.943 -0.3562 -0.3507 -0.3129
 6713SOL    HW131772   2.597   4.249   1.851 -1.3277  3.4943 -1.2221
 6713SOL    HW231773   2.527   4.326   1.956 -1.2611 -2.1684  1.5567
 6714SOL     OW31774   2.936   1.514   3.625  0.0609 -0.4421 -0.4372
 6714SOL    HW131775   2.867   1.495   3.562  0.5856 -0.6071 -0.9639
 6714SOL    HW231776   2.882   1.567   3.684  0.1998 -0.4739 -0.2819
 6715SOL     OW31777   2.834   0.393   6.744  0.1106 -0.1032  0.0155
 6715SOL    HW131778   2.743   0.371   6.761 -0.6105  1.2362 -2.1519
 6715SOL    HW231779   2.853   0.333   6.672 -0.9893 -0.6350  0.1688
 6716SOL     OW31780   0.167   0.930   4.308 -0.1121 -0.3507 -0.0858
 6716SOL    HW131781   0.075   0.947   4.330  0.0998 -0.3706  0.8145
 6716SOL    HW231782   0.208   1.016   4.304  0.8942 -0.7100  2.6015
 6717SOL     OW31783   1.695   4.046  16.506 -0.3945 -0.0772  0.3802
 6717SOL    HW131784   1.668   3.972  16.560  2.6741 -0.0274  2.0167
 6717SOL    HW231785   1.765   4.093  16.552  0.2458 -0.5279 -0.1312
 6718SOL     OW31786   3.959   2.013   8.278 -0.3825  0.2622  0.3862
 6718SOL    HW131787   3.921   2.036   8.363 -0.9403  1.5765 -0.2073
 6718SOL    HW231788   3.907   1.934   8.269  0.1126 -0.1570  1.2140
 6719SOL     OW31789   0.844   3.604   6.944  0.5117 -0.5699 -0.4613
 6719SOL    HW131790   0.810   3.694   6.936 -0.5495 -0.6851  2.6947
 6719SOL    HW231791   0.782   3.556   6.890 -1.9821  1.5125  0.5351
 6720SOL     OW31792   0.567   0.290  17.508  0.0885  0.4389 -0.0615
 6720SOL    HW131793   0.526   0.367  17.470 -0.2432  0.7867  1.0160
 6720SOL    HW231794   0.491   0.233  17.525  0.8296 -1.1331 -1.9348
 6721SOL     OW31795   2.555   0.976   7.610 -0.0983 -0.4952 -0.2809
 6721SOL    HW131796   2.469   1.016   7.608  0.1129  0.0506  1.3431
 6721SOL    HW231797   2.600   1.040   7.556  0.7579 -2.1714 -1.5589
 6722SOL     OW31798   3.901   3.882  12.821  0.4655 -0.5174  0.1824
 6722SOL    HW131799   3.870   3.794  12.799 -0.3593 -0.2376  0.2462
 6722SOL    HW231800   3.987   3.884  12.778 -0.5480  0.5309 -1.7639
 6723SOL     OW31801   0.250   4.284   5.658  0.2332  0.2248 -0.0527
 6723SOL    HW131802   0.246   4.373   5.624 -1.6988  0.7281  1.5208
 6723SOL    HW231803   0.160   4.250   5.660  0.7891 -1.2425 -0.0904
 6724SOL     OW31804   1.730   2.179   9.046  0.3527 -0.1696 -0.6421
 6724SOL    HW131805   1.718   2.186   9.141  0.1027 -1.0349 -0.6088
 6724SOL    HW231806   1.728   2.085   9.033  2.1868 -0.3601  0.5403
 6725SOL     OW31807   3.427   3.385  12.001  0.0577 -0.2325 -0.2389
 6725SOL    HW131808   3.465   3.444  12.066 -0.6223  1.1204 -1.0704
 6725SOL    HW231809   3.436   3.447  11.928  1.2673  2.1131  1.9186
 6726SOL     OW31810   3.492   4.261   6.267  0.3430 -0.0989  0.2222
 6726SOL    HW131811   3.447   4.345   6.279 -0.0607 -0.6303  2.4344
 6726SOL    HW231812   3.529   4.243   6.353  1.5778 -0.1431 -0.3104
 6727SOL     OW31813   4.332   1.743  10.054 -0.0219  0.3405  0.1504
 6727SOL    HW131814   4.311   1.815  10.114  1.5277  1.2688 -0.4070
 6727SOL    HW231815   4.419   1.770  10.025 -0.4929  0.3726 -1.2130
 6728SOL     OW31816   1.424   3.746  14.681  0.4843 -0.1759 -0.2851
 6728SOL    HW131817   1.517   3.726  14.691  0.1359 -2.4825 -1.8964
 6728SOL    HW231818   1.432   3.838  14.708 -0.4013  0.1469 -1.1293
 6729SOL     OW31819   3.294   0.084   3.133 -0.3729 -0.3504 -0.1156
 6729SOL    HW131820   3.245   0.127   3.202 -1.4994 -1.1846 -0.4050
 6729SOL    HW231821   3.231   0.072   3.062 -1.6759  0.4124  0.9185
 6730SOL     OW31822   3.957   1.181   5.910  0.6635 -0.1452  0.2279
 6730SOL    HW131823   3.972   1.179   5.816  0.1586  0.7697  0.1289
 6730SOL    HW231824   3.863   1.173   5.926  0.7280  0.7873  1.1304
 6731SOL     OW31825   1.534   1.038  16.812  0.2285  0.2919  0.5315
 6731SOL    HW131826   1.535   0.944  16.794 -0.2295  0.1721  1.1284
 6731SOL    HW231827   1.573   1.078  16.734  1.0071 -1.5718 -0.0422
 6732SOL     OW31828   3.802   0.592  17.744  0.3333  0.2416 -0.5879
 6732SOL    HW131829   3.854   0.568  17.667  1.1910  2.6079 -0.7388
 6732SOL    HW231830   3.723   0.550  17.709  0.5886 -3.2889  3.1245
 6733SOL     OW31831   1.108   3.599  17.032  0.2078 -0.2648  0.3922
 6733SOL    HW131832   1.068   3.685  17.037 -0.1258 -0.3386 -1.0148
 6733SOL    HW231833   1.153   3.596  17.117 -2.6554 -0.5338  1.8781
 6734SOL     OW31834   0.101   0.597  16.920  0.1083  0.2872 -0.2703
 6734SOL    HW131835   0.193   0.619  16.907  0.2524  0.6018  1.2210
 6734SOL    HW231836   0.072   0.590  16.829 -0.5290  1.6238 -0.1787
 6735SOL     OW31837   4.201   1.219   6.483  0.1776 -0.3575  0.0134
 6735SOL    HW131838   4.272   1.267   6.441 -0.5458  1.2777  0.6937
 6735SOL    HW231839   4.252   1.155   6.534 -1.6081 -0.8658  1.1783
 6736SOL     OW31840   1.891   0.035   6.729 -0.6195 -0.0140 -0.2933
 6736SOL    HW131841   1.942   4.733   6.659  1.5826  0.6777  0.8843
 6736SOL    HW231842   1.836   4.703   6.763  1.2119 -1.6925 -0.7663
 6737SOL     OW31843   1.260   0.619   9.285  0.3177  0.6160 -0.1696
 6737SOL    HW131844   1.294   0.695   9.237  0.4731  0.6278 -0.0388
 6737SOL    HW231845   1.319   0.623   9.360  2.2925  2.9858 -1.8615
 6738SOL     OW31846   0.462   2.071   5.586 -0.4445 -0.0879  0.3418
 6738SOL    HW131847   0.553   2.041   5.578 -0.2930  0.5025 -0.0963
 6738SOL    HW231848   0.478   2.163   5.569 -0.6465 -0.1628 -0.2470
 6739SOL     OW31849   3.408   3.958  11.888  0.7140 -0.5246 -0.2345
 6739SOL    HW131850   3.427   4.028  11.825  0.5443 -2.0103 -1.9183
 6739SOL    HW231851   3.496   3.944  11.923 -0.3317  0.0315  2.6557
 6740SOL     OW31852   1.776   4.383   2.022  0.4475 -0.2087  0.4780
 6740SOL    HW131853   1.749   4.453   1.962 -2.9315 -1.4786  0.5046
 6740SOL    HW231854   1.818   4.324   1.959 -2.2052  0.6168 -2.0433
 6741SOL     OW31855   1.772   2.450   1.575 -0.3960 -0.1744 -0.0136
 6741SOL    HW131856   1.752   2.423   1.485  1.2803 -2.4724  0.2995
 6741SOL    HW231857   1.846   2.391   1.591  0.0795  0.3159 -0.3759
 6742SOL     OW31858   3.610   2.263  17.225 -0.3997 -0.3517  0.4239
 6742SOL    HW131859   3.570   2.268  17.138  1.2033 -0.0660 -0.2989
 6742SOL    HW231860   3.531   2.244  17.275 -1.3931  2.1915 -0.1595
 6743SOL     OW31861   0.339   0.556   6.348 -0.4538 -0.2036 -0.2272
 6743SOL    HW131862   0.291   0.476   6.372 -1.0908  0.3960  0.4962
 6743SOL    HW231863   0.315   0.568   6.256  2.1180 -2.2743 -1.1712
 6744SOL     OW31864   1.350   3.301   4.855  0.1973  0.1755 -0.5756
 6744SOL    HW131865   1.270   3.282   4.904  1.0073  1.1795  1.1442
 6744SOL    HW231866   1.362   3.222   4.802 -1.0118  1.0110 -2.0894
 6745SOL     OW31867   1.561   0.038   2.145 -0.6794 -0.5325 -0.5470
 6745SOL    HW131868   1.512   0.090   2.080  0.9434 -0.5989 -1.8074
 6745SOL    HW231869   1.487   4.721   2.169  0.2728 -1.7625 -0.4699
 6746SOL     OW31870   3.283   3.655   3.267  0.0482  0.2511  0.3666
 6746SOL    HW131871   3.284   3.662   3.172  0.7165 -2.2549  0.1785
 6746SOL    HW231872   3.190   3.653   3.291  0.7798  0.9484  3.2861
 6747SOL     OW31873   3.100   1.844   3.908  0.1179  0.4199  0.2478
 6747SOL    HW131874   3.190   1.821   3.887 -0.3724 -0.7282 -0.5630
 6747SOL    HW231875   3.107   1.854   4.003  0.3889 -0.7223  0.3387
 6748SOL     OW31876   1.303   1.928   6.928  0.1085 -0.5069 -0.1384
 6748SOL    HW131877   1.382   1.957   6.884 -0.5449 -1.8613 -2.2059
 6748SOL    HW231878   1.261   2.008   6.960 -0.3745 -0.8460  0.0753
 6749SOL     OW31879   1.572   0.792   6.098  0.2279 -0.0353 -0.1500
 6749SOL    HW131880   1.507   0.798   6.028 -1.5651  1.2608  1.6351
 6749SOL    HW231881   1.620   0.873   6.082  1.1804 -0.6003 -0.1773
 6750SOL     OW31882   3.719   1.640   6.406  1.0095 -0.0248  0.3402
 6750SOL    HW131883   3.723   1.658   6.312 -1.5208  0.2761  0.3061
 6750SOL    HW231884   3.655   1.571   6.392 -0.5589  1.2539  1.2872
 6751SOL     OW31885   2.166   2.053   0.619  0.1585 -0.1115  0.1526
 6751SOL    HW131886   2.147   1.964   0.587 -1.7605  0.3608 -0.0573
 6751SOL    HW231887   2.199   2.078   0.533  2.1779  0.0346  0.9831
 6752SOL     OW31888   2.982   3.577  16.799  0.0770  0.1156 -0.8097
 6752SOL    HW131889   2.896   3.618  16.799 -0.3285 -0.7468 -0.8332
 6752SOL    HW231890   2.973   3.501  16.742 -3.8109 -0.0350  0.0501
 6753SOL     OW31891   2.640   1.893   6.495 -0.1166 -1.1006  0.3384
 6753SOL    HW131892   2.621   1.933   6.410 -1.0261  0.8479  1.4401
 6753SOL    HW231893   2.655   1.804   6.465 -1.9018 -0.7754 -1.5061
 6754SOL     OW31894   2.886   0.953   8.539  0.2515  0.1945  0.2055
 6754SOL    HW131895   2.953   1.022   8.538 -0.5062  0.9193  0.0423
 6754SOL    HW231896   2.943   0.882   8.568 -0.4234  0.2765  1.7064
 6755SOL     OW31897   2.360   0.889  13.717  0.2265 -0.1526  0.4964
 6755SOL    HW131898   2.350   0.812  13.661  2.8542 -0.1710  0.0642
 6755SOL    HW231899   2.325   0.961  13.664  1.6517 -0.7162 -1.1680
 6756SOL     OW31900   3.351   0.307   0.197  0.2965 -0.0910  0.4964
 6756SOL    HW131901   3.330   0.266   0.113 -1.3599  0.5564  0.5861
 6756SOL    HW231902   3.424   0.251   0.222  1.3501  1.6024  1.2029
 6757SOL     OW31903   2.055   2.127  11.932 -0.1199 -0.0002 -0.4008
 6757SOL    HW131904   2.118   2.177  11.880 -0.5924  0.4485 -0.5327
 6757SOL    HW231905   1.979   2.185  11.931  1.7110  2.3726 -1.8017
 6758SOL     OW31906   1.957   3.642   7.113 -0.1228 -0.0264 -0.2278
 6758SOL    HW131907   1.972   3.611   7.202 -0.0156 -0.9621 -0.5674
 6758SOL    HW231908   1.885   3.585   7.085 -0.5255 -1.4733  3.7894
 6759SOL     OW31909   0.595   2.488   2.650 -0.0507 -0.3192 -0.0794
 6759SOL    HW131910   0.647   2.507   2.573 -0.7167  3.1272  0.3290
 6759SOL    HW231911   0.572   2.396   2.632  0.5257 -0.5894  0.5445
 6760SOL     OW31912   0.272   0.320   6.768  0.0294  0.9256 -0.1449
 6760SOL    HW131913   0.249   0.359   6.852 -0.4965  1.7153 -0.6597
 6760SOL    HW231914   0.236   0.392   6.716 -2.1353  2.3695  3.3709
 6761SOL     OW31915   2.140   2.762   3.333  0.1111 -0.4506 -0.4796
 6761SOL    HW131916   2.091   2.714   3.267  1.0025 -0.7271 -0.9426
 6761SOL    HW231917   2.092   2.844   3.329  1.0457  0.0833 -0.6403
 6762SOL     OW31918   0.314   0.920   8.753  0.1408  0.0052 -0.3352
 6762SOL    HW131919   0.370   0.981   8.704  1.2416  1.0069  2.2141
 6762SOL    HW231920   0.275   0.861   8.689 -1.5851 -0.2259  0.9490
 6763SOL     OW31921   4.161   4.016   8.178 -0.5010 -0.2480 -0.3396
 6763SOL    HW131922   4.075   4.055   8.194  0.2671  1.2186  0.1702
 6763SOL    HW231923   4.217   4.092   8.192 -0.1684 -0.0965 -2.4347
 6764SOL     OW31924   3.772   3.359   1.804 -0.1800 -0.2786  0.0512
 6764SOL    HW131925   3.814   3.306   1.736  0.6195 -0.9921  1.1057
 6764SOL    HW231926   3.847   3.400   1.847  0.3307 -0.7063 -0.4332
 6765SOL     OW31927   2.962   4.260   4.379  0.4320 -0.3493  0.3612
 6765SOL    HW131928   2.995   4.175   4.347  0.5382 -1.0994  2.5072
 6765SOL    HW231929   3.041   4.309   4.357 -1.0031  1.9870  0.4337
 6766SOL     OW31930   0.810   3.073   7.815 -0.0282 -0.8239 -0.4144
 6766SOL    HW131931   0.814   3.109   7.726  2.1312  1.9068  0.8060
 6766SOL    HW231932   0.789   3.151   7.867  1.1420 -1.2826  0.7421
 6767SOL     OW31933   2.272   2.048   8.439 -0.5217 -0.7174  0.1922
 6767SOL    HW131934   2.189   2.015   8.474  0.1890 -2.2402  0.4476
 6767SOL    HW231935   2.240   2.123   8.389  1.7019  0.1384  0.0633
 6768SOL     OW31936   3.957   3.567   6.168 -0.0703  0.1235  0.5968
 6768SOL    HW131937   3.870   3.529   6.180 -1.2041  2.7664  0.9257
 6768SOL    HW231938   3.986   3.575   6.259  1.0723  0.5376  0.1977
 6769SOL     OW31939   1.921   1.318   8.118  0.0754 -0.1924  0.4983
 6769SOL    HW131940   1.891   1.284   8.202  1.7730 -3.1152 -0.1015
 6769SOL    HW231941   1.991   1.375   8.149 -0.5803 -0.0461  1.6991
 6770SOL     OW31942   4.259   3.093   3.094  0.3488 -0.3921 -0.2214
 6770SOL    HW131943   4.215   3.077   3.011 -0.1028 -0.8672  0.1167
 6770SOL    HW231944   4.212   3.040   3.158  2.1000  0.7182  1.9680
 6771SOL     OW31945   1.389   1.280   3.822  0.4641  0.3546  0.5908
 6771SOL    HW131946   1.463   1.336   3.843  0.2435  1.8211 -2.4523
 6771SOL    HW231947   1.384   1.285   3.726 -0.5052  0.4792  0.6445
 6772SOL     OW31948   3.323   2.266  14.976  0.3468  0.0273 -0.2063
 6772SOL    HW131949   3.340   2.359  14.964  0.1676 -0.0781 -1.2425
 6772SOL    HW231950   3.235   2.261  14.939  0.1310  3.6897 -0.1613
 6773SOL     OW31951   0.116   3.057   6.208  0.1506 -0.2611 -0.1013
 6773SOL    HW131952   0.205   3.036   6.181  1.1792  1.4924  1.9035
 6773SOL    HW231953   0.063   2.979   6.189  0.2956  0.1841 -2.3216
 6774SOL     OW31954   0.120   2.902   4.931 -0.4400  0.6535 -0.0526
 6774SOL    HW131955   0.103   2.836   4.864 -0.2680  0.6558 -0.0992
 6774SOL    HW231956   0.046   2.890   4.990 -1.4765  0.3666 -1.4147
 6775SOL     OW31957   1.005   3.634   8.728  0.4571  0.1817  0.1575
 6775SOL    HW131958   0.986   3.542   8.749 -0.1071  0.4433  0.7620
 6775SOL    HW231959   1.060   3.662   8.801  2.1109  1.2242 -1.4706
 6776SOL     OW31960   4.355   2.862   4.132  0.1421 -0.1172 -0.4633
 6776SOL    HW131961   4.415   2.908   4.190  0.9643  0.6573 -1.9480
 6776SOL    HW231962   4.274   2.870   4.183  1.0136  1.5680  0.6483
 6777SOL     OW31963   1.942   4.077   5.717 -0.4494 -0.0001 -0.3207
 6777SOL    HW131964   1.868   4.037   5.763 -0.4969  0.8066  0.3020
 6777SOL    HW231965   1.950   4.153   5.775 -1.2779  1.2941 -1.9154
 6778SOL     OW31966   4.285   1.302   7.300 -0.1456  0.6040  0.0355
 6778SOL    HW131967   4.190   1.317   7.309 -0.1427 -0.7143  2.2670
 6778SOL    HW231968   4.322   1.384   7.333  1.5604  0.2701 -1.0589
 6779SOL     OW31969   2.537   2.448   1.056 -0.5927  1.0486 -0.0361
 6779SOL    HW131970   2.486   2.508   1.111 -1.4513  1.4763 -1.2662
 6779SOL    HW231971   2.598   2.509   1.014 -1.5713  1.2485 -1.1901
 6780SOL     OW31972   3.452   2.745   7.824  0.1335  0.3291 -0.1754
 6780SOL    HW131973   3.412   2.753   7.737 -2.0636 -0.2874  0.7624
 6780SOL    HW231974   3.499   2.663   7.814 -0.2900 -0.1885  2.2818
 6781SOL     OW31975   2.231   1.377   5.156 -0.4561  0.1180 -0.0346
 6781SOL    HW131976   2.160   1.410   5.212 -0.0951  0.5036  0.1918
 6781SOL    HW231977   2.173   1.348   5.086  0.6616  0.6509 -1.1691
 6782SOL     OW31978   0.310   3.103  13.087 -0.2553  0.2452  0.1230
 6782SOL    HW131979   0.219   3.108  13.058 -0.0989  1.6408 -0.1299
 6782SOL    HW231980   0.296   3.101  13.182 -1.1093  2.7371  0.0652
 6783SOL     OW31981   1.337   3.253   2.025  0.4366 -0.2643  0.1431
 6783SOL    HW131982   1.298   3.340   2.036  1.5088  0.1258  0.7562
 6783SOL    HW231983   1.378   3.248   2.111  1.5665  0.1565 -0.3727
 6784SOL     OW31984   2.549   3.046   1.600 -0.0112 -0.0491  0.1722
 6784SOL    HW131985   2.525   3.099   1.524  2.1375  0.2714 -0.2807
 6784SOL    HW231986   2.597   2.975   1.557  1.8393  1.8049 -0.8237
 6785SOL     OW31987   0.824   0.968   3.904  0.4900 -0.2463 -0.5987
 6785SOL    HW131988   0.870   0.890   3.935 -0.9407 -0.9576 -0.2638
 6785SOL    HW231989   0.742   0.955   3.952 -0.3591  0.7122 -1.8038
 6786SOL     OW31990   1.482   1.524  12.638  0.5017 -0.0975  0.8591
 6786SOL    HW131991   1.518   1.455  12.582 -2.9448 -2.1207  1.1172
 6786SOL    HW231992   1.535   1.593  12.599 -0.5006 -0.0190 -0.3650
 6787SOL     OW31993   0.721   1.452   8.829  0.1353  0.4949  0.0212
 6787SOL    HW131994   0.671   1.477   8.751  2.5359  1.3360 -1.2371
 6787SOL    HW231995   0.667   1.484   8.901 -0.5388 -0.1125 -0.2137
 6788SOL     OW31996   4.738   0.857   5.686  0.3586 -0.2169  0.2054
 6788SOL    HW131997   4.687   0.938   5.681  0.4251 -0.1872  0.0210
 6788SOL    HW231998   0.059   0.872   5.613  1.3011  3.8093  1.8078
 6789SOL     OW31999   2.728   4.621   5.940 -0.4017  0.6480  0.4021
 6789SOL    HW132000   2.801   4.626   5.878 -1.4404 -1.1030 -0.9636
 6789SOL    HW232001   2.698   4.712   5.936  1.2965  1.1628 -0.5268
 6790SOL     OW32002   3.067   4.356   5.146  0.2604 -0.1873  0.3534
 6790SOL    HW132003   3.108   4.333   5.063  0.4113 -1.4409  0.7710
 6790SOL    HW232004   3.127   4.305   5.201  1.2007 -0.2941 -0.7720
 6791SOL     OW32005   4.447   3.890   8.330 -0.0282 -0.9445 -0.3572
 6791SOL    HW132006   4.455   3.952   8.258  1.5518 -0.3574  0.3035
 6791SOL    HW232007   4.506   3.819   8.303  0.3125 -0.7533 -0.1243
 6792SOL     OW32008   0.847   0.150  15.870  0.8311 -0.0107  0.0791
 6792SOL    HW132009   0.782   0.206  15.829  2.7938  2.2173 -0.0407
 6792SOL    HW232010   0.788   0.088  15.912 -0.4137  0.0205 -1.6387
 6793SOL     OW32011   1.339   2.050  12.406 -0.2874 -0.1115 -0.3205
 6793SOL    HW132012   1.246   2.064  12.422 -0.0040 -0.1398  1.3845
 6793SOL    HW232013   1.349   1.956  12.424 -2.1932 -0.6413 -2.0795
 6794SOL     OW32014   1.822   1.079   4.280  0.2035 -0.2658  0.8874
 6794SOL    HW132015   1.844   1.032   4.360  1.1605 -1.6200 -0.1642
 6794SOL    HW232016   1.890   1.146   4.285  1.4852 -1.6715  2.2511
 6795SOL     OW32017   1.104   3.802   9.233 -0.4017 -0.2125 -0.4474
 6795SOL    HW132018   1.154   3.732   9.192 -0.8036 -0.9710  0.3510
 6795SOL    HW232019   1.176   3.821   9.294  0.9121  0.0375 -2.0811
 6796SOL     OW32020   0.342   2.115   1.864 -0.0679  0.0929 -0.1180
 6796SOL    HW132021   0.304   2.033   1.832  3.1156 -1.3365 -0.3186
 6796SOL    HW232022   0.413   2.110   1.799 -0.1753  1.3766 -0.3339
 6797SOL     OW32023   3.680   2.684  17.614  0.2741 -0.0545 -0.1432
 6797SOL    HW132024   3.769   2.675  17.581  1.3436 -1.3196  3.1706
 6797SOL    HW232025   3.675   2.656  17.705  1.5239  0.4756  0.0919
 6798SOL     OW32026   4.693   3.212  13.370  0.9101  0.0107 -0.2404
 6798SOL    HW132027   4.721   3.197  13.280 -0.5278  1.8536 -0.9870
 6798SOL    HW232028   4.652   3.298  13.358  1.4581  0.3068  0.0475
 6799SOL     OW32029   4.035   2.970   3.256 -0.2741 -0.0110  0.0256
 6799SOL    HW132030   3.954   2.918   3.261  1.1553 -2.1899  0.2715
 6799SOL    HW232031   4.055   3.009   3.342  0.4037  1.8179 -0.9704
 6800SOL     OW32032   4.380   3.268   4.219 -0.6792 -0.1151  0.0728
 6800SOL    HW132033   4.441   3.233   4.154 -0.1470  1.7619 -0.4290
 6800SOL    HW232034   4.310   3.308   4.167 -1.5277 -1.3899  0.2197
 6801SOL     OW32035   1.266   2.876   5.270 -0.1601 -0.5687  0.4386
 6801SOL    HW132036   1.173   2.869   5.248 -0.4704  2.5812  0.7719
 6801SOL    HW232037   1.267   2.876   5.366 -3.5093  1.3383  0.4677
 6802SOL     OW32038   2.707   2.836   9.982 -0.2876 -0.3124  0.3288
 6802SOL    HW132039   2.732   2.829  10.074  0.4647 -0.2909  0.1253
 6802SOL    HW232040   2.698   2.746   9.949 -2.6942  0.4700 -1.1693
 6803SOL     OW32041   0.514   0.489   2.380 -0.0142 -0.0821 -0.4094
 6803SOL    HW132042   0.489   0.425   2.447  3.7101 -0.7675  0.3584
 6803SOL    HW232043   0.432   0.514   2.340  0.0175  0.4249 -0.1585
 6804SOL     OW32044   0.782   1.754   9.513  0.1024 -0.0964 -0.6974
 6804SOL    HW132045   0.857   1.743   9.455  1.4764  1.1095  0.8244
 6804SOL    HW232046   0.768   1.849   9.512  0.7655 -0.0143 -1.8502
 6805SOL     OW32047   1.578   4.106   8.088  0.0002 -0.5535 -0.3598
 6805SOL    HW132048   1.629   4.182   8.117  1.3990 -2.8347  3.1913
 6805SOL    HW232049   1.546   4.128   8.001  1.6715 -0.8095 -1.0356
 6806SOL     OW32050   3.980   3.747  13.444  0.0704  0.0561  0.0036
 6806SOL    HW132051   3.885   3.752  13.456  0.0196 -1.0835  0.1561
 6806SOL    HW232052   3.988   3.693  13.365  0.9724 -0.4363  0.4260
 6807SOL     OW32053   2.880   0.611   0.442 -0.1537  0.4226  0.1692
 6807SOL    HW132054   2.858   0.680   0.505  0.1879 -0.0328  0.7808
 6807SOL    HW232055   2.954   0.648   0.394 -0.9154  0.8098 -0.7125
 6808SOL     OW32056   0.954   3.439   3.513 -0.0157 -0.2089 -0.1552
 6808SOL    HW132057   0.965   3.352   3.474 -0.1376 -0.8819  1.3217
 6808SOL    HW232058   1.031   3.463   3.564  0.5536 -2.5490  0.0528
 6809SOL     OW32059   2.691   3.564  15.616  0.0626 -0.0627 -0.1427
 6809SOL    HW132060   2.631   3.631  15.582  0.9338  0.5398 -0.5077
 6809SOL    HW232061   2.627   3.503  15.651 -2.1950  2.9471  1.0476
 6810SOL     OW32062   1.935   4.551   3.011 -0.2753  0.8348  0.1660
 6810SOL    HW132063   1.904   4.493   2.941  0.2944 -0.1841  0.7472
 6810SOL    HW232064   2.003   4.603   2.970 -1.8431  2.2765 -0.5687
 6811SOL     OW32065   3.408   1.467  16.190 -0.4033 -0.3774 -0.4307
 6811SOL    HW132066   3.395   1.391  16.134 -1.2866 -1.0470  0.7093
 6811SOL    HW232067   3.340   1.527  16.158 -1.9059 -1.1473  1.3604
 6812SOL     OW32068   2.734   0.075   0.402 -0.0986  0.1411  0.3712
 6812SOL    HW132069   2.730   4.718   0.405 -1.7102  0.1762 -1.0747
 6812SOL    HW232070   2.675   0.098   0.330  0.8404  2.7681  0.4527
 6813SOL     OW32071   4.592   4.591  11.914 -1.0147  0.1692  0.0750
 6813SOL    HW132072   4.654   4.534  11.960 -0.0530  0.9897 -0.2117
 6813SOL    HW232073   4.519   4.578  11.974  1.0458  2.0999  3.0050
 6814SOL     OW32074   0.427   1.353   5.611 -0.0079 -0.1544 -0.0077
 6814SOL    HW132075   0.334   1.338   5.593 -0.3976 -0.0820  1.8886
 6814SOL    HW232076   0.434   1.446   5.589 -0.0614  0.3234  1.9420
 6815SOL     OW32077   0.448   2.736  13.841 -0.3968  0.1238 -0.4513
 6815SOL    HW132078   0.506   2.769  13.910 -0.7336 -0.0844 -0.0701
 6815SOL    HW232079   0.509   2.720  13.769  0.3063 -1.8588  0.5946
 6816SOL     OW32080   1.985   2.690   7.600 -0.1724 -0.2564  0.4106
 6816SOL    HW132081   2.055   2.726   7.654 -0.7628  3.9806 -1.6530
 6816SOL    HW232082   1.905   2.723   7.641 -0.0898  0.8926 -0.3424
 6817SOL     OW32083   1.822   1.763   7.783 -0.5111 -0.0491  0.1658
 6817SOL    HW132084   1.888   1.696   7.804 -1.5939 -1.8405 -2.2106
 6817SOL    HW232085   1.845   1.806   7.701 -2.4796 -0.1650 -0.4423
 6818SOL     OW32086   1.114   0.951   5.148 -0.0120 -0.1613 -0.0508
 6818SOL    HW132087   1.073   1.023   5.100  1.9619 -0.0117 -1.5140
 6818SOL    HW232088   1.201   0.966   5.112  0.0253  2.4694  1.0771
 6819SOL     OW32089   1.402   0.905   6.858  0.1579  0.0906  0.4334
 6819SOL    HW132090   1.433   0.872   6.774 -0.3855 -0.6655  0.5239
 6819SOL    HW232091   1.319   0.939   6.824 -0.8374 -1.2028  1.5724
 6820SOL     OW32092   0.544   1.504  15.330 -0.0334 -0.0157  0.1389
 6820SOL    HW132093   0.456   1.480  15.358  0.4255  0.6667  2.1500
 6820SOL    HW232094   0.575   1.415  15.312  0.9369  0.3210  0.1391
 6821SOL     OW32095   0.642   2.493   7.579  0.3117 -0.1562 -0.6950
 6821SOL    HW132096   0.615   2.494   7.488 -0.0806  1.9657 -0.5372
 6821SOL    HW232097   0.712   2.556   7.592 -1.6238  1.8983 -0.1447
 6822SOL     OW32098   3.907   3.833   7.533  0.2108  0.1053  0.6483
 6822SOL    HW132099   3.880   3.920   7.503 -0.7426 -0.4210 -0.0442
 6822SOL    HW232100   3.870   3.846   7.621  1.5921 -4.2215  1.8766
 6823SOL     OW32101   1.462   0.220  10.248 -0.0433  0.2623  0.3655
 6823SOL    HW132102   1.370   0.197  10.260 -0.5968  0.9979 -2.3436
 6823SOL    HW232103   1.464   0.273  10.328 -0.4019 -0.1687  0.6565
 6824SOL     OW32104   0.508   4.176   2.754  0.1329  0.1105 -0.9377
 6824SOL    HW132105   0.431   4.139   2.711  0.0502 -0.7748 -0.0335
 6824SOL    HW232106   0.533   4.244   2.691 -2.5970  0.3518 -1.7483
 6825SOL     OW32107   3.782   3.172  14.093 -0.0048  0.1360 -0.0995
 6825SOL    HW132108   3.775   3.204  14.183  2.8323  0.5322 -0.0235
 6825SOL    HW232109   3.840   3.237  14.053  0.8048 -1.4140 -1.4386
 6826SOL     OW32110   0.606   0.571   5.836 -0.0549 -0.3338 -0.5367
 6826SOL    HW132111   0.584   0.648   5.889  0.8696  0.6476 -1.5745
 6826SOL    HW232112   0.655   0.607   5.762  0.6909  0.9799  0.5726
 6827SOL     OW32113   2.313   3.304  11.665  0.5527  0.6162  0.2525
 6827SOL    HW132114   2.260   3.226  11.649 -0.4724  1.5458 -0.8517
 6827SOL    HW232115   2.252   3.372  11.638 -0.1430  0.5013  1.5010
 6828SOL     OW32116   4.507   3.262   5.376 -0.2718  0.3297 -0.3022
 6828SOL    HW132117   4.485   3.176   5.411  0.4713  1.4033  2.8232
 6828SOL    HW232118   4.505   3.320   5.452 -2.3768  0.2479 -0.2973
 6829SOL     OW32119   1.754   0.639   9.471 -0.1464 -0.1049 -0.4772
 6829SOL    HW132120   1.790   0.629   9.559  0.8826 -0.2470 -0.9155
 6829SOL    HW232121   1.695   0.713   9.486  0.8066  0.5230  0.1716
 6830SOL     OW32122   2.215   3.365   6.651  0.1763  0.5005 -0.1255
 6830SOL    HW132123   2.258   3.384   6.567  2.4445  1.6147  1.2734
 6830SOL    HW232124   2.295   3.355   6.703  1.2199  1.3560 -1.5670
 6831SOL     OW32125   1.677   2.442   2.063  0.2312  0.4645 -0.3513
 6831SOL    HW132126   1.688   2.444   2.158  1.9529 -1.1120 -0.5324
 6831SOL    HW232127   1.592   2.485   2.055  0.1514  0.5346  0.8836
 6832SOL     OW32128   0.908   2.760  14.383 -0.5449 -0.1085 -0.1976
 6832SOL    HW132129   0.952   2.842  14.404 -0.7664  0.3831 -1.6437
 6832SOL    HW232130   0.926   2.740  14.291  2.2141  1.5344 -0.0039
 6833SOL     OW32131   1.825   2.391   5.014 -0.1667 -0.1897  0.2019
 6833SOL    HW132132   1.871   2.456   5.066 -0.2256 -0.2044  0.2731
 6833SOL    HW232133   1.875   2.311   5.031  0.4528 -0.1487 -1.3862
 6834SOL     OW32134   1.122   0.575   2.556 -0.3664 -0.1395  0.5298
 6834SOL    HW132135   1.099   0.525   2.478 -0.9659  0.9053  0.0290
 6834SOL    HW232136   1.137   0.505   2.620  2.3059  0.8658  0.9793
 6835SOL     OW32137   3.498   4.399   3.397  0.8613 -0.1247  0.2996
 6835SOL    HW132138   3.435   4.365   3.333  0.4910  0.1287  0.5324
 6835SOL    HW232139   3.494   4.489   3.364 -3.9528  0.2981  2.1473
 6836SOL     OW32140   4.646   1.596   0.132  0.2675 -0.3595 -0.0438
 6836SOL    HW132141   4.592   1.583   0.210 -0.7247  1.6780 -0.3882
 6836SOL    HW232142   4.587   1.661   0.093 -1.1804 -0.2399  2.3173
 6837SOL     OW32143   2.521   1.327   5.719  0.3020 -0.0369 -0.1956
 6837SOL    HW132144   2.465   1.404   5.732 -1.5309 -1.2624 -0.8431
 6837SOL    HW232145   2.547   1.337   5.627 -0.1925  0.2164 -0.3088
 6838SOL     OW32146   0.995   3.060   1.973  0.1749 -0.2180 -0.3098
 6838SOL    HW132147   0.950   3.139   2.002 -1.0820 -0.5669 -1.2872
 6838SOL    HW232148   0.936   2.989   1.998  2.2613 -2.3261 -1.3546
 6839SOL     OW32149   0.316   3.048   3.819  0.1089  0.1852 -0.2986
 6839SOL    HW132150   0.229   3.046   3.860  0.5240 -1.4346  0.5232
 6839SOL    HW232151   0.302   3.116   3.754  2.6697  0.1443 -0.8879
 6840SOL     OW32152   3.561   3.394   7.805  0.4640 -0.2679  0.0634
 6840SOL    HW132153   3.503   3.384   7.881 -0.5983 -3.1542 -1.0993
 6840SOL    HW232154   3.573   3.303   7.778 -0.8384 -0.2663 -0.5558
 6841SOL     OW32155   2.853   0.325   9.480  0.1274 -0.3997 -0.0252
 6841SOL    HW132156   2.879   0.406   9.435  1.2890 -0.7997 -0.0848
 6841SOL    HW232157   2.919   0.262   9.450  1.3504 -0.4747  2.8146
 6842SOL     OW32158   4.293   4.284   4.395 -0.1790  0.5761  0.0964
 6842SOL    HW132159   4.256   4.335   4.467 -0.3385  1.3412 -0.5342
 6842SOL    HW232160   4.255   4.197   4.407  0.2913  0.3904  0.2654
 6843SOL     OW32161   4.609   0.206   0.500  0.0709 -0.1671 -0.0307
 6843SOL    HW132162   4.597   0.121   0.459 -0.0437  0.7359 -1.8366
 6843SOL    HW232163   4.651   0.183   0.583  0.2779  0.3634  0.0113
 6844SOL     OW32164   1.842   0.988   4.851 -0.5979  0.6187 -0.2620
 6844SOL    HW132165   1.928   0.968   4.888  0.1171  2.4664 -0.9216
 6844SOL    HW232166   1.794   0.905   4.856  2.0669 -0.7472  2.2162
 6845SOL     OW32167   3.189   2.406   8.837 -0.8310  0.2103 -0.0059
 6845SOL    HW132168   3.199   2.352   8.915 -1.9528  0.1657  0.1191
 6845SOL    HW232169   3.149   2.485   8.875  1.4169  1.5477 -0.4079
 6846SOL     OW32170   3.776   3.920   4.626 -0.0212 -0.4698  0.0308
 6846SOL    HW132171   3.742   4.005   4.598 -0.3551 -0.7292 -0.3565
 6846SOL    HW232172   3.801   3.890   4.539  0.5812  1.5826 -0.5109
 6847SOL     OW32173   0.773   4.626   6.757 -0.6681 -0.3776 -0.1417
 6847SOL    HW132174   0.710   4.632   6.686  1.1467 -0.7072 -1.7777
 6847SOL    HW232175   0.716   4.611   6.832 -1.0035  0.3841 -0.2445
 6848SOL     OW32176   0.618   0.759   1.988  0.1001  0.3012 -0.8251
 6848SOL    HW132177   0.665   0.689   1.943  2.1141  3.3240 -3.4171
 6848SOL    HW232178   0.539   0.748   1.935 -0.6446 -2.3539  0.8852
 6849SOL     OW32179   1.485   3.801  12.695  0.2609 -0.0746 -0.4923
 6849SOL    HW132180   1.394   3.799  12.725  0.3433 -1.0413 -0.2993
 6849SOL    HW232181   1.493   3.893  12.669  1.6000 -0.1089 -0.2147
 6850SOL     OW32182   0.334   2.356  13.803  0.1472 -0.1772  0.0973
 6850SOL    HW132183   0.277   2.280  13.815 -1.5493  0.7474 -1.8140
 6850SOL    HW232184   0.402   2.310  13.755  0.1217  1.2280 -1.3066
 6851SOL     OW32185   1.223   3.638   1.477 -0.6946 -0.0984 -0.1888
 6851SOL    HW132186   1.141   3.590   1.491 -2.0587  2.0138 -1.0233
 6851SOL    HW232187   1.281   3.572   1.440 -0.2012  0.8643 -1.1283
 6852SOL     OW32188   4.357   1.571   5.871 -0.2452  0.0717  0.2185
 6852SOL    HW132189   4.349   1.477   5.855  2.2170 -0.3000  1.1519
 6852SOL    HW232190   4.321   1.619   5.797  2.3637 -1.6734 -2.2000
 6853SOL     OW32191   4.244   1.954   8.835 -0.2536  0.2538 -0.1695
 6853SOL    HW132192   4.297   1.907   8.770  0.0064 -0.2965  0.4377
 6853SOL    HW232193   4.199   2.014   8.775  1.7734  1.1986 -0.7567
 6854SOL     OW32194   4.346   1.163   8.889  0.2768  0.3884 -0.0093
 6854SOL    HW132195   4.260   1.131   8.919  0.1028  1.3794  0.5425
 6854SOL    HW232196   4.331   1.168   8.795 -2.3668 -0.5033  0.3620
 6855SOL     OW32197   3.690   3.495   4.492 -0.5292  0.7769 -0.2409
 6855SOL    HW132198   3.676   3.484   4.586  0.0096  1.9728 -0.0174
 6855SOL    HW232199   3.625   3.562   4.467 -0.7347  0.4693 -0.5250
 6856SOL     OW32200   0.111   4.312   6.483  0.3612  0.3819 -0.0864
 6856SOL    HW132201   0.025   4.294   6.443  0.6231  1.1843 -1.0114
 6856SOL    HW232202   0.151   4.225   6.485 -1.3110 -0.4222 -1.4127
 6857SOL     OW32203   2.322   1.704   8.967 -0.0393  0.0330  0.6661
 6857SOL    HW132204   2.251   1.752   8.925  1.7421  1.9761 -0.1114
 6857SOL    HW232205   2.398   1.748   8.928 -0.3492  2.1708  2.4860
 6858SOL     OW32206   2.235   4.251   2.179 -0.3656  0.6628 -0.2098
 6858SOL    HW132207   2.235   4.165   2.138  0.4006  0.3713  0.4058
 6858SOL    HW232208   2.147   4.282   2.155 -0.7667 -0.0311  0.3403
 6859SOL     OW32209   2.530   0.182   1.696  0.0942  0.0605 -0.4114
 6859SOL    HW132210   2.494   0.119   1.758 -1.1581 -1.6012 -2.8413
 6859SOL    HW232211   2.596   0.223   1.752 -1.3378  1.1085  0.5190
 6860SOL     OW32212   2.702   3.868  15.680 -0.5439  0.1702 -0.0768
 6860SOL    HW132213   2.675   3.908  15.763 -1.9135  2.9893 -1.8598
 6860SOL    HW232214   2.794   3.894  15.673 -0.5471  0.1754 -0.1011
 6861SOL     OW32215   1.599   2.963   5.374  0.0033 -0.1459  0.3954
 6861SOL    HW132216   1.689   2.983   5.399  0.3245  0.0834 -0.9357
 6861SOL    HW232217   1.550   2.999   5.448  0.8620  1.5747  0.1386
 6862SOL     OW32218   2.606   3.620   6.387  0.3977  0.1118 -0.1138
 6862SOL    HW132219   2.596   3.579   6.302 -0.3341  1.6949 -0.7890
 6862SOL    HW232220   2.686   3.671   6.370 -0.0167  0.3315 -1.4012
 6863SOL     OW32221   1.201   2.156   8.752 -0.2530  0.3336  0.1491
 6863SOL    HW132222   1.109   2.143   8.777 -0.8065  0.6710 -1.7618
 6863SOL    HW232223   1.249   2.095   8.808  0.3126  0.9156  0.3051
 6864SOL     OW32224   3.706   4.016   7.219 -0.3517 -1.0079  0.0848
 6864SOL    HW132225   3.770   4.049   7.156 -1.5089 -0.3470 -0.7499
 6864SOL    HW232226   3.717   3.923   7.203 -3.2081 -0.8066 -3.0175
 6865SOL     OW32227   0.034   4.593   7.394  0.6483  0.1847  0.3364
 6865SOL    HW132228   4.704   4.617   7.331 -0.8689  0.0081  1.8841
 6865SOL    HW232229   0.084   4.545   7.329  0.4050  0.6159 -0.1707
 6866SOL     OW32230   0.497   1.842  17.021 -0.4557 -0.1605  0.2853
 6866SOL    HW132231   0.430   1.889  17.071  0.2360  2.0878 -0.9022
 6866SOL    HW232232   0.452   1.827  16.938 -0.3527  0.9092  0.0292
 6867SOL     OW32233   2.167   2.075   3.828  0.2100  0.3225  0.2600
 6867SOL    HW132234   2.134   2.129   3.756  0.1678 -2.6686 -1.9326
 6867SOL    HW232235   2.257   2.061   3.800 -0.2883 -1.9966 -0.1791
 6868SOL     OW32236   3.757   3.137   5.841  0.3488  0.2765 -0.2580
 6868SOL    HW132237   3.760   3.081   5.918 -0.7290 -0.7741 -0.9746
 6868SOL    HW232238   3.672   3.178   5.858 -0.5521 -0.5907 -2.7404
 6869SOL     OW32239   4.335   0.088  15.379  0.4484 -0.2519 -0.5297
 6869SOL    HW132240   4.381   0.166  15.412  0.9539 -1.4433  1.6011
 6869SOL    HW232241   4.245   0.096  15.410  0.6383  1.2510 -0.3465
 6870SOL     OW32242   2.434   1.346   7.156  0.0125 -0.5082 -0.2848
 6870SOL    HW132243   2.481   1.297   7.089  0.0825 -0.3094 -0.3822
 6870SOL    HW232244   2.387   1.414   7.108 -1.4460 -2.4167 -1.5106
 6871SOL     OW32245   0.494   2.509  14.513  0.2914  0.1198 -0.3890
 6871SOL    HW132246   0.537   2.507  14.428 -1.5389  1.3138 -1.3576
 6871SOL    HW232247   0.529   2.431  14.555 -0.3009 -0.4585 -0.9809
 6872SOL     OW32248   4.004   2.864   2.715 -0.2566 -0.0308  0.7598
 6872SOL    HW132249   3.930   2.838   2.770 -1.4451  1.3747 -0.1849
 6872SOL    HW232250   3.961   2.873   2.630 -0.2637 -0.7972  0.6803
 6873SOL     OW32251   2.669   3.630   7.382 -0.0624  0.2253  0.0452
 6873SOL    HW132252   2.720   3.605   7.304 -1.6574  2.7027 -1.7908
 6873SOL    HW232253   2.690   3.564   7.447  1.1750  1.2360  0.6679
 6874SOL     OW32254   1.397   0.788   5.696 -0.2577 -0.2654 -0.2238
 6874SOL    HW132255   1.364   0.878   5.690 -1.1525 -0.5781  0.0003
 6874SOL    HW232256   1.421   0.790   5.789  1.5819 -0.5258 -0.6966
 6875SOL     OW32257   0.039   4.657   6.422  0.3505 -0.5497  0.0223
 6875SOL    HW132258   0.030   4.650   6.517  0.1422  2.5224  0.2014
 6875SOL    HW232259   4.737   4.738   6.393  0.5256  0.2178  1.8762
 6876SOL     OW32260   1.607   3.804   3.885  0.0820 -0.3068  0.5263
 6876SOL    HW132261   1.635   3.712   3.889  0.0587 -0.3731 -0.8038
 6876SOL    HW232262   1.633   3.841   3.969 -0.6371  0.6619  0.3080
 6877SOL     OW32263   0.121   4.605  17.207 -0.3555  0.3702  0.1077
 6877SOL    HW132264   0.047   4.666  17.200 -1.3135 -0.8503 -0.4919
 6877SOL    HW232265   0.161   4.651  17.281 -0.3097  1.0008 -0.3121
 6878SOL     OW32266   2.732   3.603  11.219  0.5346 -0.4139 -0.0048
 6878SOL    HW132267   2.701   3.561  11.138  0.4275 -1.3231  0.5071
 6878SOL    HW232268   2.701   3.692  11.208  0.4489 -0.4829 -0.3426
 6879SOL     OW32269   2.512   4.063   4.313 -0.2619  0.0438 -0.5214
 6879SOL    HW132270   2.429   4.079   4.269 -1.8463 -1.8106  1.7551
 6879SOL    HW232271   2.491   4.069   4.406  1.8790  0.1649 -0.0429
 6880SOL     OW32272   1.061   1.284   4.136  0.0458  0.7963  0.2872
 6880SOL    HW132273   1.102   1.211   4.090 -0.1479  1.1691 -0.4902
 6880SOL    HW232274   1.017   1.250   4.213 -0.6454  1.1906  0.0729
 6881SOL     OW32275   4.720   3.085   8.854  0.2942 -0.3051 -0.3841
 6881SOL    HW132276   4.647   3.130   8.898  0.2508  0.6164 -1.3919
 6881SOL    HW232277   4.712   2.994   8.881  0.7567 -0.1428  0.3062
 6882SOL     OW32278   1.911   4.565  10.048 -0.3778  0.0159  0.0237
 6882SOL    HW132279   1.816   4.571  10.043 -0.5026 -0.7510  1.2621
 6882SOL    HW232280   1.936   4.650  10.013  2.5825 -1.0113 -0.3512
 6883SOL     OW32281   2.974   0.754  15.766  0.0361  0.3413 -0.0101
 6883SOL    HW132282   2.913   0.734  15.695  1.0311  1.2872 -1.1148
 6883SOL    HW232283   2.917   0.739  15.842  1.4111  0.4571  1.0344
 6884SOL     OW32284   0.394   4.038   1.360 -0.1608  0.0502  0.0322
 6884SOL    HW132285   0.417   4.046   1.268  2.4844  1.2861  0.8079
 6884SOL    HW232286   0.481   4.056   1.396 -0.4622 -1.6927  1.6474
 6885SOL     OW32287   3.256   1.543  11.098  0.5415  0.0493 -0.2368
 6885SOL    HW132288   3.316   1.555  11.025 -1.5648 -3.0384 -2.4501
 6885SOL    HW232289   3.210   1.625  11.118 -0.3303 -0.4593 -0.1419
 6886SOL     OW32290   4.135   1.626   2.156  0.5324 -0.6091  0.3391
 6886SOL    HW132291   4.222   1.586   2.162  1.0197  0.7209  2.1388
 6886SOL    HW232292   4.160   1.713   2.185  0.3001 -0.6338  0.6244
 6887SOL     OW32293   3.858   3.280  14.966  0.0926  0.1071 -0.4472
 6887SOL    HW132294   3.778   3.306  14.921  1.0721 -2.6547 -3.7284
 6887SOL    HW232295   3.916   3.286  14.890  1.9800 -0.4246  0.9278
 6888SOL     OW32296   2.970   0.874   7.974  0.2682 -0.3119  0.4322
 6888SOL    HW132297   2.891   0.917   7.941  0.7942  1.5798  1.6254
 6888SOL    HW232298   3.041   0.934   7.950 -0.1057  0.4655  1.2485
 6889SOL     OW32299   4.321   0.201  13.321  0.3641 -0.5101  0.3484
 6889SOL    HW132300   4.379   0.274  13.303  0.4432 -0.6384  0.0873
 6889SOL    HW232301   4.319   0.155  13.237  0.0185 -1.2643  0.7737
 6890SOL     OW32302   4.282   1.245   0.902 -0.4253  0.1020  0.0174
 6890SOL    HW132303   4.369   1.207   0.913 -1.0202 -1.3466 -0.1922
 6890SOL    HW232304   4.250   1.179   0.839  0.2757 -0.7092  0.5072
 6891SOL     OW32305   2.875   3.539  11.867 -0.3849 -0.3866  0.4747
 6891SOL    HW132306   2.916   3.536  11.781 -0.6852  0.8207  0.2772
 6891SOL    HW232307   2.940   3.480  11.905  2.8855  2.5418 -0.5531
 6892SOL     OW32308   1.160   1.000   4.507  0.2110  0.4800  0.6947
 6892SOL    HW132309   1.128   0.926   4.558 -0.4572 -0.7496 -1.5554
 6892SOL    HW232310   1.102   1.071   4.537 -0.2624  1.2707 -2.0750
 6893SOL     OW32311   2.314   2.981   9.069 -0.0760 -0.5586 -0.1668
 6893SOL    HW132312   2.282   3.004   9.156  0.1311 -1.7514  0.2268
 6893SOL    HW232313   2.324   2.887   9.081  0.4149 -0.2015  2.2900
 6894SOL     OW32314   3.952   0.327   4.267  0.3053  0.6073 -0.8435
 6894SOL    HW132315   3.969   0.232   4.272 -0.5583  0.5573  1.2607
 6894SOL    HW232316   4.044   0.352   4.262  0.7422 -0.9966 -0.9326
 6895SOL     OW32317   1.675   1.151   2.262  0.4655  0.0355 -0.5993
 6895SOL    HW132318   1.634   1.065   2.262  1.2415 -0.3338 -0.3044
 6895SOL    HW232319   1.610   1.205   2.217 -0.1240  0.4608  0.7578
 6896SOL     OW32320   4.205   4.562   5.648 -0.3804 -0.9214 -0.5810
 6896SOL    HW132321   4.160   4.642   5.674  0.1909 -1.2770  1.4842
 6896SOL    HW232322   4.242   4.580   5.562 -0.3624 -3.0145 -1.0233
 6897SOL     OW32323   3.036   2.186   7.048 -0.1984 -0.4040  0.4760
 6897SOL    HW132324   2.951   2.229   7.047  0.2901  0.5158 -1.8895
 6897SOL    HW232325   3.080   2.239   7.114  0.8271  0.0470 -0.5700
 6898SOL     OW32326   4.430   4.186   6.441 -0.1955 -0.8412  0.3149
 6898SOL    HW132327   4.355   4.195   6.500 -1.3337 -0.0112 -1.2822
 6898SOL    HW232328   4.480   4.259   6.478 -0.0924 -0.5849 -0.3351
 6899SOL     OW32329   2.821   4.446  15.487 -0.0669  0.5615 -0.0965
 6899SOL    HW132330   2.845   4.376  15.427  1.4917 -0.3643  1.6229
 6899SOL    HW232331   2.871   4.420  15.564  1.0441 -0.0291 -1.0254
 6900SOL     OW32332   1.312   0.250   2.152 -0.0552 -0.4529  0.5439
 6900SOL    HW132333   1.297   0.252   2.058 -0.2772 -1.0710  0.5608
 6900SOL    HW232334   1.237   0.201   2.188  2.1189 -3.3708  1.0995
 6901SOL     OW32335   3.986   3.211  15.582 -0.4396  0.0828  0.1822
 6901SOL    HW132336   3.900   3.225  15.542 -0.7711 -1.0887  0.4941
 6901SOL    HW232337   3.950   3.222  15.670  0.9138 -0.4136  0.7901
 6902SOL     OW32338   1.343   2.825  13.625  0.4518  0.1728 -1.0609
 6902SOL    HW132339   1.266   2.881  13.630  1.2203  0.8737  3.3025
 6902SOL    HW232340   1.303   2.739  13.640  2.4608 -0.4932  0.6298
 6903SOL     OW32341   4.675   2.107   3.582  0.5277 -0.5098 -0.6228
 6903SOL    HW132342   4.676   2.116   3.678  0.3652 -0.2213 -0.6495
 6903SOL    HW232343   0.031   2.119   3.572  0.6718  0.4696  1.8175
 6904SOL     OW32344   2.822   3.786   7.783 -0.0026  0.1223 -0.5160
 6904SOL    HW132345   2.910   3.749   7.797  0.0902  1.8021  3.3720
 6904SOL    HW232346   2.829   3.825   7.696  1.2749  1.3140  0.1271
 6905SOL     OW32347   1.644   0.764   3.155  0.6413  0.2265 -0.5298
 6905SOL    HW132348   1.610   0.820   3.225  0.0076  2.5565 -2.7031
 6905SOL    HW232349   1.595   0.683   3.172  0.6052 -0.1801 -2.5947
 6906SOL     OW32350   1.333   1.695   1.849  0.0655  0.3264  0.2800
 6906SOL    HW132351   1.409   1.651   1.888 -1.1455 -2.3309 -0.3055
 6906SOL    HW232352   1.365   1.784   1.834  0.3237 -0.0716 -1.5566
 6907SOL     OW32353   2.084   3.998  17.163 -0.0075 -0.2659 -0.1271
 6907SOL    HW132354   2.090   3.945  17.243 -1.9485 -0.1902  0.0808
 6907SOL    HW232355   2.154   4.062  17.176  0.6237 -1.1235  0.6984
 6908SOL     OW32356   0.499   4.346  15.051 -0.4865 -0.1752  0.0564
 6908SOL    HW132357   0.439   4.318  15.120 -0.4082 -1.6939 -0.5062
 6908SOL    HW232358   0.568   4.282  15.069  1.9418  1.9024 -1.6353
 6909SOL     OW32359   2.460   3.456   4.800  0.3700  0.3128 -0.4541
 6909SOL    HW132360   2.386   3.512   4.777 -1.5511 -1.6081  0.9728
 6909SOL    HW232361   2.447   3.393   4.730 -1.4575 -0.9942  1.0618
 6910SOL     OW32362   4.669   4.195   3.693  0.7193  0.5188  0.2384
 6910SOL    HW132363   4.617   4.157   3.764  0.4987 -1.1005 -0.7718
 6910SOL    HW232364   4.598   4.190   3.629  0.4297 -1.3801  0.7068
 6911SOL     OW32365   1.980   0.439  16.994  0.2045  0.0233 -0.0904
 6911SOL    HW132366   1.961   0.490  16.915  0.3449  1.1133  0.5746
 6911SOL    HW232367   1.924   0.361  16.995  1.6892 -1.0275  1.3824
 6912SOL     OW32368   0.192   4.536   7.203  0.0215 -0.1529 -0.0757
 6912SOL    HW132369   0.204   4.559   7.110  1.1461 -1.3217 -0.2208
 6912SOL    HW232370   0.272   4.484   7.211  0.3833  0.4271  0.1010
 6913SOL     OW32371   4.607   2.296   3.149  0.0548 -0.0812  0.1274
 6913SOL    HW132372   4.563   2.358   3.091 -0.1484 -0.2164  0.1346
 6913SOL    HW232373   4.659   2.252   3.082  2.8304  1.2200  1.4510
 6914SOL     OW32374   1.475   2.443   7.345  0.8314  0.6755  0.1334
 6914SOL    HW132375   1.383   2.432   7.368  0.8312 -1.4569 -0.8515
 6914SOL    HW232376   1.470   2.445   7.249  1.7874 -0.3903  0.0651
 6915SOL     OW32377   0.699   2.254   6.140  0.0249  0.5053 -0.1851
 6915SOL    HW132378   0.625   2.194   6.153  0.7125 -0.2930  0.0448
 6915SOL    HW232379   0.654   2.329   6.102 -0.0155  0.0805 -0.9857
 6916SOL     OW32380   0.958   4.721  10.043 -0.7444  0.3943  0.6508
 6916SOL    HW132381   1.047   4.689  10.026 -0.0107  1.2153  2.9832
 6916SOL    HW232382   0.974   0.075  10.065  1.4774  0.4728 -1.1973
 6917SOL     OW32383   1.999   4.051   7.759 -0.2339  0.1143  0.8006
 6917SOL    HW132384   1.947   4.118   7.804  1.0778  0.9077  1.1295
 6917SOL    HW232385   2.012   3.987   7.829 -0.1948  1.3600  1.9250
 6918SOL     OW32386   3.614   0.085   3.343 -0.1107 -0.3974 -1.2086
 6918SOL    HW132387   3.642   4.735   3.367  1.0422  0.6455  1.2676
 6918SOL    HW232388   3.608   0.083   3.247  0.4846 -2.0174 -1.2134
 6919SOL     OW32389   1.176   1.060   6.384 -0.6306 -0.6071  0.4106
 6919SOL    HW132390   1.219   1.140   6.355 -2.8112  0.3322 -0.1902
 6919SOL    HW232391   1.125   1.032   6.308 -0.0851  0.1174 -0.2255
 6920SOL     OW32392   2.131   0.895   6.558 -0.5367  0.1222 -0.1227
 6920SOL    HW132393   2.184   0.906   6.637 -1.0514 -0.9251  0.3701
 6920SOL    HW232394   2.093   0.809   6.573 -0.6831  0.1242 -0.4806
 6921SOL     OW32395   4.589   2.987  11.914  0.0354  0.3018  0.1247
 6921SOL    HW132396   4.677   2.993  11.952  0.6484 -1.7089 -0.9226
 6921SOL    HW232397   4.569   3.079  11.900 -0.3401  0.2109  0.0683
 6922SOL     OW32398   3.628   1.433   2.269  0.6099  0.4578  0.4119
 6922SOL    HW132399   3.587   1.360   2.222 -0.2021 -0.7917  3.0909
 6922SOL    HW232400   3.676   1.472   2.196 -0.3160 -2.0248 -1.5419
 6923SOL     OW32401   1.791   0.780  15.212  0.4686  0.2543  0.2414
 6923SOL    HW132402   1.715   0.816  15.257  1.6923  1.0304  1.6808
 6923SOL    HW232403   1.800   0.690  15.244  0.0586  0.4229  0.8217
 6924SOL     OW32404   0.375   1.647  16.776  0.1528  0.7829 -0.2020
 6924SOL    HW132405   0.342   1.596  16.850 -0.2595 -1.0083 -1.6160
 6924SOL    HW232406   0.377   1.585  16.703  0.1173 -1.6580  1.8846
 6925SOL     OW32407   2.726   2.216   9.985  0.3352  0.0174  0.2922
 6925SOL    HW132408   2.650   2.275   9.992  0.8500  0.6338  0.6741
 6925SOL    HW232409   2.737   2.207   9.891  0.8915 -0.0833  0.3699
 6926SOL     OW32410   1.270   1.155   2.332  0.3158 -0.0211 -0.0669
 6926SOL    HW132411   1.354   1.119   2.361  0.9295  2.4540  1.2523
 6926SOL    HW232412   1.298   1.206   2.257 -0.4560  1.9226  0.9624
 6927SOL     OW32413   3.042   2.686   7.675  0.6620  0.1243  0.1022
 6927SOL    HW132414   3.133   2.674   7.648  0.6403  3.0218 -1.2036
 6927SOL    HW232415   3.046   2.620   7.744 -1.1025 -1.1494 -1.0233
 6928SOL     OW32416   2.314   0.479  12.166  0.2873  0.5509  0.2823
 6928SOL    HW132417   2.347   0.421  12.098 -1.9236  0.3954 -0.6809
 6928SOL    HW232418   2.287   0.417  12.233 -1.5027  1.0260  0.0051
 6929SOL     OW32419   3.272   2.217   4.160  0.0411  0.1846 -0.0926
 6929SOL    HW132420   3.277   2.289   4.097 -0.6869 -0.8563 -1.3313
 6929SOL    HW232421   3.177   2.205   4.166  0.0319  0.7789  0.9459
 6930SOL     OW32422   1.239   2.878   4.250  0.2039 -0.0689 -0.6776
 6930SOL    HW132423   1.172   2.845   4.190  1.5534 -1.1168 -1.6114
 6930SOL    HW232424   1.274   2.948   4.195 -1.3839  1.2004 -0.0564
 6931SOL     OW32425   1.905   1.613   0.450  0.7504  0.2524 -0.0469
 6931SOL    HW132426   1.814   1.583   0.448  0.6647  0.3492  1.8422
 6931SOL    HW232427   1.928   1.606   0.358 -0.6907 -2.6694 -0.1865
 6932SOL     OW32428   3.664   2.140   2.342  0.3423  0.1438 -0.6675
 6932SOL    HW132429   3.700   2.204   2.404 -0.5573 -0.2963  0.3028
 6932SOL    HW232430   3.660   2.062   2.397  1.7619 -0.9649 -2.1554
 6933SOL     OW32431   2.523   4.195   3.861  0.1684 -0.2247  0.6505
 6933SOL    HW132432   2.582   4.256   3.905 -1.0126  1.6163 -0.3223
 6933SOL    HW232433   2.470   4.235   3.792  0.0199 -0.6754  0.5065
 6934SOL     OW32434   2.991   2.586   6.309  0.0833  0.2406 -0.0121
 6934SOL    HW132435   2.920   2.647   6.323 -0.2107  0.0183 -0.5112
 6934SOL    HW232436   3.004   2.610   6.217  1.0333 -0.4298 -0.0552
 6935SOL     OW32437   1.673   3.523   0.292  0.0219  0.2060 -0.6447
 6935SOL    HW132438   1.651   3.616   0.302 -1.6658 -0.3604  0.9525
 6935SOL    HW232439   1.743   3.521   0.358  1.7940 -0.3080 -2.5596
 6936SOL     OW32440   3.755   3.030   7.464 -0.3756  0.0934 -0.4076
 6936SOL    HW132441   3.822   2.983   7.515 -1.6817 -0.2065  1.0190
 6936SOL    HW232442   3.689   2.961   7.460  0.7783 -0.9952 -0.7480
 6937SOL     OW32443   3.171   0.705  16.102  0.5044 -0.1332 -0.0419
 6937SOL    HW132444   3.161   0.655  16.021  0.5043  1.1084 -0.8072
 6937SOL    HW232445   3.086   0.690  16.142  0.6373  1.4667  0.8448
 6938SOL     OW32446   1.532   3.279   6.644 -0.2084 -0.1951  0.4700
 6938SOL    HW132447   1.575   3.272   6.730  1.9419 -0.2666 -0.6229
 6938SOL    HW232448   1.459   3.338   6.665 -1.3169 -1.9206  1.5255
 6939SOL     OW32449   3.325   1.876  11.944 -0.0484  0.5234 -0.2496
 6939SOL    HW132450   3.299   1.903  11.856 -2.2440 -1.5446 -0.2202
 6939SOL    HW232451   3.282   1.790  11.950  0.0762  0.3983 -1.2019
 6940SOL     OW32452   2.187   3.960  15.280  0.1988  0.5161  0.1014
 6940SOL    HW132453   2.208   4.037  15.227 -0.8982  0.4589 -0.4078
 6940SOL    HW232454   2.258   3.966  15.345  0.1073  0.2402  0.2267
 6941SOL     OW32455   0.636   1.151  11.654 -0.6416  0.0857  0.5331
 6941SOL    HW132456   0.708   1.135  11.716 -0.2977  3.6820  1.0694
 6941SOL    HW232457   0.686   1.155  11.572  0.7582 -0.6299  1.3441
 6942SOL     OW32458   1.400   3.321   0.991 -0.6123  0.2227 -0.3256
 6942SOL    HW132459   1.312   3.284   0.995 -0.0292 -1.1002  0.3097
 6942SOL    HW232460   1.410   3.342   0.898 -0.5868  4.7811  0.7157
 6943SOL     OW32461   3.969   3.712   3.182 -0.3543  0.4685 -0.1178
 6943SOL    HW132462   4.019   3.671   3.111  0.0724  2.9702 -1.2431
 6943SOL    HW232463   3.941   3.792   3.138 -0.6486  0.0654 -0.6672
 6944SOL     OW32464   0.035   1.591   9.400  0.3596  0.8796  0.3853
 6944SOL    HW132465   0.074   1.504   9.403  1.0955  1.2040  0.2419
 6944SOL    HW232466   0.057   1.626   9.486  2.5488  0.6309 -0.0780
 6945SOL     OW32467   1.810   0.657   0.237 -0.4588 -0.5212  0.0549
 6945SOL    HW132468   1.852   0.614   0.163  0.1129 -3.3361  1.9997
 6945SOL    HW232469   1.724   0.614   0.239 -0.3494 -0.7103  0.8926
 6946SOL     OW32470   1.924   1.924   6.507 -0.0446  0.9197 -0.0340
 6946SOL    HW132471   2.007   1.900   6.548 -0.8401  0.2814  1.2089
 6946SOL    HW232472   1.949   1.992   6.446 -0.5284  1.3932  0.2940
 6947SOL     OW32473   0.329   1.411   0.149 -0.5092 -0.0231  0.2558
 6947SOL    HW132474   0.288   1.490   0.114  0.6780  1.5695  2.3969
 6947SOL    HW232475   0.259   1.354   0.178 -0.1900 -1.4393 -1.7693
 6948SOL     OW32476   3.203   2.102   3.057  0.0224 -0.2804 -0.3403
 6948SOL    HW132477   3.184   2.030   3.116 -0.9716  0.1606 -0.1317
 6948SOL    HW232478   3.253   2.150   3.123  1.5160  0.1109 -1.7427
 6949SOL     OW32479   3.178   1.136   3.679  0.2409 -0.4950  0.2792
 6949SOL    HW132480   3.135   1.138   3.765 -1.7813  1.0543 -0.7691
 6949SOL    HW232481   3.269   1.114   3.699 -0.1072 -0.5669  1.7901
 6950SOL     OW32482   2.429   0.230  16.087  0.4341 -0.2961 -0.5108
 6950SOL    HW132483   2.351   0.209  16.138 -0.4908 -1.5947 -2.4845
 6950SOL    HW232484   2.401   0.313  16.050  2.1045 -0.2655 -1.7154
 6951SOL     OW32485   4.241   4.737  11.010  0.6511 -0.3255  0.1356
 6951SOL    HW132486   4.296   4.673  11.054  0.8405 -0.1204  0.1976
 6951SOL    HW232487   4.154   4.718  11.046  0.3796 -0.8506 -0.8161
 6952SOL     OW32488   0.688   2.897   8.870 -0.7477 -0.2577 -0.0539
 6952SOL    HW132489   0.628   2.842   8.820 -0.4959  1.3737 -2.1649
 6952SOL    HW232490   0.641   2.981   8.865 -0.9037 -0.4715 -2.1265
 6953SOL     OW32491   0.861   3.098  16.270 -0.1174 -0.5926  0.1840
 6953SOL    HW132492   0.766   3.095  16.282 -0.1264 -1.5538 -0.1162
 6953SOL    HW232493   0.892   3.140  16.351 -1.4770 -1.2371  1.0378
 6954SOL     OW32494   3.944   0.231   7.593  0.3212  0.0903 -0.4947
 6954SOL    HW132495   3.958   0.293   7.521  2.8044 -0.5464 -0.5798
 6954SOL    HW232496   4.011   0.163   7.578  0.6183  0.8009 -2.4385
 6955SOL     OW32497   4.269   3.644   3.550  0.2175  0.3216  0.2158
 6955SOL    HW132498   4.253   3.679   3.638 -1.0849 -0.8128  0.4376
 6955SOL    HW232499   4.193   3.675   3.502  0.7420 -0.4275 -1.1196
 6956SOL     OW32500   2.430   1.056   7.293 -0.0356 -0.0104 -0.9200
 6956SOL    HW132501   2.506   1.002   7.316 -0.4116 -0.9651 -1.8628
 6956SOL    HW232502   2.475   1.139   7.286 -2.5835  1.6194  1.9289
 6957SOL     OW32503   1.326   1.876   2.770 -0.0223  0.1027  0.0967
 6957SOL    HW132504   1.286   1.927   2.840  1.6220 -0.7622  1.6741
 6957SOL    HW232505   1.281   1.792   2.785 -2.4102  1.1998 -0.9395
 6958SOL     OW32506   2.356   4.328   2.411  0.0237  0.1647 -0.3476
 6958SOL    HW132507   2.343   4.277   2.332 -0.0148  0.4717 -0.5393
 6958SOL    HW232508   2.434   4.377   2.385 -0.2313  1.1522  0.7032
 6959SOL     OW32509   3.964   0.357   6.916  0.3448 -0.1113 -0.1703
 6959SOL    HW132510   4.036   0.316   6.868  0.9824 -0.3992  1.0251
 6959SOL    HW232511   3.901   0.388   6.851 -1.7028 -0.9941  1.3673
 6960SOL     OW32512   1.886   3.476  13.491  0.6359  0.3531  0.7089
 6960SOL    HW132513   1.967   3.443  13.529 -0.0744 -2.9274 -0.5543
 6960SOL    HW232514   1.922   3.528  13.420 -0.9030  0.8798  0.2994
 6961SOL     OW32515   0.391   2.811   1.997 -0.2201 -0.3872 -0.6933
 6961SOL    HW132516   0.460   2.757   1.961  0.7670  0.0948  0.4706
 6961SOL    HW232517   0.369   2.854   1.914 -0.6500 -2.7041 -1.7653
 6962SOL     OW32518   2.157   1.523   7.369  0.5535 -0.4022  0.3424
 6962SOL    HW132519   2.079   1.547   7.321  0.5374  1.5902  1.3703
 6962SOL    HW232520   2.221   1.530   7.298 -0.3589  1.1920 -0.3169
 6963SOL     OW32521   3.291   2.268  13.931 -0.5491  0.6144  0.6930
 6963SOL    HW132522   3.293   2.301  14.021  2.4958  1.7014  0.2261
 6963SOL    HW232523   3.300   2.174  13.946 -1.4860  0.8729  2.8366
 6964SOL     OW32524   2.678   4.233   8.405  0.8881 -0.3873  0.3052
 6964SOL    HW132525   2.700   4.141   8.388 -1.1146 -1.1359  1.6976
 6964SOL    HW232526   2.635   4.262   8.325 -0.7389  1.1601  1.7384
 6965SOL     OW32527   2.973   0.947   3.632 -0.5254 -0.2052  0.0049
 6965SOL    HW132528   3.036   1.018   3.644  1.2864 -1.8449  0.3403
 6965SOL    HW232529   2.903   0.964   3.695  0.4983 -1.2905  1.4558
 6966SOL     OW32530   0.786   3.893   1.484 -0.1259 -0.1757  0.0708
 6966SOL    HW132531   0.761   3.926   1.398 -1.3682 -2.1687 -0.3284
 6966SOL    HW232532   0.702   3.881   1.528  0.2381  1.1149  1.1196
 6967SOL     OW32533   0.642   2.154  14.891 -0.0669  0.5713  0.2775
 6967SOL    HW132534   0.592   2.126  14.967  2.4876  0.7795  2.0254
 6967SOL    HW232535   0.668   2.072  14.848 -0.7064  1.2779 -1.4760
 6968SOL     OW32536   1.676   0.830   0.580  0.1721  0.3176  0.5506
 6968SOL    HW132537   1.617   0.766   0.540  0.7549 -0.7147  1.3577
 6968SOL    HW232538   1.757   0.780   0.592 -0.2099 -0.1783  1.0794
 6969SOL     OW32539   1.418   3.506   5.680  0.4486  0.2354 -0.2365
 6969SOL    HW132540   1.490   3.568   5.666  0.2697  0.3978 -0.4493
 6969SOL    HW232541   1.451   3.449   5.749  0.5672 -0.5215 -0.9137
 6970SOL     OW32542   1.233   2.752  11.741 -0.1631  0.4126 -0.3973
 6970SOL    HW132543   1.145   2.716  11.754 -0.2817  0.8791  0.0896
 6970SOL    HW232544   1.234   2.757  11.645  0.4253 -1.3726 -0.4956
 6971SOL     OW32545   2.539   3.269   6.501  0.1557  0.2736 -0.1981
 6971SOL    HW132546   2.619   3.226   6.472 -1.1556 -2.4108  0.1351
 6971SOL    HW232547   2.492   3.287   6.419  0.7326  0.4885 -0.4802
 6972SOL     OW32548   1.631   3.413  14.160 -0.0634  0.3234 -0.0198
 6972SOL    HW132549   1.701   3.374  14.212  0.5453 -0.5314 -1.4845
 6972SOL    HW232550   1.554   3.397  14.215 -0.3861  0.1209 -0.5314
 6973SOL     OW32551   1.236   0.735   0.183  0.2387 -0.3318  0.2556
 6973SOL    HW132552   1.230   0.703   0.273  1.5990 -0.3406  0.3463
 6973SOL    HW232553   1.178   0.811   0.185 -0.5672 -0.9536  0.3848
 6974SOL     OW32554   2.787   4.107   2.112  0.2753  0.1217 -0.3666
 6974SOL    HW132555   2.807   4.051   2.037  1.3222 -2.9025  2.1768
 6974SOL    HW232556   2.719   4.158   2.069 -0.3556  0.0072  0.5051
 6975SOL     OW32557   1.461   2.239   4.235  0.7282  0.1473  0.1610
 6975SOL    HW132558   1.542   2.189   4.231 -0.2049 -1.3320 -0.4550
 6975SOL    HW232559   1.486   2.331   4.236 -0.1296  0.3556  1.4872
 6976SOL     OW32560   1.661   2.071   4.288 -0.2967  0.2898 -0.4613
 6976SOL    HW132561   1.712   1.994   4.263  0.4842  0.6456  0.0368
 6976SOL    HW232562   1.717   2.136   4.330 -1.1974  0.5795  0.2866
 6977SOL     OW32563   3.528   3.000   4.131 -0.4948  0.5015  0.0303
 6977SOL    HW132564   3.472   3.077   4.144 -1.4379  0.1037 -1.7234
 6977SOL    HW232565   3.608   3.040   4.096 -0.4499 -0.0081 -0.4540
 6978SOL     OW32566   4.242   3.860   1.208 -0.6233 -0.0985  0.1750
 6978SOL    HW132567   4.321   3.890   1.254  1.1280 -0.9938 -2.2726
 6978SOL    HW232568   4.210   3.794   1.269 -0.4923 -0.5536 -0.2509
 6979SOL     OW32569   0.289   1.408  16.930 -0.3861 -0.2934  0.3166
 6979SOL    HW132570   0.278   1.347  17.003  1.6134 -0.3532  0.5946
 6979SOL    HW232571   0.204   1.407  16.886  0.1986  4.5792 -0.9377
 6980SOL     OW32572   1.962   2.769   1.640 -0.1751 -0.3265 -0.0235
 6980SOL    HW132573   1.958   2.728   1.553  1.3381 -1.8206  0.6132
 6980SOL    HW232574   1.873   2.755   1.673  0.0836 -0.6550  0.5309
 6981SOL     OW32575   3.086   0.056   8.567  0.2480 -0.5014 -0.0806
 6981SOL    HW132576   3.154   0.063   8.634 -1.2280 -1.0120  1.4592
 6981SOL    HW232577   3.007   0.065   8.619  1.1183 -1.2705  1.3779
 6982SOL     OW32578   0.049   2.823   8.937  0.0606  0.5150 -0.8601
 6982SOL    HW132579   0.092   2.787   8.859  0.3912  1.8597 -1.2885
 6982SOL    HW232580   0.035   2.738   8.979  0.5719  0.9716  0.2109
 6983SOL     OW32581   3.630   1.627  11.956  0.4246  0.4090  0.2606
 6983SOL    HW132582   3.570   1.659  12.023 -0.1630 -1.1049  0.4508
 6983SOL    HW232583   3.608   1.684  11.882  0.2044  0.0245  0.0311
 6984SOL     OW32584   3.171   0.681   7.370 -0.0941  0.4174 -0.1180
 6984SOL    HW132585   3.106   0.615   7.395  0.2361  0.0207 -0.3177
 6984SOL    HW232586   3.164   0.687   7.275 -0.7592  3.3179  0.1039
 6985SOL     OW32587   0.280   0.578   3.769 -0.3507  0.9069  0.5864
 6985SOL    HW132588   0.266   0.485   3.787 -1.4411  1.1614  1.0866
 6985SOL    HW232589   0.187   0.598   3.756 -0.7525  0.0900  2.1543
 6986SOL     OW32590   2.118   0.949   4.930  0.2146  0.6378  0.2065
 6986SOL    HW132591   2.186   0.996   4.882  0.5776  1.3122  1.3841
 6986SOL    HW232592   2.144   0.967   5.021  2.6343 -3.1588  0.2890
 6987SOL     OW32593   4.039   0.415   7.439 -0.4149 -0.8788  0.0840
 6987SOL    HW132594   4.119   0.464   7.420 -0.2010 -0.6265  1.6324
 6987SOL    HW232595   4.026   0.372   7.354 -0.1507  0.6905 -0.7563
 6988SOL     OW32596   4.093   1.593  10.651  0.1564  0.1348 -0.4141
 6988SOL    HW132597   4.140   1.536  10.712 -0.9570 -0.2768  0.0695
 6988SOL    HW232598   4.000   1.584  10.672  0.0313 -1.7701 -1.7288
 6989SOL     OW32599   1.345   3.402  10.619  0.1471  0.8009 -0.2677
 6989SOL    HW132600   1.299   3.321  10.642  1.8541 -0.1624 -0.1701
 6989SOL    HW232601   1.307   3.436  10.539  0.4032  0.7463 -0.4124
 6990SOL     OW32602   4.737   2.285  12.529  0.2992  0.2188 -0.0281
 6990SOL    HW132603   4.717   2.217  12.465  0.3350  0.1594  0.0240
 6990SOL    HW232604   0.094   2.286  12.521  0.2751 -2.0691 -0.6118
 6991SOL     OW32605   2.490   4.516   8.991  0.4249 -0.0301  0.0092
 6991SOL    HW132606   2.529   4.580   9.051  0.0603  0.4870 -0.2960
 6991SOL    HW232607   2.401   4.554   8.990  0.2082 -0.5426 -0.0130
 6992SOL     OW32608   1.353   4.261   6.892 -0.4865 -0.3530  0.2620
 6992SOL    HW132609   1.377   4.352   6.877  1.7345 -1.5013 -3.1834
 6992SOL    HW232610   1.313   4.267   6.979 -0.6983  1.5699  0.0144
 6993SOL     OW32611   2.117   0.831   6.125  0.3734 -0.0415 -0.1758
 6993SOL    HW132612   2.193   0.776   6.146  0.1436  0.8105  2.8529
 6993SOL    HW232613   2.046   0.785   6.168 -0.5138  0.2284 -1.3546
 6994SOL     OW32614   2.219   3.639   9.218 -0.1559 -0.0818 -0.3425
 6994SOL    HW132615   2.306   3.677   9.209 -0.4035  0.5502 -0.0023
 6994SOL    HW232616   2.230   3.573   9.149  3.0784 -0.1130  0.2101
 6995SOL     OW32617   4.262   3.484   5.661 -0.3813 -0.0864  0.4104
 6995SOL    HW132618   4.334   3.422   5.669 -0.0623  0.2478  0.1007
 6995SOL    HW232619   4.298   3.564   5.623 -1.5087  0.0601 -0.3535
 6996SOL     OW32620   3.011   2.842   5.089 -0.7918  0.2080 -0.4139
 6996SOL    HW132621   3.018   2.920   5.034  0.1249  0.1422 -0.3870
 6996SOL    HW232622   3.088   2.788   5.073 -0.5687  0.2845  0.3721
 6997SOL     OW32623   1.282   3.239   4.503  0.3707 -0.3218 -0.5851
 6997SOL    HW132624   1.254   3.159   4.549  0.4356 -0.8869 -1.5331
 6997SOL    HW232625   1.351   3.210   4.443 -0.2915  1.6957 -2.2809
 6998SOL     OW32626   1.327   3.997   8.626  0.0126  0.7302 -0.4189
 6998SOL    HW132627   1.397   4.061   8.635 -0.8699  1.3907  1.5856
 6998SOL    HW232628   1.343   3.965   8.537  1.0395  0.1111 -0.0026
 6999SOL     OW32629   3.231   2.212   2.796  0.6739  0.0589 -0.0499
 6999SOL    HW132630   3.225   2.196   2.891 -0.5668 -2.4651 -0.5591
 6999SOL    HW232631   3.322   2.183   2.785  0.3179  0.0428 -2.7639
 7000SOL     OW32632   2.558   3.790   4.314 -0.3089  0.4420  0.6139
 7000SOL    HW132633   2.553   3.762   4.405 -1.9830 -0.3310  0.2840
 7000SOL    HW232634   2.544   3.884   4.324 -0.2123  0.4950  0.2542
 7001SOL     OW32635   1.011   0.575   6.553 -0.0125  0.0695 -0.3666
 7001SOL    HW132636   0.939   0.610   6.501  1.1245  2.9814  0.0044
 7001SOL    HW232637   1.069   0.651   6.562  0.7498 -0.6229  0.4680
 7002SOL     OW32638   3.135   1.379   3.510  0.0780 -0.3840 -0.0989
 7002SOL    HW132639   3.065   1.418   3.561 -0.7817 -0.9684 -0.8227
 7002SOL    HW232640   3.145   1.299   3.562  0.2667 -0.8564 -0.8467
 7003SOL     OW32641   2.671   0.139   2.769 -0.4378 -0.5844 -0.1864
 7003SOL    HW132642   2.582   0.156   2.737 -0.9356 -1.8977  0.5149
 7003SOL    HW232643   2.653   0.135   2.863 -0.3987 -1.4525 -0.2153
 7004SOL     OW32644   3.407   2.263   5.445  0.0997 -0.3595  0.4138
 7004SOL    HW132645   3.336   2.210   5.479  0.3136 -2.1019 -1.9114
 7004SOL    HW232646   3.464   2.188   5.428  3.1752  1.4465  2.6078
 7005SOL     OW32647   3.953   4.092  11.232 -0.0583  0.1098  0.3984
 7005SOL    HW132648   3.915   4.138  11.307  1.8289  2.1763  0.0928
 7005SOL    HW232649   3.965   4.008  11.277 -2.1582  0.2334  1.1945
 7006SOL     OW32650   3.496   3.439   1.718  0.3310  0.5195 -0.4148
 7006SOL    HW132651   3.572   3.389   1.747 -0.5346 -1.9004 -2.2813
 7006SOL    HW232652   3.520   3.516   1.769 -1.0347 -0.8159  2.2160
 7007SOL     OW32653   1.389   2.017   4.612 -0.1033 -0.3026  0.2403
 7007SOL    HW132654   1.352   2.081   4.673  0.8445  0.3749  0.1102
 7007SOL    HW232655   1.453   1.966   4.663  0.1233 -1.1979 -0.9481
 7008SOL     OW32656   1.909   0.079  15.908  0.4274  0.2846 -0.0035
 7008SOL    HW132657   1.925   4.725  15.885 -0.4449 -0.2933  1.7590
 7008SOL    HW232658   1.885   0.079  16.000  0.2420 -0.7909 -0.0551
 7009SOL     OW32659   2.540   3.721   2.916 -0.3147  0.3696  0.2446
 7009SOL    HW132660   2.618   3.764   2.880 -1.2291  1.8353  0.0030
 7009SOL    HW232661   2.580   3.669   2.985  0.7861  0.9624  0.0601
 7010SOL     OW32662   3.421   2.269   2.366  0.6860 -0.0588  0.2827
 7010SOL    HW132663   3.493   2.224   2.321  0.2158  0.4780 -1.0124
 7010SOL    HW232664   3.411   2.209   2.440  2.4857 -0.5384  0.1492
 7011SOL     OW32665   1.271   3.027   1.126 -0.0789  0.1106 -0.2292
 7011SOL    HW132666   1.233   3.092   1.185 -0.4611 -1.5250  1.3476
 7011SOL    HW232667   1.306   2.968   1.193  0.1340  0.2168 -0.2501
 7012SOL     OW32668   0.882   3.284   2.082  0.1195 -0.3390  0.3277
 7012SOL    HW132669   0.882   3.349   2.151 -0.7763  1.0216 -0.9640
 7012SOL    HW232670   0.863   3.334   2.003 -1.5955  0.7579  1.4604
 7013SOL     OW32671   4.694   2.859  10.705 -0.3962 -0.5504  0.3965
 7013SOL    HW132672   4.656   2.796  10.766 -1.5025 -0.5050 -0.2581
 7013SOL    HW232673   0.040   2.815  10.694 -0.7402 -1.0340 -0.2777
 7014SOL     OW32674   0.331   2.825   5.103 -0.8867  0.1843  0.0792
 7014SOL    HW132675   0.285   2.742   5.094  1.0065 -0.8337 -0.3090
 7014SOL    HW232676   0.294   2.873   5.029 -0.2038  0.6882  0.0611
 7015SOL     OW32677   1.512   0.511   7.674 -0.2634 -1.1065 -0.2688
 7015SOL    HW132678   1.603   0.539   7.660 -0.4502 -0.5643 -0.3837
 7015SOL    HW232679   1.480   0.556   7.751  0.9498 -1.3003  0.3536
 7016SOL     OW32680   2.384   0.438   7.004 -0.6269 -0.0192 -0.2208
 7016SOL    HW132681   2.450   0.496   6.967 -1.8226  0.9308 -0.8776
 7016SOL    HW232682   2.332   0.403   6.932 -0.5508  0.8079 -0.6771
 7017SOL     OW32683   2.824   3.311  13.659  0.2665  0.2012 -0.3712
 7017SOL    HW132684   2.861   3.276  13.578 -0.1885  0.3053 -0.6305
 7017SOL    HW232685   2.897   3.296  13.718  0.2967  0.3541 -0.3691
 7018SOL     OW32686   0.526   3.120  10.734  0.2039  0.1587  0.1661
 7018SOL    HW132687   0.613   3.080  10.733 -1.2545 -3.1121  2.6214
 7018SOL    HW232688   0.544   3.190  10.797 -1.5048  0.1683  0.6319
 7019SOL     OW32689   0.813   4.442   8.632 -0.4527  0.2953 -0.0396
 7019SOL    HW132690   0.751   4.472   8.565  0.1340 -0.0613 -0.7391
 7019SOL    HW232691   0.762   4.374   8.675 -0.4635  0.9515  0.9872
 7020SOL     OW32692   2.076   2.912   0.880 -0.2730  0.7380 -0.5013
 7020SOL    HW132693   2.015   2.871   0.820 -0.0456 -1.7164  0.9629
 7020SOL    HW232694   2.153   2.868   0.843 -0.4867 -0.3731  0.3948
 7021SOL     OW32695   1.712   0.240   6.416  1.2487 -0.1297 -0.1589
 7021SOL    HW132696   1.723   0.164   6.359  0.4414 -0.4633  0.1204
 7021SOL    HW232697   1.627   0.218   6.453  1.2768 -1.0253 -0.6217
 7022SOL     OW32698   4.398   4.374   7.986 -0.1512  0.4607 -0.3502
 7022SOL    HW132699   4.466   4.373   7.918  1.3457 -1.4082  1.1717
 7022SOL    HW232700   4.331   4.324   7.938 -0.7328  0.2248  0.7151
 7023SOL     OW32701   1.243   1.070   9.654  0.0986  0.2255 -0.3756
 7023SOL    HW132702   1.152   1.054   9.680  0.6002  0.5968  1.5790
 7023SOL    HW232703   1.237   1.050   9.560 -2.6248 -0.0982 -0.1537
 7024SOL     OW32704   1.006   0.645  12.428  0.2995 -0.2190 -0.3036
 7024SOL    HW132705   0.992   0.733  12.393  2.8920 -0.0225 -0.8688
 7024SOL    HW232706   0.982   0.600  12.346  1.5890 -1.4044 -0.0361
 7025SOL     OW32707   0.556   4.493   2.898  0.5248 -0.3156 -0.1317
 7025SOL    HW132708   0.625   4.427   2.890 -1.0090 -1.9849  0.3911
 7025SOL    HW232709   0.491   4.444   2.948  1.0464  2.6403  3.3475
 7026SOL     OW32710   1.587   1.195   8.196  0.7416  0.4931  0.0427
 7026SOL    HW132711   1.679   1.208   8.222  0.5256  0.3082  0.8947
 7026SOL    HW232712   1.557   1.285   8.208 -0.9218 -0.2889  1.6851
 7027SOL     OW32713   2.599   3.487  11.002 -0.7770 -0.0782 -0.3184
 7027SOL    HW132714   2.512   3.519  10.977 -0.6169 -0.5808 -1.5284
 7027SOL    HW232715   2.649   3.520  10.927 -0.3390  1.1722  0.5078
 7028SOL     OW32716   1.714   3.286   8.826 -0.5520 -0.2954  0.4040
 7028SOL    HW132717   1.804   3.292   8.795 -0.3957  1.5499  1.2006
 7028SOL    HW232718   1.673   3.266   8.742 -0.8310 -0.9455  0.6949
 7029SOL     OW32719   2.771   3.981   7.981  0.6086 -0.3637  0.1249
 7029SOL    HW132720   2.832   4.054   7.975 -2.2879  2.2124  1.8270
 7029SOL    HW232721   2.814   3.924   7.917 -0.4313 -0.5370 -0.4133
 7030SOL     OW32722   3.862   1.190  16.557  0.3863  0.0333 -0.0034
 7030SOL    HW132723   3.785   1.230  16.517 -0.7161 -1.2940  0.8347
 7030SOL    HW232724   3.826   1.179  16.645  0.8602 -0.7408  0.0922
 7031SOL     OW32725   3.447   1.711  17.153 -0.0676  0.6530  0.3052
 7031SOL    HW132726   3.537   1.714  17.119 -0.2643  0.7962 -0.1937
 7031SOL    HW232727   3.392   1.680  17.081  0.9834  0.0625 -0.2522
 7032SOL     OW32728   4.735   0.768   5.375 -0.1200 -0.1521 -0.0532
 7032SOL    HW132729   0.075   0.776   5.321  0.3315  1.3040  0.8162
 7032SOL    HW232730   0.022   0.693   5.428 -0.2779 -0.4693 -0.4214
 7033SOL     OW32731   3.840   3.852   5.680  0.1437 -0.2779  0.1276
 7033SOL    HW132732   3.882   3.904   5.611  0.6497 -1.2270 -0.2769
 7033SOL    HW232733   3.867   3.763   5.657  0.8444 -0.2905  0.9882
 7034SOL     OW32734   1.620   1.078   9.421 -0.9433 -0.0991  0.0270
 7034SOL    HW132735   1.697   1.132   9.401 -1.0639  0.0918  0.0768
 7034SOL    HW232736   1.547   1.135   9.396  0.1907  0.3797 -2.1599
 7035SOL     OW32737   4.316   1.053   6.702 -0.3179 -0.2478 -0.5403
 7035SOL    HW132738   4.362   1.116   6.758 -2.2379  1.6188 -1.0499
 7035SOL    HW232739   4.374   0.978   6.715  0.2364  0.6595  2.2527
 7036SOL     OW32740   1.978   0.777   7.586 -0.0265 -0.3407 -0.4946
 7036SOL    HW132741   1.939   0.863   7.572  2.2561  0.9163  0.9127
 7036SOL    HW232742   2.038   0.774   7.512 -1.0386  2.8382 -1.4270
 7037SOL     OW32743   2.630   4.228   3.536 -0.2067 -0.2141  0.1362
 7037SOL    HW132744   2.682   4.198   3.610  0.0902 -1.1331 -0.4507
 7037SOL    HW232745   2.637   4.324   3.535 -0.9661 -0.1787 -1.8192
 7038SOL     OW32746   4.064   0.344  13.395 -0.4064 -0.0819 -0.2756
 7038SOL    HW132747   4.149   0.308  13.418 -0.7044 -0.8179 -0.3246
 7038SOL    HW232748   4.087   0.370  13.306 -0.4074 -0.4025 -0.3688
 7039SOL     OW32749   3.449   3.013  14.576  0.1590 -0.3554  0.2558
 7039SOL    HW132750   3.375   3.038  14.631  0.3494  1.4843 -0.3192
 7039SOL    HW232751   3.508   2.959  14.627 -0.9302 -0.9841  0.8486
 7040SOL     OW32752   1.657   0.048   1.749  0.2063  0.3857  0.2644
 7040SOL    HW132753   1.599   4.738   1.808  0.1363  0.6161  0.3849
 7040SOL    HW232754   1.603   0.049   1.671 -1.4406 -2.8729  1.3662
 7041SOL     OW32755   1.373   1.829   5.528 -0.1962 -1.0688  0.6522
 7041SOL    HW132756   1.374   1.921   5.502 -0.9152 -1.6870 -1.5131
 7041SOL    HW232757   1.427   1.797   5.457  1.4976  2.5271  0.3217
 7042SOL     OW32758   2.729   3.885   2.780  0.4393  0.1228 -0.1490
 7042SOL    HW132759   2.756   3.856   2.693  0.7455 -2.5052  0.8360
 7042SOL    HW232760   2.798   3.860   2.842  1.5425 -1.1243 -1.8889
 7043SOL     OW32761   2.658   2.580   9.884  0.4109 -0.6687 -0.0070
 7043SOL    HW132762   2.572   2.541   9.900 -0.1581  0.6654  0.1470
 7043SOL    HW232763   2.713   2.513   9.923  1.6192 -0.1124 -0.7689
 7044SOL     OW32764   0.800   0.574   7.272  0.1120 -0.3121 -0.6870
 7044SOL    HW132765   0.893   0.587   7.255  0.2191  0.6694  0.7373
 7044SOL    HW232766   0.763   0.662   7.267 -0.3509 -0.5580 -1.5280
 7045SOL     OW32767   2.568   2.893   4.322 -0.1280 -1.0400  0.4399
 7045SOL    HW132768   2.504   2.851   4.265 -1.0157 -1.6956  1.9227
 7045SOL    HW232769   2.618   2.817   4.351 -1.5537 -2.2830 -0.3861
 7046SOL     OW32770   1.550   0.346   1.631 -0.1322 -0.1961 -0.9106
 7046SOL    HW132771   1.520   0.275   1.574 -1.2322 -0.2540 -0.2722
 7046SOL    HW232772   1.509   0.309   1.709 -0.1282  1.5340 -0.1012
 7047SOL     OW32773   3.153   1.043   6.405  0.1290  0.1510 -0.2747
 7047SOL    HW132774   3.175   1.010   6.492  1.3602  2.7257  0.4142
 7047SOL    HW232775   3.062   1.067   6.423  0.0951 -0.7524  0.7435
 7048SOL     OW32776   2.864   2.088   0.998 -0.0941 -0.4026  0.0305
 7048SOL    HW132777   2.844   2.097   1.091 -2.5886  3.4886 -0.8772
 7048SOL    HW232778   2.862   1.992   0.996  0.0029 -0.4436  2.8010
 7049SOL     OW32779   1.847   0.737   3.537 -0.3508 -0.3027  0.0834
 7049SOL    HW132780   1.874   0.805   3.598 -2.0662 -0.4987  1.0828
 7049SOL    HW232781   1.853   0.784   3.454  0.4982 -1.2123 -0.3610
 7050SOL     OW32782   0.850   3.763   7.927 -0.2959 -0.2052  0.0831
 7050SOL    HW132783   0.880   3.807   7.848 -1.7624 -0.5602 -0.6811
 7050SOL    HW232784   0.920   3.777   7.990 -0.1389  0.5375 -0.2594
 7051SOL     OW32785   3.297   0.869   2.942  0.0589 -0.0266 -0.6448
 7051SOL    HW132786   3.228   0.845   2.880 -2.6359  1.6785  1.6561
 7051SOL    HW232787   3.273   0.826   3.025 -0.7347  1.0605 -0.3093
 7052SOL     OW32788   1.533   1.829   8.270  0.0221 -0.4397  0.4585
 7052SOL    HW132789   1.608   1.773   8.293  0.2941  0.6581  2.2366
 7052SOL    HW232790   1.483   1.770   8.213  0.7769 -3.5217  2.9913
 7053SOL     OW32791   4.071   1.765   3.726 -0.0532  0.2184  0.2454
 7053SOL    HW132792   4.032   1.683   3.755  3.2993 -1.7392 -0.6942
 7053SOL    HW232793   3.990   1.804   3.694  0.1985  0.4245 -0.1404
 7054SOL     OW32794   0.555   2.253  14.659 -0.2181  0.0023  0.0034
 7054SOL    HW132795   0.591   2.232  14.745 -2.3845 -1.9526  0.4132
 7054SOL    HW232796   0.496   2.178  14.650 -2.6297  1.7751  1.4009
 7055SOL     OW32797   3.159   3.119   4.182  0.1890  0.1220 -0.1265
 7055SOL    HW132798   3.163   3.040   4.129  1.2565  1.0884 -1.4795
 7055SOL    HW232799   3.077   3.108   4.230 -2.1710  0.9014 -4.0147
 7056SOL     OW32800   1.031   4.437   6.368  0.4060 -0.0305 -0.2535
 7056SOL    HW132801   1.013   4.394   6.284  2.4767  0.4272 -0.9197
 7056SOL    HW232802   0.940   4.459   6.388  0.3527 -0.6649  0.1738
 7057SOL     OW32803   1.694   2.708   1.659 -0.4467  0.2031  0.6169
 7057SOL    HW132804   1.703   2.621   1.621  0.6027  1.4446 -1.9832
 7057SOL    HW232805   1.638   2.762   1.602 -1.4787 -3.1462 -1.5536
 7058SOL     OW32806   2.462   2.933   7.036 -0.2499 -0.2840 -0.8478
 7058SOL    HW132807   2.488   3.024   7.048  0.1123 -0.5708  0.6681
 7058SOL    HW232808   2.372   2.962   7.049 -0.1314 -0.3835  0.2618
 7059SOL     OW32809   3.801   1.362   1.819  0.3999 -0.6707  0.7151
 7059SOL    HW132810   3.783   1.440   1.872  0.5928  0.7563 -1.3089
 7059SOL    HW232811   3.841   1.406   1.744 -1.2366 -0.8379 -0.2600
 7060SOL     OW32812   2.683   4.362   7.181 -0.3279  0.0252  0.0643
 7060SOL    HW132813   2.654   4.271   7.191 -0.5102  0.3107  2.0108
 7060SOL    HW232814   2.756   4.374   7.242  0.0879  0.7367 -0.5752
 7061SOL     OW32815   4.685   0.582   5.136  0.4529  0.0486  0.1322
 7061SOL    HW132816   0.007   0.551   5.068  0.9780 -1.1043  1.1073
 7061SOL    HW232817   4.693   0.677   5.123  0.7307  0.0396  0.2364
 7062SOL     OW32818   3.503   1.039   3.122  0.1342  0.0335  0.4660
 7062SOL    HW132819   3.582   1.072   3.165 -0.2015 -0.5046  1.5012
 7062SOL    HW232820   3.492   0.951   3.158 -0.1941  1.0196  2.7869
 7063SOL     OW32821   4.480   1.073   0.404 -0.2339  0.3573 -0.3630
 7063SOL    HW132822   4.431   0.991   0.405  1.2757 -0.5553 -2.3279
 7063SOL    HW232823   4.411   1.134   0.432 -1.6534 -0.6648 -1.6731
 7064SOL     OW32824   1.232   0.240   2.585  0.1528  0.3409  0.2267
 7064SOL    HW132825   1.190   0.183   2.649 -0.3965  1.3306  0.7449
 7064SOL    HW232826   1.166   0.231   2.516  1.0820  0.1180 -0.6324
 7065SOL     OW32827   2.703   4.729   3.328  0.3665 -0.2461 -0.0034
 7065SOL    HW132828   2.774   4.671   3.299 -0.2667 -0.2830 -1.4876
 7065SOL    HW232829   2.648   4.673   3.383 -0.8671 -1.2786 -2.3009
 7066SOL     OW32830   1.948   3.846   8.530  0.0280 -0.0895 -0.0477
 7066SOL    HW132831   2.040   3.818   8.530  0.4787  1.3492 -1.4097
 7066SOL    HW232832   1.938   3.866   8.623 -0.6481 -2.0768  0.2868
 7067SOL     OW32833   2.260   1.028   2.580  0.5810  0.0143  0.9889
 7067SOL    HW132834   2.328   0.984   2.632 -1.0023 -2.4641  0.9519
 7067SOL    HW232835   2.237   1.079   2.658  2.4914 -1.1918  2.3456
 7068SOL     OW32836   3.168   0.868   6.646  0.2134  0.5253 -0.2253
 7068SOL    HW132837   3.255   0.840   6.677 -0.3616  1.5865  2.2856
 7068SOL    HW232838   3.125   0.784   6.630 -0.7347  0.1273  4.4594
 7069SOL     OW32839   0.104   4.547   0.305  0.6706  0.2172 -0.3900
 7069SOL    HW132840   0.191   4.507   0.303 -0.5773 -2.5376 -0.0305
 7069SOL    HW232841   0.067   4.511   0.386 -0.6147  1.6216 -0.3623
 7070SOL     OW32842   2.915   0.101   5.216 -0.4054  0.3403  0.1045
 7070SOL    HW132843   2.953   0.013   5.224  0.4855  0.5119 -2.3317
 7070SOL    HW232844   2.979   0.154   5.264 -0.9943 -0.7132  2.0829
 7071SOL     OW32845   4.505   0.433   2.288  0.1794 -0.1972 -0.5749
 7071SOL    HW132846   4.530   0.464   2.375 -0.4574 -1.9987  0.2494
 7071SOL    HW232847   4.436   0.499   2.284 -0.5259 -1.0170 -1.7511
 7072SOL     OW32848   0.872   1.165   5.960 -0.3725 -0.4912  0.3198
 7072SOL    HW132849   0.802   1.125   5.909  0.2082 -0.0882 -0.8148
 7072SOL    HW232850   0.905   1.094   6.015  0.2471 -1.5021 -1.3416
 7073SOL     OW32851   2.206   3.829  10.585 -0.2979  0.1925  0.3700
 7073SOL    HW132852   2.283   3.831  10.640 -2.0881 -1.7428  2.9656
 7073SOL    HW232853   2.227   3.783  10.504  0.1655  0.1452  0.5200
 7074SOL     OW32854   3.369   2.971   3.473 -0.4273 -0.1846  0.0040
 7074SOL    HW132855   3.344   2.943   3.561 -0.5714  2.1769  0.7123
 7074SOL    HW232856   3.283   3.001   3.442 -0.0783  0.0084 -0.7584
 7075SOL     OW32857   2.699   3.992   8.261 -0.2164 -0.2765 -0.2045
 7075SOL    HW132858   2.716   3.993   8.167  0.6191 -0.6901 -0.0555
 7075SOL    HW232859   2.691   3.897   8.275 -0.9798 -0.1357  0.3605
 7076SOL     OW32860   3.282   2.538   6.565  0.3986 -0.4877 -0.0929
 7076SOL    HW132861   3.307   2.520   6.655  1.4993  3.0039  0.3068
 7076SOL    HW232862   3.202   2.487   6.549 -1.2816  1.9427  0.5780
 7077SOL     OW32863   3.196   3.623   6.988  0.2922  0.2631  0.2276
 7077SOL    HW132864   3.250   3.597   7.062  1.1791 -0.4521 -0.6585
 7077SOL    HW232865   3.158   3.540   6.960  0.7546 -0.3609  1.4637
 7078SOL     OW32866   1.744   0.447  13.816  0.3130  0.1175  0.4378
 7078SOL    HW132867   1.747   0.380  13.884 -1.0443  0.6012  0.9621
 7078SOL    HW232868   1.652   0.441  13.792  0.4730 -1.2439  0.1517
 7079SOL     OW32869   1.487   1.806  13.358  0.0318  0.0728 -0.9224
 7079SOL    HW132870   1.495   1.761  13.274 -0.2521 -0.2549 -0.7767
 7079SOL    HW232871   1.496   1.740  13.428  1.7909  2.8645  1.5062
 7080SOL     OW32872   0.565   3.283   6.322 -0.0756 -0.1523 -0.3418
 7080SOL    HW132873   0.476   3.317   6.331  0.6469  2.1983 -1.9289
 7080SOL    HW232874   0.563   3.253   6.231 -0.5257  2.3623 -1.1665
 7081SOL     OW32875   0.418   0.313   8.995 -0.3827  0.3569  0.1818
 7081SOL    HW132876   0.493   0.255   9.006 -0.3465  0.7681  2.1391
 7081SOL    HW232877   0.459   0.383   9.046  2.3607 -1.2345  0.1242
 7082SOL     OW32878   2.577   2.738  10.475 -0.0282  0.1317  0.3540
 7082SOL    HW132879   2.523   2.698  10.543  1.2464  0.5776  1.6398
 7082SOL    HW232880   2.663   2.726  10.516 -0.1212 -0.8453  0.2608
 7083SOL     OW32881   0.472   0.295  11.056 -0.0407  0.1125 -0.1160
 7083SOL    HW132882   0.518   0.331  11.132  0.5920 -1.4850  0.2573
 7083SOL    HW232883   0.433   0.215  11.091 -1.2288  0.5050 -0.5216
 7084SOL     OW32884   4.720   0.683   2.042 -0.8034 -0.1431 -0.0225
 7084SOL    HW132885   4.690   0.594   2.060  1.0991 -1.1244 -1.5649
 7084SOL    HW232886   0.034   0.659   1.965  1.7770  2.9221  0.7784
 7085SOL     OW32887   3.051   2.982  12.259 -0.4385  0.1291  0.3590
 7085SOL    HW132888   3.098   3.013  12.182  0.7244 -4.6947 -0.8797
 7085SOL    HW232889   3.054   2.889  12.236  0.7687  0.3029 -0.1357
 7086SOL     OW32890   4.508   2.131   1.310  0.3464 -0.2824 -0.6435
 7086SOL    HW132891   4.457   2.149   1.390  0.0200 -0.2130 -0.8655
 7086SOL    HW232892   4.594   2.110   1.346  0.5186  0.4359 -0.6329
 7087SOL     OW32893   0.485   3.093   1.040  0.2933 -0.4911 -0.0320
 7087SOL    HW132894   0.462   3.186   1.045  0.6980 -0.3614 -0.5955
 7087SOL    HW232895   0.578   3.089   1.060  0.5946  3.1047 -0.7092
 7088SOL     OW32896   3.932   1.266   5.197  0.5614 -0.7584  0.2623
 7088SOL    HW132897   3.958   1.242   5.286 -1.0965 -0.2383  0.8736
 7088SOL    HW232898   3.922   1.175   5.168  1.0628 -1.4612  2.2659
 7089SOL     OW32899   1.129   4.511   6.799 -0.0198  0.1913  0.4345
 7089SOL    HW132900   1.135   4.606   6.784 -2.8895  0.1840 -0.6826
 7089SOL    HW232901   1.191   4.477   6.734  0.7809  0.7404  0.8974
 7090SOL     OW32902   2.262   1.022   1.253  1.1312 -0.2019 -0.3430
 7090SOL    HW132903   2.313   0.972   1.317  0.8693  0.7063  0.5736
 7090SOL    HW232904   2.170   1.001   1.268  1.2073  0.3811  0.8980
 7091SOL     OW32905   4.180   3.017   2.844  0.1413  0.1253  0.2646
 7091SOL    HW132906   4.129   2.974   2.776  1.9753 -0.2473 -0.8543
 7091SOL    HW232907   4.226   2.942   2.882  0.0731  0.6710  1.4439
 7092SOL     OW32908   2.391   0.787   4.546 -0.5619 -0.3166 -0.1686
 7092SOL    HW132909   2.456   0.818   4.483 -0.5872  3.0421  1.4402
 7092SOL    HW232910   2.347   0.869   4.568  1.4491  0.8712 -0.5512
 7093SOL     OW32911   0.464   1.519   9.678  0.3904  0.1884 -0.0750
 7093SOL    HW132912   0.447   1.602   9.723  0.3333 -0.6985  1.5019
 7093SOL    HW232913   0.487   1.552   9.591  1.0365 -1.3647 -0.4924
 7094SOL     OW32914   1.854   4.210   1.824 -0.7210  0.4430  0.5512
 7094SOL    HW132915   1.866   4.221   1.729  3.0242 -0.6757  0.9132
 7094SOL    HW232916   1.921   4.144   1.842 -1.6649 -0.5506  0.4661
 7095SOL     OW32917   0.586   1.583   9.442 -0.0949  0.4398 -0.7285
 7095SOL    HW132918   0.664   1.634   9.463 -0.1716  0.2326  0.0431
 7095SOL    HW232919   0.523   1.646   9.407 -1.9962 -1.0295  0.0593
 7096SOL     OW32920   0.783   2.653   5.882  0.2862 -0.0898  0.1334
 7096SOL    HW132921   0.834   2.723   5.923  0.3450  0.7628 -1.3778
 7096SOL    HW232922   0.796   2.667   5.788  0.3118 -0.5587  0.0658
 7097SOL     OW32923   2.089   2.198   6.127 -0.4541  0.1610 -0.4097
 7097SOL    HW132924   2.060   2.170   6.213  0.1297  0.6882 -0.0443
 7097SOL    HW232925   2.113   2.117   6.082  0.5218  1.4271 -2.2132
 7098SOL     OW32926   1.530   2.143  12.239  0.1762 -0.3379 -0.2070
 7098SOL    HW132927   1.470   2.192  12.182  0.3337  0.6983  0.5079
 7098SOL    HW232928   1.468   2.105  12.301 -1.1565  0.7599 -0.8588
 7099SOL     OW32929   2.873   4.302  14.946  0.1185 -0.0774 -0.3143
 7099SOL    HW132930   2.849   4.352  15.024  0.6773  0.7218 -0.6540
 7099SOL    HW232931   2.910   4.218  14.973  1.2980  1.7700  3.7003
 7100SOL     OW32932   0.718   2.990   9.195  0.1935 -0.1871 -0.0116
 7100SOL    HW132933   0.800   3.036   9.215  0.2273 -0.1752 -0.1811
 7100SOL    HW232934   0.721   2.924   9.265 -0.2749 -0.6261 -0.4127
 7101SOL     OW32935   2.438   1.062   5.592  0.3524 -0.4677  0.0489
 7101SOL    HW132936   2.415   1.109   5.512 -1.0209  0.6919  1.1199
 7101SOL    HW232937   2.427   1.138   5.649 -0.8082  0.0212 -0.8261
 7102SOL     OW32938   3.720   1.516   6.133  0.3363 -0.2501 -0.0809
 7102SOL    HW132939   3.660   1.444   6.151  0.5969  0.0605  2.1427
 7102SOL    HW232940   3.798   1.497   6.186  0.5020 -0.7368 -0.5126
 7103SOL     OW32941   0.949   0.920  10.021  0.3399 -0.4977  0.5323
 7103SOL    HW132942   0.861   0.929  10.058  0.2257 -0.3205  0.2223
 7103SOL    HW232943   0.950   0.954   9.931  0.4226 -1.6557  0.0985
 7104SOL     OW32944   4.418   2.574   1.742 -0.1350 -0.7426  0.0475
 7104SOL    HW132945   4.407   2.567   1.647  0.4566  0.0361 -0.0779
 7104SOL    HW232946   4.489   2.513   1.762  0.3692 -0.0249  0.4237
 7105SOL     OW32947   1.361   0.659   3.563 -0.0585  0.3567  0.3325
 7105SOL    HW132948   1.299   0.725   3.594  1.2158  1.4188  0.6205
 7105SOL    HW232949   1.395   0.637   3.650  0.4771  0.2957  0.1055
 7106SOL     OW32950   2.234   4.273   5.446 -0.2997 -0.2330  0.5041
 7106SOL    HW132951   2.302   4.282   5.379  0.3257 -1.9304  0.9177
 7106SOL    HW232952   2.163   4.250   5.386 -0.2037  0.4202  0.1406
 7107SOL     OW32953   0.484   0.927   1.679 -0.0115  0.6456  0.0660
 7107SOL    HW132954   0.544   0.982   1.730  0.7614  0.9672 -1.1928
 7107SOL    HW232955   0.448   0.982   1.611 -0.9907 -0.4648 -0.3132
 7108SOL     OW32956   4.675   0.273   8.252  0.0642 -0.1043 -0.1818
 7108SOL    HW132957   4.593   0.256   8.299 -0.4373 -0.7187 -1.2683
 7108SOL    HW232958   4.728   0.202   8.288 -0.3210 -0.2096  0.1731
 7109SOL     OW32959   4.704   0.360   1.310  0.1314 -0.3274  0.0353
 7109SOL    HW132960   4.642   0.333   1.242  1.1420 -1.1073 -0.5774
 7109SOL    HW232961   0.037   0.297   1.302  0.7527  0.2591  0.8648
 7110SOL     OW32962   1.907   2.064   1.137 -0.1934 -0.2704  0.6712
 7110SOL    HW132963   1.892   1.973   1.112  2.1457 -0.0515 -1.6387
 7110SOL    HW232964   1.822   2.093   1.104  0.6116  4.1357  2.4737
 7111SOL     OW32965   2.690   2.653   4.298 -0.1734  1.2040  0.6473
 7111SOL    HW132966   2.613   2.595   4.298  0.7960 -0.0734  2.1083
 7111SOL    HW232967   2.750   2.582   4.275 -1.3106  0.5082 -0.1610
 7112SOL     OW32968   2.211   2.656   1.745 -0.2641  0.5311 -0.1848
 7112SOL    HW132969   2.230   2.747   1.767 -0.1154  0.1327  1.3187
 7112SOL    HW232970   2.123   2.668   1.709  0.5115  0.5554 -2.0779
 7113SOL     OW32971   2.690   2.740   7.520 -0.1416 -0.3589 -0.7349
 7113SOL    HW132972   2.704   2.745   7.614  2.4641 -0.2924 -1.1141
 7113SOL    HW232973   2.603   2.779   7.522 -0.1207 -0.4769  1.7595
 7114SOL     OW32974   4.549   2.761   5.507 -0.7050 -0.2053 -0.1932
 7114SOL    HW132975   4.617   2.717   5.558  0.2540 -2.0549 -3.0140
 7114SOL    HW232976   4.541   2.701   5.432  0.3165  1.1504 -1.3968
 7115SOL     OW32977   2.715   1.673   3.795 -0.1356  0.6120  0.1084
 7115SOL    HW132978   2.626   1.674   3.759  0.5640  0.3789 -1.6356
 7115SOL    HW232979   2.705   1.638   3.883  0.1652  0.0849 -0.0686
 7116SOL     OW32980   1.129   0.918   2.103 -0.0202 -0.1352 -0.1532
 7116SOL    HW132981   1.201   0.887   2.159  0.5455  1.4078 -0.0311
 7116SOL    HW232982   1.070   0.843   2.107  0.1926 -0.3460 -0.8568
 7117SOL     OW32983   2.368   3.258   8.420 -0.3217 -0.1204 -0.0636
 7117SOL    HW132984   2.405   3.335   8.463  1.7450  0.6223 -3.1334
 7117SOL    HW232985   2.350   3.203   8.496  0.6213  2.2854  1.8877
 7118SOL     OW32986   3.100   4.644  14.354 -0.1858  0.0519  0.4137
 7118SOL    HW132987   3.014   4.604  14.345 -0.8872  1.7031 -0.2840
 7118SOL    HW232988   3.141   4.582  14.414 -2.0604 -0.7000  0.9207
 7119SOL     OW32989   1.477   2.646   0.912 -0.1182  0.0657  0.1492
 7119SOL    HW132990   1.436   2.638   0.998 -0.5450  0.4014 -0.0253
 7119SOL    HW232991   1.441   2.569   0.869  0.1401  0.7233 -1.2404
 7120SOL     OW32992   2.469   1.522  10.904  0.2812 -0.1039  0.2668
 7120SOL    HW132993   2.500   1.610  10.888  1.1462 -0.1899  1.5066
 7120SOL    HW232994   2.380   1.538  10.936  0.7943 -3.5297  3.4225
 7121SOL     OW32995   4.427   1.864   2.697  0.3233 -0.0716 -0.0716
 7121SOL    HW132996   4.356   1.842   2.637  1.0589 -2.4639 -0.0634
 7121SOL    HW232997   4.502   1.845   2.641  1.4722  1.4209  0.9501
 7122SOL     OW32998   1.523   2.559   0.464 -0.2173  0.1878 -0.0465
 7122SOL    HW132999   1.518   2.554   0.369  0.1631 -0.2633 -0.0382
 7122SOL    HW233000   1.479   2.479   0.493  2.8410 -2.0176 -1.6495
 7123SOL     OW33001   0.896   1.252   3.312 -0.3011  0.1599 -0.5901
 7123SOL    HW133002   0.808   1.227   3.342  0.5895 -0.3930  1.5430
 7123SOL    HW233003   0.893   1.202   3.231 -1.0475  1.3821 -1.3205
 7124SOL     OW33004   0.813   2.997  14.160  0.2136  0.2024 -0.2223
 7124SOL    HW133005   0.872   2.928  14.130 -0.6529 -0.7706  0.2595
 7124SOL    HW233006   0.873   3.056  14.206 -2.0191  0.4522  2.4235
 7125SOL     OW33007   4.523   1.453   6.417 -0.0123 -0.4294  0.5492
 7125SOL    HW133008   4.578   1.398   6.472  1.6779 -2.1274 -2.8123
 7125SOL    HW233009   4.521   1.530   6.473  0.8250 -0.6546  0.8909
 7126SOL     OW33010   2.452   1.623   8.336  0.4184  0.5083  0.2929
 7126SOL    HW133011   2.506   1.691   8.297  2.1658 -1.1102 -0.1336
 7126SOL    HW233012   2.361   1.654   8.337  0.6136  1.0207  2.2010
 7127SOL     OW33013   1.962   3.940   6.502  0.3614 -0.1306 -0.4162
 7127SOL    HW133014   2.051   3.935   6.538  0.5079 -3.2897 -1.2149
 7127SOL    HW233015   1.964   3.864   6.444 -1.3169  0.0974 -0.7747
 7128SOL     OW33016   0.529   4.403   9.015 -0.1812 -0.2050 -0.5018
 7128SOL    HW133017   0.477   4.323   9.024  0.9376 -0.6010  2.4338
 7128SOL    HW233018   0.466   4.473   9.000 -1.7419 -1.1761  1.4292
 7129SOL     OW33019   1.331   0.410   9.749  0.0538  0.3408  0.1101
 7129SOL    HW133020   1.288   0.452   9.674  0.9443  0.8614 -0.1207
 7129SOL    HW233021   1.387   0.477   9.789  0.6850  1.3284 -2.3617
 7130SOL     OW33022   1.717   1.682   8.376  0.0420 -0.3766  0.0678
 7130SOL    HW133023   1.780   1.685   8.304  1.2760 -0.6065  1.1388
 7130SOL    HW233024   1.768   1.627   8.435  1.8849  0.0804 -1.1165
 7131SOL     OW33025   1.175   3.726   6.227 -0.4027 -0.1245  0.6501
 7131SOL    HW133026   1.201   3.774   6.305  0.4767 -0.2577  0.4444
 7131SOL    HW233027   1.195   3.639   6.264 -0.3344 -0.0696  0.7413
 7132SOL     OW33028   0.568   0.260  14.201 -0.8444 -0.1522 -0.1090
 7132SOL    HW133029   0.482   0.238  14.164 -1.1269 -0.3932  0.6811
 7132SOL    HW233030   0.626   0.255  14.126  0.4599  1.7025  0.7962
 7133SOL     OW33031   1.643   0.556   3.639  0.4036  0.5106 -0.7273
 7133SOL    HW133032   1.599   0.576   3.721  0.3261 -0.2784 -0.5772
 7133SOL    HW233033   1.689   0.636   3.612  1.2032  0.7256  1.2986
 7134SOL     OW33034   2.027   2.314   9.042  0.0436 -1.0647  0.1919
 7134SOL    HW133035   1.955   2.273   8.994 -1.7889 -1.8218  3.5568
 7134SOL    HW233036   2.078   2.350   8.970  0.7727  2.6387  2.5671
 7135SOL     OW33037   1.036   3.572   1.098  0.0585  0.2041  0.1177
 7135SOL    HW133038   1.021   3.541   1.188  0.0512 -1.7391 -0.5514
 7135SOL    HW233039   1.005   3.662   1.104 -2.0983 -0.4168 -2.1071
 7136SOL     OW33040   4.163   0.104   5.130  0.0390  0.3269 -0.2234
 7136SOL    HW133041   4.069   0.090   5.142 -0.0153  0.3977 -0.5554
 7136SOL    HW233042   4.169   0.200   5.125  0.6479  0.4247  2.2347
 7137SOL     OW33043   1.751   4.017   3.780 -0.2627  0.1666  0.2257
 7137SOL    HW133044   1.685   4.062   3.727 -0.1661 -0.2936 -0.2839
 7137SOL    HW233045   1.702   3.941   3.811  1.2781 -1.0877 -0.3891
 7138SOL     OW33046   1.113   3.942  13.718 -0.0232  0.8233  0.1594
 7138SOL    HW133047   1.028   3.913  13.750  0.9565 -0.1357  1.9235
 7138SOL    HW233048   1.100   3.938  13.624  1.5069 -1.9452  0.0769
 7139SOL     OW33049   3.975   2.857   6.724  0.5240  0.3964  0.4390
 7139SOL    HW133050   4.037   2.918   6.684  1.5759  0.8188  2.7343
 7139SOL    HW233051   3.932   2.818   6.647  0.3522 -2.2824  1.8952
 7140SOL     OW33052   4.651   3.626   4.237 -0.0073 -0.1867 -0.7392
 7140SOL    HW133053   0.004   3.626   4.208  0.2817 -0.3295  0.1898
 7140SOL    HW233054   4.655   3.583   4.322 -2.0980  0.5270 -0.2607
 7141SOL     OW33055   0.179   2.082   0.735  1.2891 -0.0076  0.2037
 7141SOL    HW133056   0.259   2.068   0.684 -0.1722  0.3508 -2.2110
 7141SOL    HW233057   0.204   2.065   0.826  0.6348  0.2004  0.4221
 7142SOL     OW33058   1.786   2.440  11.454  0.2145 -0.3536  0.3315
 7142SOL    HW133059   1.721   2.370  11.459 -0.9577  0.7548  0.4811
 7142SOL    HW233060   1.858   2.408  11.509  0.5886  1.7929  1.1136
 7143SOL     OW33061   0.730   0.152  10.345 -0.7769  0.0284  0.1127
 7143SOL    HW133062   0.796   0.215  10.374 -0.8889 -0.2084  0.8721
 7143SOL    HW233063   0.772   0.067  10.357  0.9769  0.9367  0.3193
 7144SOL     OW33064   2.705   3.243   5.414 -0.1544  0.1325 -0.3612
 7144SOL    HW133065   2.653   3.272   5.489 -1.6828  1.1129 -1.7871
 7144SOL    HW233066   2.791   3.275   5.438 -0.3293  0.7108 -0.5149
 7145SOL     OW33067   4.396   3.773   9.235 -0.4883  0.0099  0.7309
 7145SOL    HW133068   4.424   3.863   9.251 -0.6418  0.2634 -0.4281
 7145SOL    HW233069   4.428   3.771   9.144 -1.8914  3.0260  0.1657
 7146SOL     OW33070   2.754   2.291   0.819  0.3808 -0.0651  0.3957
 7146SOL    HW133071   2.810   2.225   0.859  0.6815 -0.0873 -0.0560
 7146SOL    HW233072   2.680   2.232   0.801 -0.1115  0.1877  1.6305
 7147SOL     OW33073   0.499   4.002  16.446 -0.2250 -0.1576 -0.6726
 7147SOL    HW133074   0.579   4.041  16.410 -0.7274 -0.2882 -1.9437
 7147SOL    HW233075   0.441   4.007  16.370 -0.8540  2.9549  0.0221
 7148SOL     OW33076   1.443   4.696   2.579 -0.2618  0.0564  0.4602
 7148SOL    HW133077   1.438   4.661   2.489  0.5740  0.7959  0.1290
 7148SOL    HW233078   1.475   0.047   2.566  0.3088 -0.1994  0.0820
 7149SOL     OW33079   0.309   3.949  17.260  0.1294 -0.4866 -0.7358
 7149SOL    HW133080   0.263   3.877  17.302  1.7041 -0.8890  0.2743
 7149SOL    HW233081   0.312   4.011  17.333 -0.5174 -0.6572 -0.5611
 7150SOL     OW33082   0.920   1.217   0.995  0.3634 -0.1215  0.0422
 7150SOL    HW133083   1.006   1.176   1.002 -0.3988 -1.5283  0.9970
 7150SOL    HW233084   0.882   1.175   0.919  1.0026  0.1369 -0.4231
 7151SOL     OW33085   1.537   3.256   8.551  0.1249 -0.6837  0.0697
 7151SOL    HW133086   1.509   3.222   8.466  0.0411  1.0819 -0.6191
 7151SOL    HW233087   1.549   3.350   8.541  1.6769 -0.9234 -0.2568
 7152SOL     OW33088   4.334   2.069  17.494  0.0040  0.0982  0.1395
 7152SOL    HW133089   4.360   2.161  17.491  0.9438 -0.1686  0.3235
 7152SOL    HW233090   4.240   2.080  17.512  0.0566  0.7969 -0.0223
 7153SOL     OW33091   1.307   0.437  14.429  0.5264 -0.0699  0.0406
 7153SOL    HW133092   1.324   0.454  14.336 -0.7084 -2.5172 -0.6136
 7153SOL    HW233093   1.237   0.497  14.454  0.7759  0.0613  0.4126
 7154SOL     OW33094   3.140   0.127   2.894  0.0745 -0.6842 -0.2555
 7154SOL    HW133095   3.056   0.153   2.857  0.3385  1.0409  0.3567
 7154SOL    HW233096   3.196   0.154   2.822 -0.2166 -0.9867 -0.5931
 7155SOL     OW33097   0.843   0.244   6.458  0.0931  0.2308 -0.1089
 7155SOL    HW133098   0.795   0.182   6.402 -0.1783 -0.8283  1.2744
 7155SOL    HW233099   0.763   0.295   6.473  1.2278  1.5235  1.5433
 7156SOL     OW33100   2.996   2.058   6.344 -0.3086 -0.4087 -0.3339
 7156SOL    HW133101   3.068   2.033   6.402 -0.0719  0.1445 -0.3923
 7156SOL    HW233102   2.989   1.985   6.283  1.3452 -1.2632  0.5070
 7157SOL     OW33103   1.048   3.303   6.344 -0.7080  0.4423  0.0820
 7157SOL    HW133104   0.982   3.370   6.325  0.3348  1.7522  1.1126
 7157SOL    HW233105   1.012   3.229   6.295 -0.3167  1.6665 -2.0809
 7158SOL     OW33106   0.944   1.724   7.782 -0.3578  0.1220  0.3861
 7158SOL    HW133107   0.849   1.713   7.791 -0.4327  0.2257 -0.2419
 7158SOL    HW233108   0.951   1.811   7.822  1.8708  0.3807 -0.5958
 7159SOL     OW33109   3.419   0.700  16.249 -0.4635 -0.3998 -0.0835
 7159SOL    HW133110   3.349   0.687  16.185 -0.1281 -0.9304 -0.3379
 7159SOL    HW233111   3.384   0.675  16.334 -0.9724 -2.3888 -0.8921
 7160SOL     OW33112   3.402   0.709  12.560  0.0969  0.0015  0.2169
 7160SOL    HW133113   3.496   0.722  12.573 -0.1206  1.7139  0.1822
 7160SOL    HW233114   3.355   0.748  12.633  0.3630  0.4030  0.1777
 7161SOL     OW33115   3.797   2.313   8.332 -0.4607 -0.0360  0.0638
 7161SOL    HW133116   3.727   2.247   8.334 -0.1041 -0.3842  0.8259
 7161SOL    HW233117   3.750   2.391   8.365 -1.1127 -0.5925  0.4499
 7162SOL     OW33118   2.063   1.985   1.982  0.0454 -0.5495 -0.0484
 7162SOL    HW133119   2.073   1.946   2.069  0.3046  0.5887  0.4318
 7162SOL    HW233120   1.971   2.011   1.983 -0.1957 -1.4635  1.1398
 7163SOL     OW33121   1.445   4.533   6.021 -0.6490 -0.0360 -0.3235
 7163SOL    HW133122   1.452   4.439   6.042 -1.6654  0.1871  0.9617
 7163SOL    HW233123   1.366   4.557   6.068 -0.3471  0.6614 -0.1789
 7164SOL     OW33124   0.543   1.791   5.087 -0.4786  0.4507  0.5148
 7164SOL    HW133125   0.568   1.883   5.083  0.0080  0.3176  0.4248
 7164SOL    HW233126   0.448   1.800   5.078 -0.5639  0.2040  1.1757
 7165SOL     OW33127   1.208   2.077   5.992 -0.2834  0.2807  0.2706
 7165SOL    HW133128   1.245   1.991   5.970  0.0935  0.7941 -1.0773
 7165SOL    HW233129   1.129   2.059   6.043 -0.8657  0.9863 -0.3844
 7166SOL     OW33130   4.213   2.919   2.381  0.1926  0.2195  0.0136
 7166SOL    HW133131   4.240   3.008   2.401 -0.5840  0.4614 -0.0450
 7166SOL    HW233132   4.133   2.910   2.433 -0.2040 -0.3773 -0.7023
 7167SOL     OW33133   0.567   4.182   6.600 -0.0440 -0.7882  0.7913
 7167SOL    HW133134   0.656   4.187   6.634 -0.4218  0.7323  1.5393
 7167SOL    HW233135   0.529   4.229   6.674 -0.6133 -0.3696  0.2392
 7168SOL     OW33136   4.386   2.976  13.569 -0.4154 -0.7866  0.3915
 7168SOL    HW133137   4.475   3.007  13.585 -1.0781  0.7463  1.0627
 7168SOL    HW233138   4.335   3.049  13.603  0.5619 -0.9312  2.1543
 7169SOL     OW33139   4.536   4.631   1.611  0.2314 -0.4124  0.0024
 7169SOL    HW133140   4.443   4.655   1.616  0.6266  0.9482  0.8593
 7169SOL    HW233141   4.532   4.551   1.559 -0.4267  1.1613 -2.3706
 7170SOL     OW33142   2.813   3.467   3.129  0.3562 -0.1031  0.1465
 7170SOL    HW133143   2.854   3.383   3.149  1.3861  0.0924 -1.1080
 7170SOL    HW233144   2.722   3.461   3.156  0.5397 -0.7428  0.6184
 7171SOL     OW33145   4.438   0.353  10.501  0.2441  0.5017 -0.4203
 7171SOL    HW133146   4.349   0.356  10.537 -0.2382 -0.3803 -1.5350
 7171SOL    HW233147   4.471   0.277  10.549 -1.2817  1.3412  1.9595
 7172SOL     OW33148   1.115   0.101   1.429  0.2652  0.6976  0.1272
 7172SOL    HW133149   1.137   0.194   1.425  0.1080  0.7345  0.1245
 7172SOL    HW233150   1.046   0.110   1.495  1.7033  2.0148  1.4714
 7173SOL     OW33151   4.291   1.299   3.511  0.4003 -0.0195  0.0926
 7173SOL    HW133152   4.235   1.365   3.470  0.8817  0.5042  0.2866
 7173SOL    HW233153   4.240   1.262   3.583  0.4837  0.1672  0.2452
 7174SOL     OW33154   1.930   3.916   8.775 -0.1724  0.5015 -0.4918
 7174SOL    HW133155   1.875   3.975   8.827 -2.1633  1.6730 -3.9401
 7174SOL    HW233156   1.980   3.870   8.843  0.7506  3.5214  0.8837
 7175SOL     OW33157   3.373   0.422  10.656  0.3017 -0.2758  0.1123
 7175SOL    HW133158   3.449   0.479  10.671 -1.1837  2.0015 -1.1229
 7175SOL    HW233159   3.302   0.461  10.706 -0.5921  1.5680 -2.6685
 7176SOL     OW33160   2.788   0.238   8.073  0.1145 -0.1967  0.5783
 7176SOL    HW133161   2.775   0.266   7.983 -0.0364  0.3363  0.7686
 7176SOL    HW233162   2.836   0.311   8.112  0.4468 -1.2319  2.1475
 7177SOL     OW33163   2.533   2.333  10.342  0.4231  0.3478 -0.5095
 7177SOL    HW133164   2.575   2.349  10.426 -0.0010  2.8332 -0.7876
 7177SOL    HW233165   2.616   2.321  10.297 -0.6708 -2.5874 -1.7806
 7178SOL     OW33166   4.532   3.561  13.463  0.2904  0.4305  0.3002
 7178SOL    HW133167   4.477   3.485  13.446 -0.4125  0.8090  0.8734
 7178SOL    HW233168   4.571   3.564  13.375 -0.1965 -0.7104  0.0424
 7179SOL     OW33169   0.142   0.931   2.037 -0.0129 -0.4669 -0.3672
 7179SOL    HW133170   0.066   0.877   2.014 -1.4281  2.6312 -3.0510
 7179SOL    HW233171   0.208   0.869   2.068 -0.2558 -0.7883 -0.4841
 7180SOL     OW33172   2.453   1.406   3.807  0.0709  0.4837 -0.2192
 7180SOL    HW133173   2.380   1.344   3.803 -1.8846  2.8268 -0.4373
 7180SOL    HW233174   2.422   1.481   3.757 -4.1578 -1.4000 -0.3881
 7181SOL     OW33175   1.125   1.003   8.586 -0.5076  0.2327  0.2466
 7181SOL    HW133176   1.151   1.049   8.666 -1.5021  2.8739 -0.9422
 7181SOL    HW233177   1.167   1.059   8.521 -0.6507 -0.1088 -0.1407
 7182SOL     OW33178   3.734   4.049  17.041  0.2841 -0.0650  0.5054
 7182SOL    HW133179   3.788   4.110  17.091 -1.4404  0.5677  1.5759
 7182SOL    HW233180   3.775   4.055  16.955  1.0266  0.2704  0.8790
 7183SOL     OW33181   0.701   1.846   8.450  1.0340 -0.2887  0.0768
 7183SOL    HW133182   0.765   1.913   8.427  0.1810  0.7995  0.8429
 7183SOL    HW233183   0.648   1.895   8.514  2.7321  0.2299  1.0945
 7184SOL     OW33184   2.245   4.643   8.959  0.4199 -0.2568  0.3243
 7184SOL    HW133185   2.183   4.713   8.983  1.1768  0.0518  1.3617
 7184SOL    HW233186   2.236   4.643   8.864 -1.0850 -0.7901  0.4657
 7185SOL     OW33187   2.767   0.436   9.738  0.0521  0.2834  0.2948
 7185SOL    HW133188   2.754   0.531   9.728 -2.5274 -0.0409  0.3986
 7185SOL    HW233189   2.786   0.419   9.646 -1.1220  2.9903 -0.4396
 7186SOL     OW33190   1.755   2.440   7.944 -0.0624 -0.1907 -0.2493
 7186SOL    HW133191   1.751   2.490   7.863 -1.7496 -1.2219 -0.8140
 7186SOL    HW233192   1.832   2.386   7.930  0.4328 -0.1574  2.2424
 7187SOL     OW33193   1.215   4.160   7.649  0.5615  0.2088  0.0739
 7187SOL    HW133194   1.163   4.239   7.661 -1.3789 -1.4286  2.4753
 7187SOL    HW233195   1.229   4.129   7.738  0.5623  0.0876  0.0317
 7188SOL     OW33196   0.853   1.691  15.346 -0.6204 -0.3788 -0.4625
 7188SOL    HW133197   0.885   1.780  15.330  1.6816 -1.4324 -1.7055
 7188SOL    HW233198   0.779   1.690  15.285 -2.3439 -0.0750  1.6003
 7189SOL     OW33199   1.067   3.168   2.524  0.1868  0.2804 -0.3901
 7189SOL    HW133200   1.144   3.168   2.467  2.5385  1.4861  2.8394
 7189SOL    HW233201   1.018   3.095   2.485  0.7877 -0.0049 -0.6203
 7190SOL     OW33202   1.728   0.357  11.930  0.6432  0.3377  0.3845
 7190SOL    HW133203   1.760   0.428  11.986 -1.5186  1.2734  0.4083
 7190SOL    HW233204   1.807   0.322  11.889  1.2613 -0.1473  1.9975
 7191SOL     OW33205   2.442   2.029   3.615 -0.0983  0.1305  0.3033
 7191SOL    HW133206   2.533   2.053   3.598  1.0799 -2.6341  2.5974
 7191SOL    HW233207   2.412   2.022   3.525  0.0570  1.3719  0.1531
 7192SOL     OW33208   0.628   3.269   5.656 -0.0211 -0.5137  0.3848
 7192SOL    HW133209   0.623   3.227   5.742 -2.4712  3.5463  2.2213
 7192SOL    HW233210   0.675   3.205   5.602  0.6278  0.6777 -0.4591
 7193SOL     OW33211   1.320   2.310   3.848  0.3715 -0.2984 -0.1933
 7193SOL    HW133212   1.281   2.231   3.884  0.3516 -0.8959 -1.5519
 7193SOL    HW233213   1.381   2.269   3.788  1.8773  2.3229 -0.4453
 7194SOL     OW33214   3.885   3.051  15.165 -0.3177  0.1458  0.1964
 7194SOL    HW133215   3.914   3.125  15.112 -0.0746  0.1051  0.2716
 7194SOL    HW233216   3.948   2.983  15.139 -1.2906 -1.4165  1.9045
 7195SOL     OW33217   4.444   3.019   5.475  0.1225 -0.1791 -0.0342
 7195SOL    HW133218   4.463   2.926   5.488 -0.4261 -0.4081 -0.8446
 7195SOL    HW233219   4.355   3.032   5.507  0.3780  0.8776  0.2492
 7196SOL     OW33220   3.283   2.667   3.643  0.4345  0.1047  0.4456
 7196SOL    HW133221   3.226   2.695   3.714 -0.1913 -0.9256  0.3346
 7196SOL    HW233222   3.351   2.735   3.643  2.3011 -1.7731  0.9864
 7197SOL     OW33223   2.957   3.487  11.369  0.8987  0.6026  0.0261
 7197SOL    HW133224   2.967   3.542  11.447  0.8039 -0.0437  0.4971
 7197SOL    HW233225   2.885   3.524  11.319 -0.1196 -0.0398  1.0148
 7198SOL     OW33226   1.765   3.444   5.541  0.5346 -0.4857 -0.0301
 7198SOL    HW133227   1.805   3.449   5.454  2.2842  0.2750  0.8064
 7198SOL    HW233228   1.688   3.389   5.527 -1.0847  2.0814 -1.1692
 7199SOL     OW33229   1.871   0.324   6.125 -0.0420  0.5524  0.5414
 7199SOL    HW133230   1.805   0.389   6.100 -1.5518 -1.5540 -1.0087
 7199SOL    HW233231   1.948   0.381   6.124  0.3602  0.0111  0.2789
 7200SOL     OW33232   2.675   2.306   2.265  0.0829 -0.2809  0.3297
 7200SOL    HW133233   2.634   2.238   2.212  1.6032 -0.8551 -0.1208
 7200SOL    HW233234   2.721   2.253   2.330 -0.9781 -0.5821  0.8312
 7201SOL     OW33235   4.472   3.136   2.531 -0.3911 -0.7186 -0.0501
 7201SOL    HW133236   4.460   3.127   2.437 -0.7767  0.7715 -0.1459
 7201SOL    HW233237   4.561   3.106   2.549 -0.0077  0.2186 -0.3810
 7202SOL     OW33238   0.951   1.644  14.101 -0.1257  0.9579  0.3902
 7202SOL    HW133239   0.944   1.551  14.125  1.9345  0.4950 -0.7534
 7202SOL    HW233240   1.032   1.648  14.050 -0.5509  3.4645 -0.1042
 7203SOL     OW33241   4.689   0.048   3.718  0.1518  0.6586  0.5551
 7203SOL    HW133242   4.668   4.723   3.649  2.7735 -0.5511  0.8468
 7203SOL    HW233243   4.615   0.108   3.726 -1.5607 -1.5193  0.9419
 7204SOL     OW33244   1.637   2.803   8.549 -0.2826 -0.2477 -0.1630
 7204SOL    HW133245   1.582   2.734   8.585  1.9121 -1.6759  0.4436
 7204SOL    HW233246   1.572   2.873   8.557  1.1185  1.0052  0.2126
 7205SOL     OW33247   2.670   2.078   6.704  0.0946 -0.1460  0.0815
 7205SOL    HW133248   2.670   2.040   6.616  1.3651 -0.7997  0.3709
 7205SOL    HW233249   2.614   2.154   6.686 -0.0367 -0.4026 -0.6092
 7206SOL     OW33250   1.886   2.069   7.509  0.1027 -0.0229 -0.1221
 7206SOL    HW133251   1.803   2.074   7.556  0.8995  2.0420  1.0548
 7206SOL    HW233252   1.900   1.975   7.524  0.4814  0.0259 -0.1884
 7207SOL     OW33253   3.519   0.815   4.703 -0.0525  0.5495 -0.2997
 7207SOL    HW133254   3.565   0.800   4.786  0.2405 -0.3945 -0.6292
 7207SOL    HW233255   3.570   0.757   4.647  0.3194 -1.2465  1.8830
 7208SOL     OW33256   2.289   2.903   8.137  0.0423 -0.1108 -0.0554
 7208SOL    HW133257   2.253   2.877   8.222 -1.4244  0.2385 -0.5675
 7208SOL    HW233258   2.288   2.996   8.160 -1.2301 -0.0661 -0.2994
 7209SOL     OW33259   0.040   0.023   2.786 -0.4332 -0.0817  0.5725
 7209SOL    HW133260   0.074   4.675   2.764  0.5890  0.4836 -0.1104
 7209SOL    HW233261   0.114   0.072   2.822 -0.3799 -0.0558  0.4282
 7210SOL     OW33262   1.743   2.238  16.066  0.4434  0.3543 -0.2087
 7210SOL    HW133263   1.729   2.210  16.157  0.7552  0.3251 -0.1689
 7210SOL    HW233264   1.716   2.327  16.091 -0.3445 -0.1996  0.9450
 7211SOL     OW33265   0.954   1.207  10.510  0.0084  0.0205 -0.1002
 7211SOL    HW133266   0.910   1.289  10.487 -0.4590 -0.6151 -1.4360
 7211SOL    HW233267   1.025   1.239  10.566 -1.6015  0.0297  1.9369
 7212SOL     OW33268   4.010   3.680   7.133 -0.0329  0.0963  0.2765
 7212SOL    HW133269   3.997   3.593   7.169 -0.3483  0.4907  1.1222
 7212SOL    HW233270   3.934   3.724   7.172 -0.4657  0.3603 -0.8924
 7213SOL     OW33271   1.554   0.807  10.014  0.2233  0.0082 -0.0556
 7213SOL    HW133272   1.568   0.882  10.072 -0.1862  0.4814 -0.5642
 7213SOL    HW233273   1.478   0.841   9.967 -0.1620  1.4807  1.6489
 7214SOL     OW33274   2.664   4.175  15.539  0.2537 -0.0559  0.0142
 7214SOL    HW133275   2.749   4.135  15.518  0.2663  0.6970 -1.3575
 7214SOL    HW233276   2.681   4.190  15.632 -1.5647 -0.5351  0.4160
 7215SOL     OW33277   2.012   3.312   8.400 -0.2222  0.0989 -0.5012
 7215SOL    HW133278   1.929   3.357   8.412 -0.1316 -0.0258  0.5430
 7215SOL    HW233279   2.073   3.379   8.431 -1.9424 -0.2877  3.7286
 7216SOL     OW33280   1.988   3.977   1.894 -0.0563 -0.5685  0.3158
 7216SOL    HW133281   2.044   3.909   1.855  0.0070 -0.8908  0.9732
 7216SOL    HW233282   1.975   3.939   1.980  1.4714  2.2079  1.7616
 7217SOL     OW33283   4.429   1.800   4.566  0.3663  0.1844 -0.8455
 7217SOL    HW133284   4.497   1.791   4.632 -0.7793 -0.1706  0.2714
 7217SOL    HW233285   4.469   1.871   4.514  1.5934  0.4505  0.4800
 7218SOL     OW33286   0.018   3.930   8.335  0.0652  0.4682  0.4777
 7218SOL    HW133287   0.047   3.876   8.261  1.4585  0.1068  1.2849
 7218SOL    HW233288   4.726   4.006   8.284  2.7098  0.9897 -0.3305
 7219SOL     OW33289   2.286   1.532   2.256 -0.2076 -0.0226 -0.0270
 7219SOL    HW133290   2.321   1.455   2.301  3.2875  0.5712 -1.7743
 7219SOL    HW233291   2.201   1.546   2.298 -0.8724  0.9624 -1.6888
 7220SOL     OW33292   3.656   0.067   4.352 -0.2764 -0.1935  0.2172
 7220SOL    HW133293   3.563   0.090   4.345 -0.3192 -0.6221 -0.6223
 7220SOL    HW233294   3.645   0.014   4.431  0.5070 -0.2470  0.2844
 7221SOL     OW33295   1.551   0.561  15.018 -0.2208 -0.1283 -0.5232
 7221SOL    HW133296   1.580   0.470  15.021 -0.3613 -0.1625 -0.2407
 7221SOL    HW233297   1.614   0.608  14.962 -1.5945  2.1915 -0.1135
 7222SOL     OW33298   3.329   3.332   1.990 -0.3115 -0.0329 -0.1781
 7222SOL    HW133299   3.310   3.399   2.056 -2.7894 -0.1083 -0.8238
 7222SOL    HW233300   3.355   3.252   2.036 -0.3411  0.1376  0.1325
 7223SOL     OW33301   1.914   1.013   0.488 -0.6360 -0.0592  0.1739
 7223SOL    HW133302   1.890   0.969   0.406 -0.9172  2.8024 -1.2750
 7223SOL    HW233303   1.845   0.974   0.541  0.0752 -1.8466 -0.2198
 7224SOL     OW33304   3.721   4.292   6.878 -0.2532 -0.0101 -0.3315
 7224SOL    HW133305   3.699   4.300   6.971  1.1219 -0.2422  0.0187
 7224SOL    HW233306   3.693   4.379   6.849 -0.3123 -0.1663 -0.7386
 7225SOL     OW33307   2.679   3.304   0.478 -0.8114  0.4456 -0.5305
 7225SOL    HW133308   2.585   3.318   0.487 -0.6738  0.4248  0.8959
 7225SOL    HW233309   2.665   3.256   0.396 -1.3213 -0.1365 -0.0924
 7226SOL     OW33310   2.238   0.667  13.079  0.2503  0.5154  0.4322
 7226SOL    HW133311   2.326   0.678  13.115 -0.4655  3.6362  1.1846
 7226SOL    HW233312   2.216   0.585  13.123 -0.4269 -0.0619 -0.9884
 7227SOL     OW33313   3.487   2.804  15.863 -0.4166 -0.4880  0.3421
 7227SOL    HW133314   3.534   2.887  15.858 -0.3270 -0.4478  2.0168
 7227SOL    HW233315   3.410   2.818  15.808 -0.8681 -1.3381  0.7619
 7228SOL     OW33316   4.044   1.494   0.013 -0.2230 -0.5212  0.0084
 7228SOL    HW133317   4.028   1.588   0.004 -1.9289 -0.8894 -0.6694
 7228SOL    HW233318   4.041   1.487   0.109  0.1256 -2.8576 -0.1608
 7229SOL     OW33319   3.509   4.451   4.221 -0.1795  0.3671 -0.0722
 7229SOL    HW133320   3.574   4.388   4.253 -0.4717  1.0285  1.8667
 7229SOL    HW233321   3.467   4.410   4.146  0.4845 -1.7660  0.7312
 7230SOL     OW33322   1.080   1.342  16.157 -0.2266  0.0185 -0.0143
 7230SOL    HW133323   1.091   1.370  16.066 -2.7209 -1.1894 -0.6841
 7230SOL    HW233324   1.001   1.393  16.172  0.1032  0.4617  0.2289
 7231SOL     OW33325   2.683   0.483   5.932 -0.0248 -0.6367  0.5539
 7231SOL    HW133326   2.609   0.543   5.924  1.0817  0.5355 -1.1200
 7231SOL    HW233327   2.751   0.537   5.891  0.5885 -0.9762  1.1174
 7232SOL     OW33328   0.050   0.900   8.987  0.1983  0.5368  0.1006
 7232SOL    HW133329   0.033   0.808   9.006  1.6677  0.3501  0.5184
 7232SOL    HW233330   4.706   0.948   8.999  0.6290  0.7405  2.1649
 7233SOL     OW33331   4.301   0.078   2.953 -0.0035 -0.4103 -0.1408
 7233SOL    HW133332   4.314   0.100   2.861 -0.7858  1.3151  0.1563
 7233SOL    HW233333   4.238   0.006   2.945  1.1401 -1.0647 -3.1941
 7234SOL     OW33334   1.396   2.722   9.749  0.4893  0.1386  0.0248
 7234SOL    HW133335   1.489   2.742   9.737  0.5064 -1.0695 -1.8272
 7234SOL    HW233336   1.396   2.736   9.844 -1.8153 -0.9806  0.1911
 7235SOL     OW33337   0.656   0.318   7.327  0.1409 -0.6798  0.2705
 7235SOL    HW133338   0.718   0.375   7.280 -1.2025  0.7685  0.2782
 7235SOL    HW233339   0.635   0.368   7.406  0.2769 -0.6049  0.2600
 7236SOL     OW33340   3.645   2.981  15.240  0.0351  0.1346  0.6276
 7236SOL    HW133341   3.587   2.955  15.169  0.6567  2.6961 -0.8568
 7236SOL    HW233342   3.725   3.007  15.194  0.3927 -0.9502  0.6347
 7237SOL     OW33343   3.674   0.224   7.010 -0.4345  0.9984  0.5952
 7237SOL    HW133344   3.725   0.272   6.944  0.6589  0.0211  0.7482
 7237SOL    HW233345   3.721   0.245   7.090  1.0703 -0.9092  0.2100
 7238SOL     OW33346   0.232   0.916   5.493  0.1056 -0.7386 -0.5111
 7238SOL    HW133347   0.216   0.994   5.439  0.3931  0.9041  1.7590
 7238SOL    HW233348   0.262   0.859   5.423  2.8399 -0.7522  0.6689
 7239SOL     OW33349   1.780   1.679  17.072  0.2211 -0.1266  0.7521
 7239SOL    HW133350   1.806   1.754  17.019  1.8603 -1.2518 -0.0295
 7239SOL    HW233351   1.773   1.625  16.994  1.6501  0.7733  0.0060
 7240SOL     OW33352   2.021   4.004   8.061 -0.2507 -0.5298 -0.4424
 7240SOL    HW133353   2.060   3.929   8.107 -0.3355 -0.6029 -0.4887
 7240SOL    HW233354   1.929   3.997   8.086  0.0352  1.5596  1.1806
 7241SOL     OW33355   2.268   2.451  10.372  0.5008 -0.2991  0.2563
 7241SOL    HW133356   2.252   2.513  10.301 -0.4566 -1.7822 -0.8176
 7241SOL    HW233357   2.358   2.421  10.359  1.3117  2.6195 -0.8466
 7242SOL     OW33358   2.271   2.335   5.548  0.8541 -0.4039 -0.0845
 7242SOL    HW133359   2.240   2.256   5.591 -0.1669  1.0843  1.9368
 7242SOL    HW233360   2.343   2.348   5.609  1.4111 -1.1116 -0.6040
 7243SOL     OW33361   2.513   2.482   8.029 -0.2421 -0.3661  0.5530
 7243SOL    HW133362   2.441   2.481   8.092 -0.3193  0.9822  0.4872
 7243SOL    HW233363   2.505   2.397   7.987  0.1998 -0.1654  0.0543
 7244SOL     OW33364   1.681   1.516   9.648  0.2668  0.3355 -0.1785
 7244SOL    HW133365   1.623   1.496   9.575 -1.3251 -0.7718  1.3925
 7244SOL    HW233366   1.691   1.427   9.680  2.2969  0.2652 -0.9788
 7245SOL     OW33367   2.129   4.566  11.480  0.5033 -0.4017  0.1174
 7245SOL    HW133368   2.138   4.491  11.538  2.2093 -0.7380 -0.5503
 7245SOL    HW233369   2.081   4.521  11.411  0.3532  0.5140 -0.3714
 7246SOL     OW33370   4.724   2.802   6.193 -0.1563 -0.2743  0.2194
 7246SOL    HW133371   4.674   2.721   6.190  2.7381 -2.1681  2.8762
 7246SOL    HW233372   4.672   2.860   6.249  2.7694  1.0982  1.5265
 7247SOL     OW33373   1.563   1.141   1.566 -0.3410  0.0742  0.3681
 7247SOL    HW133374   1.541   1.099   1.650 -2.1713  1.1632  0.4237
 7247SOL    HW233375   1.512   1.221   1.577  1.0977  1.0564 -0.0054
 7248SOL     OW33376   3.516   3.270   5.840 -0.3211 -0.6779 -0.3954
 7248SOL    HW133377   3.476   3.316   5.766 -2.4270 -0.8763  0.6067
 7248SOL    HW233378   3.450   3.201   5.850 -0.3194 -0.3251  2.0313
 7249SOL     OW33379   4.262   3.908  13.809  0.2318  0.1643  0.1150
 7249SOL    HW133380   4.277   3.855  13.731  1.0808 -0.6593  0.8468
 7249SOL    HW233381   4.343   3.899  13.860  0.4587  1.5510 -0.0165
 7250SOL     OW33382   3.205   1.179   1.687 -0.6860  0.1989  0.4408
 7250SOL    HW133383   3.142   1.190   1.616  1.7986 -3.1501 -2.2300
 7250SOL    HW233384   3.144   1.148   1.755 -1.3002 -1.6199 -0.9391
 7251SOL     OW33385   1.054   2.159   3.690 -0.5242 -0.9129  0.1617
 7251SOL    HW133386   1.011   2.092   3.637  1.2378 -0.8302 -1.3932
 7251SOL    HW233387   0.984   2.167   3.754 -0.4689  0.5175  0.0305
 7252SOL     OW33388   3.682   2.572   6.564  0.3711  0.2249 -0.4476
 7252SOL    HW133389   3.775   2.574   6.586  0.3795 -0.9882 -0.3925
 7252SOL    HW233390   3.641   2.560   6.650 -1.9233  0.3275 -1.5301
 7253SOL     OW33391   0.298   2.659   5.835  0.2669 -0.6937  0.0134
 7253SOL    HW133392   0.245   2.735   5.813  0.4269  0.0756  2.2128
 7253SOL    HW233393   0.230   2.592   5.826  0.4567 -1.0278  1.0745
 7254SOL     OW33394   4.530   0.403   7.398 -0.0923  0.8028 -0.2572
 7254SOL    HW133395   4.600   0.464   7.376 -0.3497  0.3231 -2.4283
 7254SOL    HW233396   4.575   0.335   7.449 -0.2118 -1.6283 -3.4249
 7255SOL     OW33397   2.232   3.554   5.413  0.1972 -0.7053 -0.3705
 7255SOL    HW133398   2.312   3.510   5.386 -0.4973 -0.9730 -2.0187
 7255SOL    HW233399   2.210   3.601   5.332 -0.7594  0.8311  0.7812
 7256SOL     OW33400   1.035   2.872  12.910  0.5371  0.4447 -0.4876
 7256SOL    HW133401   1.024   2.777  12.908  0.0514  0.4916 -0.1133
 7256SOL    HW233402   1.126   2.872  12.880  0.9586  2.9046  0.8459
 7257SOL     OW33403   1.879   0.957  16.707  0.4572 -0.6340  0.2125
 7257SOL    HW133404   1.790   0.926  16.690  0.3308  0.9978 -2.0244
 7257SOL    HW233405   1.864   1.044  16.743  2.3895 -0.9113  1.7004
 7258SOL     OW33406   0.944   2.565   2.833 -0.4008 -0.0419  0.3414
 7258SOL    HW133407   0.988   2.643   2.867  1.6010 -1.8713  1.9369
 7258SOL    HW233408   0.862   2.612   2.818 -0.0443  0.2206 -0.7279
 7259SOL     OW33409   4.277   2.726  11.921  0.3510 -0.2347  0.3926
 7259SOL    HW133410   4.273   2.798  11.984 -1.5495 -1.6417  1.8806
 7259SOL    HW233411   4.363   2.691  11.948  0.9734 -0.3269 -1.7337
 7260SOL     OW33412   1.771   2.004   0.319  0.2566  0.2122  0.0745
 7260SOL    HW133413   1.829   2.076   0.345 -1.0834  1.6251 -0.8262
 7260SOL    HW233414   1.799   2.002   0.228  1.8722  0.3193  0.5742
 7261SOL     OW33415   0.832   2.657   9.636  0.1497 -0.0945  0.5415
 7261SOL    HW133416   0.798   2.568   9.634 -1.8691  0.6850 -0.2377
 7261SOL    HW233417   0.916   2.640   9.679  0.6418 -1.3387 -0.9132
 7262SOL     OW33418   2.683   3.282  15.967 -0.1229 -1.0362 -0.1656
 7262SOL    HW133419   2.629   3.233  16.029 -0.2002 -0.4457  0.2370
 7262SOL    HW233420   2.668   3.373  15.995  2.5818 -0.5235 -0.4418
 7263SOL     OW33421   0.402   4.255   7.059  0.6433  0.1543  0.0177
 7263SOL    HW133422   0.427   4.311   7.133 -1.0648  0.5478  0.2896
 7263SOL    HW233423   0.310   4.281   7.059  0.1046 -1.8042 -0.2823
 7264SOL     OW33424   1.794   4.628  13.475  0.4682 -0.9184  0.8771
 7264SOL    HW133425   1.880   4.611  13.514  1.4048 -3.0314 -2.0882
 7264SOL    HW233426   1.787   4.543  13.433 -2.9004  0.5938 -1.6442
 7265SOL     OW33427   4.101   0.043  13.390  0.5563 -0.5254  0.0091
 7265SOL    HW133428   4.055   0.028  13.307 -0.6244  2.1320  0.1879
 7265SOL    HW233429   4.179   0.092  13.364 -0.2457 -0.1865 -1.7811
 7266SOL     OW33430   4.466   3.225   6.501 -0.3184 -0.0374  0.2344
 7266SOL    HW133431   4.455   3.193   6.411 -1.1552 -0.5692  0.5316
 7266SOL    HW233432   4.554   3.263   6.493 -0.6711  0.3501 -1.7320
 7267SOL     OW33433   2.738   4.096   2.955  0.2881  0.2575 -0.3957
 7267SOL    HW133434   2.732   4.063   2.865  0.6551 -0.6512 -0.0927
 7267SOL    HW233435   2.694   4.180   2.946  0.1137  0.5933  3.5374
 7268SOL     OW33436   2.258   0.049   4.527  0.4307 -0.1627  0.7400
 7268SOL    HW133437   2.243   0.033   4.434  0.5315 -1.6212  0.9745
 7268SOL    HW233438   2.298   0.136   4.528 -0.8286  0.4464 -1.7324
 7269SOL     OW33439   2.744   0.158   0.674  0.4517  0.2459  0.2844
 7269SOL    HW133440   2.783   0.244   0.658 -1.1118  0.8975  0.0042
 7269SOL    HW233441   2.739   0.123   0.585  0.6946 -2.4124  1.2957
 7270SOL     OW33442   4.209   4.172   2.651  0.0088 -0.2581 -0.5453
 7270SOL    HW133443   4.183   4.082   2.672  1.2512 -0.4704  0.0398
 7270SOL    HW233444   4.133   4.217   2.688  1.3048  0.9951  0.5810
 7271SOL     OW33445   2.035   3.090   7.900  0.9051  0.0196 -0.2030
 7271SOL    HW133446   2.035   3.015   7.839 -1.5049  0.4455 -0.7484
 7271SOL    HW233447   2.121   3.074   7.939  0.8859 -0.6036 -0.4089
 7272SOL     OW33448   1.638   1.588   1.811 -0.2117 -0.6186 -0.0920
 7272SOL    HW133449   1.578   1.612   1.740  1.7365  1.8342 -0.9023
 7272SOL    HW233450   1.698   1.534   1.761  0.9209  2.8131 -2.4344
 7273SOL     OW33451   3.636   0.041   3.655  0.2241 -0.1225 -0.8218
 7273SOL    HW133452   3.550   0.066   3.622  0.1575  1.1806  0.3179
 7273SOL    HW233453   3.634   0.051   3.750  0.8245  2.0821 -1.0275
 7274SOL     OW33454   1.684   4.584  15.828 -0.1486 -0.2592 -0.0711
 7274SOL    HW133455   1.626   4.659  15.833  0.5729  0.2993  0.0264
 7274SOL    HW233456   1.732   4.588  15.911  0.1221  0.3600 -0.2512
 7275SOL     OW33457   4.309   1.351   7.622 -0.1429  0.1615  0.1506
 7275SOL    HW133458   4.313   1.296   7.700 -0.8246 -0.5867 -0.3356
 7275SOL    HW233459   4.220   1.328   7.592  0.4914 -1.5541 -0.4064
 7276SOL     OW33460   3.940   4.356   0.784 -0.2656  0.6919 -0.1522
 7276SOL    HW133461   3.922   4.276   0.834  2.7695 -0.1041 -0.3516
 7276SOL    HW233462   3.857   4.403   0.776  0.8084  2.6969  0.2411
 7277SOL     OW33463   1.541   0.580   9.847  0.8391 -0.0434  0.5362
 7277SOL    HW133464   1.534   0.542   9.935  0.6095  0.3391  0.6810
 7277SOL    HW233465   1.542   0.675   9.860 -0.1896 -0.0426  0.5592
 7278SOL     OW33466   4.521   3.618   7.660 -0.0700 -0.0285 -0.3718
 7278SOL    HW133467   4.605   3.586   7.694 -0.7293 -1.0183  0.3401
 7278SOL    HW233468   4.484   3.673   7.729 -1.1313  0.2762 -1.2040
 7279SOL     OW33469   4.569   2.237   2.623 -0.4262  0.1845 -0.0797
 7279SOL    HW133470   4.646   2.197   2.583  0.9989  5.1195 -2.2719
 7279SOL    HW233471   4.580   2.332   2.618  1.9650 -0.1516 -0.9469
 7280SOL     OW33472   0.014   3.912   4.495  0.4869 -0.1562  0.6653
 7280SOL    HW133473   0.070   3.844   4.458  0.6372  0.2539  0.1549
 7280SOL    HW233474   0.061   3.994   4.510  0.3644  0.2172 -0.9950
 7281SOL     OW33475   4.610   4.567   1.874 -0.4226 -0.2013  0.7192
 7281SOL    HW133476   4.539   4.615   1.917  0.1628  0.6514  0.7407
 7281SOL    HW233477   4.576   4.563   1.785 -2.8821  1.0111  1.6167
 7282SOL     OW33478   2.502   0.973  17.622 -0.0471  0.0044  0.2280
 7282SOL    HW133479   2.503   0.903  17.556 -0.3160 -0.0402  0.2720
 7282SOL    HW233480   2.490   0.930  17.706 -0.5834  0.3638  0.3311
 7283SOL     OW33481   3.639   3.390   2.441  0.0970 -0.0739 -0.2534
 7283SOL    HW133482   3.551   3.358   2.462 -0.6635  2.7369  0.8853
 7283SOL    HW233483   3.679   3.392   2.528 -1.5525 -1.0642  0.5294
 7284SOL     OW33484   4.478   1.072   5.897 -0.3105  0.5374 -0.0000
 7284SOL    HW133485   4.409   1.019   5.857  0.5998 -0.4018 -0.3410
 7284SOL    HW233486   4.431   1.155   5.897 -2.7819 -0.8645 -1.1930
 7285SOL     OW33487   0.559   1.629   1.571 -0.4876 -0.1007 -0.0409
 7285SOL    HW133488   0.510   1.610   1.650 -1.5694  1.2547 -0.3915
 7285SOL    HW233489   0.599   1.544   1.552 -1.7194 -0.8367  0.6837
 7286SOL     OW33490   2.600   0.932   6.102  0.0397  0.4961 -0.8361
 7286SOL    HW133491   2.596   1.008   6.044  0.5567  0.9399 -0.2846
 7286SOL    HW233492   2.526   0.874   6.081  0.7963 -1.2792  1.4189
 7287SOL     OW33493   0.516   0.450   4.068  0.1525  0.1510 -0.2468
 7287SOL    HW133494   0.444   0.426   4.010 -0.2574 -1.7477  1.0680
 7287SOL    HW233495   0.474   0.437   4.153 -2.3294  1.5407 -1.2697
 7288SOL     OW33496   4.660   4.190   0.260  0.4105  0.1136 -0.4397
 7288SOL    HW133497   0.011   4.207   0.290 -0.8211  4.1763  0.8909
 7288SOL    HW233498   4.626   4.275   0.288 -1.4594 -0.1594 -1.8772
 7289SOL     OW33499   0.560   1.927   8.666 -0.5675 -1.0542 -0.1742
 7289SOL    HW133500   0.468   1.900   8.662 -0.3416 -1.5751 -1.7235
 7289SOL    HW233501   0.545   2.010   8.711 -0.6657 -0.4850 -1.2681
 7290SOL     OW33502   2.427   2.553   9.401  0.5300 -0.3032 -0.5039
 7290SOL    HW133503   2.355   2.552   9.464 -1.6354 -1.5892 -3.0062
 7290SOL    HW233504   2.490   2.612   9.443  0.2182 -0.1934 -0.1931
 7291SOL     OW33505   2.103   3.667  13.697 -0.7336  0.2720 -0.1075
 7291SOL    HW133506   2.089   3.587  13.646 -0.5691 -2.0786  3.5381
 7291SOL    HW233507   2.052   3.732  13.648 -1.1679  0.2869  0.3711
 7292SOL     OW33508   3.934   3.737   8.430  0.0982 -0.3700  0.1170
 7292SOL    HW133509   4.020   3.776   8.418  0.8275 -1.9852  0.1914
 7292SOL    HW233510   3.888   3.818   8.453 -2.1172 -0.7503 -2.8426
 7293SOL     OW33511   2.115   0.640   8.880  0.4503  0.4224 -0.3505
 7293SOL    HW133512   2.041   0.699   8.895  2.6105  2.5818  1.7871
 7293SOL    HW233513   2.086   0.586   8.806  0.1799  0.2277 -0.1031
 7294SOL     OW33514   0.755   4.192   3.418 -0.1198 -0.4529  0.1699
 7294SOL    HW133515   0.835   4.192   3.366 -0.7773  0.3337 -0.8519
 7294SOL    HW233516   0.736   4.099   3.407 -2.4753 -0.1585  1.6189
 7295SOL     OW33517   0.951   0.340  10.981  0.1489  0.3299  0.1435
 7295SOL    HW133518   0.903   0.392  11.045  1.1121  1.1100  0.2220
 7295SOL    HW233519   0.958   0.254  11.023  3.3062  0.7601  0.4570
 7296SOL     OW33520   0.711   4.559   6.093  0.0992 -0.1901  0.5189
 7296SOL    HW133521   0.723   4.623   6.023  0.2803  0.9057  1.5511
 7296SOL    HW233522   0.789   4.504   6.090  1.4975  1.7971  0.1930
 7297SOL     OW33523   0.330   2.767   4.658  0.2407  0.0327  0.0323
 7297SOL    HW133524   0.247   2.766   4.706  0.2611  2.7760  0.1313
 7297SOL    HW233525   0.352   2.674   4.663 -1.1010 -0.3086 -0.3042
 7298SOL     OW33526   1.755   4.020   4.386  0.4066 -0.5851 -0.1589
 7298SOL    HW133527   1.776   3.933   4.354  0.6166 -0.6180  0.0733
 7298SOL    HW233528   1.814   4.070   4.330  0.2810 -0.9806 -0.6411
 7299SOL     OW33529   0.023   2.386   2.028 -0.0262  0.1502  0.3230
 7299SOL    HW133530   0.010   2.427   2.113  0.8926 -2.7453  1.8441
 7299SOL    HW233531   0.048   2.297   2.054 -1.7890 -0.4339  0.0406
 7300SOL     OW33532   0.990   1.305   2.388  0.3547 -0.6102 -0.2269
 7300SOL    HW133533   0.988   1.255   2.306 -1.2466 -1.7388  0.4918
 7300SOL    HW233534   0.959   1.243   2.455 -0.3546  1.3743  1.2628
 7301SOL     OW33535   2.449   3.470   3.787  0.1960  0.5337  0.4211
 7301SOL    HW133536   2.451   3.542   3.724 -0.0353  0.0285 -0.1570
 7301SOL    HW233537   2.388   3.501   3.854  1.2132  1.0919  1.0924
 7302SOL     OW33538   1.444   3.037  16.380  0.0625 -0.2314 -0.2392
 7302SOL    HW133539   1.402   3.035  16.294 -1.6169  2.0087  0.5149
 7302SOL    HW233540   1.476   3.127  16.380  0.1504 -0.2616 -1.3286
 7303SOL     OW33541   2.236   3.958   6.585 -0.1201 -0.6457 -0.3680
 7303SOL    HW133542   2.306   3.991   6.528 -2.0706 -0.8229 -2.8492
 7303SOL    HW233543   2.288   3.902   6.643  1.8172 -1.0379 -2.5084
 7304SOL     OW33544   0.137   3.783   5.652 -0.2105  0.3785 -0.6958
 7304SOL    HW133545   0.143   3.791   5.557  0.4084  2.3143 -0.5080
 7304SOL    HW233546   0.218   3.744   5.684 -0.8295 -0.4712 -0.1472
 7305SOL     OW33547   0.531   0.244  12.634 -0.2984 -0.2841  0.1318
 7305SOL    HW133548   0.516   0.257  12.540  0.4564  0.2473  0.0807
 7305SOL    HW233549   0.483   0.162  12.647 -1.0126  0.2530  0.8922
 7306SOL     OW33550   0.454   3.768   7.943 -0.1023  0.5785 -0.4063
 7306SOL    HW133551   0.538   3.760   7.987  0.5426  0.7980 -1.5900
 7306SOL    HW233552   0.402   3.756   8.023  1.9152 -0.7675  0.6972
 7307SOL     OW33553   2.060   0.330   6.760 -0.1888 -0.7243  0.3472
 7307SOL    HW133554   2.027   0.287   6.681  1.6933  2.0775 -1.9376
 7307SOL    HW233555   2.140   0.368   6.726 -0.7115 -0.3415 -0.4557
 7308SOL     OW33556   1.869   2.933   2.693 -0.2143  0.4217 -0.1527
 7308SOL    HW133557   1.918   2.889   2.623 -1.3841  0.1628 -0.8150
 7308SOL    HW233558   1.832   2.862   2.745  1.6468 -0.3093  0.1608
 7309SOL     OW33559   1.110   3.308   4.138  0.0383  0.8218 -0.1417
 7309SOL    HW133560   1.084   3.398   4.120  1.0251  1.6914  2.6980
 7309SOL    HW233561   1.183   3.303   4.076 -0.1568 -1.8375 -0.1547
 7310SOL     OW33562   3.788   1.762   0.525  0.3434 -0.4161  0.3226
 7310SOL    HW133563   3.745   1.790   0.605 -1.4571 -1.2093 -0.3639
 7310SOL    HW233564   3.768   1.668   0.523  0.4356 -0.4386  0.5447
 7311SOL     OW33565   1.364   1.284   2.597  0.0154  0.3001  0.2226
 7311SOL    HW133566   1.436   1.280   2.660  0.3896 -0.2745 -0.2469
 7311SOL    HW233567   1.385   1.202   2.553  0.6779 -0.6971  2.4635
 7312SOL     OW33568   4.266   3.180   7.776  0.2947  0.4696  0.4451
 7312SOL    HW133569   4.264   3.141   7.863  0.7832 -2.4480 -0.8296
 7312SOL    HW233570   4.219   3.262   7.791  0.6891  0.5082  1.4325
 7313SOL     OW33571   0.663   1.259  15.266 -0.1969 -0.6203 -0.2382
 7313SOL    HW133572   0.664   1.187  15.203  0.7832 -0.6801 -0.1627
 7313SOL    HW233573   0.753   1.256  15.299  0.5548 -0.1740 -2.3106
 7314SOL     OW33574   0.336   3.931   7.277  1.1681  0.1705 -0.4503
 7314SOL    HW133575   0.337   3.986   7.356  0.0875  1.0629 -1.0558
 7314SOL    HW233576   0.259   3.876   7.291 -0.3987  2.1662 -1.0714
 7315SOL     OW33577   2.212   3.492   0.695  0.4071 -0.1971  0.7241
 7315SOL    HW133578   2.171   3.568   0.654  0.1339  0.8524  2.9636
 7315SOL    HW233579   2.294   3.536   0.719  0.8807  0.1170 -1.3865
 7316SOL     OW33580   0.585   4.651   4.816 -0.4239  0.1483 -0.2690
 7316SOL    HW133581   0.655   4.587   4.819 -3.3541 -3.0133  0.9741
 7316SOL    HW233582   0.530   4.615   4.886 -0.0344 -0.5724 -0.3411
 7317SOL     OW33583   1.989   0.162   9.455  0.0757 -0.0808  0.3933
 7317SOL    HW133584   2.045   0.088   9.431 -0.7139 -0.2945 -0.7738
 7317SOL    HW233585   1.919   0.150   9.391  0.5963 -1.0648  0.0213
 7318SOL     OW33586   2.742   3.695   1.649 -0.5650 -0.2143 -0.2010
 7318SOL    HW133587   2.683   3.766   1.674  0.9452  0.8038  0.4515
 7318SOL    HW233588   2.801   3.737   1.586 -0.6988 -0.9384 -0.8167
 7319SOL     OW33589   3.936   1.742   2.007 -0.0908 -0.5086 -0.6330
 7319SOL    HW133590   3.998   1.690   2.060 -0.5287  0.2322  0.6108
 7319SOL    HW233591   3.924   1.684   1.932  0.6764  1.4520 -2.2759
 7320SOL     OW33592   1.778   3.106   2.331 -0.0147  0.2301 -0.2233
 7320SOL    HW133593   1.769   3.011   2.323 -1.3337  0.6299 -3.8232
 7320SOL    HW233594   1.862   3.130   2.292  0.4436 -1.2714 -0.1675
 7321SOL     OW33595   1.814   0.729  10.116  0.9825 -0.1122 -0.8116
 7321SOL    HW133596   1.721   0.722  10.093  0.8052 -3.5215  0.9259
 7321SOL    HW233597   1.840   0.653  10.064  3.1135 -0.3463  0.6225
 7322SOL     OW33598   3.111   0.990   7.047  0.5834  0.1363  0.0628
 7322SOL    HW133599   3.101   1.071   7.098  2.9053  0.8856 -0.6377
 7322SOL    HW233600   3.094   1.017   6.957 -0.1602 -0.1706  0.1114
 7323SOL     OW33601   2.783   3.521   7.146  0.0521  0.3499  0.1995
 7323SOL    HW133602   2.871   3.559   7.150  0.8824 -1.6717  1.2303
 7323SOL    HW233603   2.762   3.498   7.055 -0.6453  1.0988  0.1691
 7324SOL     OW33604   0.038   4.139   5.348  0.4914  0.6977  0.0029
 7324SOL    HW133605   0.026   4.165   5.439  0.9917 -0.8425  0.5122
 7324SOL    HW233606   0.134   4.138   5.348  0.4514 -2.2104 -0.1548
 7325SOL     OW33607   3.943   3.817  12.259  0.2756 -0.4161  0.3845
 7325SOL    HW133608   3.973   3.728  12.280 -0.1180 -0.5430  0.4144
 7325SOL    HW233609   3.917   3.807  12.168  2.2360 -2.9356  0.0662
 7326SOL     OW33610   2.532   1.191   6.584  0.0343 -0.5003 -0.4202
 7326SOL    HW133611   2.459   1.215   6.642  0.1200 -0.3242 -0.3856
 7326SOL    HW233612   2.583   1.270   6.601 -1.7954  0.2647  1.6175
 7327SOL     OW33613   2.156   3.737   8.185  0.1646  0.1286 -0.2513
 7327SOL    HW133614   2.219   3.708   8.119 -0.4021 -0.4152 -0.5532
 7327SOL    HW233615   2.203   3.729   8.268 -1.2686 -1.7719  0.3829
 7328SOL     OW33616   3.612   1.393   3.279 -0.2877  0.0678  0.1261
 7328SOL    HW133617   3.595   1.389   3.374 -0.6013 -1.5568 -0.0014
 7328SOL    HW233618   3.646   1.308   3.255  1.9577  1.4279 -1.4261
 7329SOL     OW33619   0.747   0.979   7.949 -0.4879  0.0467  0.0468
 7329SOL    HW133620   0.685   0.973   8.021 -2.2117  0.3141 -1.4211
 7329SOL    HW233621   0.716   1.059   7.907 -1.0132  0.3947  1.1137
 7330SOL     OW33622   0.525   2.064   3.289 -0.3618  0.3214 -0.4569
 7330SOL    HW133623   0.464   2.122   3.334 -0.6305  0.4236 -0.9471
 7330SOL    HW233624   0.563   2.137   3.238  1.4879 -1.2725 -1.3637
 7331SOL     OW33625   1.450   3.002   8.601  0.5278 -0.0170 -0.1468
 7331SOL    HW133626   1.504   3.082   8.601  0.2544  0.1633  2.1449
 7331SOL    HW233627   1.366   3.043   8.620  0.7371  1.2353 -1.9493
 7332SOL     OW33628   2.374   2.574  14.811  0.1357 -0.6506  0.0021
 7332SOL    HW133629   2.405   2.521  14.738  1.2463 -0.9993  0.7239
 7332SOL    HW233630   2.284   2.544  14.824 -0.1113 -0.3651 -1.0582
 7333SOL     OW33631   2.038   1.953   8.530  0.3911 -0.0361  0.4576
 7333SOL    HW133632   2.065   1.974   8.619  0.8258 -0.8687  0.5246
 7333SOL    HW233633   1.943   1.958   8.547 -0.1189  1.0735 -2.8156
 7334SOL     OW33634   3.017   1.354   7.763  0.4439  0.0315  0.2600
 7334SOL    HW133635   2.971   1.293   7.821  0.1451  0.0891  0.0836
 7334SOL    HW233636   3.098   1.366   7.812  0.2913  0.3554  0.4329
 7335SOL     OW33637   1.759   3.171   7.176 -0.2168 -0.0286  0.1178
 7335SOL    HW133638   1.829   3.177   7.111 -0.3125  0.1823  0.0383
 7335SOL    HW233639   1.702   3.247   7.166 -0.9626 -0.6369 -0.2156
 7336SOL     OW33640   3.255   2.693   7.271 -0.2934 -0.3298 -0.5062
 7336SOL    HW133641   3.186   2.632   7.297 -0.7939 -0.0655 -1.2215
 7336SOL    HW233642   3.231   2.772   7.319  3.9260  0.7316 -0.1349
 7337SOL     OW33643   2.179   2.000  12.110 -0.0224 -0.3248 -0.4022
 7337SOL    HW133644   2.127   2.018  12.189 -0.8380 -1.1751 -0.7468
 7337SOL    HW233645   2.136   2.058  12.047 -1.4503 -1.1089 -0.1592
 7338SOL     OW33646   1.851   2.473  14.538  0.0141 -0.1653 -0.8328
 7338SOL    HW133647   1.761   2.502  14.551 -0.3500 -0.5324 -2.5538
 7338SOL    HW233648   1.892   2.558  14.525  0.2958 -0.3474 -1.1277
 7339SOL     OW33649   4.567   4.375   7.777  0.1759  0.7750  0.0870
 7339SOL    HW133650   4.537   4.359   7.687  2.1023  0.0373 -0.4391
 7339SOL    HW233651   4.634   4.306   7.782  0.9982  1.5162 -0.8199
 7340SOL     OW33652   1.452   2.625   8.706 -0.3945  0.1360  0.4170
 7340SOL    HW133653   1.414   2.539   8.727  0.3098 -0.3324 -0.2330
 7340SOL    HW233654   1.377   2.683   8.715 -2.1643 -2.4983  2.5150
 7341SOL     OW33655   4.716   0.765  17.132 -0.7915 -0.0822  0.1404
 7341SOL    HW133656   4.628   0.729  17.124 -1.1716  1.0257 -0.6270
 7341SOL    HW233657   0.018   0.731  17.052  0.3657  0.1191  0.6312
 7342SOL     OW33658   0.086   4.037   6.651 -0.0036 -0.1454  0.1974
 7342SOL    HW133659   0.032   3.971   6.694 -0.8893 -0.3129 -1.1511
 7342SOL    HW233660   0.124   3.998   6.572 -1.2414 -0.6559 -0.1558
 7343SOL     OW33661   3.683   0.877   3.920 -0.3167  0.4553 -0.8877
 7343SOL    HW133662   3.709   0.803   3.974 -1.0783  0.7244 -0.1365
 7343SOL    HW233663   3.764   0.894   3.873 -0.7312 -1.5172 -2.2990
 7344SOL     OW33664   4.383   2.206  15.671 -0.6327  0.2467  0.0849
 7344SOL    HW133665   4.384   2.176  15.762 -0.5621  2.1065  0.6843
 7344SOL    HW233666   4.376   2.298  15.696 -1.5685  0.2753 -0.2810
 7345SOL     OW33667   0.958   3.884   7.081  0.0955  0.0079 -0.3293
 7345SOL    HW133668   0.893   3.936   7.032  1.5867  1.6461 -0.5852
 7345SOL    HW233669   1.002   3.960   7.118 -0.4251  0.4476 -0.6068
 7346SOL     OW33670   4.290   4.333   8.254  0.4344  0.4635 -0.0460
 7346SOL    HW133671   4.369   4.303   8.299  0.7323 -0.0499 -0.9091
 7346SOL    HW233672   4.321   4.384   8.179  1.3356 -1.2941 -0.8771
 7347SOL     OW33673   0.694   4.341   0.889 -0.0433 -0.1701 -0.0960
 7347SOL    HW133674   0.754   4.310   0.957 -1.9616 -3.8021 -0.0453
 7347SOL    HW233675   0.623   4.278   0.900  1.4974 -1.7020  1.0647
 7348SOL     OW33676   2.468   1.351   6.143  0.4980  0.1970 -0.3507
 7348SOL    HW133677   2.424   1.285   6.196  0.7923 -1.7232 -2.5039
 7348SOL    HW233678   2.523   1.297   6.087  2.0992  0.8180  0.6054
 7349SOL     OW33679   0.820   2.354   3.456  0.2584 -0.2226  0.3377
 7349SOL    HW133680   0.881   2.378   3.527 -0.2503  2.1466 -0.0162
 7349SOL    HW233681   0.855   2.398   3.378  0.4285 -0.0851  0.4916
 7350SOL     OW33682   0.313   0.222   8.568  0.0087  0.0312 -0.2721
 7350SOL    HW133683   0.402   0.257   8.566  0.9628 -2.1566  2.7532
 7350SOL    HW233684   0.286   0.241   8.478  1.8893  0.6974 -0.6934
 7351SOL     OW33685   2.008   2.970   4.031 -0.1448 -0.2533 -0.3017
 7351SOL    HW133686   1.944   2.961   3.961 -0.3536 -2.3342  0.1656
 7351SOL    HW233687   1.956   2.930   4.100  0.4549  0.6107  0.6532
 7352SOL     OW33688   1.028   2.818   4.930 -0.2686 -0.1154 -0.1058
 7352SOL    HW133689   1.047   2.730   4.963 -5.3979 -0.3381  2.2169
 7352SOL    HW233690   1.115   2.852   4.951  0.1684 -1.2552 -0.0779
 7353SOL     OW33691   3.279   3.044   3.741 -0.2592  0.1701 -0.1732
 7353SOL    HW133692   3.222   3.088   3.678 -0.6220  1.0361  0.7747
 7353SOL    HW233693   3.228   3.064   3.819 -1.6506 -1.8968 -0.5350
 7354SOL     OW33694   0.477   0.717   5.080  0.2575 -0.7508 -0.4448
 7354SOL    HW133695   0.428   0.682   5.005  0.2333  1.4716 -1.4735
 7354SOL    HW233696   0.477   0.812   5.067  2.0267 -0.2562  3.2545
 7355SOL     OW33697   0.618   1.243   7.875  0.2157 -0.0508  0.3206
 7355SOL    HW133698   0.692   1.255   7.815  0.0838 -4.3204 -0.7452
 7355SOL    HW233699   0.614   1.326   7.921 -0.8382 -0.5901  1.2014
 7356SOL     OW33700   4.419   1.242   1.327 -0.1159  0.0616  0.3060
 7356SOL    HW133701   4.377   1.298   1.392 -0.1221  2.4286 -1.7307
 7356SOL    HW233702   4.474   1.302   1.276  1.5582 -1.6507  0.1004
 7357SOL     OW33703   3.387   3.638   4.025 -0.0153  0.2828  0.0445
 7357SOL    HW133704   3.388   3.704   4.095 -1.9494  0.4733 -0.1018
 7357SOL    HW233705   3.344   3.561   4.062 -1.8888  0.3780 -1.9283
 7358SOL     OW33706   2.741   3.474   6.580  0.3593  0.1512 -0.6942
 7358SOL    HW133707   2.758   3.410   6.510 -0.7013  0.2858 -1.0676
 7358SOL    HW233708   2.674   3.520   6.530 -0.6619  2.5091  2.9226
 7359SOL     OW33709   2.869   4.170   3.708 -0.1304  0.1431  0.0776
 7359SOL    HW133710   2.897   4.254   3.672 -1.1201  1.0934  1.5071
 7359SOL    HW233711   2.938   4.157   3.774 -3.1864 -1.6638  2.9442
 7360SOL     OW33712   4.042   4.356   8.379 -0.6093 -0.0176  0.1450
 7360SOL    HW133713   4.109   4.330   8.316 -1.1708 -0.9827 -0.0577
 7360SOL    HW233714   3.978   4.385   8.314 -2.3731 -1.8804  1.0256
 7361SOL     OW33715   0.091   2.065   5.495 -0.4654 -0.2044  0.2003
 7361SOL    HW133716   0.065   2.102   5.579 -3.2416 -1.2197 -0.2093
 7361SOL    HW233717   0.101   2.150   5.453  1.0930 -0.5022 -0.0459
 7362SOL     OW33718   3.212   1.559   0.294 -0.8653  0.0087 -0.3282
 7362SOL    HW133719   3.121   1.546   0.270 -1.1152  1.7116 -0.2862
 7362SOL    HW233720   3.217   1.535   0.387 -0.2787 -1.6162 -0.7824
 7363SOL     OW33721   2.536   4.288   8.163 -0.3883  0.1167 -0.7016
 7363SOL    HW133722   2.546   4.231   8.087  1.3138  2.5800 -2.3222
 7363SOL    HW233723   2.510   4.371   8.123 -1.1582  0.6429  0.8958
 7364SOL     OW33724   2.964   2.988   8.141 -0.0700  0.8592  0.0678
 7364SOL    HW133725   2.869   2.996   8.134 -0.2885 -1.4943  0.4104
 7364SOL    HW233726   2.983   3.040   8.219  0.3610  1.3804 -0.3873
 7365SOL     OW33727   0.449   1.932  14.573  0.1265  0.1341 -0.0033
 7365SOL    HW133728   0.427   1.987  14.498  0.3883  1.5465  0.9627
 7365SOL    HW233729   0.446   1.844  14.535 -0.0673  0.0792  0.1378
 7366SOL     OW33730   4.003   0.045   5.696 -0.3917 -0.0380 -0.0607
 7366SOL    HW133731   3.929   4.724   5.710  0.8448 -0.9636  2.5745
 7366SOL    HW233732   4.015   0.093   5.779  0.0966 -0.9149  0.3789
 7367SOL     OW33733   0.851   2.567   8.698  0.0495  0.2793  0.1883
 7367SOL    HW133734   0.897   2.593   8.778 -1.3483  0.8799  0.8037
 7367SOL    HW233735   0.775   2.527   8.739  2.2414 -2.5684  1.4353
 7368SOL     OW33736   3.902   2.779   8.348  0.1797 -0.4267  0.3942
 7368SOL    HW133737   3.875   2.841   8.416 -0.4521  0.3413 -0.5441
 7368SOL    HW233738   3.822   2.728   8.338 -1.0384  1.6132 -0.4522
 7369SOL     OW33739   3.993   4.659   3.391  0.4457 -0.0653  0.5611
 7369SOL    HW133740   4.005   4.691   3.480  0.7579 -1.5414  1.0510
 7369SOL    HW233741   3.901   4.636   3.400  0.8227 -1.1949  1.5142
 7370SOL     OW33742   2.371   3.669   6.071 -0.0312 -0.2129  0.4561
 7370SOL    HW133743   2.295   3.722   6.045 -1.1141 -2.4176 -0.9412
 7370SOL    HW233744   2.335   3.582   6.088  0.8168 -0.3948  1.3368
 7371SOL     OW33745   1.977   2.293   7.885 -0.2634  0.3236 -0.1785
 7371SOL    HW133746   2.053   2.349   7.899  0.0372  0.2149 -1.4648
 7371SOL    HW233747   2.013   2.220   7.835 -2.0073  0.2789 -1.3618
 7372SOL     OW33748   1.955   1.428   1.786 -0.0963 -0.1431 -0.2035
 7372SOL    HW133749   1.914   1.394   1.866 -1.7493 -1.6204 -1.6558
 7372SOL    HW233750   1.891   1.403   1.719 -1.1447  1.1428  0.3255
 7373SOL     OW33751   0.523   2.273   7.677 -0.3280 -0.0788  0.4250
 7373SOL    HW133752   0.596   2.216   7.699  0.0632 -0.4937 -1.8994
 7373SOL    HW233753   0.581   2.349   7.666 -0.5278  0.1689  1.1251
 7374SOL     OW33754   4.120   2.040   4.998 -0.1007 -0.3898 -0.1253
 7374SOL    HW133755   4.050   1.988   5.036 -2.1087  1.0615 -1.8487
 7374SOL    HW233756   4.069   2.106   4.951  1.7027 -0.4613 -2.1670
 7375SOL     OW33757   4.043   0.234   6.516  0.0352 -0.1910  0.1672
 7375SOL    HW133758   4.048   0.207   6.424  2.8584 -0.7045  0.4978
 7375SOL    HW233759   3.977   0.304   6.524  0.5558  0.4327 -0.9345
 7376SOL     OW33760   3.711   2.955   5.662  0.1728 -0.6541  0.1990
 7376SOL    HW133761   3.627   2.998   5.648  0.6567 -0.0251 -0.7539
 7376SOL    HW233762   3.748   3.031   5.707  0.9516 -1.6983  1.3236
 7377SOL     OW33763   3.920   1.134   7.789  0.0136  0.0101 -0.4263
 7377SOL    HW133764   3.990   1.077   7.818  0.2903 -0.9138 -2.8748
 7377SOL    HW233765   3.871   1.076   7.731 -3.6603 -0.1789  2.8706
 7378SOL     OW33766   2.638   4.301   8.662  0.2873  0.0444  1.1878
 7378SOL    HW133767   2.647   4.282   8.568 -0.5665  1.3661  0.8487
 7378SOL    HW233768   2.543   4.297   8.668  0.1323  2.8060  0.3439
 7379SOL     OW33769   1.639   4.683   5.126  0.6561 -0.1952  0.3677
 7379SOL    HW133770   1.590   4.698   5.207  1.5076  1.1355  0.6466
 7379SOL    HW233771   1.621   4.590   5.113  0.0005 -0.1860  1.1835
 7380SOL     OW33772   0.909   3.495  13.168  0.1378  0.1322  0.3933
 7380SOL    HW133773   0.820   3.518  13.141 -0.3391 -2.7053 -0.3852
 7380SOL    HW233774   0.927   3.430  13.100 -0.9805  1.4787 -1.1982
 7381SOL     OW33775   2.420   0.867  15.544  0.2688  0.4535  0.4866
 7381SOL    HW133776   2.428   0.808  15.469 -0.7505 -0.5345  1.1505
 7381SOL    HW233777   2.356   0.929  15.509  0.5086  1.3387  1.6208
 7382SOL     OW33778   2.893   3.725  10.249  0.4219 -0.0141 -0.5137
 7382SOL    HW133779   2.900   3.811  10.290 -1.0179  0.6756 -1.7087
 7382SOL    HW233780   2.973   3.736  10.197  0.1543 -0.0801 -0.9421
 7383SOL     OW33781   4.638   3.808   7.473  0.8704 -0.1716 -0.7241
 7383SOL    HW133782   4.622   3.751   7.548 -0.1512  2.4060  1.0246
 7383SOL    HW233783   4.557   3.859   7.472 -1.1234 -3.3297 -1.7792
 7384SOL     OW33784   0.548   0.545   9.114 -0.0596 -0.4852  0.8790
 7384SOL    HW133785   0.473   0.585   9.070  1.7508 -0.3546 -2.1402
 7384SOL    HW233786   0.627   0.596   9.100 -0.6138 -0.0538 -0.7641
 7385SOL     OW33787   1.594   3.424   9.935 -0.2325  1.0205  0.3118
 7385SOL    HW133788   1.562   3.389  10.018  1.2011  3.3075  1.8334
 7385SOL    HW233789   1.666   3.368   9.909 -1.0720  0.7030 -1.3742
 7386SOL     OW33790   2.093   4.197   3.871 -0.1961 -0.3873  0.6849
 7386SOL    HW133791   2.160   4.130   3.862  0.9799  0.8669  0.1011
 7386SOL    HW233792   2.137   4.260   3.927 -2.4362  0.9923  0.8772
 7387SOL     OW33793   0.711   4.703   7.793 -0.0223  0.1062 -0.0864
 7387SOL    HW133794   0.626   4.674   7.758 -1.0041  0.8491  1.6796
 7387SOL    HW233795   0.705   0.050   7.749 -1.8474 -0.1328 -0.3297
 7388SOL     OW33796   0.345   0.575   5.626 -0.0072  0.0876  0.4669
 7388SOL    HW133797   0.356   0.548   5.535 -2.7743  1.2379 -0.2312
 7388SOL    HW233798   0.404   0.527   5.683 -0.1037  1.8408  2.0481
 7389SOL     OW33799   0.859   0.926  10.471  0.3824 -0.4102  0.5065
 7389SOL    HW133800   0.920   0.998  10.490  2.7903 -2.4058  0.4192
 7389SOL    HW233801   0.784   0.984  10.458  0.7992  0.0443  0.1617
 7390SOL     OW33802   4.512   2.665   5.246  0.5271 -0.1547 -0.0423
 7390SOL    HW133803   4.431   2.716   5.254 -0.5460 -1.6236 -1.6679
 7390SOL    HW233804   4.490   2.583   5.203 -0.7423  0.7680 -1.1867
 7391SOL     OW33805   1.412   1.714  13.104  0.2924  0.4676  0.1177
 7391SOL    HW133806   1.321   1.685  13.116  0.5134 -0.8328 -1.3823
 7391SOL    HW233807   1.395   1.769  13.027 -1.2937 -0.5135 -0.2238
 7392SOL     OW33808   1.957   1.931   9.384 -0.0521  0.4267  0.3321
 7392SOL    HW133809   2.011   2.010   9.385  1.7091 -0.7761 -0.3772
 7392SOL    HW233810   1.974   1.897   9.472  0.7846  1.4488  0.5702
 7393SOL     OW33811   2.796   2.454   4.693  0.4849  0.2363 -0.0890
 7393SOL    HW133812   2.744   2.401   4.631 -0.6302  2.2591 -0.9056
 7393SOL    HW233813   2.740   2.520   4.733  2.3838  2.3879 -0.9795
 7394SOL     OW33814   1.005   3.314   7.665 -0.8508 -0.3074  0.3993
 7394SOL    HW133815   0.923   3.272   7.639  0.3860 -1.0733 -2.2636
 7394SOL    HW233816   0.977   3.391   7.714 -0.1966 -0.5015  1.0917
 7395SOL     OW33817   0.341   3.045   7.377  0.1690  0.5039 -0.1637
 7395SOL    HW133818   0.409   3.089   7.428  0.7135  1.2208 -1.4995
 7395SOL    HW233819   0.317   3.103   7.305  0.9124 -0.2933 -1.0447
 7396SOL     OW33820   3.413   1.422  17.317  0.0692 -0.1421 -0.6038
 7396SOL    HW133821   3.401   1.507  17.275  4.2164  1.1222  0.7705
 7396SOL    HW233822   3.509   1.423  17.324  0.0682 -0.1317 -0.5904
 7397SOL     OW33823   4.279   4.613   6.180 -0.5136 -0.2587 -0.1693
 7397SOL    HW133824   4.216   4.543   6.196  0.1065 -0.8108 -0.1652
 7397SOL    HW233825   4.342   4.563   6.129  0.3184 -0.4391  1.0386
 7398SOL     OW33826   0.235   1.421   5.291 -0.2859 -0.0076 -0.2380
 7398SOL    HW133827   0.220   1.515   5.279 -2.2934 -0.1745  0.9873
 7398SOL    HW233828   0.249   1.420   5.385  2.0778 -0.9845 -0.6149
 7399SOL     OW33829   4.647   2.144   8.292 -0.5367 -0.1191  0.1869
 7399SOL    HW133830   4.734   2.106   8.305 -0.8446 -0.4213  1.3498
 7399SOL    HW233831   4.641   2.108   8.203  0.0994  3.1666 -1.1691
 7400SOL     OW33832   0.372   2.639   6.136 -0.1436  0.3005  0.6374
 7400SOL    HW133833   0.422   2.599   6.065 -0.3474  1.0165  0.0882
 7400SOL    HW233834   0.366   2.731   6.110  0.8088  0.4996  1.1191
 7401SOL     OW33835   1.424   3.014   2.410  0.0528 -0.3514  0.2053
 7401SOL    HW133836   1.452   2.957   2.338 -0.8500 -0.8244  0.2166
 7401SOL    HW233837   1.427   2.950   2.482  1.9278 -2.1424 -1.4532
 7402SOL     OW33838   0.465   2.302   9.250 -0.2005 -0.2867  0.5856
 7402SOL    HW133839   0.539   2.338   9.299  1.7170 -1.2516 -1.6693
 7402SOL    HW233840   0.455   2.372   9.185 -0.0620 -1.0465 -0.2495
 7403SOL     OW33841   0.775   0.971  14.511  0.0933  0.5673  0.3173
 7403SOL    HW133842   0.787   1.057  14.471 -0.2901  0.3025 -0.3681
 7403SOL    HW233843   0.682   0.955  14.492  0.5525  0.3294 -1.7352
 7404SOL     OW33844   1.816   3.182   3.899 -0.6068  0.0678 -0.1614
 7404SOL    HW133845   1.790   3.098   3.861  1.6225 -0.5034 -0.4789
 7404SOL    HW233846   1.790   3.240   3.827  0.7179 -1.9671 -2.2819
 7405SOL     OW33847   0.727   0.483   0.603 -0.6627  0.6648  0.4304
 7405SOL    HW133848   0.757   0.394   0.618 -2.7017 -0.3212 -1.5568
 7405SOL    HW233849   0.789   0.502   0.532 -0.0105 -1.2696  0.4892
 7406SOL     OW33850   1.563   1.923   2.879  0.2184  0.4729 -0.1832
 7406SOL    HW133851   1.633   1.889   2.824  0.0917 -1.1279  0.6675
 7406SOL    HW233852   1.492   1.907   2.817 -1.2954  1.1037  1.3760
 7407SOL     OW33853   4.509   1.436   6.772  0.4226  0.3212  0.1025
 7407SOL    HW133854   4.528   1.349   6.737 -0.1345 -0.4108  1.6147
 7407SOL    HW233855   4.591   1.462   6.814 -0.9711  3.0580  1.1738
 7408SOL     OW33856   1.083   4.019   2.780 -0.3504 -0.4091 -0.0857
 7408SOL    HW133857   1.089   4.106   2.741 -0.1438 -1.3572 -2.1904
 7408SOL    HW233858   1.005   3.982   2.739  1.4626 -1.1149 -2.9693
 7409SOL     OW33859   1.361   4.649   9.450 -0.5623  0.1900 -0.3211
 7409SOL    HW133860   1.331   0.002   9.458  0.9743  0.6572 -0.0002
 7409SOL    HW233861   1.455   4.656   9.463 -0.4498 -0.6164 -0.7274
 7410SOL     OW33862   3.172   1.399   6.393 -0.4835  0.0368 -0.1244
 7410SOL    HW133863   3.106   1.360   6.336 -0.7646  1.7666 -1.0006
 7410SOL    HW233864   3.129   1.478   6.425 -0.5020 -0.2097  0.4602
 7411SOL     OW33865   4.586   1.830   6.794  0.3599 -0.6122 -0.3435
 7411SOL    HW133866   4.532   1.899   6.832  0.6275 -1.8579  2.3149
 7411SOL    HW233867   4.582   1.845   6.700 -0.3028  0.1828 -0.1904
 7412SOL     OW33868   2.555   0.370   8.203 -0.5249  0.0991  0.0915
 7412SOL    HW133869   2.622   0.343   8.140  0.6642  0.5505  1.1809
 7412SOL    HW233870   2.603   0.439   8.249  0.2231 -0.3918  0.0522
 7413SOL     OW33871   2.007   4.642   2.206  0.4720 -0.5159 -0.2189
 7413SOL    HW133872   2.004   4.709   2.274 -1.4237 -0.9682  0.1701
 7413SOL    HW233873   2.080   4.594   2.243  0.1156  0.2024  1.4025
 7414SOL     OW33874   1.525   1.718   1.573 -0.8385 -0.2787  0.1771
 7414SOL    HW133875   1.561   1.806   1.573  0.1996 -0.7057  1.3182
 7414SOL    HW233876   1.430   1.729   1.564 -1.2665 -1.9550  2.6616
 7415SOL     OW33877   4.621   0.941  13.842 -0.5100  0.5281  0.5495
 7415SOL    HW133878   4.596   0.948  13.934  0.8704  1.3274  0.8670
 7415SOL    HW233879   4.701   0.992  13.828 -1.1223  0.8829 -1.7512
 7416SOL     OW33880   2.420   1.886  17.748 -0.4522 -0.2252 -0.1938
 7416SOL    HW133881   2.472   1.966   0.003 -2.1596  0.7561  1.3347
 7416SOL    HW233882   2.344   1.907   0.052 -0.2293 -0.5277  0.2298
 7417SOL     OW33883   4.186   1.817  16.627 -0.4238  0.6383 -0.0883
 7417SOL    HW133884   4.207   1.898  16.582  1.0570 -0.1924 -0.9056
 7417SOL    HW233885   4.189   1.853  16.716  1.6898 -2.0807  0.9568
 7418SOL     OW33886   0.405   0.003  12.667  0.5722 -0.1797 -0.0195
 7418SOL    HW133887   0.313   0.004  12.643  0.8635 -0.2469 -1.1425
 7418SOL    HW233888   0.422   4.649  12.648  0.2574 -0.3325  0.4415
 7419SOL     OW33889   0.052   2.182   2.481 -0.4930  0.0200  0.4991
 7419SOL    HW133890   0.117   2.240   2.441 -1.4215  1.0854  0.5639
 7419SOL    HW233891   0.119   2.119   2.508 -1.1600 -0.8210  0.2042
 7420SOL     OW33892   2.298   3.062   9.664 -0.6804  0.3880 -0.3557
 7420SOL    HW133893   2.246   3.130   9.622  0.7862  1.0331 -1.1278
 7420SOL    HW233894   2.317   3.105   9.748 -1.4900  0.4741 -0.2152
 7421SOL     OW33895   1.334   2.844   5.558  0.4165  0.1704 -0.3097
 7421SOL    HW133896   1.409   2.789   5.581  0.3919 -0.0641 -0.7975
 7421SOL    HW233897   1.389   2.921   5.548 -0.9313  1.4057  1.8535
 7422SOL     OW33898   1.455   4.716   2.883 -0.0358  0.0777  0.6926
 7422SOL    HW133899   1.433   4.680   2.797  1.4848  3.7580 -1.2190
 7422SOL    HW233900   1.549   4.696   2.882  0.1290  0.9506 -0.2750
 7423SOL     OW33901   3.343   1.228  16.063  0.5591  0.5078 -0.1892
 7423SOL    HW133902   3.306   1.149  16.101  0.2012  0.0339 -1.5189
 7423SOL    HW233903   3.311   1.219  15.973 -2.7214  2.0881  0.7853
 7424SOL     OW33904   1.624   1.579   5.099 -0.1033 -0.1138  0.4694
 7424SOL    HW133905   1.555   1.617   5.043 -1.1772 -1.0454  1.1693
 7424SOL    HW233906   1.630   1.496   5.052  0.2044  0.7852 -1.0755
 7425SOL     OW33907   0.849   2.694  11.365  0.2829 -0.0313  0.1580
 7425SOL    HW133908   0.772   2.692  11.309  1.0894  0.8839 -0.9962
 7425SOL    HW233909   0.823   2.638  11.437 -2.1584 -0.0667 -0.7715
 7426SOL     OW33910   4.503   4.581   8.363  0.2173 -0.3156 -0.4894
 7426SOL    HW133911   4.472   4.529   8.438  2.2463 -0.7798  0.0395
 7426SOL    HW233912   4.582   4.623   8.398  0.1185  1.2374 -2.1731
 7427SOL     OW33913   4.090   0.393   5.914 -1.3326  0.0750 -0.5884
 7427SOL    HW133914   4.126   0.335   5.982  3.2347  2.8683 -0.5960
 7427SOL    HW233915   4.145   0.469   5.930  0.6368 -2.1076  3.2546
 7428SOL     OW33916   0.402   2.432  16.690 -0.1121  0.2367 -0.6797
 7428SOL    HW133917   0.402   2.347  16.734 -0.3521  0.1279 -0.8913
 7428SOL    HW233918   0.481   2.474  16.725 -0.9876  1.5370 -0.2403
 7429SOL     OW33919   1.219   3.780   2.085  0.2526 -0.0742 -0.2066
 7429SOL    HW133920   1.199   3.868   2.053 -0.1082  0.2543  0.9096
 7429SOL    HW233921   1.312   3.782   2.110  1.0401  0.9269 -3.3218
 7430SOL     OW33922   3.989   1.340   9.707  0.2155  0.0091 -0.6873
 7430SOL    HW133923   3.971   1.266   9.765 -1.3324  0.3712 -0.7137
 7430SOL    HW233924   3.905   1.385   9.715  0.8849  1.0925  0.3083
 7431SOL     OW33925   2.212   3.593   3.524 -0.1601  0.0422  0.5211
 7431SOL    HW133926   2.181   3.534   3.593 -1.0057 -0.3206 -0.1619
 7431SOL    HW233927   2.235   3.671   3.575  0.4008  0.9669 -1.1541
 7432SOL     OW33928   1.270   4.226   5.168  0.2509 -0.2828 -0.1429
 7432SOL    HW133929   1.230   4.200   5.085  1.5516 -1.6499 -0.3336
 7432SOL    HW233930   1.357   4.192   5.151  0.0635 -1.2619  0.9236
 7433SOL     OW33931   0.536   2.837   2.896  0.4332  0.4967 -0.7526
 7433SOL    HW133932   0.515   2.886   2.816  0.9003  1.1120 -0.5016
 7433SOL    HW233933   0.602   2.784   2.852 -0.1646 -1.5222  0.7623
 7434SOL     OW33934   0.808   4.578  16.456  0.1004 -0.6468  0.3805
 7434SOL    HW133935   0.741   4.519  16.491 -0.1184  0.4822  1.8640
 7434SOL    HW233936   0.880   4.562  16.517  1.8433 -1.6319 -1.9404
 7435SOL     OW33937   4.109   1.074  16.555 -0.1170 -0.1359  0.8072
 7435SOL    HW133938   4.101   1.052  16.462  0.9118  2.6953  0.0529
 7435SOL    HW233939   4.035   1.134  16.568 -1.8362 -1.8474 -1.0100
 7436SOL     OW33940   2.395   0.059   2.738  0.7307 -0.4142  0.7974
 7436SOL    HW133941   2.377   4.711   2.701 -1.4779 -0.2783  1.5525
 7436SOL    HW233942   2.347   0.112   2.674  1.1206 -0.6193  0.3321
 7437SOL     OW33943   0.309   4.505  15.266  0.8224  0.1871 -0.7009
 7437SOL    HW133944   0.405   4.510  15.258  0.7545  3.0504  0.1216
 7437SOL    HW233945   0.297   4.563  15.341  3.0702  0.4236 -0.5010
 7438SOL     OW33946   2.298   1.258   6.709 -0.4870 -1.0384  0.2890
 7438SOL    HW133947   2.250   1.269   6.791 -1.7728 -0.3558 -0.5488
 7438SOL    HW233948   2.228   1.215   6.661 -1.3203 -0.0134  0.5859
 7439SOL     OW33949   0.820   1.267  10.098 -0.8578  0.1080 -0.3146
 7439SOL    HW133950   0.794   1.190  10.149  0.1867  1.0630  1.6260
 7439SOL    HW233951   0.754   1.274  10.028 -1.8319  0.3369  0.6253
 7440SOL     OW33952   1.392   4.186   1.398  0.0065  0.4578 -0.0448
 7440SOL    HW133953   1.365   4.267   1.355  0.3863  1.3241  1.3572
 7440SOL    HW233954   1.424   4.210   1.485 -1.9184  2.3761  0.1397
 7441SOL     OW33955   1.272   3.549  11.409 -0.6476 -0.1413 -0.6159
 7441SOL    HW133956   1.240   3.632  11.374 -1.1413 -0.5090 -1.0356
 7441SOL    HW233957   1.365   3.570  11.408 -0.4857 -0.8648 -0.2208
 7442SOL     OW33958   0.145   4.061   6.014 -0.0876  0.1456 -0.0939
 7442SOL    HW133959   0.113   4.030   5.930  0.2781 -1.0884  0.2256
 7442SOL    HW233960   0.152   4.156   6.003 -1.5577  0.3042  0.3214
 7443SOL     OW33961   2.366   3.147   3.165 -0.0215 -0.9090 -0.4907
 7443SOL    HW133962   2.271   3.136   3.154 -0.3305 -0.1191  1.3539
 7443SOL    HW233963   2.362   3.134   3.260 -2.8906 -2.2640 -0.7854
 7444SOL     OW33964   2.831   3.429   6.862 -0.0438  0.4326 -0.4865
 7444SOL    HW133965   2.812   3.427   6.769 -2.0348  1.4702 -0.0933
 7444SOL    HW233966   2.926   3.447   6.861  0.0226  0.0276 -1.3890
 7445SOL     OW33967   2.175   4.216   8.441 -0.3040 -0.0924 -0.2504
 7445SOL    HW133968   2.188   4.189   8.351  0.2553 -0.5032 -0.0482
 7445SOL    HW233969   2.084   4.188   8.455  0.2484 -2.0430 -0.6237
 7446SOL     OW33970   3.913   0.510  10.941  0.1530 -0.1267  0.3420
 7446SOL    HW133971   3.841   0.449  10.928  0.8123 -0.1839 -2.9973
 7446SOL    HW233972   3.884   0.592  10.900 -0.9417 -1.5963 -1.7726
 7447SOL     OW33973   0.633   1.640   2.586 -0.2256  0.0296 -0.0962
 7447SOL    HW133974   0.719   1.644   2.546  1.2729 -0.2215  3.0608
 7447SOL    HW233975   0.628   1.715   2.646 -2.0527 -0.3159  0.1981
 7448SOL     OW33976   0.065   0.949  16.246 -0.1183  0.0894 -0.0958
 7448SOL    HW133977   4.732   0.929  16.186 -0.5383  1.4385 -0.0369
 7448SOL    HW233978   0.130   0.992  16.191  0.1409 -0.6686 -0.3811
 7449SOL     OW33979   4.660   0.445   9.159 -0.3473  0.0782 -0.4413
 7449SOL    HW133980   4.578   0.395   9.169 -0.1283  0.1562  1.9177
 7449SOL    HW233981   4.712   0.409   9.231  1.1088  2.4487 -0.3044
 7450SOL     OW33982   2.759   1.609   4.526 -1.0136  0.0020 -0.6725
 7450SOL    HW133983   2.697   1.680   4.540 -0.9628  0.0336 -0.6082
 7450SOL    HW233984   2.819   1.625   4.599  0.6505  0.4859 -2.1503
 7451SOL     OW33985   4.334   2.795   2.953 -0.1320 -0.4392 -0.2340
 7451SOL    HW133986   4.426   2.772   2.967  0.0336  1.0325  1.1037
 7451SOL    HW233987   4.288   2.750   3.024  0.7333 -1.2093 -0.1569
 7452SOL     OW33988   2.376   1.868   1.333  0.2118 -0.0598 -0.6819
 7452SOL    HW133989   2.282   1.852   1.329  0.5020 -0.8857 -4.4846
 7452SOL    HW233990   2.403   1.792   1.383 -0.4890  0.9004  1.1475
 7453SOL     OW33991   2.525   3.569   5.853 -0.4431 -0.0135  0.1953
 7453SOL    HW133992   2.443   3.542   5.811  0.2388 -1.1726 -0.4035
 7453SOL    HW233993   2.501   3.606   5.938  3.6353  4.9008 -0.8492
 7454SOL     OW33994   0.449   1.380   6.656 -0.0459 -0.0232  0.1392
 7454SOL    HW133995   0.409   1.398   6.741  0.9939 -1.0029  0.8340
 7454SOL    HW233996   0.381   1.421   6.602  0.5464  0.8374  0.0516
 7455SOL     OW33997   2.334   2.824   0.739 -0.4096 -0.0404 -0.5331
 7455SOL    HW133998   2.266   2.807   0.674 -0.9304 -1.0685  0.2867
 7455SOL    HW233999   2.351   2.734   0.767 -0.0690  0.2630  0.2512
 7456SOL     OW34000   2.796   2.253   1.902  0.6198  0.5861 -0.9585
 7456SOL    HW134001   2.809   2.342   1.934 -1.1992 -0.3971  2.5092
 7456SOL    HW234002   2.735   2.221   1.969  2.0660 -0.0049  0.0731
 7457SOL     OW34003   0.376   2.487   4.222 -0.7123 -0.7811  0.0878
 7457SOL    HW134004   0.392   2.582   4.219 -1.9973 -0.5390  0.9507
 7457SOL    HW234005   0.465   2.456   4.206 -0.3959  0.7581 -1.1114
 7458SOL     OW34006   2.627   0.128   3.037 -0.1563 -0.0795  0.3761
 7458SOL    HW134007   2.625   0.055   3.099  1.3201 -1.3962 -1.0957
 7458SOL    HW234008   2.675   0.192   3.089  1.0466  0.2194 -1.0968
 7459SOL     OW34009   4.446   0.509  13.456  0.2022 -0.0557 -0.2149
 7459SOL    HW134010   4.477   0.453  13.528 -1.0346  1.8238  1.7929
 7459SOL    HW234011   4.465   0.599  13.485  1.2261  0.0964 -1.3405
 7460SOL     OW34012   1.735   4.392   9.302  0.6128  0.5444 -0.1847
 7460SOL    HW134013   1.736   4.380   9.397 -0.0839 -1.7272 -0.4580
 7460SOL    HW234014   1.823   4.430   9.298  1.0137 -0.5301 -1.7269
 7461SOL     OW34015   3.436   2.177   8.670  0.5558  0.5420  0.0309
 7461SOL    HW134016   3.526   2.210   8.670  0.4208  0.9222 -0.6873
 7461SOL    HW234017   3.449   2.106   8.733 -0.9649  1.2299  1.0952
 7462SOL     OW34018   1.214   3.260  17.065  0.1399  0.9126 -0.6565
 7462SOL    HW134019   1.276   3.187  17.065 -3.0689 -1.8339  0.7816
 7462SOL    HW234020   1.204   3.276  16.972  2.5216  0.0282 -1.0530
 7463SOL     OW34021   0.487   0.572   0.462 -0.0044 -0.3466  0.0465
 7463SOL    HW134022   0.471   0.493   0.410  0.5161 -0.3143 -0.1614
 7463SOL    HW234023   0.564   0.548   0.513 -0.9826  1.7354  2.5273
 7464SOL     OW34024   0.205   0.156   0.476  0.0322 -0.2480  0.4325
 7464SOL    HW134025   0.193   0.117   0.389 -0.1090 -1.2838  0.9192
 7464SOL    HW234026   0.155   0.095   0.531 -1.8738 -0.4562 -1.5210
 7465SOL     OW34027   1.131   3.524   4.941 -0.1797  0.1836 -0.2616
 7465SOL    HW134028   1.148   3.450   5.000 -0.0501  0.6463  0.2772
 7465SOL    HW234029   1.134   3.594   5.006 -0.0378 -0.8739  0.8942
 7466SOL     OW34030   2.493   4.668   4.663 -0.7776 -0.0731 -0.0586
 7466SOL    HW134031   2.556   4.726   4.622  0.2958 -0.3739  1.1786
 7466SOL    HW234032   2.418   4.683   4.605  0.2846  1.4611 -1.0166
 7467SOL     OW34033   1.068   0.380   4.793 -0.4854  0.5125 -0.4919
 7467SOL    HW134034   1.115   0.432   4.859 -0.2047 -0.9308  0.4592
 7467SOL    HW234035   1.011   0.325   4.847  0.7176 -0.8489 -0.6071
 7468SOL     OW34036   1.577   0.828  11.030 -0.1956 -0.2034 -0.4165
 7468SOL    HW134037   1.605   0.918  11.015  0.5080 -0.5146 -0.9485
 7468SOL    HW234038   1.656   0.787  11.064 -1.8030 -2.3217  0.7638
 7469SOL     OW34039   1.489   2.007  14.008 -0.2067 -0.6511  0.1377
 7469SOL    HW134040   1.430   1.987  13.936 -1.0729  0.9945  0.4002
 7469SOL    HW234041   1.417   2.013  14.071 -1.5329 -0.6984 -1.3795
 7470SOL     OW34042   2.620   3.115  15.476  0.1139 -0.2698  0.4362
 7470SOL    HW134043   2.705   3.072  15.481 -0.3468 -1.0383  1.7208
 7470SOL    HW234044   2.647   3.192  15.425 -1.8775  0.4078  0.3772
 7471SOL     OW34045   4.337   1.621   7.637 -0.6109  0.2815 -0.7189
 7471SOL    HW134046   4.371   1.586   7.555  0.2100  1.3437 -0.8367
 7471SOL    HW234047   4.304   1.541   7.677 -0.2532  1.5987  2.1736
 7472SOL     OW34048   4.717   2.100  12.792  0.4769 -0.9920  0.8230
 7472SOL    HW134049   4.677   2.178  12.830  0.6672 -1.3917  1.8434
 7472SOL    HW234050   0.041   2.118  12.722  0.2269 -0.2669  0.7848
 7473SOL     OW34051   4.427   4.254   5.985 -0.7553 -0.3882 -0.4147
 7473SOL    HW134052   4.483   4.262   6.062 -2.5881 -1.0768  1.0087
 7473SOL    HW234053   4.339   4.243   6.021 -0.2430 -0.4414  0.8030
 7474SOL     OW34054   2.227   1.067   4.515  0.5211 -0.1500 -0.2905
 7474SOL    HW134055   2.253   1.044   4.604 -0.7049 -3.4284 -0.7866
 7474SOL    HW234056   2.133   1.077   4.507  0.7187  1.2503 -0.9098
 7475SOL     OW34057   3.255   4.526   7.697 -0.0990 -0.0550 -0.2805
 7475SOL    HW134058   3.306   4.599   7.660  0.4700  0.0250  0.6696
 7475SOL    HW234059   3.226   4.563   7.780 -0.8615  0.7256 -0.8974
 7476SOL     OW34060   0.329   3.524   7.222 -0.5949 -0.1539 -0.2723
 7476SOL    HW134061   0.398   3.586   7.200 -0.8967 -0.9751 -3.4671
 7476SOL    HW234062   0.259   3.539   7.158  0.7212  0.3767 -1.5780
 7477SOL     OW34063   1.313   2.141   8.102 -0.1026 -0.0754 -0.2050
 7477SOL    HW134064   1.360   2.070   8.058  0.1457  0.0421 -0.1303
 7477SOL    HW234065   1.394   2.156   8.151  0.0203  2.5231 -1.2352
 7478SOL     OW34066   3.301   4.040   2.023 -0.4640 -0.4290  0.3596
 7478SOL    HW134067   3.380   3.986   2.028  1.2398  2.1110  0.8236
 7478SOL    HW234068   3.254   4.005   1.947  0.6633  0.5104 -0.7598
 7479SOL     OW34069   4.414   1.730   0.578 -0.3338 -0.1804 -0.1239
 7479SOL    HW134070   4.373   1.789   0.642 -0.2898  1.1267 -1.3040
 7479SOL    HW234071   4.481   1.787   0.541  0.3496 -0.9438 -0.0534
 7480SOL     OW34072   4.423   0.842   6.499 -0.4603 -0.1271 -0.3115
 7480SOL    HW134073   4.409   0.796   6.581 -0.0020 -2.0897 -1.3297
 7480SOL    HW234074   4.334   0.844   6.464 -1.2495 -2.2238  1.5681
 7481SOL     OW34075   2.271   0.735   7.478 -0.2488 -0.2096  0.3759
 7481SOL    HW134076   2.248   0.659   7.532  1.8846 -0.1290  1.4139
 7481SOL    HW234077   2.264   0.707   7.387 -0.3087  0.3375  0.2106
 7482SOL     OW34078   4.437   4.350  10.448  0.1601  0.1044 -0.3423
 7482SOL    HW134079   4.517   4.399  10.428  0.2474  0.3994  0.7232
 7482SOL    HW234080   4.425   4.294  10.371  1.3922 -2.9244  1.7006
 7483SOL     OW34081   1.222   3.666  14.870  0.0983  0.4601 -0.3907
 7483SOL    HW134082   1.286   3.626  14.930 -0.7925 -1.9483 -1.0245
 7483SOL    HW234083   1.270   3.680  14.789 -0.9186  1.6288 -0.7820
 7484SOL     OW34084   2.176   4.447  13.771  0.3776 -0.1686  0.0977
 7484SOL    HW134085   2.122   4.476  13.845  1.0823  1.1351  0.1099
 7484SOL    HW234086   2.212   4.370  13.814 -3.6108 -1.4093  1.2341
 7485SOL     OW34087   3.682   1.902   5.127 -0.0557 -0.3776 -0.7454
 7485SOL    HW134088   3.627   1.841   5.175  1.2997  0.5647  1.9896
 7485SOL    HW234089   3.767   1.861   5.142  0.2311  0.2697 -0.6096
 7486SOL     OW34090   2.044   0.462  10.728  0.1810 -0.0861 -0.6677
 7486SOL    HW134091   2.008   0.524  10.664  1.4002  1.7641  0.4397
 7486SOL    HW234092   2.075   0.525  10.793  0.7014 -0.8083 -0.2160
 7487SOL     OW34093   2.389   2.726   9.197 -0.4746 -0.7705 -0.0691
 7487SOL    HW134094   2.311   2.686   9.159 -0.6054  0.1253 -0.7668
 7487SOL    HW234095   2.400   2.671   9.274 -0.1428 -0.1189  0.3444
 7488SOL     OW34096   0.726   2.687   6.201 -0.5801 -0.0328 -0.0312
 7488SOL    HW134097   0.789   2.616   6.190  0.1103  0.1801  2.4808
 7488SOL    HW234098   0.654   2.631   6.171  0.5008 -1.1982 -0.4598
 7489SOL     OW34099   1.519   2.616   6.555  0.0375  0.0556  0.8155
 7489SOL    HW134100   1.467   2.536   6.550 -1.5739  1.2697 -2.3420
 7489SOL    HW234101   1.572   2.604   6.476 -1.8387 -2.4027 -0.0647
 7490SOL     OW34102   1.588   3.961   6.172 -0.3118  0.1966 -0.5716
 7490SOL    HW134103   1.607   3.939   6.263 -2.8166 -1.1029 -0.3697
 7490SOL    HW234104   1.664   4.015   6.150 -0.2234  0.2063 -0.2395
 7491SOL     OW34105   4.035   0.747   7.379 -0.3138  0.5957  0.4002
 7491SOL    HW134106   4.117   0.699   7.374 -0.0180  1.0996  0.3794
 7491SOL    HW234107   3.988   0.666   7.359 -2.6491  1.6722  1.5378
 7492SOL     OW34108   4.590   2.657   7.253  0.4021 -0.1238  0.2045
 7492SOL    HW134109   4.506   2.622   7.224  0.2166 -0.6594  1.3811
 7492SOL    HW234110   4.589   2.626   7.343  0.1770 -0.4520  0.0876
 7493SOL     OW34111   3.380   2.136  12.760 -0.2619  0.7459 -0.3691
 7493SOL    HW134112   3.326   2.211  12.735  2.9940  2.8688 -1.1694
 7493SOL    HW234113   3.454   2.142  12.700  1.8352 -0.1506  2.1220
 7494SOL     OW34114   3.274   0.660   3.160 -0.1675 -0.2509 -0.2023
 7494SOL    HW134115   3.269   0.580   3.108 -0.4350 -0.6076  0.3729
 7494SOL    HW234116   3.185   0.683   3.187 -0.5454 -2.6330  0.5671
 7495SOL     OW34117   1.663   4.348   3.075  0.8582 -0.0318 -0.6144
 7495SOL    HW134118   1.721   4.346   2.999  1.6498 -0.3602 -0.0149
 7495SOL    HW234119   1.711   4.280   3.123  0.7714  1.2903  1.3587
 7496SOL     OW34120   1.599   0.333   3.853 -0.2763 -0.3419 -0.2887
 7496SOL    HW134121   1.505   0.350   3.861 -0.4643 -0.7164 -1.6592
 7496SOL    HW234122   1.635   0.383   3.926 -0.7028 -1.3045  0.5858
 7497SOL     OW34123   1.780   0.596   4.341 -0.5063  0.1358  0.5203
 7497SOL    HW134124   1.866   0.627   4.368 -0.5923 -0.9629  2.0554
 7497SOL    HW234125   1.742   0.684   4.340 -0.4811  0.1668  1.7740
 7498SOL     OW34126   3.488   3.113   5.579 -0.3818 -0.9397  0.0150
 7498SOL    HW134127   3.452   3.160   5.504 -2.4467 -2.3865  0.1265
 7498SOL    HW234128   3.410   3.073   5.616  1.5337 -1.9702  2.9992
 7499SOL     OW34129   2.887   2.003  11.283  0.5253 -0.1657 -0.0401
 7499SOL    HW134130   2.912   1.930  11.340 -2.5637 -0.0072  1.5618
 7499SOL    HW234131   2.891   1.957  11.199  0.1560 -1.6098  0.7265
 7500SOL     OW34132   0.852   0.095   6.145 -0.4775 -0.4446  0.2425
 7500SOL    HW134133   0.875   0.187   6.135 -1.0830 -0.4048 -0.7293
 7500SOL    HW234134   0.928   0.047   6.111  0.1092  0.8561 -0.2687
 7501SOL     OW34135   1.869   2.104   2.776 -0.6990 -0.0059  0.0859
 7501SOL    HW134136   1.810   2.133   2.845 -0.7769 -0.7815  0.3439
 7501SOL    HW234137   1.956   2.112   2.816 -0.0825 -2.7155 -0.7147
 7502SOL     OW34138   2.545   1.809   8.876 -0.0855  0.8280  0.1885
 7502SOL    HW134139   2.547   1.720   8.840 -2.2608  0.2431  1.5292
 7502SOL    HW234140   2.577   1.855   8.799 -0.0276 -0.2040 -0.3981
 7503SOL     OW34141   3.479   0.462   7.226 -0.4231  0.4833 -0.9355
 7503SOL    HW134142   3.546   0.530   7.219 -0.7423  0.8147 -0.7778
 7503SOL    HW234143   3.485   0.424   7.138 -0.3080 -0.0168 -0.7110
 7504SOL     OW34144   0.745   1.273  12.754 -0.1693 -0.0603 -0.2916
 7504SOL    HW134145   0.790   1.258  12.837 -3.2129  0.5448  1.4643
 7504SOL    HW234146   0.653   1.274  12.781 -0.2440  0.6534 -0.5793
 7505SOL     OW34147   3.785   4.144   9.094 -0.0891  0.5808 -0.0766
 7505SOL    HW134148   3.863   4.094   9.072  1.4090  2.7437  0.3242
 7505SOL    HW234149   3.821   4.231   9.109 -0.8993  0.9415 -0.2529
 7506SOL     OW34150   3.155   1.157   9.010 -0.3911  0.0832 -0.1094
 7506SOL    HW134151   3.068   1.146   8.972 -0.4358 -3.1732  0.9620
 7506SOL    HW234152   3.124   1.194   9.093  2.0567 -2.3405  1.8786
 7507SOL     OW34153   2.933   3.490  17.330 -0.2538 -0.2430 -0.0547
 7507SOL    HW134154   2.921   3.577  17.369  0.1060  0.0246 -0.5363
 7507SOL    HW234155   2.996   3.511  17.260 -2.6255  2.5240 -1.3732
 7508SOL     OW34156   2.557   3.569  17.392 -0.5319 -0.0158 -0.5205
 7508SOL    HW134157   2.469   3.539  17.368 -0.4724 -0.5604 -0.0420
 7508SOL    HW234158   2.590   3.608  17.311 -1.4189 -1.3925 -1.5457
 7509SOL     OW34159   0.662   1.505   4.641 -0.1310  1.0884 -0.2261
 7509SOL    HW134160   0.588   1.563   4.661 -0.8320 -0.2003  0.9036
 7509SOL    HW234161   0.710   1.492   4.723  0.4962 -3.0887 -1.2970
 7510SOL     OW34162   1.943   3.539   4.090 -0.6704 -0.1158  0.3791
 7510SOL    HW134163   1.951   3.451   4.053  0.3051  0.6322 -1.1774
 7510SOL    HW234164   2.023   3.539   4.144 -0.5666 -0.7334  0.2217
 7511SOL     OW34165   1.805   2.719   8.839  0.0151 -0.2302 -0.2810
 7511SOL    HW134166   1.867   2.775   8.792 -0.2334 -3.2240 -4.1393
 7511SOL    HW234167   1.804   2.637   8.790  0.6905 -0.2452 -0.2688
 7512SOL     OW34168   0.584   1.156   6.545 -0.0052 -0.2696 -0.2121
 7512SOL    HW134169   0.535   1.225   6.591 -1.5453 -0.8190 -1.0199
 7512SOL    HW234170   0.558   1.079   6.596  3.2892 -2.2713 -1.5847
 7513SOL     OW34171   1.206   3.779   7.677 -0.1048  0.0644  0.0280
 7513SOL    HW134172   1.201   3.858   7.731 -1.4016 -0.1725  0.2586
 7513SOL    HW234173   1.176   3.814   7.593  0.5494  1.1863  0.2547
 7514SOL     OW34174   4.079   3.524  13.775  0.5037 -0.0768  0.0543
 7514SOL    HW134175   4.022   3.472  13.832  0.1102 -0.4511 -0.6740
 7514SOL    HW234176   4.122   3.572  13.846  0.3440  0.6059 -0.3161
 7515SOL     OW34177   3.693   0.132   2.891 -0.1128 -0.1183  0.4066
 7515SOL    HW134178   3.749   0.074   2.944  1.6406  1.3775  0.1880
 7515SOL    HW234179   3.751   0.208   2.882 -0.6571  0.2870  0.3819
 7516SOL     OW34180   4.524   3.895  15.340 -0.3106  0.7541  0.6654
 7516SOL    HW134181   4.480   3.871  15.259 -0.3175 -1.0767  1.2112
 7516SOL    HW234182   4.603   3.942  15.315  1.5362 -1.7604  1.6852
 7517SOL     OW34183   2.500   3.050   6.690  0.1915  0.5467  0.7831
 7517SOL    HW134184   2.424   3.023   6.742 -0.0712 -1.8493 -0.8642
 7517SOL    HW234185   2.477   3.143   6.679 -1.8159 -0.2190 -1.4870
 7518SOL     OW34186   2.351   3.238   5.318  0.4162  0.2175 -0.5347
 7518SOL    HW134187   2.395   3.312   5.361 -0.5334  0.1052  0.6263
 7518SOL    HW234188   2.371   3.253   5.226 -2.2302  1.8460 -0.8328
 7519SOL     OW34189   1.487   0.415   4.998  0.1644  0.4347 -0.4526
 7519SOL    HW134190   1.535   0.418   5.081  1.2309 -2.4158 -0.9778
 7519SOL    HW234191   1.407   0.466   5.013 -0.9121 -0.9992 -1.3386
 7520SOL     OW34192   2.415   2.748   3.387  0.1424  0.2301 -0.1073
 7520SOL    HW134193   2.399   2.798   3.466 -0.1346  0.9998 -0.6553
 7520SOL    HW234194   2.326   2.739   3.352 -0.0217  0.8384  0.1541
 7521SOL     OW34195   0.880   2.061   8.389 -1.0788  0.0373 -0.2083
 7521SOL    HW134196   0.870   2.138   8.333  1.8735 -0.1096 -0.9007
 7521SOL    HW234197   0.936   2.094   8.459 -1.4872 -0.8805  0.5542
 7522SOL     OW34198   3.068   0.238  10.487 -0.1267 -0.4607 -0.5125
 7522SOL    HW134199   3.111   0.185  10.420 -1.1032 -1.9184  0.0098
 7522SOL    HW234200   2.999   0.181  10.521 -1.8351  0.9701 -1.6341
 7523SOL     OW34201   4.486   2.721   4.936 -0.6895 -0.0117  0.3177
 7523SOL    HW134202   4.415   2.761   4.987  0.1302  0.9462  0.6976
 7523SOL    HW234203   4.447   2.706   4.850  1.1007  1.1433 -0.6765
 7524SOL     OW34204   0.254   1.759   5.049 -0.2692 -0.0921  0.1523
 7524SOL    HW134205   0.242   1.760   5.144 -0.4792  0.3362  0.1200
 7524SOL    HW234206   0.201   1.681   5.032 -1.2225  0.5706  0.0836
 7525SOL     OW34207   4.575   1.286  17.024  0.3546  0.2597  0.0300
 7525SOL    HW134208   4.645   1.342  16.990  0.0051 -0.5080 -1.9708
 7525SOL    HW234209   4.516   1.269  16.951 -0.9449  0.2307  1.0932
 7526SOL     OW34210   4.164   2.104   9.827 -0.0824 -0.2670  0.3394
 7526SOL    HW134211   4.126   2.100   9.739 -0.5512  2.0444  0.4336
 7526SOL    HW234212   4.103   2.149   9.885 -1.0187 -0.3495 -0.5871
 7527SOL     OW34213   1.454   4.223   3.205 -0.1104  0.1220  0.3428
 7527SOL    HW134214   1.514   4.295   3.191 -0.8167  0.9323  1.5076
 7527SOL    HW234215   1.426   4.237   3.295  0.1911  0.8109  0.3268
 7528SOL     OW34216   0.454   4.306   6.027  0.3157 -0.2492  0.3920
 7528SOL    HW134217   0.477   4.219   5.996  1.8100  0.0556  0.6180
 7528SOL    HW234218   0.360   4.299   6.043  0.0580 -0.3515 -1.2201
 7529SOL     OW34219   2.962   4.575   2.220 -0.1062  0.6899  0.4174
 7529SOL    HW134220   2.992   4.527   2.297  0.6606  3.1490  1.6220
 7529SOL    HW234221   3.039   4.628   2.200  1.2592 -0.4329  2.6658
 7530SOL     OW34222   4.170   1.433   4.497  0.3835  0.1351  0.5337
 7530SOL    HW134223   4.213   1.367   4.443 -0.4845 -0.8506  1.0278
 7530SOL    HW234224   4.114   1.475   4.432 -0.0294  0.0179  0.8110
 7531SOL     OW34225   1.924   4.616   8.782 -0.1035 -0.3695 -0.6841
 7531SOL    HW134226   1.938   4.646   8.871  1.0407  1.4954 -1.4837
 7531SOL    HW234227   2.008   4.641   8.743  0.3859 -0.0711  0.5801
 7532SOL     OW34228   4.588   1.143   8.999 -0.3166  0.3926 -0.1724
 7532SOL    HW134229   4.496   1.149   8.974 -0.1634 -1.0667 -1.0636
 7532SOL    HW234230   4.590   1.112   9.090 -1.1946  2.9855  0.7282
 7533SOL     OW34231   0.771   4.325  12.466 -0.0550 -0.5671  0.3499
 7533SOL    HW134232   0.733   4.243  12.497  0.4150 -0.8697  0.1361
 7533SOL    HW234233   0.759   4.312  12.372 -2.6049  0.5078  0.5452
 7534SOL     OW34234   1.968   1.607   0.178 -0.0397  0.2156 -0.1669
 7534SOL    HW134235   2.016   1.532   0.145  0.9160  0.1471  1.4024
 7534SOL    HW234236   1.907   1.618   0.105  0.8866 -1.0054 -1.1065
 7535SOL     OW34237   1.351   4.009   3.958 -0.3831  0.0953  0.0127
 7535SOL    HW134238   1.428   3.966   3.996 -1.2403 -3.0565 -1.7688
 7535SOL    HW234239   1.364   4.103   3.967  1.2235 -0.1758  0.4387
 7536SOL     OW34240   1.786   2.824   4.862  0.3829  0.4848  0.2417
 7536SOL    HW134241   1.793   2.919   4.847  0.5036  0.3463 -0.5942
 7536SOL    HW234242   1.763   2.820   4.954  2.3547  0.6245  0.7441
 7537SOL     OW34243   1.459   2.172   4.971 -0.7420 -0.1967  0.9166
 7537SOL    HW134244   1.417   2.201   4.890 -0.5584  1.9193  1.5779
 7537SOL    HW234245   1.529   2.119   4.933 -1.1927  0.6945 -1.1217
 7538SOL     OW34246   2.669   0.660   4.938 -0.1774  0.6354  0.4671
 7538SOL    HW134247   2.651   0.566   4.943 -1.0752  0.7942  0.1821
 7538SOL    HW234248   2.641   0.677   4.848 -0.5716  0.5015  0.5636
 7539SOL     OW34249   3.118   3.178   8.564 -0.2792  0.3580  0.2194
 7539SOL    HW134250   3.199   3.173   8.513 -1.0365  2.1202 -1.1691
 7539SOL    HW234251   3.084   3.091   8.542  0.2906  0.8642 -2.7132
 7540SOL     OW34252   0.596   4.201  12.867 -0.2925 -0.3854  0.2559
 7540SOL    HW134253   0.691   4.212  12.869  0.0561 -2.9691 -1.5983
 7540SOL    HW234254   0.557   4.278  12.909 -0.2762 -0.3021  0.1158
 7541SOL     OW34255   1.957   3.207   6.988 -0.0719 -0.2627 -0.0512
 7541SOL    HW134256   1.943   3.299   6.964 -0.3289 -0.5210 -0.8846
 7541SOL    HW234257   2.045   3.209   7.025 -0.4061  0.0707  0.7305
 7542SOL     OW34258   0.385   1.244   1.690  0.2207  0.0299  0.2305
 7542SOL    HW134259   0.475   1.278   1.694 -0.3302  1.5604 -0.2252
 7542SOL    HW234260   0.386   1.185   1.765  3.0272  0.1982  0.3380
 7543SOL     OW34261   4.410   4.587   7.656  0.4423 -0.2839 -0.0628
 7543SOL    HW134262   4.326   4.544   7.643  0.5503 -1.1260  2.1902
 7543SOL    HW234263   4.403   4.659   7.593  0.2939  0.6008  0.9713
 7544SOL     OW34264   1.165   1.044  13.678 -0.4294 -0.4315  0.2962
 7544SOL    HW134265   1.245   1.025  13.727 -0.3167  0.1582  0.3407
 7544SOL    HW234266   1.099   1.028  13.747 -0.6247  0.9931  0.4475
 7545SOL     OW34267   3.683   0.784  12.598  0.4690 -0.3650 -0.3025
 7545SOL    HW134268   3.755   0.843  12.620 -1.5986  1.9414  0.3207
 7545SOL    HW234269   3.719   0.754  12.514  1.2031  0.0082 -0.1210
 7546SOL     OW34270   2.386   1.074  16.296 -0.2947 -0.5441 -0.2850
 7546SOL    HW134271   2.435   1.014  16.352 -1.1326 -2.0595 -1.1393
 7546SOL    HW234272   2.302   1.026  16.295 -0.9997  0.6922 -0.6082
 7547SOL     OW34273   0.883   4.351  15.603 -0.5144  0.3367 -0.0735
 7547SOL    HW134274   0.930   4.422  15.560  2.0599  0.8777  3.6283
 7547SOL    HW234275   0.862   4.391  15.687  0.5590  1.3242 -0.2812
 7548SOL     OW34276   4.403   1.061  12.649  0.4304 -0.5822 -0.3591
 7548SOL    HW134277   4.498   1.063  12.648  0.4485 -0.8769  0.6574
 7548SOL    HW234278   4.382   1.104  12.732 -0.2533 -0.5538 -0.5416
 7549SOL     OW34279   0.466   0.723   7.779 -0.1248 -0.1602 -0.6273
 7549SOL    HW134280   0.550   0.760   7.750 -0.7128  2.6610  1.3304
 7549SOL    HW234281   0.403   0.745   7.710 -1.0649  1.4132  0.7533
 7550SOL     OW34282   3.927   3.334  12.674  0.3521  1.2489 -0.5150
 7550SOL    HW134283   3.854   3.378  12.719  1.1973  1.4328  0.6859
 7550SOL    HW234284   3.915   3.240  12.685  0.2171  0.9505 -3.2014
 7551SOL     OW34285   2.552   0.490  15.391 -0.3191 -0.4214  0.1296
 7551SOL    HW134286   2.508   0.416  15.349  0.5998 -1.6145  1.2713
 7551SOL    HW234287   2.484   0.555  15.407  0.6778  0.6673 -0.1029
 7552SOL     OW34288   2.354   4.250   8.658 -0.3058 -0.1545 -0.0434
 7552SOL    HW134289   2.305   4.176   8.695 -0.1490  0.2499  0.9840
 7552SOL    HW234290   2.291   4.278   8.591 -0.4960 -1.4046 -0.3914
 7553SOL     OW34291   2.705   2.747   5.323 -0.3587  0.9966 -0.5400
 7553SOL    HW134292   2.686   2.664   5.366 -1.2599  1.8324  0.6661
 7553SOL    HW234293   2.690   2.722   5.231  0.2146 -0.3934 -0.2610
 7554SOL     OW34294   0.168   1.014   4.872 -0.6820  0.1591  0.4951
 7554SOL    HW134295   0.134   1.005   4.783  0.8352  0.2135 -0.0791
 7554SOL    HW234296   0.153   0.924   4.903 -0.5677 -0.2518 -0.6357
 7555SOL     OW34297   0.484   1.513   4.961  0.1844 -0.4850  0.8999
 7555SOL    HW134298   0.520   1.601   4.945 -2.1809 -0.2471 -3.2233
 7555SOL    HW234299   0.540   1.498   5.038  1.1293  0.1309  0.3445
 7556SOL     OW34300   1.457   0.206   5.972  0.0832 -0.3987  0.1285
 7556SOL    HW134301   1.400   0.135   5.942  0.6675 -0.1785 -1.5000
 7556SOL    HW234302   1.507   0.150   6.032  1.2318  2.3408  1.6938
 7557SOL     OW34303   2.233   1.277  11.538 -0.5429  0.4713  0.1060
 7557SOL    HW134304   2.314   1.309  11.499  0.2653  0.7565  2.0234
 7557SOL    HW234305   2.205   1.352  11.591 -0.7121  0.6139 -0.1861
 7558SOL     OW34306   1.101   1.224   1.799  0.3773 -0.3555  0.2531
 7558SOL    HW134307   1.124   1.252   1.887  2.4776 -2.3496  0.3411
 7558SOL    HW234308   1.147   1.294   1.752 -1.0313  0.0446 -0.5435
 7559SOL     OW34309   3.557   4.707   5.634  0.8102  0.0536  0.0133
 7559SOL    HW134310   3.568   4.624   5.681 -1.0678  0.5567  1.3204
 7559SOL    HW234311   3.501   0.013   5.698 -2.4927 -1.0450 -2.1316
 7560SOL     OW34312   2.862   2.047   4.030 -0.7287 -0.0652 -0.2643
 7560SOL    HW134313   2.808   2.002   3.966  1.5505  0.3530 -2.4358
 7560SOL    HW234314   2.906   1.975   4.074  1.1570  1.9915  1.2454
 7561SOL     OW34315   4.652   1.568   8.573 -1.1926 -0.4134  0.6113
 7561SOL    HW134316   0.009   1.580   8.580 -1.5604  1.2962  2.5907
 7561SOL    HW234317   4.639   1.485   8.618  2.0280 -1.3254 -0.1101
 7562SOL     OW34318   0.820   1.365   2.645 -0.0320 -0.3155  0.0443
 7562SOL    HW134319   0.814   1.322   2.560 -0.3427 -1.3124  0.5642
 7562SOL    HW234320   0.780   1.450   2.632 -1.7646 -0.8793  1.6196
 7563SOL     OW34321   1.894   4.280   7.884 -0.2528 -0.0540 -0.0487
 7563SOL    HW134322   1.868   4.337   7.812 -0.5019  0.6154  0.5701
 7563SOL    HW234323   1.852   4.319   7.961 -1.6108 -0.8143 -0.3889
 7564SOL     OW34324   3.058   2.404   5.479 -0.3887 -0.1761  0.3630
 7564SOL    HW134325   3.120   2.381   5.548  0.6889 -0.5362 -0.7246
 7564SOL    HW234326   3.105   2.478   5.439  1.5492 -1.3448  0.4658
 7565SOL     OW34327   1.680   0.438  13.450  0.2669 -0.8494  0.4223
 7565SOL    HW134328   1.679   0.451  13.355 -0.3664  0.7914  0.6538
 7565SOL    HW234329   1.589   0.454  13.473 -0.4753  0.2637 -3.2155
 7566SOL     OW34330   1.178   0.971   1.838 -0.2924  0.0796  0.3696
 7566SOL    HW134331   1.133   1.050   1.810 -1.0526 -0.7419 -0.7157
 7566SOL    HW234332   1.110   0.943   1.899  0.9813 -0.9026  1.3667
 7567SOL     OW34333   4.124   1.137   0.070  0.3159 -0.3461 -0.0320
 7567SOL    HW134334   4.122   1.060   0.013 -2.5735 -1.2551  1.3178
 7567SOL    HW234335   4.139   1.200  17.751 -1.4429 -0.2297 -0.3021
 7568SOL     OW34336   4.218   2.110   9.082  0.8385 -0.2988  0.5006
 7568SOL    HW134337   4.239   2.056   9.007 -1.7571  0.3059 -0.6817
 7568SOL    HW234338   4.207   2.197   9.043 -2.1885 -0.3673  1.1843
 7569SOL     OW34339   4.454   1.088   7.542  0.1545  0.5350  0.5735
 7569SOL    HW134340   4.455   1.171   7.589 -0.3633  0.4546  0.7316
 7569SOL    HW234341   4.547   1.064   7.545 -0.4570 -2.1731 -1.9985
 7570SOL     OW34342   1.228   3.396  10.353 -0.7352  0.3315 -0.6234
 7570SOL    HW134343   1.264   3.442  10.277 -0.0766  0.1314 -0.4298
 7570SOL    HW234344   1.132   3.395  10.351 -0.8339 -2.0959  4.2909
 7571SOL     OW34345   4.477   2.196   8.510 -0.1574 -0.4870 -0.4560
 7571SOL    HW134346   4.540   2.156   8.450  0.1491 -1.3038  0.4126
 7571SOL    HW234347   4.517   2.281   8.530  1.9542 -1.8258  0.9883
 7572SOL     OW34348   2.226   4.257   7.189  0.5898  0.1619 -0.2031
 7572SOL    HW134349   2.159   4.190   7.206  0.0421  0.9336  0.6520
 7572SOL    HW234350   2.174   4.336   7.197  0.1237 -0.2040  0.3470
 7573SOL     OW34351   1.083   2.756   2.264  0.0789 -0.1121 -0.5098
 7573SOL    HW134352   1.045   2.686   2.211 -0.1532 -0.3901  0.0154
 7573SOL    HW234353   1.167   2.763   2.219 -0.5338 -0.5652 -1.7252
 7574SOL     OW34354   2.110   2.650   1.422 -0.3550 -0.0210 -0.1372
 7574SOL    HW134355   2.145   2.739   1.422  0.4218 -0.3246 -0.9792
 7574SOL    HW234356   2.060   2.656   1.341  0.9807  2.3804 -0.7961
 7575SOL     OW34357   3.299   2.252  15.356 -0.0429  0.5657 -0.0211
 7575SOL    HW134358   3.333   2.323  15.301  1.6609  1.7319  2.5584
 7575SOL    HW234359   3.285   2.186  15.288  2.0656  0.4106 -0.3100
 7576SOL     OW34360   3.680   4.642  13.643 -0.3104 -0.1360  0.2208
 7576SOL    HW134361   3.669   4.551  13.671 -1.3117  0.2247  1.0391
 7576SOL    HW234362   3.769   4.656  13.676 -0.8212 -1.3163  2.1369
 7577SOL     OW34363   3.111   2.708  15.858 -0.0897  0.1267 -0.2862
 7577SOL    HW134364   3.116   2.762  15.936 -0.0768 -1.6979  0.9743
 7577SOL    HW234365   3.031   2.744  15.820 -0.6423 -0.5021  0.2856
 7578SOL     OW34366   1.748   2.563   6.063 -1.2243  0.3591 -0.3355
 7578SOL    HW134367   1.823   2.504   6.070 -2.0433 -1.0467 -3.3865
 7578SOL    HW234368   1.734   2.603   6.149  1.0856 -0.2080  0.3198
 7579SOL     OW34369   0.108   0.966   8.197  1.2280 -0.3246  0.2938
 7579SOL    HW134370   0.024   0.980   8.241  1.1821 -2.3219  0.8363
 7579SOL    HW234371   0.123   1.057   8.170 -0.3340 -0.3146 -0.4904
 7580SOL     OW34372   4.340   3.707   5.481  0.5437  0.3998 -0.0562
 7580SOL    HW134373   4.325   3.799   5.459 -1.1053 -0.1529 -1.2377
 7580SOL    HW234374   4.292   3.649   5.421 -0.8203  0.8663  0.5781
 7581SOL     OW34375   1.662   1.528   2.756  0.6345 -0.4490  0.2482
 7581SOL    HW134376   1.639   1.435   2.764 -2.2098  0.0801 -1.7534
 7581SOL    HW234377   1.605   1.566   2.689  0.6738  0.1449  0.5541
 7582SOL     OW34378   3.434   1.724   4.751  0.0093  0.3949  0.3672
 7582SOL    HW134379   3.498   1.715   4.821  1.9283 -0.0330 -1.4237
 7582SOL    HW234380   3.490   1.706   4.675  0.4993  0.5683  0.6860
 7583SOL     OW34381   0.122   3.193   3.636  0.2922 -0.4516  0.6149
 7583SOL    HW134382   0.150   3.192   3.544 -1.9990 -2.1461 -0.0520
 7583SOL    HW234383   0.184   3.257   3.671  0.7514 -0.7131  0.2929
 7584SOL     OW34384   1.488   2.476  16.571  0.5768  0.3094  0.1902
 7584SOL    HW134385   1.560   2.537  16.589 -0.0868  1.4961 -1.1612
 7584SOL    HW234386   1.477   2.476  16.476  0.3600 -2.4451  0.2091
 7585SOL     OW34387   3.647   3.517   5.868  0.1721  0.1173 -0.0857
 7585SOL    HW134388   3.673   3.437   5.914  3.8264 -0.1840 -2.6619
 7585SOL    HW234389   3.554   3.501   5.851  0.0483 -0.7682  1.4420
 7586SOL     OW34390   4.428   3.919   2.757 -0.0830  0.2459  0.0166
 7586SOL    HW134391   4.342   3.899   2.719 -0.6517 -0.3025  1.6073
 7586SOL    HW234392   4.434   3.860   2.832  3.3934  0.6038  0.0141
 7587SOL     OW34393   1.415   1.457   6.717 -0.5105  0.2503  0.0702
 7587SOL    HW134394   1.330   1.488   6.685  1.0202  0.7171 -3.5424
 7587SOL    HW234395   1.382   1.375   6.755 -0.8770  0.9430  1.2170
 7588SOL     OW34396   0.829   2.563   6.801  0.2614  0.0476 -1.1779
 7588SOL    HW134397   0.867   2.491   6.752 -2.4335 -3.3844  1.8116
 7588SOL    HW234398   0.881   2.551   6.880 -1.2632  0.3860 -0.1310
 7589SOL     OW34399   1.678   4.155   4.910 -0.3608 -0.3332 -0.2164
 7589SOL    HW134400   1.714   4.195   4.831 -1.4599  1.9332  0.4198
 7589SOL    HW234401   1.592   4.124   4.880 -0.4764  0.3424 -0.5702
 7590SOL     OW34402   0.296   1.997   2.932 -0.3152  0.2857 -0.2382
 7590SOL    HW134403   0.293   2.093   2.940  1.0115  0.1885  1.3187
 7590SOL    HW234404   0.367   1.973   2.991 -0.3988 -1.2033 -0.7375
 7591SOL     OW34405   0.429   3.276   7.214 -0.0502  0.5007 -0.4128
 7591SOL    HW134406   0.470   3.260   7.129  1.5596 -0.8318  0.6326
 7591SOL    HW234407   0.383   3.359   7.199  0.9027  1.2262  0.8134
 7592SOL     OW34408   0.713   3.599   3.877  0.7533  0.0828 -0.5168
 7592SOL    HW134409   0.679   3.580   3.789  0.3998  2.6818 -0.9378
 7592SOL    HW234410   0.751   3.684   3.857  0.9111 -0.2408 -1.5842
 7593SOL     OW34411   1.369   0.120   6.991  0.4606 -0.3566 -1.0369
 7593SOL    HW134412   1.426   0.167   6.930  0.5992  0.6124 -0.1618
 7593SOL    HW234413   1.431   0.108   7.063  0.0190 -0.2752 -0.6440
 7594SOL     OW34414   1.700   2.666   1.198 -0.1149  0.4296  0.2490
 7594SOL    HW134415   1.704   2.669   1.102 -0.0834  0.0019  0.2344
 7594SOL    HW234416   1.658   2.747   1.226  1.5183  0.9829  1.1088
 7595SOL     OW34417   0.053   3.686   1.255  0.7514 -0.2296  0.3254
 7595SOL    HW134418   0.061   3.592   1.268  1.4971 -0.0223  1.3320
 7595SOL    HW234419   4.722   3.681   1.189  1.3986 -2.7988 -0.1576
 7596SOL     OW34420   3.832   4.298   6.534 -0.0849 -0.7023  0.1719
 7596SOL    HW134421   3.775   4.229   6.499  1.7497 -2.1368  0.0201
 7596SOL    HW234422   3.773   4.370   6.555  0.8720  0.0023  0.4104
 7597SOL     OW34423   1.167   4.029   1.433  0.5213 -0.3853  0.0956
 7597SOL    HW134424   1.226   4.056   1.363 -0.5549  1.9710  0.1065
 7597SOL    HW234425   1.224   4.041   1.509  0.7651  1.3269 -0.3635
 7598SOL     OW34426   1.901   0.687   0.677  0.2230  0.3824  0.2559
 7598SOL    HW134427   1.946   0.768   0.704  2.8328 -0.3949 -1.8187
 7598SOL    HW234428   1.884   0.660   0.768  1.9954 -3.2017 -0.4757
 7599SOL     OW34429   2.948   3.008   6.498 -0.4791 -0.0578 -0.0437
 7599SOL    HW134430   3.024   2.956   6.525 -2.0771 -1.5135  1.6714
 7599SOL    HW234431   2.968   2.998   6.405 -0.5142 -0.0385 -0.0532
 7600SOL     OW34432   0.092   2.034   5.097 -0.4574  0.4659 -0.4347
 7600SOL    HW134433   0.147   2.037   5.175  1.3157 -0.7766 -1.6378
 7600SOL    HW234434   0.135   2.101   5.043  0.3877  0.3826  0.1372
 7601SOL     OW34435   2.643   0.193   5.540 -0.6422  0.2522  0.1870
 7601SOL    HW134436   2.640   0.124   5.474  0.6120  1.1004 -0.7488
 7601SOL    HW234437   2.633   0.271   5.486  0.7410  0.8125  0.7159
 7602SOL     OW34438   3.695   0.058   7.316 -0.0662 -0.0252  0.0103
 7602SOL    HW134439   3.690   0.154   7.322 -1.3836 -0.3078  3.1929
 7602SOL    HW234440   3.637   0.037   7.243  0.8760 -0.5948 -0.5778
 7603SOL     OW34441   0.190   3.743   4.381  0.5040 -0.4975 -0.0373
 7603SOL    HW134442   0.183   3.710   4.470  1.3211 -0.0560  0.1885
 7603SOL    HW234443   0.257   3.681   4.352  1.1718 -0.9908  2.5942
 7604SOL     OW34444   0.850   0.882   7.501 -0.0380  0.1278  0.0073
 7604SOL    HW134445   0.940   0.854   7.519 -0.1772  0.3560  1.0875
 7604SOL    HW234446   0.796   0.809   7.533 -1.5001  1.0925 -0.2666
 7605SOL     OW34447   4.695   4.307   8.539  0.0744 -0.3088  0.1554
 7605SOL    HW134448   4.692   4.388   8.589  0.0901  0.6080 -1.3346
 7605SOL    HW234449   0.050   4.284   8.547  0.4044  1.3182  0.8770
 7606SOL     OW34450   4.687   3.157   4.903  0.0428 -0.5269  0.2598
 7606SOL    HW134451   4.616   3.157   4.967  1.0263 -0.9590  1.3604
 7606SOL    HW234452   0.013   3.171   4.974 -0.7107  1.0621  0.6374
 7607SOL     OW34453   3.543   0.586   3.726  0.6034  0.2054  0.1908
 7607SOL    HW134454   3.549   0.570   3.820 -1.8835 -1.9499 -0.0230
 7607SOL    HW234455   3.502   0.672   3.713 -1.5069 -0.7037  0.8739
 7608SOL     OW34456   0.975   2.749  14.115  0.8037  0.2407  0.0016
 7608SOL    HW134457   0.924   2.772  14.037  0.8017  1.6098  0.3986
 7608SOL    HW234458   1.061   2.785  14.093  0.7297 -0.1969 -1.0014
 7609SOL     OW34459   1.123   4.515   5.475 -0.0962 -0.1010 -0.7031
 7609SOL    HW134460   1.207   4.480   5.446  0.8095  0.4348  1.2050
 7609SOL    HW234461   1.112   4.479   5.563  1.1998 -0.2458 -0.5917
 7610SOL     OW34462   1.740   2.242   2.976 -0.3675  0.7405  0.1888
 7610SOL    HW134463   1.732   2.330   3.013  1.2823  0.6519  0.7861
 7610SOL    HW234464   1.649   2.218   2.991  0.2015 -0.1680  2.2047
 7611SOL     OW34465   2.277   1.206   3.691  0.0298 -0.1875 -0.1633
 7611SOL    HW134466   2.200   1.246   3.651  0.1605 -0.8288 -1.0526
 7611SOL    HW234467   2.345   1.203   3.623  1.1163 -0.9917  0.9687
 7612SOL     OW34468   3.957   1.991  14.869 -0.1763  0.1106  0.1622
 7612SOL    HW134469   3.982   1.927  14.936 -1.4610  0.2800  0.8107
 7612SOL    HW234470   4.033   2.004  14.812 -1.1885 -1.4515 -1.5386
 7613SOL     OW34471   4.360   2.248  10.540  0.0680 -0.7069  0.3392
 7613SOL    HW134472   4.385   2.340  10.534 -2.4454 -0.1373 -1.3174
 7613SOL    HW234473   4.270   2.261  10.570  0.7766  1.3746  1.5408
 7614SOL     OW34474   2.498   2.084  17.240  0.1779 -0.1849 -0.3614
 7614SOL    HW134475   2.575   2.083  17.297 -1.2191 -3.0764  1.4862
 7614SOL    HW234476   2.503   2.172  17.202 -4.0894 -0.2683 -1.0606
 7615SOL     OW34477   3.753   0.772   8.740 -0.3746  0.2037 -0.2782
 7615SOL    HW134478   3.805   0.786   8.819  2.3668  1.2162 -2.2381
 7615SOL    HW234479   3.694   0.846   8.749  1.0195  1.2232  0.4934
 7616SOL     OW34480   3.418   4.518   9.838  0.1274  0.2503  0.1230
 7616SOL    HW134481   3.417   4.434   9.792 -1.0897  0.5055 -0.3340
 7616SOL    HW234482   3.353   4.559   9.780 -1.8128  0.9987  2.8379
 7617SOL     OW34483   2.900   1.890  15.780  0.2623 -0.1335  0.2190
 7617SOL    HW134484   2.960   1.943  15.728 -1.4263  3.9815  2.5463
 7617SOL    HW234485   2.960   1.835  15.832 -0.0524 -0.9877 -0.3106
 7618SOL     OW34486   2.353   3.011   4.898  0.4818  0.1892  0.5464
 7618SOL    HW134487   2.357   3.012   4.994 -1.1650 -0.8757  0.6304
 7618SOL    HW234488   2.356   2.918   4.876 -0.2697  0.1849  0.4707
 7619SOL     OW34489   2.278   2.582   6.644 -0.3711  0.0130  0.1524
 7619SOL    HW134490   2.222   2.649   6.605 -0.4828  0.4434  1.0569
 7619SOL    HW234491   2.308   2.630   6.721 -1.9898 -1.6458  1.8020
 7620SOL     OW34492   2.686   2.698  12.942 -0.3063 -0.0043  0.6410
 7620SOL    HW134493   2.731   2.701  13.026 -2.1396  1.8673  1.5511
 7620SOL    HW234494   2.649   2.786  12.934 -0.0792  0.0258 -0.1337
 7621SOL     OW34495   1.048   1.427   8.378 -0.3500 -0.0087  0.1374
 7621SOL    HW134496   1.128   1.462   8.337  1.0059  0.2052  2.9440
 7621SOL    HW234497   0.992   1.504   8.367 -0.7476 -0.8274 -3.6007
 7622SOL     OW34498   3.936   2.352  14.337  0.0362 -0.3343  0.0995
 7622SOL    HW134499   4.023   2.385  14.314 -0.2565 -0.8324 -1.7307
 7622SOL    HW234500   3.889   2.358  14.254 -0.7296 -0.5374  0.5148
 7623SOL     OW34501   3.583   0.905   7.302 -0.2736  0.3470  0.1084
 7623SOL    HW134502   3.499   0.931   7.264 -1.0029 -3.2177 -0.7614
 7623SOL    HW234503   3.550   0.884   7.389 -0.1027  2.6235  0.7265
 7624SOL     OW34504   1.247   0.471  15.152 -0.1435  0.3807  0.0888
 7624SOL    HW134505   1.206   0.384  15.154  3.3455 -1.2891 -1.0356
 7624SOL    HW234506   1.230   0.501  15.242 -1.2825  0.5726 -0.2012
 7625SOL     OW34507   4.249   3.237   2.671  0.0374  0.0293 -0.5613
 7625SOL    HW134508   4.227   3.165   2.730  0.2504  0.4390  0.0219
 7625SOL    HW234509   4.302   3.187   2.609  2.5106  1.3058  0.5346
 7626SOL     OW34510   2.441   3.340   6.247 -0.8056  0.1498 -0.2224
 7626SOL    HW134511   2.419   3.276   6.179  1.8469 -1.4278  0.4195
 7626SOL    HW234512   2.507   3.391   6.200  0.9832 -0.8632  1.2304
 7627SOL     OW34513   3.989   1.444   6.275 -0.2770  0.2306 -0.0854
 7627SOL    HW134514   4.040   1.514   6.234  2.1635 -0.7711  1.2202
 7627SOL    HW234515   4.011   1.472   6.364 -0.6375  1.9283 -0.5234
 7628SOL     OW34516   2.716   3.364   1.891  1.0626 -0.2556 -0.0533
 7628SOL    HW134517   2.787   3.361   1.955  0.0726 -2.5151  0.9090
 7628SOL    HW234518   2.757   3.394   1.809  0.2590 -1.2677 -0.8246
 7629SOL     OW34519   1.468   4.165   3.468  0.0783 -0.0096 -0.7019
 7629SOL    HW134520   1.562   4.183   3.464 -0.4142  2.2956 -1.6982
 7629SOL    HW234521   1.437   4.198   3.553  1.2790  0.3151 -0.3974
 7630SOL     OW34522   3.746   1.172   3.172  0.2974 -0.0077  0.8392
 7630SOL    HW134523   3.792   1.099   3.213  2.1758  0.2432 -0.8097
 7630SOL    HW234524   3.808   1.182   3.099 -1.0897  1.4323 -0.1331
 7631SOL     OW34525   1.731   4.033   0.249  0.0655 -0.2440 -0.0222
 7631SOL    HW134526   1.660   3.968   0.256 -0.8903  0.9403  1.1350
 7631SOL    HW234527   1.809   3.979   0.238 -0.0981 -0.5481  0.2970
 7632SOL     OW34528   0.754   3.016   9.643  0.5042 -0.2509  0.1082
 7632SOL    HW134529   0.762   2.942   9.582 -1.1278 -1.0707  0.8975
 7632SOL    HW234530   0.765   3.090   9.584  0.0303  0.3642  0.7969
 7633SOL     OW34531   1.686   0.071  10.329  0.3542  0.0031  0.2082
 7633SOL    HW134532   1.634   0.136  10.281  0.3640 -0.0105  0.1796
 7633SOL    HW234533   1.774   0.097  10.301  1.2437 -1.7334  1.4148
 7634SOL     OW34534   0.940   2.081   7.094 -0.0501 -0.0488 -0.7536
 7634SOL    HW134535   0.894   1.999   7.112  0.6333  0.1839  2.1657
 7634SOL    HW234536   0.991   2.088   7.175 -0.6958  2.8657 -0.5817
 7635SOL     OW34537   4.227   3.265   8.071 -0.1342 -0.1666  0.1177
 7635SOL    HW134538   4.160   3.331   8.051 -0.1909 -0.4234 -0.5392
 7635SOL    HW234539   4.303   3.311   8.036 -1.0518  0.9916 -0.3356
 7636SOL     OW34540   3.688   1.171   4.760  0.1013  0.3850 -0.0571
 7636SOL    HW134541   3.622   1.241   4.763 -0.6932 -0.4539  1.9540
 7636SOL    HW234542   3.675   1.139   4.671 -0.5289  0.9666 -0.1757
 7637SOL     OW34543   4.188   0.372   5.092 -0.0540 -0.4761 -0.1023
 7637SOL    HW134544   4.260   0.435   5.079  0.4786 -0.6836  1.7919
 7637SOL    HW234545   4.194   0.369   5.188 -1.2671  2.5050  0.0666
 7638SOL     OW34546   4.202   3.746  12.509  0.0649  0.4585  0.5257
 7638SOL    HW134547   4.149   3.668  12.525 -2.2121  1.7442 -0.7263
 7638SOL    HW234548   4.294   3.719  12.512 -0.2563 -0.8180 -1.2167
 7639SOL     OW34549   2.218   2.433  15.380  0.4263  0.1762  0.0417
 7639SOL    HW134550   2.178   2.469  15.459  3.2113  1.4426  0.8706
 7639SOL    HW234551   2.251   2.348  15.410 -0.3429 -0.0980  0.1137
 7640SOL     OW34552   0.833   3.204   6.115  0.7076  0.5944 -0.1928
 7640SOL    HW134553   0.815   3.112   6.134  1.3410  0.7755  1.3187
 7640SOL    HW234554   0.872   3.198   6.028  1.6791 -0.1509  0.2979
 7641SOL     OW34555   2.404   0.037   3.614  0.0993 -0.2505  0.3338
 7641SOL    HW134556   2.364   0.103   3.557  0.2094 -0.3962  0.0882
 7641SOL    HW234557   2.433   4.711   3.550  1.9463 -0.9269  1.8488
 7642SOL     OW34558   1.503   4.089   5.118  0.0593 -0.0924  0.3384
 7642SOL    HW134559   1.592   4.100   5.084  0.5738 -2.3999  0.9326
 7642SOL    HW234560   1.503   3.999   5.152 -2.7915 -0.8563 -1.7564
 7643SOL     OW34561   3.688   4.463   4.964  0.6545 -0.4327 -0.0649
 7643SOL    HW134562   3.724   4.488   5.048  2.1806  0.1550 -0.8927
 7643SOL    HW234563   3.611   4.520   4.956  1.5685  0.6274 -1.2516
 7644SOL     OW34564   1.297   0.901   0.507 -0.2729 -0.0926  0.4126
 7644SOL    HW134565   1.253   0.860   0.582 -0.0589  0.6824  0.9544
 7644SOL    HW234566   1.219   0.940   0.468  0.2213 -1.9742 -2.4529
 7645SOL     OW34567   3.258   0.189   3.831  0.1401  0.2743  0.6304
 7645SOL    HW134568   3.267   0.102   3.792 -0.6026 -0.6655  2.5541
 7645SOL    HW234569   3.277   0.239   3.751 -2.5067  1.8413  0.9785
 7646SOL     OW34570   3.474   3.798  12.896 -0.1126  0.0113 -0.1087
 7646SOL    HW134571   3.389   3.762  12.919 -0.8086  1.3044 -0.6748
 7646SOL    HW234572   3.495   3.757  12.812  0.1620 -0.9967  0.4488
 7647SOL     OW34573   4.727   0.579   1.146  0.0751  0.0518  0.1174
 7647SOL    HW134574   4.698   0.640   1.214  1.4829 -0.1791  0.9353
 7647SOL    HW234575   0.007   0.503   1.201 -1.3060 -0.0860  0.3939
 7648SOL     OW34576   4.468   0.677  17.058  0.1670 -0.0026  0.0901
 7648SOL    HW134577   4.453   0.614  16.988 -0.4017  2.3394 -1.8780
 7648SOL    HW234578   4.406   0.743  17.027 -1.6623 -1.3729  0.8284
 7649SOL     OW34579   1.079   2.426   8.565 -0.6273  0.4820 -0.0599
 7649SOL    HW134580   1.162   2.471   8.578 -0.0999 -0.4829 -0.1829
 7649SOL    HW234581   1.016   2.497   8.583 -2.3739 -1.6646  2.2819
 7650SOL     OW34582   2.277   0.639  10.538  0.3414 -0.1294 -0.4906
 7650SOL    HW134583   2.340   0.697  10.497  1.6523 -1.6537 -0.6205
 7650SOL    HW234584   2.322   0.619  10.620 -0.1756 -0.5897 -0.3146
 7651SOL     OW34585   1.498   0.195   0.604 -0.4830  0.3269  0.1250
 7651SOL    HW134586   1.557   0.121   0.617 -0.6380  0.5236  2.0447
 7651SOL    HW234587   1.464   0.175   0.517  0.5146 -2.0981  0.2729
 7652SOL     OW34588   2.962   1.693   2.674  0.2204  0.3634  0.1228
 7652SOL    HW134589   3.018   1.706   2.750  0.2527  0.3116  0.1079
 7652SOL    HW234590   2.899   1.765   2.674  0.0455  0.2074 -0.7751
 7653SOL     OW34591   3.757   2.782   5.928  0.1944 -0.2526  0.1964
 7653SOL    HW134592   3.794   2.817   5.847 -1.0839 -1.0020 -0.7144
 7653SOL    HW234593   3.760   2.687   5.917  0.3220 -0.1988 -0.2150
 7654SOL     OW34594   0.490   0.926  15.882 -0.1616 -0.3902  0.3574
 7654SOL    HW134595   0.565   0.932  15.824 -1.1854  0.9540 -0.8047
 7654SOL    HW234596   0.493   0.834  15.909 -1.3524 -0.3088  0.7767
 7655SOL     OW34597   0.921   3.160   5.545 -0.4129  0.0005 -0.1602
 7655SOL    HW134598   1.006   3.160   5.501 -0.0812  1.4563  0.4744
 7655SOL    HW234599   0.874   3.099   5.488 -0.6314  0.3502 -0.3501
 7656SOL     OW34600   2.105   3.867   9.137 -0.5604 -0.0846  0.0004
 7656SOL    HW134601   2.147   3.784   9.161 -1.0196 -0.3682 -0.1688
 7656SOL    HW234602   2.179   3.918   9.103  0.6511 -2.9103 -1.6263
 7657SOL     OW34603   4.464   4.545   3.872 -0.2323 -0.6690  0.2548
 7657SOL    HW134604   4.422   4.459   3.875 -0.0958 -0.7149  0.8781
 7657SOL    HW234605   4.526   4.524   3.803 -0.1273  0.0565  0.1216
 7658SOL     OW34606   1.408   1.943   7.970  0.1332  0.2736  0.1767
 7658SOL    HW134607   1.430   1.860   8.011  0.0496 -0.5108 -1.3665
 7658SOL    HW234608   1.477   1.944   7.904 -0.4502  0.7290 -0.4256
 7659SOL     OW34609   1.994   0.088   5.177  0.1242  0.0261 -0.5610
 7659SOL    HW134610   2.076   0.090   5.127  0.2709 -0.0947 -0.3225
 7659SOL    HW234611   1.924   0.085   5.112 -2.8912  1.1300  2.6549
 7660SOL     OW34612   3.570   1.036   3.628  0.1363 -0.1502  0.2464
 7660SOL    HW134613   3.496   0.987   3.662 -1.0107  0.0693 -1.9006
 7660SOL    HW234614   3.560   1.106   3.693 -0.6516  0.5920 -0.6696
 7661SOL     OW34615   4.605   1.099  17.214 -0.4088  0.3091 -0.3248
 7661SOL    HW134616   4.672   1.032  17.196  0.5469  1.3886 -0.7697
 7661SOL    HW234617   4.615   1.152  17.135 -4.2929  0.3590 -0.7837
 7662SOL     OW34618   3.338   2.946   6.179 -0.0829  0.2058  0.3750
 7662SOL    HW134619   3.253   2.930   6.221  0.2194  1.9983  1.6679
 7662SOL    HW234620   3.375   2.862   6.151 -2.2744 -1.1805  1.6140
 7663SOL     OW34621   3.976   2.272   4.832 -0.5967  0.2714 -0.0652
 7663SOL    HW134622   3.904   2.221   4.868 -0.1120 -0.4990 -0.1931
 7663SOL    HW234623   3.941   2.281   4.743 -1.6563  1.2288  0.4435
 7664SOL     OW34624   4.737   3.731   6.986 -0.0591 -0.1981 -0.2010
 7664SOL    HW134625   4.674   3.783   7.037 -0.2248  0.2574 -0.8747
 7664SOL    HW234626   0.010   3.662   7.052 -3.0265 -1.2571 -0.7902
 7665SOL     OW34627   2.763   2.392   1.252  0.5063 -0.2048 -0.1313
 7665SOL    HW134628   2.786   2.299   1.248  3.2896  0.4822 -0.4838
 7665SOL    HW234629   2.726   2.409   1.165 -1.2902  2.8503  1.2421
 7666SOL     OW34630   0.775   4.476   6.478 -0.1993  0.1663  0.4786
 7666SOL    HW134631   0.717   4.438   6.412  1.2005 -1.2607  0.0472
 7666SOL    HW234632   0.715   4.525   6.534  0.0406 -2.0599  2.7311
 7667SOL     OW34633   0.000   4.649   8.473 -0.3875 -0.1653 -0.0527
 7667SOL    HW134634   0.058   4.613   8.406 -0.4193  1.9897 -1.2202
 7667SOL    HW234635   0.062   4.641   8.546 -2.1523  1.8290  1.6897
 7668SOL     OW34636   2.024   1.251  14.291 -0.0021  0.2749  0.0999
 7668SOL    HW134637   2.115   1.238  14.318 -0.1748  0.1788  0.6304
 7668SOL    HW234638   1.976   1.186  14.342 -0.7247  1.6701  1.1935
 7669SOL     OW34639   3.971   2.512   6.619 -0.0388  0.4013 -0.1534
 7669SOL    HW134640   4.039   2.504   6.552 -1.1812  1.3749 -1.4274
 7669SOL    HW234641   3.947   2.420   6.620 -2.3312  1.0085  0.8496
 7670SOL     OW34642   3.991   3.640   2.153  0.2384  0.2045 -0.1257
 7670SOL    HW134643   3.929   3.611   2.219  1.8851 -1.3359  0.7681
 7670SOL    HW234644   4.058   3.675   2.211  0.0479 -1.0992  0.8820
 7671SOL     OW34645   0.340   3.436   3.408 -0.0291 -0.3832  0.3507
 7671SOL    HW134646   0.415   3.472   3.455 -1.1916  1.2904  0.9235
 7671SOL    HW234647   0.292   3.516   3.387  1.2760  0.4272  0.4435
 7672SOL     OW34648   1.220   2.757   7.175  0.1869  0.4843 -0.0090
 7672SOL    HW134649   1.207   2.772   7.268  0.3199  2.5010 -0.3042
 7672SOL    HW234650   1.315   2.754   7.164 -0.0479 -0.2767 -1.8850
 7673SOL     OW34651   1.710   0.397   9.310 -0.1406 -0.0133  0.0953
 7673SOL    HW134652   1.615   0.399   9.325 -0.3539  1.9418 -1.5984
 7673SOL    HW234653   1.742   0.469   9.364  0.6502  1.0562 -1.8033
 7674SOL     OW34654   2.278   2.489   6.371  0.2323  0.0346 -0.1098
 7674SOL    HW134655   2.290   2.402   6.409 -1.3079 -1.0624 -2.1545
 7674SOL    HW234656   2.266   2.542   6.450 -1.1336 -1.9847  1.0280
 7675SOL     OW34657   1.340   4.389   9.493  0.3773 -0.0550 -0.4541
 7675SOL    HW134658   1.348   4.481   9.468  1.7918 -0.2155 -0.6278
 7675SOL    HW234659   1.251   4.370   9.464 -0.2652  2.9209 -0.4296
 7676SOL     OW34660   1.885   4.252  11.104 -0.0789 -0.4854 -0.1039
 7676SOL    HW134661   1.874   4.186  11.036  0.0877 -0.9513  0.3265
 7676SOL    HW234662   1.945   4.211  11.166 -1.0450 -1.8058 -0.0553
 7677SOL     OW34663   0.896   1.905   2.641  0.0150  0.8291  0.4960
 7677SOL    HW134664   0.860   1.920   2.553 -2.6798 -3.5388  0.8275
 7677SOL    HW234665   0.988   1.921   2.617 -0.5215  1.5410 -1.0753
 7678SOL     OW34666   0.197   3.022  13.611  0.4372  0.1682 -0.4476
 7678SOL    HW134667   0.191   3.035  13.706 -0.4788 -1.3267 -0.2996
 7678SOL    HW234668   0.164   2.932  13.607  1.0410 -0.1215  1.0991
 7679SOL     OW34669   2.191   0.218   9.126 -0.2006 -0.1515 -0.3617
 7679SOL    HW134670   2.165   0.242   9.037  1.0819  0.2395 -0.6343
 7679SOL    HW234671   2.190   0.301   9.174  3.0341  0.1721 -0.8350
 7680SOL     OW34672   4.133   0.899  16.325 -0.9245  0.2453  0.0269
 7680SOL    HW134673   4.206   0.914  16.265 -0.7970 -0.6232 -0.0313
 7680SOL    HW234674   4.062   0.946  16.281 -1.0680 -0.0282 -0.0331
 7681SOL     OW34675   4.072   1.901   9.306  0.0064  0.1162  0.3343
 7681SOL    HW134676   4.163   1.927   9.297  0.7694 -1.9348  2.1424
 7681SOL    HW234677   4.052   1.890   9.213  2.2426 -1.2919  0.0118
 7682SOL     OW34678   1.596   4.428   7.341 -0.5417 -0.1180  0.5046
 7682SOL    HW134679   1.606   4.333   7.332 -3.2093 -0.2230 -1.5025
 7682SOL    HW234680   1.540   4.437   7.418 -1.6774  2.7106 -0.6562
 7683SOL     OW34681   2.068   2.587   8.777  0.2050  0.1797 -0.0623
 7683SOL    HW134682   2.073   2.492   8.767  0.9982 -0.2807  4.9722
 7683SOL    HW234683   2.016   2.594   8.696  0.3042  0.6926 -0.0777
 7684SOL     OW34684   3.304   3.886  14.106 -0.1319 -0.1768 -0.1074
 7684SOL    HW134685   3.385   3.852  14.144 -1.7928 -5.1398 -1.0212
 7684SOL    HW234686   3.315   3.979  14.122 -1.6676 -0.2447  1.3458
 7685SOL     OW34687   2.531   3.787   9.897 -0.9461 -0.3393  0.3432
 7685SOL    HW134688   2.626   3.801   9.892 -1.0019  0.0140  0.2628
 7685SOL    HW234689   2.491   3.788   9.810 -0.7452  0.3485  0.2585
 7686SOL     OW34690   3.520   1.964   2.086  0.1213  0.7862 -0.0749
 7686SOL    HW134691   3.551   1.938   2.173  0.5468 -1.6900 -0.9564
 7686SOL    HW234692   3.425   1.955   2.091  0.1357  0.2641 -0.8123
 7687SOL     OW34693   4.354   2.382   6.638  0.5272 -0.3928 -0.6402
 7687SOL    HW134694   4.354   2.431   6.720  1.3763  0.8507 -1.3770
 7687SOL    HW234695   4.440   2.341   6.635  0.2738 -1.0690  1.5275
 7688SOL     OW34696   0.915   4.233   4.178  0.2154  0.1090  0.9520
 7688SOL    HW134697   0.895   4.159   4.236 -1.8360 -0.9316 -1.0507
 7688SOL    HW234698   0.930   4.174   4.103 -1.6873  1.1488 -0.2565
 7689SOL     OW34699   2.236   2.210  11.763 -0.0393  0.3816 -0.2569
 7689SOL    HW134700   2.279   2.290  11.793 -1.8626  1.6324 -0.9217
 7689SOL    HW234701   2.305   2.163  11.717  0.3773  0.1941  0.5479
 7690SOL     OW34702   1.782   3.659   1.793  0.7033  0.2688  0.8345
 7690SOL    HW134703   1.756   3.750   1.781 -1.4037 -0.7559 -2.2031
 7690SOL    HW234704   1.705   3.619   1.834  0.6437 -0.8182 -0.3623
 7691SOL     OW34705   3.267   0.064   8.775  0.5268  0.4741  0.1183
 7691SOL    HW134706   3.225   0.096   8.854  0.1070  0.3581 -0.0584
 7691SOL    HW234707   3.347   0.117   8.782  0.4935  0.4860  0.4057
 7692SOL     OW34708   1.543   3.835   3.075 -0.6641 -0.1979  0.2438
 7692SOL    HW134709   1.639   3.835   3.073 -0.7062  1.8473 -0.8550
 7692SOL    HW234710   1.517   3.915   3.030 -1.2629  0.8791  2.4911
 7693SOL     OW34711   3.196   1.349   4.806  0.0057 -0.1062 -0.1865
 7693SOL    HW134712   3.220   1.324   4.895 -0.6997 -0.2010 -0.0220
 7693SOL    HW234713   3.245   1.281   4.760 -1.0304 -1.2865  0.4393
 7694SOL     OW34714   1.375   3.265   2.536 -0.5432  0.5133 -0.1475
 7694SOL    HW134715   1.443   3.293   2.596  0.3995 -0.3065 -0.8330
 7694SOL    HW234716   1.404   3.186   2.491 -0.5633  1.2754 -1.5211
 7695SOL     OW34717   3.151   4.655   6.763 -0.0905  0.4334  0.1102
 7695SOL    HW134718   3.143   4.564   6.735  0.4312  0.2509  0.5619
 7695SOL    HW234719   3.127   4.640   6.854 -0.6606 -1.5534 -0.3526
 7696SOL     OW34720   1.018   0.566   3.756 -0.5156  0.1089 -0.5696
 7696SOL    HW134721   1.056   0.528   3.835 -0.5575 -1.2293 -1.1874
 7696SOL    HW234722   1.027   0.489   3.700  1.1268  0.0305 -0.2000
 7697SOL     OW34723   0.857   1.383   4.464 -0.1978  0.0249 -0.4242
 7697SOL    HW134724   0.779   1.429   4.495 -1.6263 -1.4674 -1.8230
 7697SOL    HW234725   0.824   1.337   4.386  0.0215  0.2777 -0.6667
 7698SOL     OW34726   3.898   2.099   5.370 -0.6903 -0.1461 -0.2015
 7698SOL    HW134727   3.848   2.110   5.451 -0.5243 -2.8136  0.2790
 7698SOL    HW234728   3.957   2.025   5.384 -0.0967  0.0789 -1.4766
 7699SOL     OW34729   2.871   2.278  11.204  0.4983  0.0729  0.1077
 7699SOL    HW134730   2.922   2.336  11.261  0.6573 -0.0098  0.0490
 7699SOL    HW234731   2.892   2.195  11.247 -0.9107 -1.7285 -2.6720
 7700SOL     OW34732   3.803   0.015   6.503 -0.3187  0.0098  0.2692
 7700SOL    HW134733   3.798   0.022   6.598 -1.0895 -1.3634  0.3320
 7700SOL    HW234734   3.720   0.050   6.472 -0.4869 -2.8000 -2.4931
 7701SOL     OW34735   0.145   3.243   6.916 -0.2706  1.1693  0.0174
 7701SOL    HW134736   0.179   3.307   6.977  1.6398  0.2841 -0.1256
 7701SOL    HW234737   0.115   3.176   6.978 -0.8151 -0.2721 -1.7699
 7702SOL     OW34738   0.540   2.026   9.282  0.9011  0.1478  0.2232
 7702SOL    HW134739   0.505   2.114   9.278 -1.9121 -0.9307  1.1574
 7702SOL    HW234740   0.542   2.001   9.189  0.0883  0.3524  0.1529
 7703SOL     OW34741   1.100   2.936   8.537  0.0915 -0.2531 -0.1707
 7703SOL    HW134742   1.135   3.009   8.588  3.2210  1.0708 -4.2637
 7703SOL    HW234743   1.119   2.862   8.595  0.0651  0.6579  1.0126
 7704SOL     OW34744   3.865   0.550   6.325 -0.2965  0.3990  0.2976
 7704SOL    HW134745   3.950   0.570   6.286 -0.4974 -1.2204 -0.9556
 7704SOL    HW234746   3.840   0.641   6.342  1.2212  0.4005  2.6646
 7705SOL     OW34747   0.888   2.233   4.192  0.1802 -0.3596  0.4326
 7705SOL    HW134748   0.800   2.260   4.166  0.2349  2.4014  3.0247
 7705SOL    HW234749   0.924   2.322   4.190 -0.3832 -0.1203  0.8495
 7706SOL     OW34750   3.004   0.921   5.897 -0.2229 -0.3268  0.7459
 7706SOL    HW134751   3.099   0.931   5.883 -0.2975 -0.8075 -0.0841
 7706SOL    HW234752   2.998   0.911   5.992  0.4319  1.4596  0.9851
 7707SOL     OW34753   3.714   4.584   3.472  0.2179  0.3254 -0.2597
 7707SOL    HW134754   3.676   4.625   3.549 -0.8166  1.4553 -1.3575
 7707SOL    HW234755   3.695   4.494   3.497  2.4377 -0.0385  0.0882
 7708SOL     OW34756   2.588   2.704  17.081 -0.3589  0.5088  0.7270
 7708SOL    HW134757   2.592   2.655  16.999 -0.6660  0.5905  0.6607
 7708SOL    HW234758   2.515   2.764  17.063 -0.5853 -0.1583 -0.5875
 7709SOL     OW34759   0.822   1.717   1.647  0.2189 -0.1019  0.0080
 7709SOL    HW134760   0.728   1.703   1.634 -0.1466  1.2636  1.1665
 7709SOL    HW234761   0.818   1.768   1.727  0.8752  1.7464 -1.1402
 7710SOL     OW34762   4.518   3.710   6.518  0.1375 -0.2196 -0.1169
 7710SOL    HW134763   4.575   3.729   6.592 -0.2118 -1.6900  0.5207
 7710SOL    HW234764   4.513   3.799   6.481 -1.4254 -0.1455  0.2928
 7711SOL     OW34765   3.547   3.860  16.957  0.0382 -0.1449 -0.0533
 7711SOL    HW134766   3.612   3.798  16.924 -1.3889 -1.3520 -0.6447
 7711SOL    HW234767   3.604   3.929  16.990 -0.1370  0.8534 -1.8073
 7712SOL     OW34768   1.373   0.503  10.335 -0.2158 -0.0301 -0.1660
 7712SOL    HW134769   1.316   0.467  10.267  2.0492 -1.6967 -1.1854
 7712SOL    HW234770   1.402   0.573  10.277 -0.6851  0.0421 -0.3153
 7713SOL     OW34771   3.892   1.023   0.733 -0.0931 -0.2655  0.0840
 7713SOL    HW134772   3.860   0.950   0.680  1.0739  0.6374 -1.8538
 7713SOL    HW234773   3.834   1.097   0.713  1.5312  0.3851 -2.1751
 7714SOL     OW34774   2.583   2.390   2.904  0.1392  0.6857 -0.3257
 7714SOL    HW134775   2.651   2.409   2.839  1.3439  1.0280  1.0579
 7714SOL    HW234776   2.578   2.468   2.959 -0.5638 -0.5000  1.2742
 7715SOL     OW34777   4.066   2.392   6.089 -0.2466  0.0400 -1.0014
 7715SOL    HW134778   4.063   2.471   6.144 -0.6877 -0.5307 -0.2048
 7715SOL    HW234779   4.152   2.352   6.106 -0.8625 -0.4176  1.0532
 7716SOL     OW34780   3.204   2.663   4.618 -0.3406 -0.4546  0.0406
 7716SOL    HW134781   3.149   2.613   4.678 -0.7134  0.4503  0.4495
 7716SOL    HW234782   3.145   2.688   4.547 -0.0313  1.6340  0.5270
 7717SOL     OW34783   4.321   3.353   3.534  0.0031 -0.0318  0.4651
 7717SOL    HW134784   4.304   3.345   3.628 -0.3200 -0.5346  0.3662
 7717SOL    HW234785   4.287   3.442   3.528  1.9118  0.6926  0.4478
 7718SOL     OW34786   2.583   1.210  10.235 -0.3196  0.0344 -0.6617
 7718SOL    HW134787   2.631   1.210  10.318  0.8685 -0.7147 -1.3438
 7718SOL    HW234788   2.600   1.123  10.199  0.2360 -0.5383  0.9996
 7719SOL     OW34789   4.375   3.044   8.633  0.0065 -0.3537  0.4448
 7719SOL    HW134790   4.339   3.126   8.600  0.7666 -0.2310 -0.0936
 7719SOL    HW234791   4.358   2.985   8.560  2.9045  0.1560 -0.6400
 7720SOL     OW34792   4.389   3.511  15.979  0.1930 -0.2494 -0.1720
 7720SOL    HW134793   4.335   3.549  15.910 -2.2538 -1.9512  0.8097
 7720SOL    HW234794   4.473   3.506  15.933 -0.3315  0.6027 -1.2277
 7721SOL     OW34795   1.224   1.842   9.537 -0.2532 -0.0627 -0.2710
 7721SOL    HW134796   1.204   1.865   9.628  0.7892  1.8470 -0.5274
 7721SOL    HW234797   1.257   1.753   9.533 -1.0162 -0.3116 -0.8603
 7722SOL     OW34798   2.987   4.722  16.889 -0.3217 -0.1973 -0.4759
 7722SOL    HW134799   2.898   4.693  16.908 -1.9753  3.2905 -2.7950
 7722SOL    HW234800   2.995   0.059  16.947  0.8021  1.1714 -2.4110
 7723SOL     OW34801   4.175   3.936   6.284 -1.0304 -0.0717  0.1275
 7723SOL    HW134802   4.111   3.964   6.349  0.2364 -0.4541  1.5390
 7723SOL    HW234803   4.216   3.861   6.327 -1.0176  1.0604  2.1117
 7724SOL     OW34804   2.857   3.799   1.209  0.1170 -0.6262  0.4430
 7724SOL    HW134805   2.875   3.858   1.281  0.5041  1.2775 -1.2010
 7724SOL    HW234806   2.889   3.718   1.247  0.4793 -1.5295 -1.7809
 7725SOL     OW34807   2.014   4.184   2.768  0.4416  0.2238 -0.0799
 7725SOL    HW134808   1.995   4.111   2.708  1.3586  2.3032 -2.9275
 7725SOL    HW234809   2.064   4.242   2.710 -3.2340 -0.0094 -3.4785
 7726SOL     OW34810   4.048   0.650   7.840 -0.1178  0.7911 -0.3597
 7726SOL    HW134811   3.960   0.646   7.802 -0.5581 -0.8924  0.8346
 7726SOL    HW234812   4.101   0.652   7.760  0.9973  0.7834  0.3726
 7727SOL     OW34813   3.404   3.712   1.076  0.7554  0.1390 -0.0829
 7727SOL    HW134814   3.315   3.704   1.110  1.2859  0.2480  1.3207
 7727SOL    HW234815   3.446   3.639   1.120  0.3241 -1.3962 -2.2290
 7728SOL     OW34816   4.178   4.627   2.816  0.1061  0.5818  0.3217
 7728SOL    HW134817   4.175   4.541   2.859 -2.1960  0.1614 -0.6921
 7728SOL    HW234818   4.188   4.605   2.724  1.2295 -2.1564  1.1052
 7729SOL     OW34819   3.599   4.451   2.907 -0.5899 -0.0801 -0.2708
 7729SOL    HW134820   3.548   4.529   2.884  0.5863  0.4774 -0.9757
 7729SOL    HW234821   3.529   4.386   2.906  0.7656 -1.4873 -2.6546
 7730SOL     OW34822   1.122   4.566   9.226 -0.0204 -0.0073 -0.3134
 7730SOL    HW134823   1.112   4.617   9.307  1.3299 -3.3984  2.0128
 7730SOL    HW234824   1.211   4.532   9.228  0.9688  2.7186  1.5569
 7731SOL     OW34825   2.117   3.643   5.154  0.2944  0.2843  0.0234
 7731SOL    HW134826   2.162   3.715   5.109 -3.3721  2.1519 -0.6061
 7731SOL    HW234827   2.124   3.580   5.082  0.4873  0.7054 -0.3332
 7732SOL     OW34828   3.865   1.999   3.187 -0.4818  0.2328  0.1690
 7732SOL    HW134829   3.937   1.943   3.157 -0.4459  0.8295 -0.8853
 7732SOL    HW234830   3.913   2.071   3.228  0.3900  0.2879 -0.9304
 7733SOL     OW34831   3.692   1.428   5.157 -0.8573  0.6710  0.3376
 7733SOL    HW134832   3.759   1.476   5.207  1.7855 -1.6439 -0.9892
 7733SOL    HW234833   3.745   1.384   5.090  1.1464  2.5365  0.6745
 7734SOL     OW34834   2.750   2.382   3.419 -0.0045 -0.0362  0.2337
 7734SOL    HW134835   2.828   2.436   3.406 -1.1438  1.2279 -1.2017
 7734SOL    HW234836   2.690   2.454   3.404  1.2477  1.4237  2.2585
 7735SOL     OW34837   2.670   4.294   2.577 -0.1688 -0.3595  0.4610
 7735SOL    HW134838   2.645   4.327   2.491 -0.1802 -0.2342  0.5129
 7735SOL    HW234839   2.695   4.202   2.568 -0.3342 -0.3438 -0.1006
 7736SOL     OW34840   3.064   3.616   3.022  0.1629 -0.3857  0.8452
 7736SOL    HW134841   2.978   3.586   3.053  0.0158 -1.3555 -0.5105
 7736SOL    HW234842   3.039   3.703   2.990 -1.1716 -1.7039 -1.6966
 7737SOL     OW34843   3.537   0.880  16.528  0.0289  0.0036 -0.6354
 7737SOL    HW134844   3.484   0.924  16.462  1.9956  0.0706 -2.2005
 7737SOL    HW234845   3.623   0.890  16.485 -0.1931 -0.3684 -1.1789
 7738SOL     OW34846   4.048   2.267   4.399  0.5567  0.1837  0.7519
 7738SOL    HW134847   4.139   2.249   4.375  0.2082  1.3244 -1.3955
 7738SOL    HW234848   4.003   2.226   4.325 -0.5399  0.3891  1.3181
 7739SOL     OW34849   3.156   2.238   8.624  0.3218 -0.2558 -0.5574
 7739SOL    HW134850   3.139   2.262   8.715 -1.6648  1.2113 -1.3018
 7739SOL    HW234851   3.250   2.223   8.619  0.5063  1.2462 -1.5912
 7740SOL     OW34852   1.836   1.660  12.745  0.1207  0.0951  0.4906
 7740SOL    HW134853   1.890   1.725  12.791  1.5013 -0.4242 -0.4065
 7740SOL    HW234854   1.766   1.658  12.810 -0.1239  0.1602  0.2290
 7741SOL     OW34855   3.952   3.297   7.693 -0.1502  0.3796  1.0990
 7741SOL    HW134856   3.970   3.237   7.621 -1.4312 -0.9062  1.8553
 7741SOL    HW234857   4.032   3.351   7.692 -0.2409  0.4935 -0.9683
 7742SOL     OW34858   1.818   2.839   4.179 -0.3370 -0.1640  0.3864
 7742SOL    HW134859   1.738   2.797   4.148  0.4269 -0.1219 -1.6495
 7742SOL    HW234860   1.799   2.875   4.266  0.6554 -2.1291  1.4200
 7743SOL     OW34861   1.995   2.346  11.594 -0.7730  0.6934 -0.1915
 7743SOL    HW134862   2.064   2.337  11.528 -0.5116  1.2720  0.0038
 7743SOL    HW234863   2.044   2.315  11.669 -0.0630 -2.3449 -1.9026
 7744SOL     OW34864   3.292   2.003   6.158 -0.0166 -0.0322  0.3944
 7744SOL    HW134865   3.372   1.953   6.169 -0.6937 -1.0083  0.9105
 7744SOL    HW234866   3.284   2.032   6.249  0.6871 -0.8613  0.7286
 7745SOL     OW34867   0.093   0.715   8.047 -0.3297 -0.1029 -0.5183
 7745SOL    HW134868   0.155   0.681   8.112 -0.1621  3.9171  1.4249
 7745SOL    HW234869   0.084   0.809   8.065  1.6689  0.0872 -0.4605
 7746SOL     OW34870   4.652   4.485   8.777  0.5799 -0.0700 -0.1076
 7746SOL    HW134871   4.631   4.517   8.865  1.1492 -1.8184  0.6552
 7746SOL    HW234872   4.735   4.531   8.765  0.0078  0.9266 -0.2665
 7747SOL     OW34873   4.066   1.004   6.258  0.0616 -0.5868  0.4691
 7747SOL    HW134874   4.077   1.098   6.247 -0.2912 -0.6431 -0.3621
 7747SOL    HW234875   4.131   0.977   6.193 -0.6565 -0.0908 -0.4574
 7748SOL     OW34876   2.263   4.575   8.244 -0.2408  0.3406 -0.4320
 7748SOL    HW134877   2.213   4.637   8.192 -1.2691 -0.1752 -0.0509
 7748SOL    HW234878   2.327   4.544   8.180 -0.0414  0.2239 -0.1787
 7749SOL     OW34879   0.980   2.733  17.265  0.0346  0.8030  0.0393
 7749SOL    HW134880   0.963   2.817  17.223 -0.4964 -0.4558 -2.2610
 7749SOL    HW234881   1.028   2.685  17.198 -0.5315 -1.5826  1.3453
 7750SOL     OW34882   1.760   4.738   3.158 -0.2713 -0.1449  0.2630
 7750SOL    HW134883   1.800   4.661   3.117 -2.2856 -0.5767 -0.8808
 7750SOL    HW234884   1.830   0.022   3.219 -0.5279 -0.7144  0.7584
 7751SOL     OW34885   2.651   0.050   5.273 -0.3361  0.4990  0.0700
 7751SOL    HW134886   2.742   0.077   5.256  0.6533 -2.4053  0.7714
 7751SOL    HW234887   2.660   4.695   5.254  0.3521  1.1704 -2.9067
 7752SOL     OW34888   4.059   1.259   1.068 -0.1983  0.1097 -0.1958
 7752SOL    HW134889   4.077   1.215   1.151 -1.7255  0.9882  0.5949
 7752SOL    HW234890   4.144   1.270   1.026 -0.4477  0.6454 -0.5583
 7753SOL     OW34891   0.429   2.663   3.885  0.4206 -0.4151 -0.4406
 7753SOL    HW134892   0.505   2.721   3.892  0.0231  0.0595  0.0262
 7753SOL    HW234893   0.390   2.695   3.966 -1.4224  1.4857 -2.0812
 7754SOL     OW34894   1.765   3.052   5.666 -0.5954 -0.1780 -0.3568
 7754SOL    HW134895   1.799   3.010   5.587 -0.4495  1.1468 -1.0078
 7754SOL    HW234896   1.836   3.114   5.686 -1.4315  0.5879  0.2497
 7755SOL     OW34897   3.675   1.728   4.579 -0.6937  0.4962  0.4021
 7755SOL    HW134898   3.760   1.772   4.571  0.5736 -1.5894  2.5478
 7755SOL    HW234899   3.701   1.644   4.541  0.0688  0.1909  1.5900
 7756SOL     OW34900   3.812   0.083   0.327 -0.6081 -0.3058 -0.2037
 7756SOL    HW134901   3.894   0.134   0.329 -0.7554 -0.0016 -2.8482
 7756SOL    HW234902   3.842   4.732   0.341 -0.3982 -0.0745  0.8327
 7757SOL     OW34903   1.246   4.235   2.097  0.1475 -0.4114 -0.0612
 7757SOL    HW134904   1.212   4.149   2.121  1.7050 -1.0835 -0.2390
 7757SOL    HW234905   1.336   4.233   2.128 -0.1149  1.3116  0.7730
 7758SOL     OW34906   4.550   0.639   6.376 -0.4774 -0.3729 -0.5954
 7758SOL    HW134907   4.509   0.723   6.400 -0.5816 -0.6122  0.0495
 7758SOL    HW234908   4.570   0.606   6.463  0.0910 -0.0656 -0.6127
 7759SOL     OW34909   2.320   4.034   7.554 -0.1140  0.1761  0.1074
 7759SOL    HW134910   2.323   4.116   7.504 -0.1851 -0.6095 -1.1900
 7759SOL    HW234911   2.243   3.995   7.512 -0.9895  0.9734  0.9564
 7760SOL     OW34912   0.712   0.036   2.871 -0.5245  0.3239 -0.1272
 7760SOL    HW134913   0.745   0.011   2.958 -2.0671  0.7185  0.5627
 7760SOL    HW234914   0.617   0.041   2.882 -0.7521 -0.8028 -1.5818
 7761SOL     OW34915   4.289   1.043   2.876  0.0773  0.8560  0.7947
 7761SOL    HW134916   4.209   1.020   2.922  0.7326 -0.2628  1.3757
 7761SOL    HW234917   4.356   0.994   2.925 -0.9533 -1.3970 -0.0273
 7762SOL     OW34918   3.729   1.710   5.930  0.3965  0.2956  0.2766
 7762SOL    HW134919   3.812   1.744   5.963  1.1436 -0.4083 -0.8660
 7762SOL    HW234920   3.730   1.625   5.974 -2.3367  0.5571  0.8565
 7763SOL     OW34921   0.729   1.090   4.774 -0.5839 -0.0573 -0.0299
 7763SOL    HW134922   0.771   1.010   4.805 -2.3149 -0.8439  0.2205
 7763SOL    HW234923   0.684   1.123   4.852  0.2571 -1.0076  0.8589
 7764SOL     OW34924   2.595   3.555   1.466  0.5999 -0.6122 -0.1495
 7764SOL    HW134925   2.657   3.580   1.535 -1.2086  2.1329  0.4742
 7764SOL    HW234926   2.641   3.480   1.428  0.2448 -0.1118 -1.5752
 7765SOL     OW34927   0.105   1.402  10.198  0.3109  0.2129  0.6060
 7765SOL    HW134928   0.040   1.370  10.260 -2.3309  1.9978 -1.2695
 7765SOL    HW234929   0.069   1.489  10.184  1.6248  0.6175 -0.3300
 7766SOL     OW34930   2.852   4.242   8.834  0.5228 -0.1946 -0.2156
 7766SOL    HW134931   2.886   4.331   8.822  5.0644 -1.9915 -0.4773
 7766SOL    HW234932   2.776   4.255   8.776 -0.6228 -0.2251  1.2699
 7767SOL     OW34933   1.216   4.606   4.743 -0.4422 -0.0584 -0.2994
 7767SOL    HW134934   1.234   4.624   4.650 -1.4774  0.3097 -0.4296
 7767SOL    HW234935   1.263   4.524   4.756 -0.7300 -0.5510 -2.3252
 7768SOL     OW34936   2.902   2.752   6.834  0.0669 -0.2559 -0.5041
 7768SOL    HW134937   2.994   2.748   6.806  0.0593  2.7557 -0.9422
 7768SOL    HW234938   2.879   2.839   6.802  0.9892 -0.5735 -2.0532
 7769SOL     OW34939   0.147   3.709   8.197  0.8696  0.5738  0.3883
 7769SOL    HW134940   0.237   3.740   8.209  1.3096 -1.2524  1.8675
 7769SOL    HW234941   0.158   3.626   8.244  1.9316 -0.2081 -1.2103
 7770SOL     OW34942   0.416   3.973  15.761  0.7716 -0.6289  0.2304
 7770SOL    HW134943   0.391   3.924  15.682 -0.9972 -0.1928  0.5218
 7770SOL    HW234944   0.508   3.947  15.766  1.8304  2.7320 -1.5776
 7771SOL     OW34945   2.800   2.146  10.892  0.2000 -0.2718 -0.1225
 7771SOL    HW134946   2.837   2.230  10.921  1.5452 -0.4178 -1.3729
 7771SOL    HW234947   2.804   2.159  10.797  1.8923  1.0360  0.1214
 7772SOL     OW34948   4.289   0.552   7.415 -0.4780  0.6188  0.2738
 7772SOL    HW134949   4.374   0.517   7.442  0.2792  1.3441 -1.1450
 7772SOL    HW234950   4.268   0.593   7.499  0.7170 -2.3166  1.9939
 7773SOL     OW34951   4.311   0.004   9.532 -0.0240 -0.2011  0.0428
 7773SOL    HW134952   4.291   4.649   9.541  0.9877 -0.4927 -0.7918
 7773SOL    HW234953   4.288   0.012   9.440  0.9567  1.5298 -0.0525
 7774SOL     OW34954   3.589   3.057  15.782 -0.3344 -0.0507  0.4030
 7774SOL    HW134955   3.631   3.128  15.830 -0.8939 -0.4725  1.5223
 7774SOL    HW234956   3.619   3.070  15.692  1.7280 -0.0421  1.0799
 7775SOL     OW34957   1.245   3.291   7.524 -0.1997 -0.6841 -0.0571
 7775SOL    HW134958   1.273   3.254   7.608  2.8346 -0.3991 -0.9584
 7775SOL    HW234959   1.156   3.312   7.554  0.7708  4.9662 -1.2018
 7776SOL     OW34960   0.187   1.798   3.610  0.0383 -0.2569  0.5591
 7776SOL    HW134961   0.249   1.818   3.680  1.6560  0.6810 -1.1471
 7776SOL    HW234962   0.255   1.807   3.543 -0.9441 -0.4411 -0.4666
 7777SOL     OW34963   0.150   1.611   2.815  0.7117  0.2324  0.4507
 7777SOL    HW134964   0.135   1.673   2.886  0.1106  0.9061 -0.2659
 7777SOL    HW234965   0.230   1.575   2.852  0.4125 -1.3029 -0.4204
 7778SOL     OW34966   4.107   1.659  15.403  0.1437  0.3242 -0.0716
 7778SOL    HW134967   4.036   1.597  15.423 -0.1156  0.8296  0.5561
 7778SOL    HW234968   4.081   1.696  15.319  0.6915  0.9338  0.0315
 7779SOL     OW34969   3.231   0.591   5.366 -0.3380  0.2922 -0.5113
 7779SOL    HW134970   3.169   0.629   5.428 -2.2894  0.5962 -2.6487
 7779SOL    HW234971   3.186   0.624   5.288  0.1801  0.0810 -0.9011
 7780SOL     OW34972   1.383   3.678   2.629  0.2824  0.3751 -0.4342
 7780SOL    HW134973   1.317   3.703   2.694  1.5010 -0.8993  1.2981
 7780SOL    HW234974   1.462   3.680   2.683 -1.3121 -0.9160  1.9876
 7781SOL     OW34975   4.070   0.471   2.385 -0.1828  0.4114  0.6769
 7781SOL    HW134976   4.031   0.501   2.468  3.9522  0.8955  2.4251
 7781SOL    HW234977   3.992   0.427   2.351  0.2512 -0.4245  0.7518
 7782SOL     OW34978   2.017   0.386   7.405 -0.1261  0.3610  0.1168
 7782SOL    HW134979   2.000   0.333   7.328 -1.0162  0.9631 -0.1012
 7782SOL    HW234980   2.039   0.461   7.350  0.3728  1.9904  2.4953
 7783SOL     OW34981   1.672   0.636  15.389 -0.5407 -0.3778  0.3417
 7783SOL    HW134982   1.727   0.646  15.467  0.0082 -1.2631  0.0612
 7783SOL    HW234983   1.614   0.568  15.423 -0.3307 -0.4498  0.5651
 7784SOL     OW34984   1.881   2.850   7.968  0.2339 -0.0177 -0.5440
 7784SOL    HW134985   1.941   2.776   7.966  0.7183  0.3348  0.7838
 7784SOL    HW234986   1.853   2.855   8.060 -4.1155  1.5598 -1.9474
 7785SOL     OW34987   4.620   3.208   4.074  0.8003 -0.1350  0.0129
 7785SOL    HW134988   4.610   3.165   3.988 -1.7786  1.0019 -0.2752
 7785SOL    HW234989   4.703   3.188   4.116 -0.0861 -2.5084  0.6543
 7786SOL     OW34990   1.745   0.553   7.893  0.2462  0.1299  0.2800
 7786SOL    HW134991   1.818   0.491   7.894 -0.2513 -0.4740 -0.2422
 7786SOL    HW234992   1.669   0.502   7.923 -1.4025  1.1191 -2.2072
 7787SOL     OW34993   3.870   3.927   3.543  0.3107 -0.1521  0.6416
 7787SOL    HW134994   3.935   3.945   3.611  1.5901  0.3643 -0.7404
 7787SOL    HW234995   3.935   3.893   3.481 -0.3662  0.3234 -0.3197
 7788SOL     OW34996   2.974   1.304  11.962  0.1540  0.3991 -0.1707
 7788SOL    HW134997   2.888   1.261  11.958 -0.6635  1.6606  3.5068
 7788SOL    HW234998   3.037   1.231  11.960 -1.2290 -0.8249  0.8796
 7789SOL     OW34999   1.723   2.665  14.749 -0.1951  0.0492  0.2349
 7789SOL    HW135000   1.649   2.624  14.795  1.1345 -0.3281  2.0435
 7789SOL    HW235001   1.684   2.708  14.672 -0.5481  1.4728  1.2094
 7790SOL     OW35002   3.226   2.465  15.821 -0.1190 -0.0329 -0.2046
 7790SOL    HW135003   3.266   2.435  15.903 -0.0764  0.5691 -0.0067
 7790SOL    HW235004   3.181   2.543  15.852  0.5767  0.6245 -0.8259
 7791SOL     OW35005   1.180   2.791  11.473  0.2904 -0.0304  0.2103
 7791SOL    HW135006   1.128   2.848  11.418  0.7516 -0.0276 -0.2244
 7791SOL    HW235007   1.143   2.704  11.457 -0.2070 -0.0147  1.3029
 7792SOL     OW35008   1.350   3.909   6.375 -0.4730 -0.1092 -0.3583
 7792SOL    HW135009   1.284   3.959   6.422  0.2763  0.5634 -0.0398
 7792SOL    HW235010   1.365   3.974   6.306  0.1359 -1.9931 -2.0277
 7793SOL     OW35011   2.532   1.216  13.389 -0.6003 -0.1446 -0.5838
 7793SOL    HW135012   2.524   1.310  13.371  0.0476  0.0195 -0.0297
 7793SOL    HW235013   2.622   1.196  13.362 -1.3110 -2.5932 -1.1147
 7794SOL     OW35014   0.808   1.626  10.122  0.3548  0.4975 -0.2246
 7794SOL    HW135015   0.730   1.624  10.067  0.1702  0.3970  0.0415
 7794SOL    HW235016   0.885   1.629  10.065  1.2256 -3.6611  0.7142
 7795SOL     OW35017   1.211   3.714   8.945 -0.3221 -0.2195  0.5402
 7795SOL    HW135018   1.275   3.726   8.875 -0.8217 -0.0662  0.1078
 7795SOL    HW235019   1.190   3.802   8.978 -1.9069 -0.3145 -0.2053
 7796SOL     OW35020   0.525   2.447   9.027 -0.5862  0.0304 -0.0112
 7796SOL    HW135021   0.594   2.400   8.980 -0.4211  0.0665  0.1941
 7796SOL    HW235022   0.566   2.534   9.030  0.1181 -0.2720 -1.0464
 7797SOL     OW35023   0.037   4.075   6.269 -0.1942 -0.0088 -0.0483
 7797SOL    HW135024   0.099   4.021   6.317  0.8507  1.5359  0.3429
 7797SOL    HW235025   0.076   4.069   6.182 -2.2185 -1.1271 -0.8612
 7798SOL     OW35026   1.162   2.867   6.293 -0.2210  0.5241 -0.2336
 7798SOL    HW135027   1.200   2.810   6.359  0.5238 -0.7512 -1.7463
 7798SOL    HW235028   1.239   2.874   6.236 -0.4363 -1.9777 -0.8471
 7799SOL     OW35029   4.342   1.640  17.664  0.3373  0.1909 -0.0920
 7799SOL    HW135030   4.352   1.553  17.703  0.2802  1.3228  2.4751
 7799SOL    HW235031   4.329   1.617  17.572 -1.0529 -1.5247  0.5496
 7800SOL     OW35032   2.805   3.150  10.866 -0.1003 -0.5909 -0.3899
 7800SOL    HW135033   2.850   3.164  10.949 -1.3679 -1.8858  0.5108
 7800SOL    HW235034   2.845   3.217  10.809  0.0566 -1.3447 -1.1640
 7801SOL     OW35035   3.372   3.135   8.101 -0.6685 -0.0774 -0.0581
 7801SOL    HW135036   3.334   3.131   8.188  2.1486  1.8975  1.2940
 7801SOL    HW235037   3.340   3.060   8.051 -0.8052  0.3420 -0.6093
 7802SOL     OW35038   1.619   1.000  10.217  0.5467 -0.3301 -0.0065
 7802SOL    HW135039   1.637   0.973  10.307  3.3735 -1.0235 -0.7623
 7802SOL    HW235040   1.529   1.030  10.225  0.0413 -1.9311  0.3423
 7803SOL     OW35041   3.537   1.418   0.220  0.5089  0.4133  0.3827
 7803SOL    HW135042   3.512   1.503   0.183 -0.7164  0.9782  2.5376
 7803SOL    HW235043   3.619   1.452   0.254  1.5603 -0.2410 -1.4499
 7804SOL     OW35044   2.539   4.728   1.951 -0.4678 -0.3304  0.7181
 7804SOL    HW135045   2.521   0.083   1.963 -5.1493 -1.0283 -0.5356
 7804SOL    HW235046   2.448   4.698   1.963 -0.4511 -0.5482  0.3058
 7805SOL     OW35047   1.085   0.340   3.628  0.0468 -1.0820 -0.3715
 7805SOL    HW135048   1.119   0.251   3.627  0.9790 -0.7295 -0.2723
 7805SOL    HW235049   1.159   0.380   3.583 -0.8214  0.1697 -0.6883
 7806SOL     OW35050   3.097   0.873   8.303  0.2959  0.7495 -0.4782
 7806SOL    HW135051   3.031   0.925   8.257 -0.9095 -0.8947 -0.6172
 7806SOL    HW235052   3.116   0.800   8.245  1.0841  2.6043 -2.5433
 7807SOL     OW35053   4.640   2.918   6.979 -0.0383 -0.5624 -0.1052
 7807SOL    HW135054   4.689   2.973   7.040  1.6519 -2.7075  0.4738
 7807SOL    HW235055   4.654   2.831   7.017 -1.2523 -0.7194 -0.0289
 7808SOL     OW35056   1.266   4.669   8.348 -0.0699  0.6481 -0.1471
 7808SOL    HW135057   1.193   4.645   8.405  0.1894  1.5476  0.5572
 7808SOL    HW235058   1.286   4.589   8.298 -1.1679  2.0669 -2.8590
 7809SOL     OW35059   3.226   4.060   3.352 -0.5205  0.5136 -0.7323
 7809SOL    HW135060   3.220   3.997   3.425 -0.7465  0.0314 -1.1637
 7809SOL    HW235061   3.283   4.005   3.298  0.8756 -0.6965  1.9271
 7810SOL     OW35062   2.337   3.584   6.474  0.1100 -0.2454  0.0339
 7810SOL    HW135063   2.433   3.589   6.476  0.0173  1.9784 -0.9549
 7810SOL    HW235064   2.320   3.613   6.563 -0.5406  1.8900 -0.7842
 7811SOL     OW35065   1.400   4.256  11.681 -0.3641 -0.0665  0.4614
 7811SOL    HW135066   1.388   4.307  11.761 -0.5382 -1.0234  1.0444
 7811SOL    HW235067   1.335   4.300  11.627  0.5986  0.8410  0.0320
 7812SOL     OW35068   3.261   2.232   6.853 -0.3809  0.1119 -0.6108
 7812SOL    HW135069   3.222   2.295   6.913 -0.9294 -0.9108  0.1068
 7812SOL    HW235070   3.215   2.151   6.875  0.1624  0.4130  1.6164
 7813SOL     OW35071   4.067   1.595   3.043  0.2435 -0.9300  0.1108
 7813SOL    HW135072   4.093   1.669   3.097  1.5811 -1.5756  0.3682
 7813SOL    HW235073   3.997   1.565   3.101 -0.0402  1.2811  0.9004
 7814SOL     OW35074   1.700   0.289   2.291 -0.4249 -0.5019  0.8077
 7814SOL    HW135075   1.622   0.259   2.338 -2.2325  2.5278 -0.2353
 7814SOL    HW235076   1.677   0.264   2.202 -0.4930  1.3684  0.2833
 7815SOL     OW35077   3.457   0.384   6.949 -0.9597  0.5201 -0.2564
 7815SOL    HW135078   3.376   0.337   6.928 -0.2962 -0.3244 -0.9140
 7815SOL    HW235079   3.522   0.314   6.956  0.4882  1.7607 -1.3593
 7816SOL     OW35080   4.432   0.331   3.083 -0.3755 -0.2937  0.3716
 7816SOL    HW135081   4.353   0.385   3.088 -0.0422  0.0232  2.3055
 7816SOL    HW235082   4.405   0.247   3.046 -0.4043 -0.5587  0.9920
 7817SOL     OW35083   2.514   2.707   5.655  0.4172  0.3207 -0.5477
 7817SOL    HW135084   2.514   2.636   5.720 -0.0102  3.2301  2.6095
 7817SOL    HW235085   2.609   2.717   5.649  0.6711 -1.1667  0.9764
 7818SOL     OW35086   0.858   2.130   3.936 -0.6809  0.3872  0.0921
 7818SOL    HW135087   0.842   2.037   3.953 -0.5285  0.6460  1.5807
 7818SOL    HW235088   0.902   2.162   4.014  2.2481 -0.6662 -1.1044
 7819SOL     OW35089   1.628   3.802   7.152  0.3895 -0.2899  0.1771
 7819SOL    HW135090   1.663   3.713   7.144  1.3268  0.0537  0.4001
 7819SOL    HW235091   1.698   3.849   7.109  2.3907  0.2675  4.0267
 7820SOL     OW35092   3.238   3.327   5.983  0.3801 -0.2369 -0.0120
 7820SOL    HW135093   3.244   3.262   5.913 -0.1701 -0.7852  0.4466
 7820SOL    HW235094   3.208   3.402   5.931 -0.5316 -0.3000  0.4224
 7821SOL     OW35095   0.308   1.768  15.556  0.6522  0.0736  0.7013
 7821SOL    HW135096   0.402   1.753  15.561  0.1521 -2.8469  1.4862
 7821SOL    HW235097   0.284   1.689  15.605  0.8780 -1.1599 -1.1922
 7822SOL     OW35098   4.557   3.940   5.345 -0.1957  0.0434  0.4045
 7822SOL    HW135099   4.636   3.989   5.369  0.2980 -1.0131  0.9436
 7822SOL    HW235100   4.515   3.941   5.431 -2.4636 -0.6742 -0.6907
 7823SOL     OW35101   4.622   1.885   0.503  0.3181  0.7882 -0.4720
 7823SOL    HW135102   4.585   1.933   0.428 -1.1659  2.8205  1.5654
 7823SOL    HW235103   4.716   1.892   0.488  0.4854 -0.6945 -0.0486
 7824SOL     OW35104   1.123   3.147  12.783 -0.5380 -0.3400 -0.0372
 7824SOL    HW135105   1.171   3.103  12.713  0.9206  0.5691  0.3965
 7824SOL    HW235106   1.030   3.128  12.771 -0.4096 -0.3972 -0.9950
 7825SOL     OW35107   1.611   1.651   7.498 -0.4191 -0.7931 -0.0678
 7825SOL    HW135108   1.705   1.649   7.518 -0.4409 -0.5957  0.0550
 7825SOL    HW235109   1.608   1.733   7.449  1.1044 -0.9862 -0.5055
 7826SOL     OW35110   3.477   3.181   2.779  0.1987 -0.1592 -0.0061
 7826SOL    HW135111   3.401   3.142   2.820  0.1670 -0.3068 -0.2043
 7826SOL    HW235112   3.461   3.149   2.690 -1.1467 -0.3402  0.3121
 7827SOL     OW35113   3.804   1.057   7.293 -0.1993 -0.5267  0.6577
 7827SOL    HW135114   3.723   1.006   7.292  0.7477 -2.0147  0.3493
 7827SOL    HW235115   3.817   1.094   7.205  1.2729 -2.0296  0.2479
 7828SOL     OW35116   3.044   1.841  10.098  0.3054 -0.2741  0.2951
 7828SOL    HW135117   2.974   1.859  10.035  1.0739 -1.9722 -1.0796
 7828SOL    HW235118   3.099   1.917  10.081  0.2475 -0.4652 -0.7923
 7829SOL     OW35119   0.827   1.735   9.794  0.1203  0.0879 -0.0698
 7829SOL    HW135120   0.808   1.750   9.702  3.2410  0.0063 -0.7169
 7829SOL    HW235121   0.829   1.640   9.796 -0.6471  0.0872  1.1239
 7830SOL     OW35122   4.458   0.097   6.204 -0.3823 -0.1171 -0.0860
 7830SOL    HW135123   4.402   0.022   6.224  1.8795 -1.5923  0.6397
 7830SOL    HW235124   4.523   0.064   6.142 -0.8685 -2.4976  0.6846
 7831SOL     OW35125   3.148   3.901   3.553  0.0061 -0.1950  0.7930
 7831SOL    HW135126   3.064   3.856   3.542  0.3569  0.0292 -2.8123
 7831SOL    HW235127   3.123   3.947   3.633  1.0038 -1.4986  1.8574
 7832SOL     OW35128   2.137   2.263  17.307 -0.6074  0.3588  0.0715
 7832SOL    HW135129   2.190   2.190  17.339  1.3429  1.9765  0.5139
 7832SOL    HW235130   2.206   2.321  17.275  0.0962 -0.4162  0.1890
 7833SOL     OW35131   0.840   3.255  13.433  0.5810  0.2841  0.6299
 7833SOL    HW135132   0.860   3.349  13.441  0.8652  0.2141  0.7453
 7833SOL    HW235133   0.928   3.218  13.437  0.6212  0.2049 -0.9431
 7834SOL     OW35134   2.797   2.448   1.687 -0.4543  0.2369 -0.1879
 7834SOL    HW135135   2.776   2.361   1.721 -2.0387  0.8169  0.2951
 7834SOL    HW235136   2.771   2.500   1.764  0.2749 -0.5107  0.5594
 7835SOL     OW35137   3.030   2.852   2.579 -0.4708 -0.4314 -0.0525
 7835SOL    HW135138   3.055   2.817   2.493  1.7281  1.5651 -0.2122
 7835SOL    HW235139   3.048   2.772   2.629 -0.2942 -1.2651 -1.4452
 7836SOL     OW35140   0.144   4.155   7.069 -0.0244 -0.4854  0.2406
 7836SOL    HW135141   0.191   4.130   7.149 -1.2284 -0.8968  0.8161
 7836SOL    HW235142   0.068   4.097   7.066  0.5934 -1.3099  0.3980
 7837SOL     OW35143   1.404   1.946   4.354 -0.5342  0.2002  0.1028
 7837SOL    HW135144   1.404   1.983   4.442 -0.7650  0.4625 -0.0035
 7837SOL    HW235145   1.483   1.980   4.313  1.6023 -0.6872  3.4856
 7838SOL     OW35146   4.220   1.924   6.039  0.0103 -0.0281 -0.4892
 7838SOL    HW135147   4.161   1.976   6.093  1.9032  0.0835  1.4934
 7838SOL    HW235148   4.217   1.842   6.087 -1.2368  0.0055 -0.5152
 7839SOL     OW35149   3.947   3.961   5.457 -0.9524 -0.4302  1.1364
 7839SOL    HW135150   3.944   3.869   5.432  0.9400 -0.0310 -0.6039
 7839SOL    HW235151   3.870   3.997   5.414  0.1286  1.2977  0.5983
 7840SOL     OW35152   3.385   4.116   8.117  0.6720  0.4847  0.2441
 7840SOL    HW135153   3.295   4.143   8.132 -0.1342 -1.8677 -0.3019
 7840SOL    HW235154   3.424   4.159   8.193  0.9572  0.8419 -0.1065
 7841SOL     OW35155   1.374   3.987   2.487 -0.2173 -0.1781  0.2554
 7841SOL    HW135156   1.372   3.893   2.471 -0.9880 -0.9692  4.9820
 7841SOL    HW235157   1.449   4.004   2.544  1.1625  3.2641 -2.6119
 7842SOL     OW35158   2.028   1.868   0.486 -0.0762 -0.2811 -0.0516
 7842SOL    HW135159   1.987   1.781   0.490 -1.2908  0.3982  2.3871
 7842SOL    HW235160   2.056   1.868   0.395 -2.4509  0.1571 -0.7900
 7843SOL     OW35161   2.831   0.187  14.939  0.0555  0.0462 -0.2415
 7843SOL    HW135162   2.851   0.279  14.923  0.8454 -0.4698 -2.1183
 7843SOL    HW235163   2.828   0.145  14.853  1.3443 -2.4862  0.9344
 7844SOL     OW35164   1.216   0.076   5.842  0.3537 -0.4092  0.2405
 7844SOL    HW135165   1.267   0.096   5.763  0.5083  1.0993  0.7281
 7844SOL    HW235166   1.176   0.162   5.856  0.8100 -0.2227  0.3828
 7845SOL     OW35167   3.192   0.082  17.077 -0.0748 -0.8047 -0.5270
 7845SOL    HW135168   3.265   0.140  17.054  0.9684 -2.0858 -0.4271
 7845SOL    HW235169   3.116   0.141  17.074  0.1999 -0.2681  3.2051
 7846SOL     OW35170   2.396   2.782   8.449 -0.0156 -0.3759 -0.8537
 7846SOL    HW135171   2.312   2.806   8.487 -0.3458 -0.2581 -1.6633
 7846SOL    HW235172   2.428   2.732   8.525 -0.5789  0.2840 -0.1805
 7847SOL     OW35173   1.913   2.961  17.390  0.3290  0.3514  0.6622
 7847SOL    HW135174   1.866   3.018  17.451 -0.5967  0.3099 -0.0157
 7847SOL    HW235175   1.937   3.011  17.312 -1.4448  1.3915  0.7799
 7848SOL     OW35176   2.952   1.710  10.893  0.1327 -0.3163 -0.2556
 7848SOL    HW135177   3.024   1.674  10.840  0.2976 -0.6379  0.1862
 7848SOL    HW235178   2.906   1.627  10.906  2.5660 -1.8038 -1.0675
 7849SOL     OW35179   2.571   4.257  13.246  0.1674  0.0910 -0.4256
 7849SOL    HW135180   2.632   4.277  13.175 -1.3478  0.5532 -1.5899
 7849SOL    HW235181   2.607   4.317  13.311 -0.6106  0.5736 -0.4486
 7850SOL     OW35182   4.500   3.510   8.300 -0.6626  0.1146 -0.5723
 7850SOL    HW135183   4.537   3.585   8.254 -1.6660  0.5730 -0.6314
 7850SOL    HW235184   4.407   3.532   8.288 -0.5206  1.0276  0.0510
 7851SOL     OW35185   3.899   4.355   3.291 -0.2927  0.2860  0.2887
 7851SOL    HW135186   3.825   4.402   3.254  0.3200  1.0128 -0.0273
 7851SOL    HW235187   3.934   4.428   3.343  1.0864  1.3537 -2.0856
 7852SOL     OW35188   3.509   4.364   8.758  0.0364 -0.2845  0.3796
 7852SOL    HW135189   3.482   4.283   8.802  1.2923 -0.3643  0.9836
 7852SOL    HW235190   3.453   4.426   8.804 -0.4300  0.5260 -1.2789
 7853SOL     OW35191   2.446   0.860   2.846 -0.3677  0.0455 -0.0894
 7853SOL    HW135192   2.469   0.946   2.811 -1.5618  1.0885  1.7271
 7853SOL    HW235193   2.525   0.811   2.822  0.4719 -0.0160  2.7549
 7854SOL     OW35194   2.711   0.932   2.534 -0.7049  0.1682 -0.6150
 7854SOL    HW135195   2.684   0.846   2.566 -0.7593  0.1874 -0.6100
 7854SOL    HW235196   2.734   0.974   2.617 -0.4967 -1.4608  0.1595
 7855SOL     OW35197   1.239   1.855   4.185 -0.4172  0.0170  0.0708
 7855SOL    HW135198   1.303   1.889   4.248 -0.1363  1.5205 -1.0217
 7855SOL    HW235199   1.159   1.902   4.208 -0.6811  0.7826 -2.4652
 7856SOL     OW35200   3.842   3.003   8.503  0.5352  0.0571 -0.1752
 7856SOL    HW135201   3.901   3.066   8.462 -0.3619 -0.2598 -1.9652
 7856SOL    HW235202   3.871   3.006   8.594  0.1553  2.9769 -0.1483
 7857SOL     OW35203   3.204   4.475  14.518  0.0044 -0.1584 -0.2491
 7857SOL    HW135204   3.158   4.433  14.590 -0.6459  1.1878  0.1158
 7857SOL    HW235205   3.274   4.413  14.495  0.0559 -0.5883  1.1127
 7858SOL     OW35206   0.052   2.216  17.704  0.4152 -0.1971 -0.3210
 7858SOL    HW135207   0.098   2.259   0.024 -2.9767  1.8832  0.5676
 7858SOL    HW235208   4.712   2.269  17.693  0.2374 -0.0740  1.5577
 7859SOL     OW35209   3.633   1.180   9.953  0.0953  0.1550  0.0260
 7859SOL    HW135210   3.648   1.273   9.971  0.3235 -0.0136  0.6945
 7859SOL    HW235211   3.598   1.158  10.039  0.7337  2.3188  0.8448
 7860SOL     OW35212   2.019   1.894   0.833  1.1310  0.3546 -0.0857
 7860SOL    HW135213   2.072   1.928   0.905  0.0875 -1.8515  1.7496
 7860SOL    HW235214   2.075   1.927   0.763  1.0189  1.7691  0.4919
 7861SOL     OW35215   3.212   1.478  12.481 -0.5619 -0.2587  0.1544
 7861SOL    HW135216   3.262   1.439  12.552 -0.9726  0.1058  0.6480
 7861SOL    HW235217   3.121   1.456  12.499 -0.7496  2.5422  2.6621
 7862SOL     OW35218   2.477   3.741   8.906  0.3564 -0.9864  0.1165
 7862SOL    HW135219   2.523   3.659   8.888 -1.1486 -1.5029 -1.3481
 7862SOL    HW235220   2.506   3.794   8.831 -0.6007 -0.4042  0.1654
 7863SOL     OW35221   0.076   0.691   6.847 -0.3638 -0.1474 -0.0235
 7863SOL    HW135222   0.132   0.671   6.922  0.1071 -0.7092 -0.5191
 7863SOL    HW235223   0.101   0.630   6.777  1.8620 -2.1437  2.5227
 7864SOL     OW35224   0.213   0.283  12.230  0.1792 -0.1682 -0.1677
 7864SOL    HW135225   0.187   0.373  12.209  0.5101 -0.1589 -0.5447
 7864SOL    HW235226   0.126   0.251  12.251  1.0825 -2.6492 -0.2341
 7865SOL     OW35227   1.992   1.407  12.992  0.2772 -0.4438 -0.2151
 7865SOL    HW135228   2.055   1.342  12.962  1.2783  0.4880 -0.1173
 7865SOL    HW235229   1.909   1.383  12.951 -0.3767  0.5483  0.5315
 7866SOL     OW35230   3.909   1.010   1.000  0.0298 -0.2203  0.0910
 7866SOL    HW135231   3.944   1.095   1.026  1.5719 -0.6526 -0.5716
 7866SOL    HW235232   3.905   1.030   0.906  1.4447 -1.4779 -0.2182
 7867SOL     OW35233   0.638   0.241   3.149 -0.1721 -0.0652  0.2349
 7867SOL    HW135234   0.613   0.164   3.098 -0.6134  0.6484 -0.6469
 7867SOL    HW235235   0.731   0.253   3.131 -0.3540 -0.3779 -0.9409
 7868SOL     OW35236   0.748   1.012   1.142 -0.4537 -0.5329  0.1959
 7868SOL    HW135237   0.789   1.088   1.099 -1.3279 -0.0240  0.2716
 7868SOL    HW235238   0.816   0.945   1.134 -0.0766 -0.3895  2.2117
 7869SOL     OW35239   0.215   2.818   8.702 -0.0292  0.2900 -0.3534
 7869SOL    HW135240   0.224   2.886   8.769  0.0715 -0.0276 -0.0417
 7869SOL    HW235241   0.294   2.825   8.650  1.2439 -0.3719  1.4840
 7870SOL     OW35242   1.134   3.062   2.916  0.3850 -0.0887  0.4839
 7870SOL    HW135243   1.099   3.147   2.887  0.4924 -0.5862 -1.0485
 7870SOL    HW235244   1.198   3.089   2.982 -1.3704  2.5147  1.1603
 7871SOL     OW35245   1.106   1.905   9.810  0.1545 -0.2144  0.3246
 7871SOL    HW135246   1.011   1.898   9.798  0.7017 -2.4243 -2.8364
 7871SOL    HW235247   1.130   1.833   9.868 -1.3158  1.8203  3.4361
 7872SOL     OW35248   2.077   2.433   1.069  0.4537 -0.3218  0.6303
 7872SOL    HW135249   2.032   2.437   0.985  2.2539  1.2265 -0.2376
 7872SOL    HW235250   2.148   2.369   1.070  0.1875 -0.6292 -1.0620
 7873SOL     OW35251   4.386   2.467   8.309 -0.1209 -0.0169  0.5171
 7873SOL    HW135252   4.370   2.561   8.314 -0.4667 -0.1030  1.0078
 7873SOL    HW235253   4.477   2.470   8.279  0.1998  1.8537  1.6777
 7874SOL     OW35254   3.484   1.605   2.660 -0.1428 -0.4102 -0.3043
 7874SOL    HW135255   3.461   1.616   2.568 -3.4380  0.3045  0.6240
 7874SOL    HW235256   3.421   1.549   2.705  0.5567  0.3017  1.5487
 7875SOL     OW35257   3.019   0.867   9.733 -0.1086 -0.5041 -0.5406
 7875SOL    HW135258   3.114   0.865   9.718 -0.3342 -0.1152 -2.0434
 7875SOL    HW235259   3.006   0.786   9.783 -2.4012 -0.9028 -1.7902
 7876SOL     OW35260   3.487   2.845   3.690  0.3087  0.2613  0.0411
 7876SOL    HW135261   3.543   2.778   3.729 -4.1787 -2.2154  2.2399
 7876SOL    HW235262   3.503   2.927   3.737 -1.1113  0.6638 -0.2010
 7877SOL     OW35263   0.591   3.597   3.631 -0.0860  0.0592 -0.0049
 7877SOL    HW135264   0.625   3.546   3.558 -1.3257  1.3055 -1.4561
 7877SOL    HW235265   0.574   3.677   3.581 -1.3371  1.1008  2.0981
 7878SOL     OW35266   2.081   4.548   7.118  0.0884 -0.4842  0.1557
 7878SOL    HW135267   2.017   4.585   7.057  0.6609  0.4816  0.1326
 7878SOL    HW235268   2.024   4.538   7.194 -0.1871 -2.5644 -0.3219
 7879SOL     OW35269   2.971   3.879   2.951  0.1669 -0.1523  0.0447
 7879SOL    HW135270   3.001   3.958   2.996  1.1915  0.0495 -0.9895
 7879SOL    HW235271   3.027   3.890   2.874 -1.9569  1.2967 -1.3034
 7880SOL     OW35272   3.384   1.226   4.975  0.4499 -0.4597 -0.3085
 7880SOL    HW135273   3.351   1.231   5.064 -1.3880 -2.9435 -0.8317
 7880SOL    HW235274   3.460   1.168   4.988 -1.0848 -2.6419 -0.9244
 7881SOL     OW35275   3.971   3.320  13.952 -0.5703  0.2203  0.5154
 7881SOL    HW135276   3.923   3.272  13.884  0.9113 -1.3541  0.5905
 7881SOL    HW235277   4.053   3.272  13.946  0.3624  1.9498 -0.3647
 7882SOL     OW35278   1.014   3.837  17.054  0.0582 -0.0667  0.1460
 7882SOL    HW135279   1.068   3.909  17.086  1.5589 -0.8809 -0.5579
 7882SOL    HW235280   0.939   3.893  17.034  2.1246  1.4030 -3.4314
 7883SOL     OW35281   3.908   4.598   2.576  0.0867 -0.4574 -0.0885
 7883SOL    HW135282   3.866   4.683   2.587 -2.7899 -1.5481 -2.8309
 7883SOL    HW235283   3.882   4.548   2.654 -2.9243  0.9807 -0.1823
 7884SOL     OW35284   3.934   2.203   3.808 -0.2857  0.0445 -0.2745
 7884SOL    HW135285   3.861   2.180   3.750 -0.2817  0.5389 -0.4816
 7884SOL    HW235286   3.989   2.257   3.751 -1.8162  0.4417 -1.3691
 7885SOL     OW35287   3.392   3.517   5.336 -0.7379  0.6365 -0.1700
 7885SOL    HW135288   3.452   3.580   5.297 -0.4361 -0.8688 -2.1127
 7885SOL    HW235289   3.434   3.433   5.318 -1.6690  0.1509 -0.0790
 7886SOL     OW35290   0.176   4.347   6.022 -0.2657 -0.1780  0.6033
 7886SOL    HW135291   0.111   4.373   6.088 -0.8767 -0.1446 -0.0179
 7886SOL    HW235292   0.162   4.411   5.952  2.0916  0.4826  0.7278
 7887SOL     OW35293   2.718   4.536  17.260 -0.3481 -0.4472  0.5670
 7887SOL    HW135294   2.729   4.485  17.340 -0.5710 -0.8733  0.3299
 7887SOL    HW235295   2.778   4.606  17.285  0.7294 -1.3572  0.5728
 7888SOL     OW35296   2.956   0.924   1.676  0.2577  0.1852 -0.1872
 7888SOL    HW135297   2.955   0.853   1.739  0.0244  0.4937  0.1565
 7888SOL    HW235298   3.038   0.907   1.629 -0.0569 -4.1715  0.8463
 7889SOL     OW35299   3.008   2.474  13.912  0.5705  0.1935 -0.1674
 7889SOL    HW135300   3.019   2.388  13.870  2.7378 -1.2394  3.3537
 7889SOL    HW235301   3.074   2.522  13.864  0.4437  2.8180  2.2898
 7890SOL     OW35302   0.744   2.031   9.474 -0.1114 -0.1827 -0.1145
 7890SOL    HW135303   0.679   2.012   9.406 -0.2984  0.7964 -0.2053
 7890SOL    HW235304   0.788   2.109   9.441  0.1427 -0.4346 -0.3743
 7891SOL     OW35305   4.587   1.177   1.620 -0.3842  0.2907 -0.0338
 7891SOL    HW135306   4.651   1.136   1.677 -1.6037  1.5760  2.2777
 7891SOL    HW235307   4.505   1.157   1.665  0.0499  0.0340  0.6452
 7892SOL     OW35308   2.201   0.762   2.905  0.4288  0.6574 -0.4830
 7892SOL    HW135309   2.291   0.792   2.897  0.3142  1.1736  0.2081
 7892SOL    HW235310   2.220   0.668   2.905 -0.3222  0.4908 -2.8755
 7893SOL     OW35311   4.598   0.568   6.616 -0.2031  0.3420  0.2087
 7893SOL    HW135312   4.529   0.529   6.670 -1.2393  0.1349 -1.2682
 7893SOL    HW235313   4.657   0.494   6.606  0.2449  0.4526  1.9120
 7894SOL     OW35314   1.270   2.594   3.776  0.1584 -0.2241  0.4018
 7894SOL    HW135315   1.177   2.590   3.756  0.3106 -2.2228  0.0434
 7894SOL    HW235316   1.296   2.504   3.756 -0.4590  0.0536 -1.5806
 7895SOL     OW35317   1.242   0.119   3.676 -0.4883 -0.3240  0.1389
 7895SOL    HW135318   1.193   0.068   3.740 -0.6469  0.8529  0.9536
 7895SOL    HW235319   1.314   0.055   3.666  0.8794  1.0891  1.0085
 7896SOL     OW35320   3.488   1.185   7.000  0.0222  0.8434  0.2664
 7896SOL    HW135321   3.580   1.184   7.026 -0.2075  1.7654  1.1176
 7896SOL    HW235322   3.463   1.273   7.029 -0.9714  1.6239 -2.9941
 7897SOL     OW35323   3.010   3.632   5.582 -0.4050  0.0905  0.0216
 7897SOL    HW135324   2.969   3.694   5.522  0.0559 -1.2959 -1.7674
 7897SOL    HW235325   2.940   3.616   5.645  1.3890 -1.3291  1.6888
 7898SOL     OW35326   0.791   3.539   7.598 -0.6851  0.4726 -0.4545
 7898SOL    HW135327   0.775   3.495   7.515  0.1439  0.8427 -0.8118
 7898SOL    HW235328   0.817   3.621   7.557  0.6676  0.7839  1.0334
 7899SOL     OW35329   2.066   2.625  10.244  0.7194 -0.0459 -0.3229
 7899SOL    HW135330   1.981   2.600  10.279  0.5733 -2.2819 -2.2770
 7899SOL    HW235331   2.055   2.720  10.245 -1.1809 -0.2535 -1.8034
 7900SOL     OW35332   4.609   1.180   2.374 -0.0261 -0.1918 -0.1804
 7900SOL    HW135333   4.573   1.133   2.450 -0.6171  1.7445  0.7327
 7900SOL    HW235334   4.613   1.117   2.301 -1.2009  1.4730 -1.6800
 7901SOL     OW35335   1.532   0.537   3.211  0.0824 -0.3551  0.0530
 7901SOL    HW135336   1.610   0.487   3.235 -1.0203 -3.1716 -2.1881
 7901SOL    HW235337   1.472   0.513   3.281 -0.5317 -0.6088 -0.5617
 7902SOL     OW35338   2.375   1.919  11.510 -0.4917  0.3688 -0.0396
 7902SOL    HW135339   2.410   2.007  11.526  1.9722 -0.5420 -0.5637
 7902SOL    HW235340   2.418   1.901  11.427 -0.4051 -1.0922  0.3259
 7903SOL     OW35341   0.130   2.376   0.403  0.4783 -0.6733 -0.0733
 7903SOL    HW135342   0.078   2.353   0.327 -0.6609  0.4785  0.3592
 7903SOL    HW235343   0.090   2.462   0.417  1.8962  0.0207 -0.2451
 7904SOL     OW35344   3.203   1.691   4.624  0.2201  0.7221 -0.3721
 7904SOL    HW135345   3.141   1.643   4.679  1.2449 -1.0645 -0.7533
 7904SOL    HW235346   3.279   1.711   4.678 -0.2231  3.1220 -0.6290
 7905SOL     OW35347   2.229   2.544   4.658 -0.3828 -0.6720  0.5590
 7905SOL    HW135348   2.148   2.501   4.630 -1.0993  0.0240  1.6100
 7905SOL    HW235349   2.209   2.566   4.748 -2.7962 -1.0436  0.1036
 7906SOL     OW35350   0.153   3.040   2.785  0.0124  1.0773  0.8015
 7906SOL    HW135351   0.200   3.058   2.867  2.5919  1.7619 -0.8038
 7906SOL    HW235352   0.199   2.965   2.748 -2.5307  0.6456 -1.4497
 7907SOL     OW35353   1.249   1.773  14.601 -0.3869  0.2497 -0.1967
 7907SOL    HW135354   1.169   1.727  14.575  0.3541  1.0801 -4.0182
 7907SOL    HW235355   1.272   1.725  14.680 -1.5908  0.0300  0.0259
 7908SOL     OW35356   2.233   3.423  12.280 -0.4789 -0.0044 -0.2916
 7908SOL    HW135357   2.174   3.380  12.342 -0.7466 -0.6623 -1.0036
 7908SOL    HW235358   2.201   3.512  12.293  2.3089  0.9087  0.2763
 7909SOL     OW35359   3.146   2.811   6.444 -0.2651 -0.5907 -0.6003
 7909SOL    HW135360   3.087   2.832   6.372  0.2206  0.5888 -0.6585
 7909SOL    HW235361   3.203   2.748   6.401  0.6753  0.0876 -0.3731
 7910SOL     OW35362   3.713   0.380   6.742 -0.3109 -0.0638  0.2507
 7910SOL    HW135363   3.765   0.392   6.663 -0.5990  1.2982  0.2625
 7910SOL    HW235364   3.689   0.471   6.761 -1.0850  0.6775 -4.4325
 7911SOL     OW35365   2.147   0.138   5.416  0.0428 -0.3680 -1.0285
 7911SOL    HW135366   2.105   0.106   5.335 -0.6340 -0.4238 -0.6538
 7911SOL    HW235367   2.242   0.142   5.402 -0.1320 -0.3716 -2.2936
 7912SOL     OW35368   2.063   0.440  12.005 -1.0629  0.3275  0.9421
 7912SOL    HW135369   2.146   0.462  12.048 -0.3545  1.7203 -1.1465
 7912SOL    HW235370   2.048   0.348  12.030 -0.0739 -0.7797 -2.5641
 7913SOL     OW35371   1.548   1.868   7.727  0.1709  0.1790 -0.1791
 7913SOL    HW135372   1.558   1.773   7.717  1.1832  0.1644  0.8997
 7913SOL    HW235373   1.637   1.890   7.755 -0.5991  3.1491 -0.0751
 7914SOL     OW35374   3.509   2.739   6.054 -0.0658  0.6683 -0.1637
 7914SOL    HW135375   3.582   2.746   5.993 -0.5212  0.9375 -0.6707
 7914SOL    HW235376   3.553   2.697   6.128 -0.3081  0.9761  0.1526
 7915SOL     OW35377   1.999   2.724   8.198 -0.4682  0.3619  0.1884
 7915SOL    HW135378   1.917   2.749   8.241 -1.2556  1.4102 -1.8677
 7915SOL    HW235379   2.061   2.774   8.251  0.8006 -1.1072  0.0845
 7916SOL     OW35380   2.754   0.650  10.055 -0.6764  0.2766  0.1541
 7916SOL    HW135381   2.662   0.670  10.036 -0.2821  2.1871  0.2051
 7916SOL    HW235382   2.788   0.654   9.965  1.3120  1.1628  0.9464
 7917SOL     OW35383   2.288   3.630   4.370 -0.4301 -0.0750  0.1772
 7917SOL    HW135384   2.245   3.681   4.301  1.1195  0.2102 -0.5698
 7917SOL    HW235385   2.334   3.700   4.416  0.0508 -0.4980  0.3337
 7918SOL     OW35386   2.217   2.456   1.568 -0.2225  0.1869  0.5665
 7918SOL    HW135387   2.237   2.531   1.626 -1.8990 -0.8353  2.4770
 7918SOL    HW235388   2.205   2.508   1.489 -1.8219  0.8282  1.2116
 7919SOL     OW35389   1.480   1.836   5.780  0.0862  0.2422 -0.3259
 7919SOL    HW135390   1.530   1.917   5.788 -0.8519  0.8817 -0.8021
 7919SOL    HW235391   1.425   1.861   5.705 -0.7316  1.5827  0.7005
 7920SOL     OW35392   0.897   0.240   2.864  0.3857  0.0033  0.0304
 7920SOL    HW135393   0.984   0.212   2.833  0.7140  2.0868 -0.9436
 7920SOL    HW235394   0.837   0.170   2.842 -0.0401 -0.0553  1.3625
 7921SOL     OW35395   3.034   0.461   8.466 -0.3015  0.0082 -0.7077
 7921SOL    HW135396   2.994   0.447   8.551  2.0167  1.6058  0.6731
 7921SOL    HW235397   3.124   0.436   8.490  0.0346  0.9194 -1.0061
 7922SOL     OW35398   3.207   3.677   4.641  0.2779  0.2561  0.3660
 7922SOL    HW135399   3.229   3.725   4.721 -2.5969  1.8073  0.2331
 7922SOL    HW235400   3.175   3.748   4.585  1.0426  0.6158  0.3906
 7923SOL     OW35401   1.213   0.633   4.758  0.2418 -0.1633 -0.4403
 7923SOL    HW135402   1.197   0.563   4.694  0.6409  2.8859 -3.8112
 7923SOL    HW235403   1.144   0.696   4.739  1.8795  1.3739 -1.2611
 7924SOL     OW35404   2.030   4.105   6.143 -0.2533  0.1871  0.8704
 7924SOL    HW135405   2.046   4.011   6.149 -1.6808 -0.1378 -0.6437
 7924SOL    HW235406   2.096   4.123   6.211  1.2098  1.9938 -1.0137
 7925SOL     OW35407   2.059   2.518   1.971 -0.7334 -0.0626  0.4723
 7925SOL    HW135408   2.125   2.574   1.930  0.7741 -1.2786  1.2723
 7925SOL    HW235409   2.117   2.446   1.994  0.8139  0.8939 -0.4715
 7926SOL     OW35410   2.053   0.011  15.322  0.0501 -1.0378  0.1638
 7926SOL    HW135411   1.996   0.045  15.391  1.2009 -0.6185  0.9145
 7926SOL    HW235412   2.101   4.680  15.369  1.1742 -0.1803  0.2999
 7927SOL     OW35413   4.566   2.042   3.312  0.9917 -0.3105 -0.1680
 7927SOL    HW135414   4.589   2.071   3.400  0.7990  0.1655 -0.2747
 7927SOL    HW235415   4.626   2.097   3.261  1.2849  0.1372  0.6553
 7928SOL     OW35416   0.629   0.324   2.704 -0.2236  0.0379  0.6574
 7928SOL    HW135417   0.540   0.352   2.725 -0.3165 -0.1208  0.4724
 7928SOL    HW235418   0.678   0.383   2.762  1.2689 -1.2709  0.7298
 7929SOL     OW35419   2.587   3.755   2.210 -0.0501  0.0518  0.7524
 7929SOL    HW135420   2.664   3.811   2.224  0.7861 -1.0671  0.6411
 7929SOL    HW235421   2.518   3.807   2.251 -1.6686 -0.6914 -1.0382
 7930SOL     OW35422   3.909   3.154   4.100 -0.1477 -0.0971 -0.1283
 7930SOL    HW135423   3.938   3.179   4.188  3.2145  3.0485 -2.1007
 7930SOL    HW235424   3.873   3.067   4.116  0.0440 -0.7136 -3.1565
 7931SOL     OW35425   0.203   3.293   1.812  0.1243 -0.3042 -0.0664
 7931SOL    HW135426   0.191   3.385   1.790  1.8590  0.2164  1.2161
 7931SOL    HW235427   0.129   3.243   1.779  0.1701  0.6031 -1.5370
 7932SOL     OW35428   2.041   3.700   3.341 -0.0518  0.7955  0.4714
 7932SOL    HW135429   2.109   3.715   3.276  0.4450  1.6694  1.1963
 7932SOL    HW235430   2.075   3.622   3.384  0.0518  0.9493  0.6702
 7933SOL     OW35431   4.189   3.603   1.301  0.6891  0.8820  0.5126
 7933SOL    HW135432   4.280   3.606   1.332  0.8623  0.4052  0.0568
 7933SOL    HW235433   4.208   3.590   1.208 -0.6680 -1.5734  0.5814
 7934SOL     OW35434   4.141   0.217  15.927  0.5322 -0.5223 -0.0511
 7934SOL    HW135435   4.134   0.312  15.935  2.7673 -0.0697 -3.4001
 7934SOL    HW235436   4.168   0.222  15.835  0.5179 -1.2734 -0.0940
 7935SOL     OW35437   1.358   3.142  10.342 -0.2189 -0.2561 -0.1581
 7935SOL    HW135438   1.318   3.146  10.255 -1.4254 -2.6603  0.2937
 7935SOL    HW235439   1.332   3.227  10.376  0.7116  0.3912 -1.0534
 7936SOL     OW35440   4.643   4.701   5.338  0.7448  0.5935  0.2388
 7936SOL    HW135441   4.562   4.736   5.374  0.3660  0.7701 -0.7946
 7936SOL    HW235442   4.710   0.030   5.351  2.1306 -0.6686 -0.3752
 7937SOL     OW35443   1.349   3.729   3.736 -0.2718 -0.1506 -0.1031
 7937SOL    HW135444   1.409   3.792   3.774  0.5177 -0.5474 -0.6820
 7937SOL    HW235445   1.318   3.766   3.653  1.1618  2.5088  0.5665
 7938SOL     OW35446   2.918   1.367   4.621 -0.2552 -0.0873  0.2089
 7938SOL    HW135447   3.005   1.403   4.601 -1.2762  1.4955 -1.4408
 7938SOL    HW235448   2.875   1.450   4.641 -1.9389 -1.3758  1.8889
 7939SOL     OW35449   1.455   1.816  14.239  0.3459 -0.4112 -0.5828
 7939SOL    HW135450   1.535   1.817  14.291  0.9884 -1.7331 -1.5413
 7939SOL    HW235451   1.430   1.725  14.256  1.8576 -0.9097 -1.0191
 7940SOL     OW35452   3.242   2.750   2.746 -0.0427  0.1419 -0.1612
 7940SOL    HW135453   3.186   2.679   2.714  1.5073 -1.2843  0.2813
 7940SOL    HW235454   3.265   2.721   2.834  1.4631  0.0257 -0.5862
 7941SOL     OW35455   2.852   3.957   6.478  0.0290  0.2964 -0.7854
 7941SOL    HW135456   2.821   3.896   6.411 -1.4762  1.0882 -0.8019
 7941SOL    HW235457   2.935   3.914   6.497 -0.7061  0.4923  2.8476
 7942SOL     OW35458   2.721   3.205   6.977  0.3020 -0.0490  0.3081
 7942SOL    HW135459   2.747   3.293   6.949 -0.6230 -0.5359 -2.0462
 7942SOL    HW235460   2.736   3.155   6.897  0.8020  0.6228 -0.0230
 7943SOL     OW35461   4.206   2.771   4.386  0.0847  0.5819 -0.4107
 7943SOL    HW135462   4.259   2.728   4.454 -0.6697 -1.0919 -0.8901
 7943SOL    HW235463   4.159   2.697   4.348 -2.1605  1.4719  0.6341
 7944SOL     OW35464   0.428   0.738   1.190  0.0152 -0.1050 -0.2056
 7944SOL    HW135465   0.440   0.802   1.120  0.0118  1.4523  1.2366
 7944SOL    HW235466   0.460   0.657   1.149 -0.7331  0.0668 -1.1310
 7945SOL     OW35467   3.414   2.708   1.119 -0.0241  0.6128  0.1017
 7945SOL    HW135468   3.359   2.664   1.054  4.2793 -2.5273 -1.4588
 7945SOL    HW235469   3.428   2.796   1.082 -2.1178  0.9770  0.1964
 7946SOL     OW35470   3.690   1.188  11.110  0.0409  0.0415 -0.4921
 7946SOL    HW135471   3.624   1.182  11.041  0.2922 -1.3127 -0.6102
 7946SOL    HW235472   3.763   1.134  11.079  1.7640 -0.8681  5.1229
 7947SOL     OW35473   1.080   2.201   2.084  0.3761  0.0637  0.4899
 7947SOL    HW135474   1.108   2.247   2.005 -1.3466 -0.9874 -0.7371
 7947SOL    HW235475   1.157   2.178   2.136  0.5838  1.4386  0.7752
 7948SOL     OW35476   0.192   1.643   0.109 -0.1305 -0.3640  0.4730
 7948SOL    HW135477   0.181   1.728   0.151 -0.6006  0.5997 -1.6135
 7948SOL    HW235478   0.103   1.606   0.114 -0.9309  1.7116  1.5878
 7949SOL     OW35479   0.638   2.253   4.407 -0.4246 -0.5642  0.0795
 7949SOL    HW135480   0.731   2.263   4.425 -0.9230  2.8338  0.8248
 7949SOL    HW235481   0.605   2.186   4.467 -0.2904  1.1261  2.0443
 7950SOL     OW35482   3.989   4.025   2.891 -0.1848 -0.1526 -0.5707
 7950SOL    HW135483   3.990   4.118   2.870  2.1492 -0.2841 -1.0714
 7950SOL    HW235484   4.080   4.010   2.916  0.0711  1.9040 -0.2609
 7951SOL     OW35485   2.882   3.199   7.349 -0.0590  0.0419  0.4373
 7951SOL    HW135486   2.788   3.202   7.331  0.0832  2.0618 -0.0209
 7951SOL    HW235487   2.887   3.116   7.396 -2.5275  0.9064  2.2042
 7952SOL     OW35488   1.380   0.021   1.894  0.4378 -0.1400 -0.1321
 7952SOL    HW135489   1.352   0.110   1.874  0.3444 -0.5265 -1.6881
 7952SOL    HW235490   1.354   4.722   1.810  0.5076  0.5526 -0.4628
 7953SOL     OW35491   1.469   0.467  10.800 -0.1365  0.1237 -0.2494
 7953SOL    HW135492   1.560   0.495  10.816 -0.1439  0.9920 -1.8147
 7953SOL    HW235493   1.446   0.411  10.875 -0.2251  0.7748  0.2074
 7954SOL     OW35494   1.601   0.629   5.530 -0.5508  0.0009  0.7219
 7954SOL    HW135495   1.574   0.686   5.457 -0.3845 -2.3727 -1.1985
 7954SOL    HW235496   1.532   0.664   5.586 -1.5121 -0.4972 -0.1387
 7955SOL     OW35497   1.714   4.462   4.044 -0.4198 -0.3360 -0.8721
 7955SOL    HW135498   1.746   4.487   3.958  1.4231 -0.5818 -0.2655
 7955SOL    HW235499   1.647   4.529   4.057  0.1050 -0.1622  0.9002
 7956SOL     OW35500   4.026   2.821   1.476 -0.2126 -0.2379 -0.2026
 7956SOL    HW135501   4.032   2.802   1.570 -1.3876  1.0658  0.1423
 7956SOL    HW235502   3.940   2.786   1.452  1.1140 -2.5030 -1.5918
 7957SOL     OW35503   1.354   2.930  11.906  0.1416  0.5354  0.5038
 7957SOL    HW135504   1.432   2.875  11.916 -0.5835 -0.1397  2.5394
 7957SOL    HW235505   1.300   2.863  11.864 -1.5138  0.0365  3.4391
 7958SOL     OW35506   0.560   0.302   6.401 -0.0623 -0.0667  0.0062
 7958SOL    HW135507   0.468   0.328   6.400 -0.1046 -0.1738  0.8310
 7958SOL    HW235508   0.552   0.216   6.360  0.8666 -0.3909  0.4875
 7959SOL     OW35509   3.956   1.809   6.057  0.1347  0.0806  0.1278
 7959SOL    HW135510   4.030   1.751   6.042 -0.1015  0.0731 -1.0002
 7959SOL    HW235511   3.992   1.848   6.137 -1.0284 -0.2923  0.8364
 7960SOL     OW35512   3.471   0.827   5.630  0.3749  0.0001  0.0164
 7960SOL    HW135513   3.431   0.756   5.679 -0.4580  1.5829  1.6149
 7960SOL    HW235514   3.559   0.792   5.631  1.0572  1.7936  2.6676
 7961SOL     OW35515   2.959   1.441   1.597 -0.1370  0.3675  0.3338
 7961SOL    HW135516   3.004   1.423   1.514  1.1583  0.7736  0.9381
 7961SOL    HW235517   2.924   1.353   1.610  0.8228 -0.1459 -0.5331
 7962SOL     OW35518   1.858   4.322  13.568 -0.3485 -0.0267  0.0431
 7962SOL    HW135519   1.830   4.309  13.477  1.4333  2.6671 -0.9055
 7962SOL    HW235520   1.939   4.372  13.575 -0.5128  0.6029 -2.4883
 7963SOL     OW35521   0.062   0.414   3.914  0.1563 -0.3084 -0.4582
 7963SOL    HW135522   0.037   0.487   3.971  0.7971  0.2399 -0.8737
 7963SOL    HW235523   4.718   0.376   3.885  0.0750 -0.6699  0.2662
 7964SOL     OW35524   1.285   0.734   1.880  0.0822 -0.0151 -0.0110
 7964SOL    HW135525   1.200   0.692   1.888 -1.3079  3.0391  1.2338
 7964SOL    HW235526   1.265   0.821   1.844 -0.8704  0.4169  1.5302
 7965SOL     OW35527   3.974   1.644   4.595  0.1739  0.2730 -0.1029
 7965SOL    HW135528   3.961   1.693   4.514  1.8869 -0.7259 -0.9880
 7965SOL    HW235529   3.925   1.565   4.573  1.0639 -1.0266  2.4699
 7966SOL     OW35530   0.509   1.030   3.752 -0.3292  0.2262  0.3778
 7966SOL    HW135531   0.500   0.987   3.837 -0.5390  1.0738  0.7808
 7966SOL    HW235532   0.561   0.962   3.708 -1.1211  0.1115 -0.3918
 7967SOL     OW35533   0.368   1.175   4.082  0.5203  0.3940  0.0465
 7967SOL    HW135534   0.425   1.245   4.050  1.3788 -0.0008  0.7264
 7967SOL    HW235535   0.366   1.174   4.177 -0.0376 -1.1263  0.0295
 7968SOL     OW35536   4.225   4.486   4.594 -1.1685 -0.7464 -0.0376
 7968SOL    HW135537   4.196   4.574   4.618 -0.3955 -0.6620  0.6110
 7968SOL    HW235538   4.313   4.490   4.631 -1.5125 -0.8865  0.7992
 7969SOL     OW35539   0.844   0.803   1.820  0.4380  0.5720  0.7157
 7969SOL    HW135540   0.800   0.873   1.868  1.7775 -0.3046  3.2136
 7969SOL    HW235541   0.788   0.794   1.743 -0.1175  2.4569  0.9048
 7970SOL     OW35542   3.944   4.146  11.529 -0.8345 -0.8218  0.0837
 7970SOL    HW135543   4.028   4.192  11.522 -0.9115 -0.3834  1.9966
 7970SOL    HW235544   3.976   4.062  11.563  3.2188  0.4294 -0.5677
 7971SOL     OW35545   4.049   0.933   5.920 -0.0527 -0.2666 -0.4947
 7971SOL    HW135546   3.974   0.890   5.879 -0.4818  1.3175 -1.3697
 7971SOL    HW235547   4.019   1.023   5.935 -2.7433 -1.1073 -0.8977
 7972SOL     OW35548   2.656   2.405   9.015  0.5484 -0.2650 -0.4228
 7972SOL    HW135549   2.593   2.398   9.087  0.7258 -1.6243 -0.3984
 7972SOL    HW235550   2.683   2.313   9.022  2.4275  0.3029 -0.4106
 7973SOL     OW35551   1.688   1.256   9.792 -0.0870  0.1170  0.3508
 7973SOL    HW135552   1.660   1.256   9.883  0.4392  0.7252  0.5120
 7973SOL    HW235553   1.654   1.178   9.749  1.2744  0.4789 -1.4010
 7974SOL     OW35554   2.618   0.588   1.094 -0.8286 -0.6314  0.3184
 7974SOL    HW135555   2.624   0.638   1.013  0.8115 -1.1705  0.1082
 7974SOL    HW235556   2.586   0.502   1.067 -1.5172 -0.4185  0.4635
 7975SOL     OW35557   1.109   4.085   5.366 -0.2669  0.1550  0.4278
 7975SOL    HW135558   1.045   4.142   5.408  1.5976  1.5036  1.4399
 7975SOL    HW235559   1.136   4.135   5.289 -0.6625  0.0714  0.2332
 7976SOL     OW35560   0.782   3.178   7.551  0.1003 -0.8248  0.1773
 7976SOL    HW135561   0.705   3.235   7.550  0.5500 -0.2140 -0.2648
 7976SOL    HW235562   0.774   3.150   7.459 -1.5670 -0.8633  0.3309
 7977SOL     OW35563   1.338   2.205   1.733  0.2531 -0.6367  0.0191
 7977SOL    HW135564   1.408   2.214   1.798  0.7930  0.3742 -0.7084
 7977SOL    HW235565   1.379   2.193   1.648 -1.2746 -0.0301 -0.7967
 7978SOL     OW35566   2.954   0.696   1.856  0.0264 -0.1943  0.0535
 7978SOL    HW135567   2.956   0.669   1.949  1.8274  0.0944  0.1023
 7978SOL    HW235568   2.946   0.610   1.815 -0.5290  0.8938 -2.1044
 7979SOL     OW35569   2.008   0.330   4.329  0.5331  0.3952 -0.5960
 7979SOL    HW135570   2.021   0.340   4.424 -0.3728  0.7676 -0.5105
 7979SOL    HW235571   1.915   0.317   4.312  0.5733 -1.7402  0.7774
 7980SOL     OW35572   0.965   0.208   4.455 -0.3918  0.6410 -0.8146
 7980SOL    HW135573   0.922   0.293   4.461 -3.3354 -0.9928  1.0772
 7980SOL    HW235574   1.049   0.236   4.493 -0.0316 -0.6706 -0.6558
 7981SOL     OW35575   4.468   1.820  10.339 -0.1929  0.4848 -0.0615
 7981SOL    HW135576   4.419   1.738  10.332  1.5704 -0.3949 -2.1540
 7981SOL    HW235577   4.500   1.825  10.248 -1.6980  2.3206 -0.4989
 7982SOL     OW35578   3.205   3.594   7.971 -0.0867  0.1404 -0.1905
 7982SOL    HW135579   3.300   3.598   7.962  0.0509 -2.1505  0.4018
 7982SOL    HW235580   3.194   3.659   8.042  0.3533  0.3256 -0.2896
 7983SOL     OW35581   2.672   1.847   1.544  0.6435 -0.0978 -0.6946
 7983SOL    HW135582   2.692   1.896   1.623 -0.9414 -0.2564 -0.1971
 7983SOL    HW235583   2.634   1.917   1.491 -1.7344  0.4035  1.6976
 7984SOL     OW35584   1.219   3.607  13.318  0.1457  0.2329 -0.0269
 7984SOL    HW135585   1.240   3.600  13.411 -0.5873 -0.9940  0.0461
 7984SOL    HW235586   1.270   3.534  13.283 -2.6591 -0.7945 -1.9469
 7985SOL     OW35587   0.213   1.112   7.905  0.3961  0.1426 -0.0244
 7985SOL    HW135588   0.154   1.171   7.952 -0.2100 -0.6798  0.2387
 7985SOL    HW235589   0.254   1.178   7.848 -1.4760  0.2905 -1.1738
 7986SOL     OW35590   2.031   1.632  11.516 -0.5490 -0.7133  0.1940
 7986SOL    HW135591   1.980   1.674  11.584 -0.5732  0.3720 -0.4922
 7986SOL    HW235592   2.087   1.577  11.571  1.3705 -1.1859 -2.2180
 7987SOL     OW35593   3.119   3.084   5.005  0.1030  0.6313  0.6714
 7987SOL    HW135594   3.188   3.017   5.014 -0.7637 -0.3470 -0.0118
 7987SOL    HW235595   3.171   3.163   5.022  2.4924 -0.3059 -2.2958
 7988SOL     OW35596   1.199   0.335   4.552  0.5064 -0.2549  0.3946
 7988SOL    HW135597   1.172   0.342   4.644  0.3454 -0.2845  0.3496
 7988SOL    HW235598   1.270   0.272   4.558 -1.5370 -2.5505  0.4948
 7989SOL     OW35599   1.036   1.182   2.784  0.3525 -1.1024 -0.2625
 7989SOL    HW135600   0.993   1.267   2.776 -0.1158 -1.1878  1.2947
 7989SOL    HW235601   1.014   1.149   2.697  1.2652 -0.9551 -0.5455
 7990SOL     OW35602   3.485   3.698   7.968  0.0181 -0.9797  0.2033
 7990SOL    HW135603   3.493   3.607   7.997  3.1206 -0.3850  1.2014
 7990SOL    HW235604   3.517   3.741   8.047  1.0775  0.1390 -0.8496
 7991SOL     OW35605   3.036   2.892  10.945  0.1468 -0.4048 -0.2056
 7991SOL    HW135606   2.967   2.877  10.880 -0.4338  0.7406  0.1376
 7991SOL    HW235607   3.103   2.858  10.887  0.7470  0.2710  0.0959
 7992SOL     OW35608   3.604   3.630   2.647 -0.2567 -0.0426 -0.2729
 7992SOL    HW135609   3.656   3.550   2.640  0.8429  0.6248  0.4123
 7992SOL    HW235610   3.630   3.651   2.737  2.4906 -0.9609 -0.8709
 7993SOL     OW35611   3.543   3.505  12.217 -0.5497 -0.0479  0.0310
 7993SOL    HW135612   3.596   3.525  12.294  0.9447  2.3531 -1.6100
 7993SOL    HW235613   3.472   3.570  12.218 -1.0986 -0.6085 -2.5842
 7994SOL     OW35614   1.934   3.223   4.415 -0.9009  0.6516  0.3761
 7994SOL    HW135615   2.017   3.175   4.413 -1.0348  0.3272  2.4305
 7994SOL    HW235616   1.955   3.304   4.369 -1.7747  1.0921  0.7554
 7995SOL     OW35617   2.653   2.668   5.063 -0.1641  0.2967  0.1978
 7995SOL    HW135618   2.641   2.575   5.041 -0.5573  0.5546 -0.6846
 7995SOL    HW235619   2.654   2.701   4.973  2.4444  1.5898  0.7242
 7996SOL     OW35620   0.157   1.482   4.974 -0.6493  0.0435 -0.1827
 7996SOL    HW135621   0.144   1.388   4.957  1.2154 -0.5764  1.6598
 7996SOL    HW235622   0.238   1.474   5.025 -1.7508  1.4473  1.7728
 7997SOL     OW35623   1.314   2.110   2.228  0.3422  0.2610  0.3705
 7997SOL    HW135624   1.355   2.048   2.167 -1.9246 -0.3954 -0.4759
 7997SOL    HW235625   1.375   2.096   2.301  0.2084  0.8983  0.5997
 7998SOL     OW35626   3.437   4.482  10.114 -0.5508  0.3176  0.4457
 7998SOL    HW135627   3.531   4.502  10.114  0.2102 -3.2422 -3.2884
 7998SOL    HW235628   3.410   4.498  10.024 -0.6332 -0.6632  0.2878
 7999SOL     OW35629   1.190   3.970   1.862 -0.0506 -0.2886  0.4700
 7999SOL    HW135630   1.100   3.978   1.831 -0.2173 -0.8968  0.7941
 7999SOL    HW235631   1.198   3.878   1.835 -1.7472 -0.4954  0.6307
 8000SOL     OW35632   2.238   1.527   6.642 -0.5439 -0.3480 -0.3894
 8000SOL    HW135633   2.232   1.495   6.552 -0.7403  0.0500 -0.5173
 8000SOL    HW235634   2.270   1.450   6.690  2.0807  1.6915  1.1586
 8001SOL     OW35635   0.992   0.317   9.451 -0.0644  0.4267  0.2574
 8001SOL    HW135636   1.072   0.269   9.428  0.1067  1.2879 -0.8880
 8001SOL    HW235637   0.974   0.360   9.368  0.7818  0.4609  0.0910
 8002SOL     OW35638   1.423   2.359   4.487 -0.3461 -0.0554 -0.5510
 8002SOL    HW135639   1.460   2.441   4.454  1.0882  1.0775  3.9528
 8002SOL    HW235640   1.490   2.298   4.457 -0.8249 -0.7967 -0.0985
 8003SOL     OW35641   4.654   3.698   5.938 -0.1511 -0.3055 -0.1267
 8003SOL    HW135642   4.624   3.707   6.028  0.3305 -0.1070  0.0149
 8003SOL    HW235643   4.573   3.695   5.887 -1.2720  1.7355  1.5334
 8004SOL     OW35644   0.737   0.332   7.961  0.4367 -0.1895  0.0783
 8004SOL    HW135645   0.786   0.294   8.034 -0.1450  2.2690  1.7806
 8004SOL    HW235646   0.812   0.364   7.910 -0.2578  3.1999  1.1998
 8005SOL     OW35647   4.347   1.657   6.828 -0.7974  0.0660  0.4829
 8005SOL    HW135648   4.404   1.732   6.810 -1.3111  0.2308 -0.4624
 8005SOL    HW235649   4.372   1.578   6.780 -0.8079 -0.1466  0.8337
 8006SOL     OW35650   2.822   4.394  16.147 -0.2554  0.0835 -0.2230
 8006SOL    HW135651   2.757   4.463  16.164 -0.1636 -0.1198  0.9367
 8006SOL    HW235652   2.798   4.333  16.216 -0.3933 -2.3496 -2.4017
 8007SOL     OW35653   2.336   0.662   1.744 -0.3586  0.0782 -0.0828
 8007SOL    HW135654   2.425   0.634   1.765  0.3789  1.8704 -0.8977
 8007SOL    HW235655   2.359   0.698   1.658 -0.8976  1.8528  0.5233
 8008SOL     OW35656   3.924   1.623   1.764 -0.0514 -0.0991 -0.0473
 8008SOL    HW135657   3.845   1.665   1.730 -1.2925 -3.1812 -0.9093
 8008SOL    HW235658   3.991   1.636   1.697 -0.7372 -3.2189 -1.3044
 8009SOL     OW35659   2.929   3.297  11.586  0.1505  0.0442  0.8080
 8009SOL    HW135660   2.840   3.329  11.597 -0.4442 -1.3845  0.0217
 8009SOL    HW235661   2.978   3.354  11.526  0.9891 -0.2762  1.1769
 8010SOL     OW35662   2.822   2.955   7.452 -0.0417 -0.5992  0.2782
 8010SOL    HW135663   2.765   2.883   7.480 -0.5942 -0.1173  0.3981
 8010SOL    HW235664   2.877   2.969   7.529 -0.1073 -0.4610  0.2990
 8011SOL     OW35665   0.465   0.793   8.051  0.7381 -0.0820 -0.5268
 8011SOL    HW135666   0.390   0.746   8.086  1.6118 -2.9380 -2.4932
 8011SOL    HW235667   0.458   0.775   7.958  1.3837  1.6017 -0.9066
 8012SOL     OW35668   2.534   0.214   3.302  0.1285  0.2016 -0.1437
 8012SOL    HW135669   2.459   0.156   3.290  0.8863 -0.9010  0.5253
 8012SOL    HW235670   2.605   0.151   3.315 -0.6382 -1.6444 -4.5746
 8013SOL     OW35671   1.189   3.932   4.196 -0.0497  0.1599 -0.3481
 8013SOL    HW135672   1.159   3.972   4.115 -2.6480  1.2106  1.1049
 8013SOL    HW235673   1.132   3.856   4.208  0.1535  0.0377 -0.1400
 8014SOL     OW35674   0.248   3.559   0.966 -0.2305 -0.0400 -0.2802
 8014SOL    HW135675   0.282   3.636   1.011 -0.8890 -0.3877  0.8110
 8014SOL    HW235676   0.258   3.576   0.872  1.4698  2.1056  0.2841
 8015SOL     OW35677   1.498   3.851   2.088 -0.2973 -0.0624  0.0474
 8015SOL    HW135678   1.557   3.833   2.161  0.0238 -1.7458 -0.6348
 8015SOL    HW235679   1.532   3.933   2.053  1.9781 -0.8020  0.5556
 8016SOL     OW35680   0.625   4.383   1.915  0.2326  0.3602  0.3805
 8016SOL    HW135681   0.717   4.381   1.943 -0.8788  2.2675  4.2280
 8016SOL    HW235682   0.590   4.422   1.995 -1.6011 -1.0043  0.2315
 8017SOL     OW35683   0.687   1.767  12.486 -0.3646  0.0945  0.0261
 8017SOL    HW135684   0.773   1.740  12.456 -0.8440  0.5788 -1.8075
 8017SOL    HW235685   0.697   1.709  12.561  0.3652 -0.2152 -0.3128
 8018SOL     OW35686   0.361   2.631   2.561  1.1057  0.1041 -0.1440
 8018SOL    HW135687   0.453   2.637   2.585  1.2425 -0.1035 -0.6220
 8018SOL    HW235688   0.318   2.679   2.633 -1.6695 -1.4077 -0.7873
 8019SOL     OW35689   0.589   3.795   6.914  0.4933 -0.2294  0.0180
 8019SOL    HW135690   0.546   3.850   6.979 -3.8347 -3.4328 -0.1411
 8019SOL    HW235691   0.574   3.847   6.835  1.5442  1.8685  1.2096
 8020SOL     OW35692   1.726   3.300   1.762  0.3129 -0.0146 -1.0682
 8020SOL    HW135693   1.677   3.226   1.798  2.2707 -1.6346 -1.7213
 8020SOL    HW235694   1.654   3.344   1.716 -1.7984  0.3018  2.5561
 8021SOL     OW35695   1.457   0.957   9.762 -0.7401 -0.3771  0.1950
 8021SOL    HW135696   1.376   0.989   9.722  1.7643  2.9301 -2.2223
 8021SOL    HW235697   1.480   1.034   9.815  0.6783 -0.6334 -0.0415
 8022SOL     OW35698   4.224   0.847   4.144  0.3219  0.0108 -0.1806
 8022SOL    HW135699   4.147   0.796   4.120 -0.0100  0.3258  0.1943
 8022SOL    HW235700   4.210   0.858   4.239 -1.1473  1.3117 -0.5469
 8023SOL     OW35701   0.213   0.538   1.011  0.3313 -0.0595  0.3523
 8023SOL    HW135702   0.125   0.554   1.045 -0.5743  0.0842 -2.0318
 8023SOL    HW235703   0.261   0.475   1.064  0.8302 -1.0133 -1.2236
 8024SOL     OW35704   3.447   4.269   1.572 -0.2598 -0.0687  0.3671
 8024SOL    HW135705   3.393   4.261   1.651 -1.4262  0.1457 -0.4020
 8024SOL    HW235706   3.458   4.179   1.543  1.6316 -0.7328  3.1780
 8025SOL     OW35707   1.648   4.471   5.837 -0.2039  0.5805  0.1495
 8025SOL    HW135708   1.574   4.500   5.892  0.3365 -1.3939  1.9083
 8025SOL    HW235709   1.660   4.380   5.862  0.9349  0.5041 -0.7428
 8026SOL     OW35710   1.957   2.604   4.154  0.4160  0.5775  0.3574
 8026SOL    HW135711   1.925   2.695   4.158  1.5072  0.9273  1.0684
 8026SOL    HW235712   1.947   2.582   4.062  1.8244 -0.1569  0.3896
 8027SOL     OW35713   1.575   0.021   3.415 -0.2421  0.0312  0.2374
 8027SOL    HW135714   1.665   4.736   3.439  0.6213  2.6634 -0.3660
 8027SOL    HW235715   1.569   0.109   3.452  0.2253  0.8400 -1.6117
 8028SOL     OW35716   3.920   1.383   2.330 -0.0343  0.7337 -0.7146
 8028SOL    HW135717   3.980   1.442   2.376  2.0846 -0.0485 -2.5095
 8028SOL    HW235718   3.950   1.388   2.239  1.4098 -2.4519 -0.4103
 8029SOL     OW35719   4.387   3.257   6.239  0.3259  0.1190 -0.2185
 8029SOL    HW135720   4.321   3.324   6.257 -0.7047 -1.3872  1.6450
 8029SOL    HW235721   4.448   3.314   6.193  0.8359 -1.2617 -1.2546
 8030SOL     OW35722   1.012   0.276  11.460 -1.0677  0.3677  0.5717
 8030SOL    HW135723   1.018   0.365  11.497  3.1041  0.7160 -1.0113
 8030SOL    HW235724   1.094   0.268  11.412 -0.7592  3.2253  0.6302
 8031SOL     OW35725   4.437   0.640   2.577  0.2847 -0.1607  0.7373
 8031SOL    HW135726   4.373   0.642   2.505  1.4910  2.9352 -0.2233
 8031SOL    HW235727   4.472   0.551   2.575  2.6822  0.7926  0.4207
 8032SOL     OW35728   4.224   3.035   1.416 -0.6096 -0.2086  0.7566
 8032SOL    HW135729   4.171   2.965   1.455 -2.0175  0.1211 -0.5752
 8032SOL    HW235730   4.248   3.004   1.329 -0.4563  1.0284  0.3647
 8033SOL     OW35731   1.442   2.149   6.729 -0.3083  0.2703  0.1456
 8033SOL    HW135732   1.513   2.109   6.680 -2.2403 -0.7798 -1.7860
 8033SOL    HW235733   1.482   2.166   6.815  0.0198  0.7171 -0.0952
 8034SOL     OW35734   3.338   1.054   0.155  0.5702  0.6830  0.2740
 8034SOL    HW135735   3.295   1.107   0.088  0.2460  0.4761  0.3190
 8034SOL    HW235736   3.367   1.125   0.213  2.9985 -1.2787  1.4510
 8035SOL     OW35737   4.028   2.459   8.687  0.0029  0.3897  0.0817
 8035SOL    HW135738   4.060   2.548   8.696 -3.2341  1.5108  0.2502
 8035SOL    HW235739   4.089   2.425   8.621 -0.9488 -0.3944 -0.4015
 8036SOL     OW35740   3.972   2.665  14.869  0.0911  0.0752 -0.3254
 8036SOL    HW135741   3.902   2.682  14.932  1.6409 -1.2623  1.7153
 8036SOL    HW235742   4.036   2.727  14.903  2.0152 -1.6275 -0.8884
 8037SOL     OW35743   4.044   3.164   6.691 -0.4502 -0.0572 -0.1716
 8037SOL    HW135744   4.131   3.202   6.683 -2.2801  3.8192 -2.2199
 8037SOL    HW235745   4.049   3.148   6.785  0.8372 -0.4647 -0.3134
 8038SOL     OW35746   0.401   4.492  10.545 -0.3747  0.1883 -0.1490
 8038SOL    HW135747   0.468   4.526  10.485 -0.6564  0.6198 -0.2162
 8038SOL    HW235748   0.406   4.397  10.535  1.7697  0.4261 -1.3857
 8039SOL     OW35749   1.881   1.482   4.824  0.2223 -0.3573  0.0026
 8039SOL    HW135750   1.871   1.560   4.770 -2.3474  0.0825  1.1095
 8039SOL    HW235751   1.798   1.435   4.813  0.4304 -0.8401  0.5214
 8040SOL     OW35752   4.034   4.001   8.703 -0.3787 -0.0432  0.0012
 8040SOL    HW135753   4.082   4.064   8.649  0.8976 -0.9560  0.0467
 8040SOL    HW235754   4.083   3.918   8.707 -0.6084 -0.1619  0.3699
 8041SOL     OW35755   3.182   3.826   5.725 -0.6277 -0.2512 -0.0371
 8041SOL    HW135756   3.187   3.920   5.712 -0.8735 -0.3381 -0.7554
 8041SOL    HW235757   3.141   3.791   5.645  0.9077  0.8457 -1.3042
 8042SOL     OW35758   1.050   2.401   5.478 -0.1834  0.5052  0.1260
 8042SOL    HW135759   1.092   2.459   5.541  0.3438  0.6211 -0.3327
 8042SOL    HW235760   1.098   2.438   5.404  0.6277  1.6509  1.2190
 8043SOL     OW35761   1.472   0.116   7.348 -0.0668  0.2605 -0.1124
 8043SOL    HW135762   1.446   0.203   7.317 -2.9394 -0.6882 -0.3475
 8043SOL    HW235763   1.384   0.083   7.369 -1.1384  2.5290 -1.0231
 8044SOL     OW35764   0.983   0.063   8.105 -0.0542  0.1778  0.0538
 8044SOL    HW135765   0.947   0.152   8.105  0.6074  0.4462  1.4254
 8044SOL    HW235766   0.914   0.005   8.136  1.7088 -1.5755  0.6539
 8045SOL     OW35767   3.357   3.092   6.436 -0.4725 -0.1148 -0.3326
 8045SOL    HW135768   3.305   3.026   6.482  0.0192 -1.4775 -1.7519
 8045SOL    HW235769   3.432   3.054   6.390  0.1801  0.6953  0.0703
 8046SOL     OW35770   3.553   3.037   8.394  0.2119  0.5337  0.1300
 8046SOL    HW135771   3.639   3.029   8.354  0.6678  2.8041  0.6383
 8046SOL    HW235772   3.581   3.045   8.486  0.2728  1.5305  0.0223
 8047SOL     OW35773   1.279   0.869   8.953  0.6411  0.7126 -0.2441
 8047SOL    HW135774   1.311   0.897   8.867 -0.5079  0.8946 -0.6154
 8047SOL    HW235775   1.189   0.842   8.933  0.2973  0.8924  1.0717
 8048SOL     OW35776   3.820   3.127   2.431 -0.0609 -0.4856  0.1897
 8048SOL    HW135777   3.746   3.121   2.370  0.6870 -0.2295 -0.7319
 8048SOL    HW235778   3.805   3.220   2.452 -1.4536 -0.4538 -0.9608
 8049SOL     OW35779   4.338   4.274   5.419  0.4529 -0.0115  0.3480
 8049SOL    HW135780   4.278   4.285   5.345  0.9404 -1.9738 -0.3291
 8049SOL    HW235781   4.286   4.220   5.478  0.6632  0.9312  1.3962
 8050SOL     OW35782   3.942   3.456   7.264  0.0509 -0.4858 -0.8716
 8050SOL    HW135783   3.950   3.464   7.359 -0.1683 -0.0026 -0.8928
 8050SOL    HW235784   3.850   3.428   7.257  0.4729 -2.1573  0.3753
 8051SOL     OW35785   1.584   1.683  10.268 -0.1189  0.1608 -0.1836
 8051SOL    HW135786   1.549   1.645  10.187 -1.6134  0.1842  0.4403
 8051SOL    HW235787   1.522   1.641  10.328  0.3706  0.6004  0.6322
 8052SOL     OW35788   4.048   1.002   4.565 -0.5093  0.0277  0.2843
 8052SOL    HW135789   3.995   1.022   4.488  1.8802 -0.4638 -1.4562
 8052SOL    HW235790   4.048   0.907   4.580  1.9431  0.0691  0.5218
 8053SOL     OW35791   2.999   2.050   8.286 -0.4963 -0.1778 -0.4063
 8053SOL    HW135792   3.007   2.139   8.321 -0.0526 -0.3651 -0.0226
 8053SOL    HW235793   2.977   2.015   8.372  0.9017 -0.3000 -0.0863
 8054SOL     OW35794   1.393   3.690  14.199 -0.2020 -0.1339  0.0280
 8054SOL    HW135795   1.421   3.689  14.290 -2.9158  1.4502  0.8798
 8054SOL    HW235796   1.480   3.669  14.165 -0.2280  4.1761 -2.8110
 8055SOL     OW35797   0.842   1.090  15.587 -0.0518  0.0491  0.1251
 8055SOL    HW135798   0.927   1.047  15.586  0.5979  1.3632  0.1685
 8055SOL    HW235799   0.859   1.168  15.534 -0.8323 -0.5671 -1.0593
 8056SOL     OW35800   0.541   4.679   5.290  0.2337 -0.3315  0.7285
 8056SOL    HW135801   0.473   4.737   5.254 -0.3956  0.2921  2.9466
 8056SOL    HW235802   0.534   4.593   5.249 -1.3455 -0.3906  1.1216
 8057SOL     OW35803   0.894   0.281   0.643 -0.0068 -0.4345  0.2917
 8057SOL    HW135804   0.850   0.213   0.694 -2.2086  0.9361  0.2130
 8057SOL    HW235805   0.955   0.231   0.589 -0.0784  0.5108 -0.6584
 8058SOL     OW35806   0.002   1.278   5.277 -0.0142  0.1203  0.1743
 8058SOL    HW135807   0.080   1.319   5.314 -0.7948 -0.9010  2.9429
 8058SOL    HW235808   4.669   1.339   5.295 -0.7223 -0.1257 -1.8298
 8059SOL     OW35809   4.627   1.415   2.246 -0.3911  0.0711  0.1604
 8059SOL    HW135810   4.613   1.328   2.283  1.5127  0.2576  1.3160
 8059SOL    HW235811   4.709   1.433   2.292 -0.8303  1.7896  0.2695
 8060SOL     OW35812   0.637   0.795   2.974 -0.3268  0.8318 -0.0117
 8060SOL    HW135813   0.550   0.794   3.014  0.0747  4.4062  0.8853
 8060SOL    HW235814   0.691   0.815   3.051  0.1927 -1.2688  0.1948
 8061SOL     OW35815   2.460   0.419   3.917 -0.3412 -0.3465  0.8320
 8061SOL    HW135816   2.418   0.411   3.831  1.7694  0.2870 -0.2664
 8061SOL    HW235817   2.403   0.488   3.951 -0.4613  1.7287 -3.4916
 8062SOL     OW35818   1.016   0.763   4.614  0.0268 -0.5810 -0.3413
 8062SOL    HW135819   0.958   0.776   4.539 -0.6335  0.9538  0.4412
 8062SOL    HW235820   1.069   0.697   4.570 -1.1773 -0.5324 -1.8852
 8063SOL     OW35821   3.154   1.051   9.371  0.5401  0.2126  0.0217
 8063SOL    HW135822   3.165   1.094   9.456  2.0822  0.2656 -0.2077
 8063SOL    HW235823   3.099   1.113   9.322 -0.2450  1.2810  2.2920
 8064SOL     OW35824   3.619   1.320  14.227 -1.0307  0.3161  0.2691
 8064SOL    HW135825   3.619   1.227  14.207  1.1860  0.1575  1.0686
 8064SOL    HW235826   3.529   1.350  14.243 -1.0513  0.3519  0.0898
 8065SOL     OW35827   3.257   0.526   4.769  0.3811  0.1171  0.2755
 8065SOL    HW135828   3.189   0.501   4.830 -0.1375 -1.3036 -0.8741
 8065SOL    HW235829   3.253   0.473   4.689  0.2422 -1.0433  1.0565
 8066SOL     OW35830   1.141   0.601   0.403 -0.4469  0.3608 -0.1648
 8066SOL    HW135831   1.129   0.658   0.480 -1.1352  0.9579 -0.7178
 8066SOL    HW235832   1.052   0.586   0.372  0.3232 -0.3538 -1.9869
 8067SOL     OW35833   3.547   3.334   7.127  0.3223  0.2448 -0.4642
 8067SOL    HW135834   3.484   3.335   7.054 -0.8635 -3.1089  0.5143
 8067SOL    HW235835   3.621   3.329   7.066 -0.5124 -0.4239 -1.4214
 8068SOL     OW35836   1.704   4.366   8.099  0.6271 -0.1556  0.0131
 8068SOL    HW135837   1.617   4.401   8.115 -1.1825 -3.4382 -2.8770
 8068SOL    HW235838   1.744   4.372   8.186  0.2651 -1.0839  0.2399
 8069SOL     OW35839   2.623   2.501  17.629  0.2544  0.6745  0.0101
 8069SOL    HW135840   2.613   2.596  17.638 -3.9421  0.1503  0.8447
 8069SOL    HW235841   2.717   2.485  17.636  0.8344  3.8090 -0.3999
 8070SOL     OW35842   0.085   1.113   9.344  0.4340  0.1804 -0.5022
 8070SOL    HW135843   0.116   1.058   9.416 -2.0993 -1.4426 -0.6629
 8070SOL    HW235844   0.001   1.068   9.338  0.4126  0.0945  0.4771
 8071SOL     OW35845   1.344   4.309   4.808  0.1584  0.5892 -0.0614
 8071SOL    HW135846   1.249   4.297   4.809  0.3337 -0.9113 -0.6650
 8071SOL    HW235847   1.367   4.222   4.775 -0.5111 -0.1069  1.2847
 8072SOL     OW35848   1.726   0.766   8.324  0.1432  0.5604 -0.1572
 8072SOL    HW135849   1.745   0.760   8.230 -2.9517  0.3589 -0.7717
 8072SOL    HW235850   1.631   0.777   8.333  0.3325  3.2421 -1.4322
 8073SOL     OW35851   2.118   1.167  11.318  0.0301 -0.0818 -0.0751
 8073SOL    HW135852   2.175   1.101  11.278  0.0148  0.7585 -1.4806
 8073SOL    HW235853   2.161   1.184  11.402  0.8336 -0.6277 -0.3699
 8074SOL     OW35854   4.033   4.290   2.812  0.3985  0.6143  0.3468
 8074SOL    HW135855   3.975   4.350   2.766  0.0812  0.5278  0.6430
 8074SOL    HW235856   4.057   4.337   2.892 -0.5355  1.8289 -0.0854
 8075SOL     OW35857   4.503   0.443   8.606  0.2182 -0.8282  0.0237
 8075SOL    HW135858   4.411   0.449   8.580  0.2642  2.2088  0.5761
 8075SOL    HW235859   4.539   0.528   8.581  2.0656 -0.5894  3.5499
 8076SOL     OW35860   4.657   1.679   7.956  0.4447  0.1188 -0.2877
 8076SOL    HW135861   4.715   1.756   7.962 -0.8059  1.1111 -0.9788
 8076SOL    HW235862   4.632   1.652   8.044 -0.4789  2.0319  0.0459
 8077SOL     OW35863   2.625   0.487   6.195 -0.5422  0.1291 -0.1273
 8077SOL    HW135864   2.682   0.483   6.119 -2.0462 -1.0730 -1.1982
 8077SOL    HW235865   2.617   0.394   6.214  0.1312  0.0776 -0.1022
 8078SOL     OW35866   3.245   1.648  16.934  0.0914 -0.1179 -0.6427
 8078SOL    HW135867   3.176   1.709  16.959  0.7069  0.2282  0.2273
 8078SOL    HW235868   3.302   1.699  16.876  1.1071  0.5511  0.9221
 8079SOL     OW35869   0.669   0.225   1.844 -0.5321  0.2425 -0.2781
 8079SOL    HW135870   0.698   0.137   1.869 -3.8219 -0.3588  1.3551
 8079SOL    HW235871   0.595   0.203   1.789  1.3405 -1.8108 -1.9950
 8080SOL     OW35872   3.048   3.331   7.931 -0.0800  0.2264 -0.0590
 8080SOL    HW135873   2.988   3.296   7.996 -1.0800  0.9281 -0.6119
 8080SOL    HW235874   2.987   3.322   7.858  0.7933 -2.3558 -0.4602
 8081SOL     OW35875   3.993   0.714   4.088 -0.1594  0.4065 -0.4210
 8081SOL    HW135876   3.898   0.704   4.081  0.2901 -1.7451 -3.3025
 8081SOL    HW235877   4.016   0.654   4.017 -0.0081 -0.1484  0.0964
 8082SOL     OW35878   2.674   1.361   2.694  0.4904 -0.2760  0.5156
 8082SOL    HW135879   2.629   1.319   2.621 -1.3047  0.6886  1.0710
 8082SOL    HW235880   2.761   1.367   2.654  0.5710 -1.9139  0.4714
 8083SOL     OW35881   1.161   2.154  17.443  0.3804 -0.4677  0.3345
 8083SOL    HW135882   1.096   2.137  17.375 -0.2014  0.2196  0.7188
 8083SOL    HW235883   1.211   2.216  17.390 -0.0516  0.0060  0.4805
 8084SOL     OW35884   1.268   4.464   6.556  0.0021  0.3746 -0.1998
 8084SOL    HW135885   1.184   4.484   6.515  0.1861  0.1938 -0.6749
 8084SOL    HW235886   1.316   4.545   6.540  0.9181 -0.1744 -0.2784
 8085SOL     OW35887   0.666   3.494   5.187 -0.5910 -0.6086  0.0625
 8085SOL    HW135888   0.745   3.477   5.238 -0.6069  1.6199  0.8104
 8085SOL    HW235889   0.627   3.571   5.229 -0.6874 -0.2237 -0.7430
 8086SOL     OW35890   4.227   3.563   2.488  0.0918  0.0143 -0.0776
 8086SOL    HW135891   4.258   3.653   2.483 -1.5788  0.7062  1.9088
 8086SOL    HW235892   4.285   3.520   2.425  0.1702  0.1498 -0.0975
 8087SOL     OW35893   4.697   1.227  10.676  0.2620  0.5921  0.7144
 8087SOL    HW135894   4.718   1.164  10.606  1.8317  1.0445  0.7844
 8087SOL    HW235895   4.629   1.172  10.715 -1.1566  1.4851 -0.5444
 8088SOL     OW35896   2.627   2.351   4.463  0.2252  0.2533  0.5367
 8088SOL    HW135897   2.582   2.389   4.387  1.8490 -0.2506 -0.6752
 8088SOL    HW235898   2.557   2.357   4.527  0.9896 -0.3348  1.4196
 8089SOL     OW35899   3.323   3.979   6.670 -0.1651 -0.1009  0.2188
 8089SOL    HW135900   3.387   3.910   6.685  0.4497  0.3987 -0.1130
 8089SOL    HW235901   3.323   4.005   6.762 -1.0969 -1.2173  0.5350
 8090SOL     OW35902   1.055   3.809   6.747 -0.3851  0.6701  0.1048
 8090SOL    HW135903   1.116   3.882   6.758  0.1232  0.1699  0.5967
 8090SOL    HW235904   1.074   3.750   6.820  2.0225  1.3094 -0.0255
 8091SOL     OW35905   0.425   0.285   7.168 -0.2197 -0.5966  0.4191
 8091SOL    HW135906   0.410   0.216   7.232 -2.9621 -1.0305 -0.7067
 8091SOL    HW235907   0.506   0.326   7.200  0.8854 -0.6528 -2.3082
 8092SOL     OW35908   3.933   1.799   6.495  0.2649  0.3103 -0.1292
 8092SOL    HW135909   3.876   1.723   6.485  0.1097  0.7383 -2.4272
 8092SOL    HW235910   3.905   1.825   6.583 -0.5721 -0.5399 -0.1491
 8093SOL     OW35911   1.838   1.891   4.159  0.5434  0.2269 -0.0515
 8093SOL    HW135912   1.778   1.847   4.099  0.1018  2.1342 -0.9978
 8093SOL    HW235913   1.915   1.835   4.168  0.3157  0.2952  2.3751
 8094SOL     OW35914   1.120   0.750   7.516  0.0401  0.2649 -0.0445
 8094SOL    HW135915   1.191   0.703   7.472  1.6883  1.1689  1.6672
 8094SOL    HW235916   1.172   0.782   7.590  0.0368  2.3408 -0.9487
 8095SOL     OW35917   0.773   4.443  14.538  0.3225  0.8384  0.2562
 8095SOL    HW135918   0.710   4.496  14.587  0.1966 -0.1840  1.2000
 8095SOL    HW235919   0.796   4.508  14.472  0.9219  0.8814  0.5088
 8096SOL     OW35920   3.508   0.873  13.228 -0.2487  0.1379  0.3682
 8096SOL    HW135921   3.543   0.949  13.182 -0.5329  1.1322  1.7958
 8096SOL    HW235922   3.422   0.905  13.255 -1.2777 -0.0057 -2.7283
 8097SOL     OW35923   1.892   1.568   1.037  0.5807 -0.5914 -0.7631
 8097SOL    HW135924   1.807   1.525   1.034  0.0905  0.3509 -0.3454
 8097SOL    HW235925   1.902   1.570   1.132  0.4762 -1.9955 -0.7231
 8098SOL     OW35926   2.003   2.670   0.417 -0.1253 -0.8510  0.1542
 8098SOL    HW135927   1.970   2.587   0.383  0.2977 -0.3724 -1.4191
 8098SOL    HW235928   2.039   2.699   0.333 -1.5011 -1.8943 -0.7999
 8099SOL     OW35929   1.941   3.453   1.887  0.4776  0.2550  0.2841
 8099SOL    HW135930   1.890   3.375   1.865  1.9445 -0.2207 -1.4554
 8099SOL    HW235931   1.882   3.519   1.851  0.2458  0.2663  0.6875
 8100SOL     OW35932   3.385   0.703   6.437  0.0840  0.2541  0.1822
 8100SOL    HW135933   3.430   0.783   6.409  2.3619 -0.4190  1.9124
 8100SOL    HW235934   3.383   0.730   6.529  0.9109  0.3146  0.1780
 8101SOL     OW35935   3.233   4.398   3.694 -0.1916  0.1644  0.4559
 8101SOL    HW135936   3.281   4.433   3.619 -1.9092  1.5582  0.0069
 8101SOL    HW235937   3.287   4.321   3.715  0.8006  0.4707 -0.9969
 8102SOL     OW35938   2.095   3.272   2.038  0.3101  0.3285  0.4062
 8102SOL    HW135939   2.191   3.279   2.033  0.3256  1.9680  2.7600
 8102SOL    HW235940   2.074   3.326   1.962 -2.5180 -0.3054  0.7371
 8103SOL     OW35941   1.707   3.125  15.201 -0.1827 -0.2429  0.5157
 8103SOL    HW135942   1.787   3.158  15.161 -0.1192  0.7267  1.4489
 8103SOL    HW235943   1.722   3.112  15.295  2.4643 -2.6896 -0.2520
 8104SOL     OW35944   4.112   1.182   6.983  0.3907  0.1527  0.0705
 8104SOL    HW135945   4.179   1.245   6.958 -0.6790 -0.5991 -4.6896
 8104SOL    HW235946   4.100   1.213   7.073  2.3602 -0.1927  0.4354
 8105SOL     OW35947   2.603   4.549  10.195 -0.3587  0.2187 -0.2182
 8105SOL    HW135948   2.640   4.468  10.159  1.7921 -0.4403  3.4525
 8105SOL    HW235949   2.584   4.525  10.286  0.1387 -0.3817 -0.2673
 8106SOL     OW35950   4.576   2.991   4.547 -0.0905  0.1409  0.4163
 8106SOL    HW135951   4.526   3.066   4.516 -2.1714 -1.2224  0.4559
 8106SOL    HW235952   4.661   3.027   4.573 -0.3328  0.1269  1.2492
 8107SOL     OW35953   1.609   0.723  12.888 -0.0557  0.0942  0.4980
 8107SOL    HW135954   1.666   0.757  12.820 -0.8756 -0.8311 -0.6599
 8107SOL    HW235955   1.559   0.661  12.835 -0.2243  1.5428 -1.0449
 8108SOL     OW35956   3.104   0.850   2.746  0.3299  0.2214  0.5733
 8108SOL    HW135957   3.124   0.890   2.661  1.6910 -0.8636  0.3713
 8108SOL    HW235958   3.031   0.796   2.716  0.8153  0.6321 -1.3596
 8109SOL     OW35959   1.567   1.564   7.783  0.2772  0.0219 -0.4508
 8109SOL    HW135960   1.642   1.531   7.832 -0.4964 -2.0810 -0.6734
 8109SOL    HW235961   1.599   1.561   7.692 -1.2250  1.2575 -1.0303
 8110SOL     OW35962   3.301   2.589   1.534  0.2502 -0.3346  0.2262
 8110SOL    HW135963   3.246   2.522   1.577  0.5524 -2.3860 -2.6106
 8110SOL    HW235964   3.234   2.656   1.520 -1.4252 -1.9904  0.2225
 8111SOL     OW35965   3.052   1.643   2.131 -0.0613  0.1333 -0.7199
 8111SOL    HW135966   2.957   1.626   2.129 -0.3272  1.4832  0.8222
 8111SOL    HW235967   3.066   1.664   2.224 -1.1452 -1.3990 -0.2109
 8112SOL     OW35968   2.358   0.197   2.969  0.3265 -0.4199  0.1387
 8112SOL    HW135969   2.364   0.173   2.876 -1.8885  0.6322 -0.2769
 8112SOL    HW235970   2.436   0.162   3.011  0.7951  0.9915  0.4258
 8113SOL     OW35971   3.785   3.584  12.739 -0.4302  0.2054 -0.1501
 8113SOL    HW135972   3.695   3.601  12.710  0.3663  2.1133 -1.4515
 8113SOL    HW235973   3.829   3.592  12.654  0.5132 -1.1401  0.2181
 8114SOL     OW35974   2.986   2.012  11.657 -0.3089  0.3290  0.6527
 8114SOL    HW135975   2.999   1.937  11.598 -1.0651  0.6698  0.0473
 8114SOL    HW235976   2.998   1.978  11.745  1.0625 -1.1860 -0.1178
 8115SOL     OW35977   3.466   2.261   6.346 -0.0700 -0.2372 -0.5866
 8115SOL    HW135978   3.426   2.249   6.432  0.6900 -0.8200 -0.3096
 8115SOL    HW235979   3.538   2.198   6.355 -0.2030 -0.5971 -2.0951
 8116SOL     OW35980   1.679   4.375   1.538  0.2929 -0.4366 -0.4141
 8116SOL    HW135981   1.727   4.457   1.551 -0.2591 -0.1380 -0.2817
 8116SOL    HW235982   1.759   4.322   1.533 -0.1916 -1.1858 -0.1435
 8117SOL     OW35983   2.191   3.788  16.603  0.0034 -0.0649  0.4551
 8117SOL    HW135984   2.213   3.800  16.695 -0.6145  0.0459  0.5866
 8117SOL    HW235985   2.247   3.718  16.570 -0.0540 -1.2448  2.8770
 8118SOL     OW35986   0.822   3.941   6.703  0.0772 -0.0340 -0.0133
 8118SOL    HW135987   0.854   3.984   6.782  0.6935 -0.8935  0.2068
 8118SOL    HW235988   0.883   3.867   6.699  0.5131  0.3979 -1.1907
 8119SOL     OW35989   3.093   3.031   4.555 -0.3424  0.1667 -0.0824
 8119SOL    HW135990   3.047   3.065   4.631 -1.8815  0.7842 -1.2774
 8119SOL    HW235991   3.181   3.041   4.590 -1.1346  0.1190  1.8815
 8120SOL     OW35992   1.628   0.214   3.077  0.0430  0.4252  0.4935
 8120SOL    HW135993   1.687   0.275   3.120  2.5808 -1.6380 -0.0957
 8120SOL    HW235994   1.653   0.129   3.113 -1.6471  0.3528  1.5158
 8121SOL     OW35995   4.501   3.014   3.478  0.3010  0.2335  0.5292
 8121SOL    HW135996   4.541   2.976   3.400  0.1249  0.8836  0.1206
 8121SOL    HW235997   4.536   2.961   3.550  1.8064 -1.5729 -1.5562
 8122SOL     OW35998   1.971   2.178   4.175  0.2096  0.1970 -0.6643
 8122SOL    HW135999   1.912   2.105   4.159  0.3347  0.2913 -1.5470
 8122SOL    HW236000   1.957   2.235   4.098  0.7786  0.7556 -0.3539
 8123SOL     OW36001   4.635   0.231   7.624  0.1268 -0.9733 -0.3745
 8123SOL    HW136002   4.578   0.177   7.679  0.1711 -1.9874 -1.3291
 8123SOL    HW236003   4.618   0.317   7.662  1.0166 -1.7338  1.7509
 8124SOL     OW36004   3.779   4.072   7.513 -0.0636  0.0926 -0.4975
 8124SOL    HW136005   3.699   4.059   7.565 -0.1860 -1.0727 -0.9638
 8124SOL    HW236006   3.740   4.070   7.426 -0.6702  2.8413 -0.2842
 8125SOL     OW36007   4.118   2.370   8.951 -0.3362 -0.3731  0.3936
 8125SOL    HW136008   4.102   2.417   8.869 -0.9391 -0.8279  0.2474
 8125SOL    HW236009   4.116   2.444   9.012 -1.2982  1.1186 -1.4369
 8126SOL     OW36010   1.281   0.888  13.327  0.3633  0.0274  0.5028
 8126SOL    HW136011   1.326   0.844  13.255 -2.5230  1.4440 -2.1861
 8126SOL    HW236012   1.344   0.911  13.395  0.1897 -0.4622  0.8258
 8127SOL     OW36013   1.609   1.438   4.207  0.3126 -0.0907  0.6501
 8127SOL    HW136014   1.544   1.376   4.241  0.1500 -0.2912 -0.0308
 8127SOL    HW236015   1.554   1.514   4.184  0.1079 -0.4359 -0.0071
 8128SOL     OW36016   4.095   3.480   8.461 -0.2475 -0.3325  0.3744
 8128SOL    HW136017   4.041   3.557   8.440 -1.0915 -0.9589  0.2548
 8128SOL    HW236018   4.132   3.511   8.543  1.3729  1.2326 -0.9286
 8129SOL     OW36019   0.944   0.172   7.519 -0.1112 -0.0669  0.2079
 8129SOL    HW136020   0.965   0.183   7.426  0.9935 -1.9376  0.2277
 8129SOL    HW236021   0.869   0.231   7.523  0.0815  0.3545 -2.2942
 8130SOL     OW36022   2.904   2.679   9.192 -0.4879  0.3170 -0.2981
 8130SOL    HW136023   2.938   2.722   9.270 -2.1249 -0.1554  0.6798
 8130SOL    HW236024   2.822   2.729   9.188 -1.0542 -0.6051 -0.1336
 8131SOL     OW36025   0.536   2.403   1.674  0.6517 -0.6312  0.4479
 8131SOL    HW136026   0.522   2.494   1.648 -1.3244 -1.3518 -1.0058
 8131SOL    HW236027   0.496   2.364   1.596  0.1102 -3.9348  2.4026
 8132SOL     OW36028   2.140   1.767   5.110  0.2919  0.3814  0.3091
 8132SOL    HW136029   2.066   1.738   5.163  1.2043 -2.1382  0.1992
 8132SOL    HW236030   2.152   1.858   5.137 -0.6726 -0.0840  2.2553
 8133SOL     OW36031   3.919   3.194   3.643  0.5559 -0.1308  0.7543
 8133SOL    HW136032   3.968   3.195   3.725  1.6194  0.3435  0.1081
 8133SOL    HW236033   3.992   3.198   3.581 -0.8781 -0.6165 -0.9464
 8134SOL     OW36034   3.105   3.357   6.953  0.5288 -0.4974  0.4390
 8134SOL    HW136035   3.098   3.342   7.047  2.7878 -0.4252  0.6381
 8134SOL    HW236036   3.046   3.295   6.912 -0.6349  0.4435  0.6869
 8135SOL     OW36037   4.727   0.956   7.834  0.0913 -0.1184  0.4435
 8135SOL    HW136038   4.675   1.029   7.866 -1.0292 -0.6489 -0.1976
 8135SOL    HW236039   0.074   0.998   7.844 -1.1613  2.2966  0.8034
 8136SOL     OW36040   2.996   0.656   8.819 -0.3965  0.2386 -0.3372
 8136SOL    HW136041   3.029   0.706   8.745 -0.3255  1.1765  0.3336
 8136SOL    HW236042   3.069   0.653   8.881  0.8488  2.8175 -1.6709
 8137SOL     OW36043   2.623   2.559   2.198  0.0543  0.2154 -0.1396
 8137SOL    HW136044   2.654   2.474   2.229  0.2738 -0.1030 -1.2004
 8137SOL    HW236045   2.584   2.601   2.274 -2.1793  0.9646 -1.7115
 8138SOL     OW36046   1.930   0.920  11.761 -0.3520 -0.1136 -0.1539
 8138SOL    HW136047   1.952   0.827  11.765  0.8410  0.1160 -1.2047
 8138SOL    HW236048   2.006   0.950  11.710 -0.1393  0.2929  0.3875
 8139SOL     OW36049   1.226   3.309   9.208  0.3294 -0.4408 -0.1269
 8139SOL    HW136050   1.246   3.401   9.226  2.0337 -0.7863 -0.2521
 8139SOL    HW236051   1.303   3.280   9.257 -2.0674 -1.5704  2.9609
 8140SOL     OW36052   4.403   4.568  15.657 -0.1583 -0.1245 -0.0961
 8140SOL    HW136053   4.386   4.487  15.707  0.1274 -0.8856 -1.2317
 8140SOL    HW236054   4.353   4.629  15.712 -0.7679 -0.3696 -0.3756
 8141SOL     OW36055   1.017   3.395   6.674  0.1306 -0.0864 -0.7205
 8141SOL    HW136056   0.930   3.395   6.633 -0.5470 -1.8204  0.6883
 8141SOL    HW236057   1.006   3.368   6.765 -0.2651 -0.7835 -0.9745
 8142SOL     OW36058   0.915   3.055   6.544 -0.3032 -0.3631 -0.8234
 8142SOL    HW136059   1.008   3.076   6.535  0.5592 -2.9538  1.8176
 8142SOL    HW236060   0.913   2.980   6.485  3.1951  0.2294 -1.6947
 8143SOL     OW36061   4.293   0.600   2.339 -0.5626 -0.0836 -0.3412
 8143SOL    HW136062   4.280   0.690   2.309  1.2389  0.8724  1.7355
 8143SOL    HW236063   4.204   0.564   2.346 -0.1274 -0.9399  0.8631
 8144SOL     OW36064   4.499   4.024   9.320  0.0114  0.2698 -0.2252
 8144SOL    HW136065   4.522   4.108   9.278 -1.0913  0.3922 -0.5841
 8144SOL    HW236066   4.474   4.050   9.408 -1.7856  1.1468 -0.9898
 8145SOL     OW36067   3.452   3.270   6.142  0.0154 -0.7138  0.0315
 8145SOL    HW136068   3.386   3.279   6.073 -0.1117  4.0339  0.7712
 8145SOL    HW236069   3.396   3.223   6.204 -0.5527  0.9538  0.7899
 8146SOL     OW36070   1.986   0.113   3.274  0.2214  0.3116  0.7036
 8146SOL    HW136071   2.021   0.199   3.298 -1.8799  2.0334 -2.2488
 8146SOL    HW236072   1.996   0.123   3.179 -3.5264 -1.2144  0.1062
 8147SOL     OW36073   0.271   3.772   6.913 -0.1673 -0.1009  0.3129
 8147SOL    HW136074   0.300   3.862   6.929 -0.3350  0.2309 -1.2202
 8147SOL    HW236075   0.180   3.784   6.940 -0.4019 -0.1221 -0.4837
 8148SOL     OW36076   2.132   2.654  14.335  0.1342 -0.3362  0.2126
 8148SOL    HW136077   2.107   2.744  14.352  0.2210  0.0372 -1.6233
 8148SOL    HW236078   2.138   2.622  14.425  0.3933  1.7541  0.9226
 8149SOL     OW36079   0.133   2.931   9.173 -0.3086  0.0926 -0.3249
 8149SOL    HW136080   0.229   2.929   9.177 -0.2975  0.0675 -0.6130
 8149SOL    HW236081   0.109   2.915   9.082 -1.3280 -0.8830  0.1190
 8150SOL     OW36082   1.450   4.692  14.356  0.3948 -0.1640  0.3314
 8150SOL    HW136083   1.448   4.717  14.263 -1.5751 -1.2697  0.0811
 8150SOL    HW236084   1.375   0.006  14.385  0.8529  1.1546 -0.8428
 8151SOL     OW36085   0.918   3.718   2.892 -0.3778  0.2961 -0.1945
 8151SOL    HW136086   0.857   3.662   2.940  2.1542 -0.6349  1.9201
 8151SOL    HW236087   0.989   3.658   2.871 -2.0945 -1.0842 -2.1004
 8152SOL     OW36088   2.870   0.459   1.727 -0.1696 -0.0852  0.3607
 8152SOL    HW136089   2.935   0.399   1.690  0.1219 -0.3009  1.2308
 8152SOL    HW236090   2.808   0.467   1.654  0.5208 -3.0296 -0.5666
 8153SOL     OW36091   0.410   1.228   7.686 -0.0905 -0.2893 -0.5301
 8153SOL    HW136092   0.471   1.217   7.759 -0.3357 -3.0951 -0.7484
 8153SOL    HW236093   0.474   1.254   7.619  0.7053 -1.5626 -0.2639
 8154SOL     OW36094   1.237   0.162  11.692 -0.0762 -0.0006 -0.3105
 8154SOL    HW136095   1.231   0.203  11.606  0.0289 -2.3021 -1.4307
 8154SOL    HW236096   1.196   0.229  11.746 -1.5147 -0.3311 -0.9915
 8155SOL     OW36097   0.512   2.128   6.492  0.0626  0.3572 -0.0545
 8155SOL    HW136098   0.486   2.118   6.583 -0.0076 -0.8908 -0.2154
 8155SOL    HW236099   0.574   2.201   6.499  0.0258  0.4702 -0.8376
 8156SOL     OW36100   4.302   0.912   5.436  1.0724  0.3618  1.2071
 8156SOL    HW136101   4.348   0.829   5.427  1.4701  0.5543  1.4324
 8156SOL    HW236102   4.363   0.980   5.407 -0.1331  0.3129 -1.3753
 8157SOL     OW36103   0.078   1.625   5.864  0.7504 -1.3369 -0.1341
 8157SOL    HW136104   0.171   1.600   5.869  1.0816  0.5574  3.2633
 8157SOL    HW236105   0.059   1.625   5.958 -3.3263  2.2629 -0.9915
 8158SOL     OW36106   2.461   3.068  13.586  0.1910 -0.0457 -0.3150
 8158SOL    HW136107   2.376   3.067  13.629  2.0607 -0.2163  3.3527
 8158SOL    HW236108   2.518   3.045  13.659  0.4224  1.2120 -0.1089
 8159SOL     OW36109   1.745   0.768  10.548 -1.1015 -0.0418 -0.3776
 8159SOL    HW136110   1.757   0.755  10.642  0.8425  0.3701 -0.5788
 8159SOL    HW236111   1.783   0.691  10.507  0.2465  0.9775 -1.0147
 8160SOL     OW36112   0.460   0.459  12.100  0.4798 -1.1564  0.2327
 8160SOL    HW136113   0.538   0.444  12.154  0.7703  0.2800  0.2156
 8160SOL    HW236114   0.394   0.435  12.164 -0.7396 -1.3621 -1.1189
 8161SOL     OW36115   2.143   4.489   5.777 -0.3369 -0.2273 -0.1124
 8161SOL    HW136116   2.164   4.545   5.852  0.2183 -0.2609 -0.2457
 8161SOL    HW236117   2.056   4.525   5.759 -0.3353 -1.3647 -2.3718
 8162SOL     OW36118   3.998   1.884   7.059  0.1353 -0.2672 -0.0004
 8162SOL    HW136119   4.021   1.793   7.045  2.0559  0.0727  0.9299
 8162SOL    HW236120   3.928   1.881   7.124 -2.9798 -0.3099 -3.3718
 8163SOL     OW36121   3.334   2.813  14.403 -0.2370 -0.0656 -0.3386
 8163SOL    HW136122   3.382   2.874  14.459 -1.1426  1.1141 -0.8457
 8163SOL    HW236123   3.271   2.782  14.468  2.4518  2.1501  3.2815
 8164SOL     OW36124   2.145   2.644   2.888  0.7279  0.6013  0.2936
 8164SOL    HW136125   2.156   2.711   2.820  0.3626  1.4206  1.0357
 8164SOL    HW236126   2.134   2.696   2.967 -2.3506 -0.9830  0.9159
 8165SOL     OW36127   4.328   0.658  17.295 -0.3819  0.4274 -0.1505
 8165SOL    HW136128   4.380   0.652  17.216  1.0900 -0.5406  0.8921
 8165SOL    HW236129   4.364   0.737  17.335  0.0448 -0.3113  0.9456
 8166SOL     OW36130   4.595   1.583   2.946 -0.1486 -0.0359  0.1018
 8166SOL    HW136131   4.640   1.510   2.904 -0.4157  0.3709 -0.9009
 8166SOL    HW236132   4.547   1.541   3.017 -2.6439  1.1890 -0.8407
 8167SOL     OW36133   1.538   1.058   7.476 -0.3929  0.1228  0.2669
 8167SOL    HW136134   1.522   0.969   7.509  2.5118 -0.0250  1.2387
 8167SOL    HW236135   1.584   1.099   7.549 -0.6752  0.3530  0.3164
 8168SOL     OW36136   2.922   3.135  14.350  0.1349  0.7447 -0.0315
 8168SOL    HW136137   2.884   3.221  14.338 -0.1078  0.3584 -2.1791
 8168SOL    HW236138   2.909   3.128  14.444 -1.8372 -0.4288 -0.4004
 8169SOL     OW36139   3.583   1.558   7.393 -0.1333 -0.1946 -0.1656
 8169SOL    HW136140   3.613   1.467   7.400 -2.2461 -0.8816  0.2126
 8169SOL    HW236141   3.488   1.549   7.390 -0.4186  2.9407 -0.4541
 8170SOL     OW36142   1.638   2.849  16.538  0.7818 -0.4775  0.2565
 8170SOL    HW136143   1.593   2.905  16.475  1.6509  0.3145  0.3414
 8170SOL    HW236144   1.589   2.873  16.617  0.6907  1.3228 -0.3543
 8171SOL     OW36145   4.120   0.597  15.621 -0.0198 -0.0944 -0.1494
 8171SOL    HW136146   4.027   0.579  15.628  0.3264 -1.8938 -0.1452
 8171SOL    HW236147   4.128   0.547  15.540  0.6333 -1.7818  0.9391
 8172SOL     OW36148   0.947   0.138   1.663 -0.4254  0.0137  0.1642
 8172SOL    HW136149   0.949   0.049   1.698 -1.5185  0.4744  1.3807
 8172SOL    HW236150   0.955   0.199   1.736  0.0174  0.2505 -0.0845
 8173SOL     OW36151   2.559   0.933   4.336  0.1998 -0.0334  0.5907
 8173SOL    HW136152   2.493   0.941   4.266 -1.7619 -2.8570  2.0931
 8173SOL    HW236153   2.584   1.023   4.354 -3.4660  1.3854 -1.2589
 8174SOL     OW36154   1.567   4.535   7.888  0.3527 -0.0189  0.0185
 8174SOL    HW136155   1.512   4.565   7.960 -0.7240  3.1066 -2.0877
 8174SOL    HW236156   1.548   4.610   7.832  1.9035  0.5319  0.2415
 8175SOL     OW36157   0.059   1.220   4.171  0.2031  0.4504 -0.1312
 8175SOL    HW136158   0.133   1.270   4.137  0.2361  0.5474  0.0824
 8175SOL    HW236159   0.066   1.145   4.112  2.7355  0.7756 -0.2329
 8176SOL     OW36160   1.897   2.048   9.804  0.3116 -0.1643  0.5798
 8176SOL    HW136161   1.879   2.110   9.734  0.0099 -0.3437  0.4968
 8176SOL    HW236162   1.976   2.092   9.835  1.2161 -1.9256  0.7742
 8177SOL     OW36163   2.429   4.058   8.268 -0.4546 -0.4062 -1.0118
 8177SOL    HW136164   2.508   4.005   8.255  0.0378  0.1848 -0.4009
 8177SOL    HW236165   2.456   4.144   8.236 -1.5411  1.5691  3.3802
 8178SOL     OW36166   4.264   2.984  12.024 -0.2062 -0.4370 -0.1887
 8178SOL    HW136167   4.255   3.032  12.106  0.9241 -0.1432 -0.2380
 8178SOL    HW236168   4.357   2.991  12.000 -0.3443  0.5821 -0.4053
 8179SOL     OW36169   1.083   0.719   6.039  0.1874  0.4489 -0.2424
 8179SOL    HW136170   1.011   0.707   5.976 -2.2340  2.0646  2.2063
 8179SOL    HW236171   1.084   0.630   6.075  0.2624  0.6179  0.1685
 8180SOL     OW36172   4.588   0.469   4.756 -0.0472 -0.6241 -0.0583
 8180SOL    HW136173   4.502   0.500   4.783  0.1792  1.8904 -2.2825
 8180SOL    HW236174   4.613   0.395   4.812 -0.3238  0.2228  1.1919
 8181SOL     OW36175   2.678   2.999  11.133  0.2901  0.1200 -0.5797
 8181SOL    HW136176   2.589   2.980  11.164  0.4282 -0.8789 -0.8240
 8181SOL    HW236177   2.662   3.094  11.134 -1.0502 -0.1355  2.6864
 8182SOL     OW36178   1.930   0.480   3.487  0.3185 -0.0891  0.0135
 8182SOL    HW136179   1.859   0.444   3.541  0.0436  0.5828  0.1022
 8182SOL    HW236180   1.907   0.573   3.489  2.4718  0.4769 -1.7103
 8183SOL     OW36181   4.690   2.863   5.134  0.0659  0.0720  0.4698
 8183SOL    HW136182   4.662   2.782   5.177  1.4406 -1.0589 -0.7719
 8183SOL    HW236183   4.606   2.896   5.100 -0.4558 -1.5055  0.2373
 8184SOL     OW36184   4.059   4.452   2.318  0.4786 -0.5506 -0.4021
 8184SOL    HW136185   3.967   4.473   2.301  0.0324 -2.1223  0.1240
 8184SOL    HW236186   4.059   4.357   2.326  1.7083 -0.3894  1.5044
 8185SOL     OW36187   0.736   3.467  12.152 -0.6250  0.2422 -0.0226
 8185SOL    HW136188   0.729   3.378  12.187 -0.0676  0.5347  0.8145
 8185SOL    HW236189   0.807   3.461  12.087 -0.9962 -0.8847 -0.3349
 8186SOL     OW36190   3.083   1.713  15.853  0.0506 -0.2303  0.2777
 8186SOL    HW136191   3.149   1.734  15.787  0.0407  1.4064  0.7995
 8186SOL    HW236192   3.062   1.623  15.829  1.2032 -0.6806  0.9415
 8187SOL     OW36193   0.323   1.852   4.786 -0.5525  0.2415 -0.2137
 8187SOL    HW136194   0.257   1.841   4.718 -0.9464 -0.0168  0.2117
 8187SOL    HW236195   0.280   1.830   4.869  1.4087 -1.6063  0.2958
 8188SOL     OW36196   0.628   1.816   6.173 -0.0422 -0.1768 -0.2797
 8188SOL    HW136197   0.673   1.745   6.128  0.3810  1.1210 -1.9085
 8188SOL    HW236198   0.692   1.832   6.242 -2.5140  2.4240  1.3994
 8189SOL     OW36199   0.688   2.685   4.780  0.0624  0.3632  0.1151
 8189SOL    HW136200   0.712   2.730   4.700 -2.4052 -1.8127 -1.8758
 8189SOL    HW236201   0.594   2.676   4.768  0.1586 -1.0584  0.4007
 8190SOL     OW36202   3.930   4.378   4.567  0.0176  0.1541 -0.3621
 8190SOL    HW136203   4.004   4.417   4.613 -0.6037 -0.0947  0.8344
 8190SOL    HW236204   3.881   4.460   4.567 -2.3060 -1.2458 -1.1665
 8191SOL     OW36205   1.110   3.693  12.363  0.3061  0.0440  0.0162
 8191SOL    HW136206   1.079   3.777  12.398  0.0875 -0.4363  0.9668
 8191SOL    HW236207   1.138   3.725  12.278 -0.2516  2.0479  0.5868
 8192SOL     OW36208   4.098   1.279  12.839 -1.0142 -0.3763  0.6431
 8192SOL    HW136209   4.041   1.251  12.766  1.2091  0.9710 -1.6072
 8192SOL    HW236210   4.051   1.242  12.914 -0.9351  0.7927  1.2698
 8193SOL     OW36211   2.573   2.113   0.014 -0.5471 -0.2081 -0.5887
 8193SOL    HW136212   2.578   2.186   0.076  0.0822 -0.8829  0.1445
 8193SOL    HW236213   2.572   2.163  17.684 -1.7978 -0.3925 -0.6926
 8194SOL     OW36214   2.654   2.613   3.292  0.3910  0.4464  0.3719
 8194SOL    HW136215   2.590   2.677   3.320  0.3213  0.3432  0.4483
 8194SOL    HW236216   2.645   2.611   3.196 -2.0252  0.2608  0.6112
 8195SOL     OW36217   0.716   4.656   5.829 -0.0211  0.4385 -0.2421
 8195SOL    HW136218   0.789   4.601   5.801 -0.0313  1.2197 -1.8614
 8195SOL    HW236219   0.658   4.638   5.755  0.4437  1.0608 -0.7649
 8196SOL     OW36220   2.700   2.842   1.951  0.3916 -0.2672 -0.0664
 8196SOL    HW136221   2.780   2.824   1.999  0.5529  0.9798  0.1370
 8196SOL    HW236222   2.722   2.913   1.890 -1.3302  0.8799  0.6288
 8197SOL     OW36223   2.187   0.550   3.593 -0.6484  0.1438 -0.7825
 8197SOL    HW136224   2.125   0.540   3.520  0.0451 -3.5903 -0.8661
 8197SOL    HW236225   2.140   0.613   3.648 -1.2716 -0.9945 -0.0110
 8198SOL     OW36226   2.202   4.645   4.105 -0.1786  0.4806  0.0968
 8198SOL    HW136227   2.243   4.688   4.030  0.1058  0.4415  0.2311
 8198SOL    HW236228   2.216   4.712   4.172  1.8009  0.8195 -0.6540
 8199SOL     OW36229   0.441   0.063   9.892 -0.2715  0.1853 -0.2972
 8199SOL    HW136230   0.498   0.110   9.952  1.2728  0.5409 -2.0353
 8199SOL    HW236231   0.487   0.078   9.809 -0.3452  2.1183  0.0139
 8200SOL     OW36232   0.486   2.262   6.760  0.3850  0.2132 -0.3152
 8200SOL    HW136233   0.529   2.181   6.787  0.8316  1.2343  2.0076
 8200SOL    HW236234   0.550   2.308   6.706  0.5461 -0.3187 -0.5697
 8201SOL     OW36235   2.281   2.756   7.571 -0.2059 -0.7848 -0.7124
 8201SOL    HW136236   2.291   2.774   7.477  1.3174 -2.1471 -0.8026
 8201SOL    HW236237   2.356   2.800   7.611 -1.0566 -2.4088  2.6938
 8202SOL     OW36238   0.941   2.098   7.948  0.3084 -0.1783 -0.1201
 8202SOL    HW136239   0.987   2.168   7.994 -2.4822  1.6059 -0.1087
 8202SOL    HW236240   1.022   2.059   7.915  1.5376  1.6776  0.7290
 8203SOL     OW36241   2.196   3.384   7.452 -0.3524  0.0941  0.0314
 8203SOL    HW136242   2.106   3.359   7.432  0.0897 -0.1815 -1.6094
 8203SOL    HW236243   2.237   3.297   7.451  0.6427  0.5729 -1.2203
 8204SOL     OW36244   0.534   1.897   3.043  0.1940  0.0403 -0.5884
 8204SOL    HW136245   0.522   1.953   3.120  4.0092 -0.8924  0.7088
 8204SOL    HW236246   0.630   1.891   3.046 -0.0063 -1.9855  1.8617
 8205SOL     OW36247   0.616   4.460  16.619  0.0094  0.1772  0.0717
 8205SOL    HW136248   0.572   4.477  16.703 -0.1203  2.0062 -0.3730
 8205SOL    HW236249   0.587   4.369  16.612  0.7564  0.0614 -1.5252
 8206SOL     OW36250   2.374   2.220  15.413  0.4022 -0.7172  0.2357
 8206SOL    HW136251   2.440   2.225  15.482  0.6249 -0.4119  0.0015
 8206SOL    HW236252   2.346   2.130  15.426 -0.3368 -0.8501 -2.2202
 8207SOL     OW36253   1.880   4.714   6.342 -0.5115 -0.0871 -0.3984
 8207SOL    HW136254   1.941   4.702   6.415 -0.9181  0.7034  0.0606
 8207SOL    HW236255   1.932   0.001   6.266 -0.5389  3.6356  0.8525
 8208SOL     OW36256   2.148   3.251   9.558  0.3893  0.1238 -0.3975
 8208SOL    HW136257   2.052   3.246   9.565  0.5399  0.8844  1.9698
 8208SOL    HW236258   2.163   3.333   9.605 -1.6293 -0.5348  1.3879
 8209SOL     OW36259   2.565   1.796  10.825  0.4639 -0.0414  0.4704
 8209SOL    HW136260   2.599   1.886  10.828 -0.2559  0.3417 -3.0544
 8209SOL    HW236261   2.556   1.799  10.730 -0.4837  0.0792  0.5585
 8210SOL     OW36262   2.093   3.125   3.720 -0.0017  0.1028  0.2816
 8210SOL    HW136263   2.174   3.083   3.689  0.8822  0.7563  1.7120
 8210SOL    HW236264   2.078   3.086   3.806  0.2201  0.1702  0.3502
 8211SOL     OW36265   0.829   4.356   9.370  0.1794 -0.2110  0.3015
 8211SOL    HW136266   0.862   4.360   9.281 -1.0620 -0.4913 -0.1669
 8211SOL    HW236267   0.760   4.289   9.368  0.9572 -1.0318  1.0758
 8212SOL     OW36268   4.122   0.547   3.903 -0.1597 -0.1509 -0.1871
 8212SOL    HW136269   4.066   0.479   3.865  0.9486 -2.2406  1.8707
 8212SOL    HW236270   4.202   0.518   3.861 -2.3452  0.0596 -4.4445
 8213SOL     OW36271   2.619   0.218   6.253  0.6929  0.8095  0.1074
 8213SOL    HW136272   2.700   0.200   6.207  0.5788  1.9134 -0.5364
 8213SOL    HW236273   2.566   0.177   6.185  0.6604  2.0149 -0.5894
 8214SOL     OW36274   3.504   0.317   5.593  0.5947  0.2453  0.1347
 8214SOL    HW136275   3.497   0.224   5.615  0.1463  0.3518  0.4420
 8214SOL    HW236276   3.444   0.355   5.656  0.0707 -2.9573  1.5582
 8215SOL     OW36277   4.552   2.434   4.237  0.1788 -0.2618  0.7611
 8215SOL    HW136278   4.600   2.378   4.176  0.6014  0.9995 -0.0535
 8215SOL    HW236279   4.571   2.521   4.203 -1.3516  0.1533  0.9609
 8216SOL     OW36280   4.073   1.834   9.034 -0.0070 -0.1556  0.3105
 8216SOL    HW136281   4.134   1.879   8.976 -2.7990  0.5658 -2.0696
 8216SOL    HW236282   4.013   1.786   8.977 -0.8461 -0.4741  1.4506
 8217SOL     OW36283   2.150   1.909  11.763 -0.9610  0.4220 -0.0864
 8217SOL    HW136284   2.205   1.904  11.685  0.9437  0.1279  1.2881
 8217SOL    HW236285   2.150   2.004  11.776  1.5899  0.4579 -0.4319
 8218SOL     OW36286   2.014   3.968   2.561 -0.0490 -0.0847  0.2550
 8218SOL    HW136287   1.932   4.009   2.531 -0.6696 -0.8001  0.9675
 8218SOL    HW236288   1.983   3.880   2.582  0.5307 -0.7366 -1.6471
 8219SOL     OW36289   1.845   0.250   3.724 -0.1195  0.7919 -0.1573
 8219SOL    HW136290   1.768   0.265   3.779  1.6249  1.7841  2.0250
 8219SOL    HW236291   1.907   0.303   3.774  1.1871 -2.4818  1.6843
 8220SOL     OW36292   2.895   3.267   5.770  0.2088 -0.2921 -0.0202
 8220SOL    HW136293   2.989   3.249   5.777 -0.2468 -2.1729  1.1783
 8220SOL    HW236294   2.889   3.287   5.677  2.6724  2.2048  0.3437
 8221SOL     OW36295   1.360   1.517   9.769 -0.1423 -0.0652  0.1392
 8221SOL    HW136296   1.279   1.469   9.751 -0.9886  0.7630  1.7530
 8221SOL    HW236297   1.400   1.500   9.684  1.9598 -0.9077  1.3047
 8222SOL     OW36298   4.640   2.536  13.790  0.0346  0.2456  0.0850
 8222SOL    HW136299   4.602   2.456  13.826  2.0855 -1.0519 -0.6164
 8222SOL    HW236300   4.647   2.584  13.872  1.8082 -1.4992  0.9473
 8223SOL     OW36301   1.790   1.824  16.290  0.0524  0.2763  0.5408
 8223SOL    HW136302   1.866   1.785  16.247 -0.6426 -1.8149  1.1881
 8223SOL    HW236303   1.777   1.895  16.228  0.9776  0.8663  1.0159
 8224SOL     OW36304   0.608   3.409   4.895  0.0271 -0.9694 -0.3662
 8224SOL    HW136305   0.677   3.465   4.931  1.5349 -2.3587 -1.0902
 8224SOL    HW236306   0.540   3.420   4.961  0.5768  3.4187 -0.5498
 8225SOL     OW36307   2.367   4.338  16.381  0.1895 -0.5992 -0.3261
 8225SOL    HW136308   2.313   4.405  16.421  0.3516 -1.7803  1.8736
 8225SOL    HW236309   2.384   4.371  16.293  2.1604  1.1170  0.6963
 8226SOL     OW36310   0.668   2.149   1.977  0.6092  0.1931  0.6860
 8226SOL    HW136311   0.586   2.195   1.996  1.0801  0.7487  1.3583
 8226SOL    HW236312   0.706   2.211   1.915 -0.4860 -0.6045 -0.8039
 8227SOL     OW36313   4.480   3.342  10.267 -0.1807  0.1324  0.4682
 8227SOL    HW136314   4.467   3.358  10.174 -0.2969  0.5426  0.5519
 8227SOL    HW236315   4.457   3.430  10.299 -1.8181  0.3131 -1.1883
 8228SOL     OW36316   0.920   0.490   2.995  0.3439  0.3388  0.4557
 8228SOL    HW136317   0.911   0.458   3.084  0.5432 -0.0813  0.3258
 8228SOL    HW236318   0.924   0.404   2.952 -5.2477  0.5852 -0.5500
 8229SOL     OW36319   0.145   1.244   6.819 -0.6484  0.1318  0.4182
 8229SOL    HW136320   0.126   1.151   6.809  2.6434 -0.4179 -0.7616
 8229SOL    HW236321   0.219   1.246   6.880  0.7519  1.6056 -1.3399
 8230SOL     OW36322   1.698   1.895   8.971  0.3216  0.0159  0.1237
 8230SOL    HW136323   1.718   1.826   8.909 -0.4512 -1.3487  1.3978
 8230SOL    HW236324   1.726   1.859   9.055  4.1405 -1.9704 -2.0169
 8231SOL     OW36325   0.920   1.590   5.542 -0.2725  0.5658 -0.5492
 8231SOL    HW136326   1.015   1.583   5.545 -0.2132  1.1478 -0.9880
 8231SOL    HW236327   0.902   1.531   5.469 -3.1637  0.6336  0.0924
 8232SOL     OW36328   1.699   1.322   5.553  0.1330 -0.0704  0.2982
 8232SOL    HW136329   1.750   1.269   5.492 -0.3799 -0.3387  0.1020
 8232SOL    HW236330   1.758   1.393   5.579 -0.3002 -0.6346  2.8703
 8233SOL     OW36331   0.372   1.653   4.116 -0.1070 -0.3226  0.8019
 8233SOL    HW136332   0.378   1.617   4.027 -0.1802  0.7126  0.3791
 8233SOL    HW236333   0.327   1.580   4.159  1.5450 -0.8386  1.6611
 8234SOL     OW36334   1.254   0.510   8.815 -0.2966 -0.3176  0.6202
 8234SOL    HW136335   1.238   0.417   8.798  0.1506  0.0737 -2.0222
 8234SOL    HW236336   1.221   0.519   8.904  2.4103 -0.2304  1.5899
 8235SOL     OW36337   4.466   1.425   9.515  0.1388  1.0771  0.1891
 8235SOL    HW136338   4.476   1.504   9.462  0.4893  1.0084  0.1510
 8235SOL    HW236339   4.377   1.441   9.546 -0.2586  1.9374 -1.3966
 8236SOL     OW36340   0.060   0.804   2.325  0.4473 -0.2120  0.1793
 8236SOL    HW136341   0.021   0.880   2.369 -0.3903 -0.0810 -0.7961
 8236SOL    HW236342   0.006   0.780   2.250  0.5261 -0.9264  0.3510
 8237SOL     OW36343   3.914   3.350   5.744 -0.3315  0.4754  0.4582
 8237SOL    HW136344   3.956   3.389   5.821  0.5020 -0.7788  0.6363
 8237SOL    HW236345   3.890   3.266   5.783  0.6036 -0.3856 -0.8513
 8238SOL     OW36346   4.338   3.400  10.992  0.0900 -0.1502 -0.2164
 8238SOL    HW136347   4.356   3.435  10.905 -0.8435  0.8181 -0.0229
 8238SOL    HW236348   4.244   3.383  10.986  0.2970 -1.8826  1.2471
 8239SOL     OW36349   1.392   3.499   7.398  0.1258 -0.4376  0.6505
 8239SOL    HW136350   1.332   3.573   7.394  0.4753 -0.1595  0.6052
 8239SOL    HW236351   1.335   3.428   7.429 -0.9750 -0.0517 -0.5265
 8240SOL     OW36352   1.343   1.526  17.151  0.1771  0.0575  0.6277
 8240SOL    HW136353   1.284   1.517  17.076 -0.3950  0.4438  1.0278
 8240SOL    HW236354   1.392   1.605  17.130 -0.8475  0.4780 -0.1948
 8241SOL     OW36355   2.470   3.437   7.953  0.0327 -0.4932 -0.8845
 8241SOL    HW136356   2.500   3.528   7.943  1.7927 -1.1111 -1.3351
 8241SOL    HW236357   2.378   3.452   7.976 -0.9342 -1.3877 -4.2881
 8242SOL     OW36358   2.685   3.386   8.528  0.8469  0.5290 -0.3072
 8242SOL    HW136359   2.712   3.296   8.548  0.0622  0.3158 -0.2000
 8242SOL    HW236360   2.715   3.392   8.437  0.3622  0.4599 -0.4760
 8243SOL     OW36361   2.175   3.656   9.911  0.3912 -0.3665 -0.5623
 8243SOL    HW136362   2.212   3.741   9.932 -1.1617  0.0991  0.2500
 8243SOL    HW236363   2.133   3.671   9.827 -0.5508  1.7498  0.2881
 8244SOL     OW36364   2.823   4.386   3.247 -0.4468 -0.4506 -0.0714
 8244SOL    HW136365   2.820   4.295   3.276  0.3485 -0.8137 -1.1543
 8244SOL    HW236366   2.735   4.410   3.276 -0.0981 -0.4022  0.9397
 8245SOL     OW36367   2.995   2.471   7.820 -0.3378  0.3904 -0.0049
 8245SOL    HW136368   2.954   2.502   7.900 -2.5497  0.6389 -1.2345
 8245SOL    HW236369   2.922   2.430   7.773 -0.8661 -0.0481  1.2097
 8246SOL     OW36370   3.083   3.732   9.694 -0.2692  0.4383 -0.1595
 8246SOL    HW136371   3.077   3.719   9.789  2.2492  0.0539 -0.0672
 8246SOL    HW236372   3.000   3.777   9.676  0.0961  1.8117  1.6258
 8247SOL     OW36373   1.589   0.473   8.286  0.7238 -0.8572  0.6729
 8247SOL    HW136374   1.590   0.545   8.224  1.6472 -0.3062  1.3288
 8247SOL    HW236375   1.502   0.436   8.272  0.2682  0.4111  0.1445
 8248SOL     OW36376   2.444   2.952   9.956 -0.8015  0.0212  0.0159
 8248SOL    HW136377   2.459   3.031   9.905  0.8824 -0.0614  0.3674
 8248SOL    HW236378   2.529   2.909   9.968 -0.5187  0.8634  1.0450
 8249SOL     OW36379   0.336   3.849  12.500 -0.4230 -0.4756  0.0506
 8249SOL    HW136380   0.429   3.869  12.515 -0.9499  3.5044 -2.1942
 8249SOL    HW236381   0.332   3.761  12.463 -1.8733  0.0557 -1.0421
 8250SOL     OW36382   2.397   2.044  12.884  0.2439  0.0185 -0.2965
 8250SOL    HW136383   2.421   1.951  12.889 -2.9248 -0.9029 -3.1038
 8250SOL    HW236384   2.471   2.094  12.920  1.2479  0.3748 -2.9183
 8251SOL     OW36385   2.293   4.038   9.002 -0.5745  0.3746  0.3932
 8251SOL    HW136386   2.362   4.104   9.009  0.7188 -0.7791 -1.5724
 8251SOL    HW236387   2.293   4.017   8.909  0.9784 -1.2281  0.7555
 8252SOL     OW36388   2.599   0.762  16.888  0.0602 -0.2697  0.2060
 8252SOL    HW136389   2.580   0.721  16.803 -2.1339  2.4332 -0.6197
 8252SOL    HW236390   2.682   0.802  16.863 -0.4992  1.3037  0.8438
 8253SOL     OW36391   4.386   0.009   4.666  0.2145  0.5584  0.3462
 8253SOL    HW136392   4.401   4.709   4.752 -1.3739  2.6178  1.5550
 8253SOL    HW236393   4.293   0.029   4.655 -0.1231  0.6451  3.2890
 8254SOL     OW36394   1.794   0.964  15.026  0.1582  0.0870  0.3390
 8254SOL    HW136395   1.704   0.996  15.024  0.3028  0.4463 -0.3776
 8254SOL    HW236396   1.794   0.884  15.078  0.7974  1.0991  1.8964
 8255SOL     OW36397   0.397   3.952   2.980 -0.2755 -0.0649 -0.2292
 8255SOL    HW136398   0.366   3.952   3.071 -1.1754 -0.2132 -0.5421
 8255SOL    HW236399   0.484   3.913   2.991 -0.3012  0.4680  1.9461
 8256SOL     OW36400   2.966   1.839   8.126  0.2042  0.4706  0.4955
 8256SOL    HW136401   3.051   1.796   8.119 -0.3558 -0.6757  0.6606
 8256SOL    HW236402   2.980   1.916   8.180 -3.1047  1.7222 -0.3763
 8257SOL     OW36403   2.126   2.989   4.395 -0.6489 -0.2804  0.1337
 8257SOL    HW136404   2.176   2.956   4.470  0.8816  1.4234 -0.1281
 8257SOL    HW236405   2.057   2.923   4.383  0.0801 -0.8056 -1.2064
 8258SOL     OW36406   0.367   0.096   3.144 -0.1909 -0.5953 -0.1221
 8258SOL    HW136407   0.414   0.043   3.209  1.0147  0.4952 -0.0775
 8258SOL    HW236408   0.285   0.119   3.188 -0.9442 -1.7681 -0.9212
 8259SOL     OW36409   3.868   1.543  10.771  0.1672 -0.0169  0.3567
 8259SOL    HW136410   3.783   1.567  10.733 -0.8459 -1.3214  1.7895
 8259SOL    HW236411   3.836   1.535  10.861 -0.3779  0.1202  0.1758
 8260SOL     OW36412   1.995   3.229   7.371 -0.0215  0.8241  0.1362
 8260SOL    HW136413   1.981   3.165   7.301 -1.1540  2.4707 -1.1301
 8260SOL    HW236414   1.911   3.236   7.417 -0.4779  2.2031 -0.8972
 8261SOL     OW36415   4.253   1.130  16.898  0.2381 -0.1158 -0.2130
 8261SOL    HW136416   4.267   1.047  16.943 -3.7753  0.8079  2.8007
 8261SOL    HW236417   4.341   1.139  16.862  0.2251  1.1388  0.0643
 8262SOL     OW36418   1.963   0.235  16.261  0.2097 -0.1752 -0.4020
 8262SOL    HW136419   1.965   0.330  16.268  1.5043 -0.2621  0.2763
 8262SOL    HW236420   1.880   0.227  16.309  1.2651  3.0871  1.9441
 8263SOL     OW36421   2.514   2.894   7.643  0.2464 -0.0039  0.8522
 8263SOL    HW136422   2.499   2.984   7.615  2.0244 -0.7174 -2.3427
 8263SOL    HW236423   2.480   2.899   7.732 -0.2504  2.1284  0.5382
 8264SOL     OW36424   2.793   3.201   3.700  0.3681 -0.2374 -0.2388
 8264SOL    HW136425   2.806   3.111   3.668  0.2587 -0.4935  0.4358
 8264SOL    HW236426   2.852   3.254   3.647  0.7776 -0.6315 -0.1742
 8265SOL     OW36427   2.777   2.039   3.088 -0.4874  0.3615  0.7287
 8265SOL    HW136428   2.855   2.057   3.036  0.3894 -1.5512  1.3836
 8265SOL    HW236429   2.804   1.960   3.135  0.5733 -1.0806 -2.2811
 8266SOL     OW36430   2.751   0.765   6.249 -0.0904 -0.1488  0.3175
 8266SOL    HW136431   2.706   0.684   6.224 -0.6275 -0.2789  1.7094
 8266SOL    HW236432   2.690   0.830   6.214  0.3034  2.3042  4.1612
 8267SOL     OW36433   2.784   0.117   3.657  0.2488 -0.5055 -0.2731
 8267SOL    HW136434   2.870   0.125   3.700  1.2151 -1.2205 -2.0840
 8267SOL    HW236435   2.757   0.050   3.720  2.5390 -0.9104  0.2891
 8268SOL     OW36436   1.465   2.156   2.657  0.1288 -0.1390 -0.4002
 8268SOL    HW136437   1.467   2.115   2.570  1.0094 -0.1152 -0.3962
 8268SOL    HW236438   1.559   2.165   2.673  0.0186  1.3862 -0.6028
 8269SOL     OW36439   2.720   1.912   5.476 -0.3385  0.0151 -0.3470
 8269SOL    HW136440   2.694   1.825   5.508  0.1945  0.0047  0.0544
 8269SOL    HW236441   2.774   1.940   5.550  0.0747  2.0455 -1.4308
 8270SOL     OW36442   3.577   4.367   7.523 -0.5118 -0.1058 -0.1269
 8270SOL    HW136443   3.602   4.451   7.562  1.5584 -0.7464 -0.0491
 8270SOL    HW236444   3.537   4.320   7.596 -1.1233 -0.9041 -0.9784
 8271SOL     OW36445   1.067   0.683   1.684 -0.2352  0.0236 -0.2365
 8271SOL    HW136446   0.997   0.644   1.632 -1.3926 -1.1330  2.1580
 8271SOL    HW236447   1.017   0.745   1.738  1.4660  0.4358  0.8624
 8272SOL     OW36448   1.774   4.496   3.443  0.3258  0.1050 -0.1953
 8272SOL    HW136449   1.855   4.493   3.392 -0.1946 -0.6670 -0.9678
 8272SOL    HW236450   1.711   4.505   3.372  2.7491  1.5436 -2.1814
 8273SOL     OW36451   0.103   3.784  15.938 -0.3403  0.1042 -0.1673
 8273SOL    HW136452   0.122   3.757  15.848 -0.8025  2.4422 -0.9829
 8273SOL    HW236453   0.046   3.715  15.973  0.1100  0.4835  1.3221
 8274SOL     OW36454   2.209   0.179   8.577  0.5130  0.4305 -0.0401
 8274SOL    HW136455   2.128   0.215   8.541  2.1780  1.8396 -2.4238
 8274SOL    HW236456   2.265   0.232   8.519 -1.8228  2.1742 -0.7170
 8275SOL     OW36457   3.370   4.307   5.450  0.3473  0.8269 -0.2267
 8275SOL    HW136458   3.285   4.341   5.478 -0.5993 -1.6999 -0.1080
 8275SOL    HW236459   3.383   4.362   5.372  0.1025  0.5747 -0.4443
 8276SOL     OW36460   1.498   2.139   6.204  0.6884 -0.4507 -1.0721
 8276SOL    HW136461   1.477   2.107   6.292  0.1684 -3.4693 -2.2659
 8276SOL    HW236462   1.529   2.061   6.157  1.1140 -0.3911 -0.8886
 8277SOL     OW36463   0.648   4.350   6.285  0.4077 -0.4912  0.5886
 8277SOL    HW136464   0.689   4.274   6.245  1.1297 -0.0546  0.5002
 8277SOL    HW236465   0.649   4.410   6.210 -0.4826 -1.2770 -0.0609
 8278SOL     OW36466   1.608   0.406  10.519 -0.8006 -0.0907 -0.5272
 8278SOL    HW136467   1.670   0.434  10.587 -0.0374 -0.7150 -0.9719
 8278SOL    HW236468   1.655   0.422  10.437 -1.1234  2.5640 -0.1829
 8279SOL     OW36469   2.555   4.661   0.109  0.3344  0.3218 -0.0150
 8279SOL    HW136470   2.643   4.623   0.114  0.8906  1.6575  0.3136
 8279SOL    HW236471   2.509   4.620   0.035  0.2091  0.3991  0.0188
 8280SOL     OW36472   1.073   1.586  10.804  0.3802  0.1317  0.2160
 8280SOL    HW136473   1.029   1.671  10.797  1.5902  0.7439  0.1406
 8280SOL    HW236474   1.166   1.601  10.819  0.4957  1.2555 -1.6799
 8281SOL     OW36475   1.162   2.310   3.120  0.1859  0.1139  0.1916
 8281SOL    HW136476   1.232   2.317   3.055  0.4726 -0.1004  0.4817
 8281SOL    HW236477   1.214   2.323   3.199 -0.8969  1.4871  0.6775
 8282SOL     OW36478   0.511   4.445   3.959 -0.0853 -0.0652 -0.0359
 8282SOL    HW136479   0.568   4.522   3.956  0.9599 -0.8758 -0.9226
 8282SOL    HW236480   0.527   4.414   4.049 -0.8210  0.7349  0.3736
 8283SOL     OW36481   2.210   2.295   7.069  0.4157 -0.6329 -0.0994
 8283SOL    HW136482   2.262   2.338   7.137  0.4778 -1.6763  0.5050
 8283SOL    HW236483   2.146   2.367   7.068  1.0100 -0.1304 -1.8723
 8284SOL     OW36484   2.380   1.149   6.338  0.3278  0.0870 -0.2027
 8284SOL    HW136485   2.466   1.158   6.379 -0.0851 -0.4436  0.7841
 8284SOL    HW236486   2.331   1.128   6.418  0.2313  1.4957  0.1101
 8285SOL     OW36487   4.549   3.909  14.311  0.3223 -0.2199  0.1416
 8285SOL    HW136488   4.633   3.900  14.266 -0.3166 -0.7645 -0.9450
 8285SOL    HW236489   4.493   3.968  14.261 -2.0652 -2.0281  0.6603
 8286SOL     OW36490   3.068   3.041   5.984 -0.0073 -0.2605 -0.0020
 8286SOL    HW136491   3.158   3.032   5.952  0.7342  2.7860  1.2321
 8286SOL    HW236492   3.018   2.988   5.922 -0.0616 -1.0832  0.7304
 8287SOL     OW36493   3.687   2.620   1.148  0.1949  0.0425  0.3234
 8287SOL    HW136494   3.697   2.555   1.078  2.8489  2.0433 -1.1837
 8287SOL    HW236495   3.594   2.638   1.133 -0.2319 -2.1332  0.2837
 8288SOL     OW36496   0.706   1.388   6.439  0.0006 -0.4637 -0.1020
 8288SOL    HW136497   0.718   1.373   6.345  0.1357  1.4690 -0.3912
 8288SOL    HW236498   0.662   1.306   6.461  0.9170 -1.0803 -0.5726
 8289SOL     OW36499   0.594   2.872  14.030  0.3679  0.0851  0.1700
 8289SOL    HW136500   0.534   2.947  14.032 -1.3364 -1.3409  2.5270
 8289SOL    HW236501   0.659   2.903  14.093 -0.9907  0.8479  1.1921
 8290SOL     OW36502   3.426   3.139   4.760 -0.4485  0.1518 -0.0689
 8290SOL    HW136503   3.379   3.157   4.679 -1.0154  2.0124  0.6703
 8290SOL    HW236504   3.385   3.055   4.781 -0.4299  0.3137  0.6310
 8291SOL     OW36505   3.937   2.003   4.662  0.9979 -0.5806 -0.8153
 8291SOL    HW136506   4.023   1.969   4.687  0.8009  1.5460  2.6274
 8291SOL    HW236507   3.922   1.952   4.582 -0.5987 -1.2680 -0.0671
 8292SOL     OW36508   1.945   3.521   7.657 -0.1676  0.0807  0.4251
 8292SOL    HW136509   2.033   3.494   7.682 -1.1675 -3.7213 -0.1333
 8292SOL    HW236510   1.900   3.471   7.725 -2.0503 -0.6406 -1.3281
 8293SOL     OW36511   3.664   1.643   2.919 -0.3160 -0.0209 -0.2249
 8293SOL    HW136512   3.616   1.637   3.002  0.2487 -0.7150  0.0466
 8293SOL    HW236513   3.696   1.557   2.895 -0.5849 -0.0156 -0.6185
 8294SOL     OW36514   0.939   0.516   8.844  1.1335  0.2611 -0.2209
 8294SOL    HW136515   0.996   0.537   8.770  3.9073  1.4004  2.2210
 8294SOL    HW236516   1.003   0.501   8.914 -0.3048 -0.0625  1.0263
 8295SOL     OW36517   4.109   2.740   7.743 -0.3107  0.2295  0.6413
 8295SOL    HW136518   4.197   2.705   7.731  0.2345  1.4345  1.0696
 8295SOL    HW236519   4.058   2.659   7.737  0.8358 -0.5814  1.7143
 8296SOL     OW36520   4.531   0.424  16.528 -0.0073 -0.2290  0.1359
 8296SOL    HW136521   4.501   0.389  16.612 -0.1568 -1.7656 -0.5581
 8296SOL    HW236522   4.508   0.353  16.468  0.3618 -0.3737  0.1657
 8297SOL     OW36523   1.169   2.223  10.952 -0.0493  0.1357 -0.5180
 8297SOL    HW136524   1.196   2.238  10.862 -0.8128 -1.7639 -1.0829
 8297SOL    HW236525   1.143   2.313  10.968  1.7339  0.8861 -1.9332
 8298SOL     OW36526   4.669   2.794   4.103  0.2517  0.1223 -0.1178
 8298SOL    HW136527   4.610   2.799   4.028 -0.1280 -0.2222  0.1543
 8298SOL    HW236528   4.615   2.832   4.173  0.5853  0.3410  0.0216
 8299SOL     OW36529   1.762   1.812   1.037  0.0613 -0.3613  0.6894
 8299SOL    HW136530   1.713   1.796   1.118 -1.1014  0.5166  0.1602
 8299SOL    HW236531   1.805   1.729   1.016 -0.4776 -0.3121 -0.6077
 8300SOL     OW36532   2.355   1.998   3.346  0.4650  0.5361  0.3749
 8300SOL    HW136533   2.430   2.050   3.316  1.4573 -0.6273  0.8558
 8300SOL    HW236534   2.287   2.009   3.280  0.0591  2.5283  1.1005
 8301SOL     OW36535   4.570   0.865   6.894  0.0130  0.5034 -0.7283
 8301SOL    HW136536   4.659   0.829   6.903  0.0155  0.7489  0.1843
 8301SOL    HW236537   4.521   0.789   6.863 -2.3318  1.0629  1.6454
 8302SOL     OW36538   1.434   2.360   5.301  0.4079 -0.0732  0.1850
 8302SOL    HW136539   1.358   2.418   5.303  1.1057  0.9144 -2.4718
 8302SOL    HW236540   1.448   2.365   5.206  1.3583  2.1047  0.4504
 8303SOL     OW36541   1.819   0.357   8.268 -0.1673 -0.3099  0.4501
 8303SOL    HW136542   1.734   0.399   8.285 -0.9985 -2.0373  0.6257
 8303SOL    HW236543   1.876   0.426   8.301 -0.2006 -0.5827  1.0913
 8304SOL     OW36544   3.761   1.496   4.467  0.0303  0.2377  0.3322
 8304SOL    HW136545   3.785   1.469   4.379 -0.7101  0.4227  0.0694
 8304SOL    HW236546   3.669   1.472   4.452  1.1613 -2.7519 -1.5971
 8305SOL     OW36547   0.488   2.817   7.353  0.3239  0.7489 -0.3269
 8305SOL    HW136548   0.539   2.857   7.423 -0.4131  1.0218  0.0616
 8305SOL    HW236549   0.422   2.886   7.346  0.4287  0.7069 -1.6778
 8306SOL     OW36550   0.971   0.693   2.055  0.4028  0.6636 -0.1832
 8306SOL    HW136551   0.908   0.654   2.116  2.3346 -3.5491 -0.8459
 8306SOL    HW236552   0.945   0.654   1.971 -1.4500 -1.3258  1.3040
 8307SOL     OW36553   2.074   4.721   6.518  0.3740  0.1393 -0.0361
 8307SOL    HW136554   2.150   4.700   6.464  0.8659  0.0628  0.6797
 8307SOL    HW236555   2.105   4.685   6.601  0.2932 -1.0574 -0.5261
 8308SOL     OW36556   1.264   0.062   5.330 -0.8382  0.1934  0.4908
 8308SOL    HW136557   1.231   0.000   5.395 -0.9111 -0.3972 -0.1111
 8308SOL    HW236558   1.352   0.024   5.336 -0.7256  0.5014  0.8264
 8309SOL     OW36559   1.613   3.510   3.099  0.4481 -1.0372  0.3158
 8309SOL    HW136560   1.519   3.511   3.115 -0.1179  1.0267 -3.0331
 8309SOL    HW236561   1.655   3.579   3.150  1.2937  0.9643 -3.0834
 8310SOL     OW36562   1.329   3.668   1.045 -0.4839 -0.3871 -0.2864
 8310SOL    HW136563   1.245   3.627   1.066  0.8823 -1.4783  3.0932
 8310SOL    HW236564   1.373   3.672   1.130 -1.5013 -0.3620  0.2463
 8311SOL     OW36565   3.500   3.374   1.373 -0.1812  0.3713  0.3052
 8311SOL    HW136566   3.462   3.409   1.292  0.6825  0.4164 -0.0833
 8311SOL    HW236567   3.574   3.435   1.384  0.7714 -0.0016 -3.8285
 8312SOL     OW36568   4.737   2.150   1.455  0.0660 -0.2214  0.6070
 8312SOL    HW136569   0.083   2.126   1.416 -0.5892 -1.1874 -0.2339
 8312SOL    HW236570   0.029   2.200   1.531 -0.3020  0.1658  0.5019
 8313SOL     OW36571   4.716   1.647  10.061 -0.1588 -0.7337  0.0368
 8313SOL    HW136572   0.033   1.676   9.988 -0.1252  0.7552  0.6632
 8313SOL    HW236573   4.700   1.730  10.106 -0.4013 -0.7475 -0.0265
 8314SOL     OW36574   4.326   2.034   6.552 -0.9229  0.1032  0.4377
 8314SOL    HW136575   4.407   2.053   6.504 -1.5425 -1.1114 -1.0815
 8314SOL    HW236576   4.336   2.081   6.634  0.1072  1.2394 -0.3251
 8315SOL     OW36577   4.411   4.736   3.579 -0.3269 -0.1037  0.1583
 8315SOL    HW136578   4.322   4.726   3.614 -0.0877 -1.0676  0.4941
 8315SOL    HW236579   4.436   0.078   3.626  0.4617 -1.7049  2.4661
 8316SOL     OW36580   4.260   1.822  17.390 -0.4126 -0.3815  0.4645
 8316SOL    HW136581   4.304   1.746  17.429  3.6178  0.4777 -2.4193
 8316SOL    HW236582   4.271   1.890  17.455 -0.2690  2.1371 -2.1886
 8317SOL     OW36583   4.249   1.482   8.817 -0.4223 -0.3070  0.3115
 8317SOL    HW136584   4.325   1.517   8.864  0.4764  0.0804 -1.4236
 8317SOL    HW236585   4.264   1.502   8.725 -1.5750  0.2380  0.2418
 8318SOL     OW36586   4.738   2.154   4.710  0.2660  0.4372 -0.4318
 8318SOL    HW136587   4.713   2.175   4.620 -0.0314  2.4692  0.1166
 8318SOL    HW236588   4.651   2.165   4.749 -1.5674 -2.1671 -3.7485
 8319SOL     OW36589   0.563   3.916   1.624 -0.1704  0.1491 -0.1810
 8319SOL    HW136590   0.586   3.944   1.713 -1.2369 -0.3419  0.2425
 8319SOL    HW236591   0.485   3.970   1.616 -0.1878  0.2307  0.6190
 8320SOL     OW36592   3.730   2.854  13.224  0.3928  0.2587 -0.2766
 8320SOL    HW136593   3.678   2.877  13.300 -0.0062  0.7007 -0.6789
 8320SOL    HW236594   3.750   2.943  13.194 -0.5627  1.6160  3.1828
 8321SOL     OW36595   3.662   1.395  16.460 -0.0690 -0.0387 -0.0330
 8321SOL    HW136596   3.690   1.447  16.385 -2.0419  0.4407 -0.4333
 8321SOL    HW236597   3.613   1.329  16.411  0.0390 -0.6530  0.6867
 8322SOL     OW36598   2.603   4.556   4.264 -0.1140  0.2546  0.1412
 8322SOL    HW136599   2.583   4.647   4.241  0.9180  1.2456  3.0735
 8322SOL    HW236600   2.672   4.557   4.331  0.9711  1.6035 -1.0033
 8323SOL     OW36601   1.624   4.461   3.689  0.3915 -0.0844 -0.4230
 8323SOL    HW136602   1.673   4.495   3.614 -1.0161  2.1891 -0.3095
 8323SOL    HW236603   1.699   4.448   3.747 -0.1915 -2.7672 -0.2309
 8324SOL     OW36604   1.300   2.697   2.880 -0.5812  0.4345 -0.1369
 8324SOL    HW136605   1.305   2.628   2.813 -0.5767  0.1725  0.1329
 8324SOL    HW236606   1.346   2.773   2.846 -1.3686  0.0573 -2.0650
 8325SOL     OW36607   3.123   3.973   5.977 -0.2696 -0.1202  0.6912
 8325SOL    HW136608   3.211   3.990   5.942 -0.4014 -1.0871 -0.0963
 8325SOL    HW236609   3.130   3.878   5.969  0.1879 -0.0888  0.6890
 8326SOL     OW36610   3.699   4.588   8.508  0.4241  0.1587 -0.1050
 8326SOL    HW136611   3.618   4.636   8.490  0.5967  0.4762 -0.0465
 8326SOL    HW236612   3.739   4.645   8.574  1.5171 -2.4636  1.4562
 8327SOL     OW36613   1.135   1.558   6.677  0.0748 -0.5418  0.0566
 8327SOL    HW136614   1.063   1.594   6.626  0.1051  2.1905  1.9238
 8327SOL    HW236615   1.121   1.464   6.670 -0.9197 -0.3564 -0.4576
 8328SOL     OW36616   2.534   1.021   9.284  0.0572  0.2369 -0.6860
 8328SOL    HW136617   2.465   0.967   9.246  0.5226 -1.5323  1.0145
 8328SOL    HW236618   2.477   1.090   9.319  2.4480  0.1659  3.4143
 8329SOL     OW36619   2.125   0.660   9.774 -0.3093 -0.1382 -0.3691
 8329SOL    HW136620   2.109   0.694   9.861  0.8580  1.1041 -0.6552
 8329SOL    HW236621   2.116   0.733   9.713  2.9567 -0.4784 -1.2815
 8330SOL     OW36622   1.835   1.652   6.674 -0.0012 -0.1104  0.1917
 8330SOL    HW136623   1.769   1.708   6.633 -0.4138 -2.0085 -1.7479
 8330SOL    HW236624   1.911   1.669   6.619  0.9917 -0.8064  1.3510
 8331SOL     OW36625   1.632   2.140  15.656 -0.1650 -0.2609  0.2893
 8331SOL    HW136626   1.656   2.055  15.620 -0.1113  0.8397 -2.2451
 8331SOL    HW236627   1.558   2.117  15.713 -1.3804 -1.9758 -1.9736
 8332SOL     OW36628   1.110   0.641   7.193 -0.8257 -0.3627 -0.0827
 8332SOL    HW136629   1.154   0.569   7.239 -0.3106 -1.0940 -1.7225
 8332SOL    HW236630   1.188   0.675   7.149 -0.3197  0.5789  1.5425
 8333SOL     OW36631   2.463   2.087   6.297  0.1151 -0.1030  0.5341
 8333SOL    HW136632   2.459   2.160   6.235 -0.5754 -0.0280  0.6716
 8333SOL    HW236633   2.406   2.121   6.366 -1.3848  0.1450 -0.8303
 8334SOL     OW36634   0.801   0.655   6.379 -0.4500 -0.3088 -0.2765
 8334SOL    HW136635   0.765   0.604   6.306 -0.5183  2.3839 -2.1020
 8334SOL    HW236636   0.719   0.667   6.427  1.5266  3.3163  2.1859
 8335SOL     OW36637   2.200   1.341   9.616 -0.5099  0.2309  0.3708
 8335SOL    HW136638   2.107   1.347   9.637 -0.5130  1.1950  0.0742
 8335SOL    HW236639   2.222   1.432   9.596 -2.4363  0.4382 -0.8459
 8336SOL     OW36640   0.094   0.945   4.629  0.1507 -0.5076  0.5980
 8336SOL    HW136641   0.025   0.938   4.563  0.5375  1.8998 -0.0914
 8336SOL    HW236642   0.160   0.885   4.595 -1.7053 -2.3256  0.2092
 8337SOL     OW36643   4.223   3.839   4.706  0.5405  0.5542  0.0954
 8337SOL    HW136644   4.211   3.808   4.796 -0.5036  0.7796  0.0279
 8337SOL    HW236645   4.141   3.816   4.663 -0.3133  2.4559  0.6928
 8338SOL     OW36646   2.961   3.240  11.192  0.0449  0.5052 -0.3849
 8338SOL    HW136647   2.986   3.321  11.236  0.2659 -0.0872  0.5638
 8338SOL    HW236648   2.867   3.249  11.176 -0.2076 -0.3665  0.6653
 8339SOL     OW36649   1.462   2.370   6.065  0.1853 -0.3066  0.2928
 8339SOL    HW136650   1.474   2.286   6.108 -1.2915 -0.8153 -0.2701
 8339SOL    HW236651   1.446   2.431   6.137  1.3206  1.0929 -0.6506
 8340SOL     OW36652   2.802   3.244   6.427 -0.1632 -0.0864  0.1716
 8340SOL    HW136653   2.869   3.181   6.453 -0.8857 -0.9842 -0.1549
 8340SOL    HW236654   2.829   3.266   6.338  0.6803  2.8850  1.1667
 8341SOL     OW36655   2.732   2.858  10.267  0.2368 -0.2190  0.1519
 8341SOL    HW136656   2.691   2.794  10.326 -0.5039  1.6334  1.6607
 8341SOL    HW236657   2.825   2.840  10.280  0.6121  0.9340 -0.9884
 8342SOL     OW36658   4.028   1.102   5.418  0.3027 -0.6890  0.0446
 8342SOL    HW136659   4.069   1.019   5.445 -0.8689 -1.5012 -0.7110
 8342SOL    HW236660   3.936   1.077   5.426 -0.0583  0.5238 -0.3185
 8343SOL     OW36661   1.904   2.228  12.427  0.4246 -0.2624  0.0904
 8343SOL    HW136662   1.877   2.194  12.513 -0.8382 -3.2203 -1.4436
 8343SOL    HW236663   1.996   2.238  12.450  0.4517  0.9199 -0.5517
 8344SOL     OW36664   2.810   4.578   7.025  0.5635 -0.3470 -0.5054
 8344SOL    HW136665   2.772   4.507   7.077 -2.1431  0.4629 -1.4185
 8344SOL    HW236666   2.765   4.657   7.054  0.0067 -0.7823 -0.1822
 8345SOL     OW36667   1.802   1.899   3.890  0.0129 -0.3903  0.0721
 8345SOL    HW136668   1.863   1.916   3.818  0.0243  1.0282  0.4078
 8345SOL    HW236669   1.786   1.990   3.916 -1.0465 -0.3688 -0.6566
 8346SOL     OW36670   1.988   2.392   3.168 -0.1963 -0.8375  0.6062
 8346SOL    HW136671   1.945   2.329   3.224  0.1177 -0.7319  0.9662
 8346SOL    HW236672   1.918   2.452   3.140  1.4645  1.5434  1.5204
 8347SOL     OW36673   4.679   4.496  10.818 -0.1583  0.0037  0.1435
 8347SOL    HW136674   4.659   4.550  10.741 -1.6577  0.0297  0.5594
 8347SOL    HW236675   4.617   4.424  10.816  0.2995 -0.3780 -0.4529
 8348SOL     OW36676   4.720   0.721   5.904 -0.4505 -0.1314  0.6548
 8348SOL    HW136677   4.642   0.755   5.948 -0.0405  0.0579  1.2303
 8348SOL    HW236678   4.724   0.771   5.822  5.3221  0.4108  1.2477
 8349SOL     OW36679   2.206   4.489   6.277  0.1081  0.3156 -0.3504
 8349SOL    HW136680   2.132   4.441   6.239  0.7435 -0.6495 -0.3799
 8349SOL    HW236681   2.226   4.431   6.351 -0.3719  1.8150  0.9507
 8350SOL     OW36682   3.777   0.832   6.059  0.1430  0.0916 -0.1354
 8350SOL    HW136683   3.763   0.771   5.987 -0.1776  0.5695 -0.4742
 8350SOL    HW236684   3.786   0.920   6.022  0.7295  0.5170  1.0301
 8351SOL     OW36685   0.158   1.329   3.886 -0.5669  0.4816  0.0259
 8351SOL    HW136686   0.090   1.346   3.820 -0.7900 -0.4326  0.0252
 8351SOL    HW236687   0.225   1.287   3.832  0.7578  2.0926  0.4091
 8352SOL     OW36688   0.301   3.889   0.565  0.5247  0.4372  0.3758
 8352SOL    HW136689   0.392   3.864   0.548 -0.0105 -0.6418 -0.9198
 8352SOL    HW236690   0.278   3.953   0.497  0.3409 -0.4343 -0.3926
 8353SOL     OW36691   0.989   4.683   4.887  0.3797  0.0092 -0.3045
 8353SOL    HW136692   1.031   4.723   4.962  0.7910  2.4029 -1.8048
 8353SOL    HW236693   1.064   4.660   4.831  2.2187  0.5798  1.9625
 8354SOL     OW36694   3.867   2.298   5.940  0.8510  0.2666 -0.6001
 8354SOL    HW136695   3.879   2.203   5.929  1.1001  0.2267 -0.0072
 8354SOL    HW236696   3.939   2.318   5.999 -0.8839 -1.4089  2.1160
 8355SOL     OW36697   1.424   2.793   3.883  0.4061  0.3024 -0.2017
 8355SOL    HW136698   1.355   2.735   3.849 -0.4191  0.1808  1.6479
 8355SOL    HW236699   1.392   2.878   3.854  0.1712 -0.0335 -0.9542
 8356SOL     OW36700   0.993   2.587   7.072 -0.3555  0.6983  0.0362
 8356SOL    HW136701   1.054   2.645   7.116  0.5494 -0.2006 -0.0320
 8356SOL    HW236702   0.916   2.604   7.127 -1.3261 -1.0038 -0.8145
 8357SOL     OW36703   4.428   4.548   2.548 -0.4957  0.5085  0.7749
 8357SOL    HW136704   4.432   4.631   2.501 -0.1072 -0.2236 -0.4704
 8357SOL    HW236705   4.333   4.531   2.552 -0.2496 -0.7183  1.3812
 8358SOL     OW36706   2.841   1.952  17.658  0.4119  0.0251  0.2823
 8358SOL    HW136707   2.806   1.915  17.739 -0.7729  3.0183  1.1245
 8358SOL    HW236708   2.927   1.913  17.643  0.6237 -0.1717  2.0258
 8359SOL     OW36709   2.827   1.357   8.864  0.0572 -0.2667 -0.4162
 8359SOL    HW136710   2.874   1.276   8.881  0.1128 -0.2172 -0.3315
 8359SOL    HW236711   2.738   1.330   8.840  0.1045 -1.1615  0.4469
 8360SOL     OW36712   3.293   3.849  15.336 -0.0854  0.0393 -0.3465
 8360SOL    HW136713   3.381   3.832  15.370 -1.5899  1.4813  4.2463
 8360SOL    HW236714   3.300   3.869  15.243  1.4845 -0.9355 -0.4309
 8361SOL     OW36715   3.930   2.684   0.854 -0.0696  0.4532 -0.3757
 8361SOL    HW136716   3.947   2.742   0.929  2.8294  0.7750 -1.2896
 8361SOL    HW236717   3.956   2.602   0.895  1.2881  0.6991 -0.7266
 8362SOL     OW36718   3.964   3.424   1.996 -0.4188 -0.1994 -0.3052
 8362SOL    HW136719   3.976   3.506   2.044 -0.0159  0.4632 -1.5369
 8362SOL    HW236720   4.008   3.367   2.059  3.3150  2.5151 -0.4364
 8363SOL     OW36721   4.204   3.130  11.296  0.6015  0.3150  0.4281
 8363SOL    HW136722   4.176   3.134  11.205 -2.7351  1.9163  1.5225
 8363SOL    HW236723   4.187   3.217  11.333  1.8849  0.6396  0.2321
 8364SOL     OW36724   3.146   0.207  10.866  0.4517  0.5393  0.5623
 8364SOL    HW136725   3.055   0.235  10.875 -0.4712 -2.3025 -0.1781
 8364SOL    HW236726   3.184   0.293  10.847  0.7346 -0.0105 -1.3873
 8365SOL     OW36727   2.244   4.565   0.845  0.5149  0.8007  0.4621
 8365SOL    HW136728   2.169   4.506   0.850 -0.7469  2.1681 -2.1519
 8365SOL    HW236729   2.209   4.644   0.886 -0.7401  0.9068 -0.8408
 8366SOL     OW36730   2.516   0.004   7.293 -0.2555  0.1395  0.0457
 8366SOL    HW136731   2.432   0.040   7.321  0.0190  0.2809  0.6945
 8366SOL    HW236732   2.492   4.657   7.258  0.7774  1.5274 -4.0866
 8367SOL     OW36733   4.015   4.102   4.797  0.0950 -0.4583 -0.4189
 8367SOL    HW136734   3.966   4.040   4.850  1.5662  0.0703  1.5824
 8367SOL    HW236735   3.998   4.184   4.844  1.5697 -1.1997  1.3828
 8368SOL     OW36736   1.310   2.570   1.605 -0.0079 -0.1395 -0.5333
 8368SOL    HW136737   1.255   2.646   1.587 -0.4999  0.1139  2.1362
 8368SOL    HW236738   1.323   2.527   1.520  2.0691  0.4432 -0.5348
 8369SOL     OW36739   0.650   4.690  15.137  0.2946 -0.1565 -0.3606
 8369SOL    HW136740   0.644   4.609  15.188  0.1842 -1.5593 -2.6352
 8369SOL    HW236741   0.625   4.660  15.050  2.7350 -1.0443 -0.7638
 8370SOL     OW36742   3.826   2.682   1.418 -0.3682 -0.0851  0.3763
 8370SOL    HW136743   3.766   2.620   1.375  1.7652 -1.1032 -1.1679
 8370SOL    HW236744   3.814   2.647   1.506  0.0095  1.0353  0.8659
 8371SOL     OW36745   2.198   1.358  13.521 -0.1707  0.2763 -0.4593
 8371SOL    HW136746   2.270   1.368  13.459 -1.2383 -0.2583 -1.7906
 8371SOL    HW236747   2.125   1.332  13.465  0.0857 -1.3493 -0.0559
 8372SOL     OW36748   0.216   0.883   9.897  0.5441 -0.0102  0.1450
 8372SOL    HW136749   0.248   0.818   9.834 -0.8231 -1.1992  0.6830
 8372SOL    HW236750   0.138   0.839   9.930 -0.0621  1.1212  0.2316
 8373SOL     OW36751   4.392   0.550   5.911 -0.2543 -0.1166 -0.4108
 8373SOL    HW136752   4.429   0.628   5.953  1.6600 -1.7673  0.9546
 8373SOL    HW236753   4.461   0.489   5.937 -1.0262 -1.3451 -1.2922
 8374SOL     OW36754   1.466   0.411  13.777  0.2731 -0.3683  0.1027
 8374SOL    HW136755   1.436   0.411  13.686 -0.4026  0.5644  0.3259
 8374SOL    HW236756   1.404   0.464  13.827  1.4623  1.5976 -0.4820
 8375SOL     OW36757   4.735   4.297   9.141 -0.6614  0.4081  0.4135
 8375SOL    HW136758   4.736   4.370   9.203  2.3338 -0.9347  1.9703
 8375SOL    HW236759   0.055   4.233   9.182 -3.7431 -3.5085 -1.3961
 8376SOL     OW36760   2.039   2.689   1.167  0.0729 -0.0394  0.1318
 8376SOL    HW136761   1.951   2.688   1.129 -0.9372  1.1578  2.4066
 8376SOL    HW236762   2.077   2.627   1.106  0.5422  0.4012 -0.0208
 8377SOL     OW36763   3.566   2.818   7.485 -0.4112 -0.1405  0.2128
 8377SOL    HW136764   3.514   2.807   7.406  1.5891 -0.4100 -1.0376
 8377SOL    HW236765   3.600   2.731   7.507  1.4168  0.2520 -1.1403
 8378SOL     OW36766   0.663   0.672   1.612 -0.0887 -0.1885  0.1268
 8378SOL    HW136767   0.648   0.719   1.530  2.6744 -1.3587 -1.0527
 8378SOL    HW236768   0.581   0.683   1.658 -0.6482  3.3372 -1.7055
 8379SOL     OW36769   2.330   2.760   7.272 -0.0320 -0.1140  0.3109
 8379SOL    HW136770   2.256   2.807   7.233  2.0904  2.5727 -0.4438
 8379SOL    HW236771   2.404   2.807   7.235  1.9775 -1.5939  2.4234
 8380SOL     OW36772   2.773   1.486   8.422  0.1771 -0.3462 -0.1654
 8380SOL    HW136773   2.767   1.531   8.338 -2.8828  0.3705  0.4319
 8380SOL    HW236774   2.790   1.562   8.479  1.8706 -0.3145 -0.7115
 8381SOL     OW36775   0.692   4.044   3.855  0.3907 -0.2790 -0.2958
 8381SOL    HW136776   0.597   4.050   3.848  0.3736  1.3395  1.3162
 8381SOL    HW236777   0.714   4.116   3.796  2.0082  0.7929  1.6320
 8382SOL     OW36778   1.435   2.367   2.264 -0.1463 -0.0264 -0.2469
 8382SOL    HW136779   1.449   2.272   2.265 -0.4135 -0.0770 -0.9428
 8382SOL    HW236780   1.357   2.386   2.316 -0.3460 -0.7829 -0.2630
 8383SOL     OW36781   3.489   1.748   8.983 -0.2839  0.8051  0.2196
 8383SOL    HW136782   3.454   1.791   8.906 -1.5187 -0.6579 -0.0375
 8383SOL    HW236783   3.445   1.789   9.058  0.5322 -1.4160  1.9060
 8384SOL     OW36784   1.273   2.306  17.212  0.3831  0.2334 -0.0383
 8384SOL    HW136785   1.327   2.364  17.159  1.9962 -2.6190 -1.5403
 8384SOL    HW236786   1.199   2.296  17.153 -0.1899 -1.5833  0.9719
 8385SOL     OW36787   0.130   3.198   3.070  0.3001  0.1662 -0.1427
 8385SOL    HW136788   0.103   3.288   3.051 -0.3923  0.1029  0.5432
 8385SOL    HW236789   0.213   3.187   3.023  1.9667  0.9217  2.6639
 8386SOL     OW36790   1.581   3.293  10.198 -0.1863 -0.2382  0.1524
 8386SOL    HW136791   1.551   3.263  10.284  0.8963  1.0656  0.9927
 8386SOL    HW236792   1.673   3.300  10.224 -0.7446  1.0178  1.8495
 8387SOL     OW36793   4.540   2.106   1.713 -0.4895  0.1249 -1.5611
 8387SOL    HW136794   4.543   2.187   1.765 -0.9093 -1.2246  0.5402
 8387SOL    HW236795   4.466   2.133   1.658 -0.6666  0.7458 -1.0243
 8388SOL     OW36796   0.482   0.493  13.656 -0.7586  0.0848 -0.3033
 8388SOL    HW136797   0.451   0.584  13.654  0.3342  0.4514 -0.9243
 8388SOL    HW236798   0.437   0.451  13.729 -0.0837  1.4817  0.8933
 8389SOL     OW36799   4.008   4.008   9.005  0.1449  0.3162  0.5175
 8389SOL    HW136800   4.030   4.010   8.912 -0.9054 -4.2165  0.1617
 8389SOL    HW236801   4.019   3.916   9.029  2.5304  0.6107  0.5038
 8390SOL     OW36802   2.427   4.233   5.276 -0.1122  0.2340  0.5667
 8390SOL    HW136803   2.503   4.291   5.274 -1.0020  1.3797 -0.0605
 8390SOL    HW236804   2.384   4.251   5.192 -0.3095 -1.1030  0.3771
 8391SOL     OW36805   2.943   4.463   6.226  0.4705  0.0778  0.4080
 8391SOL    HW136806   2.962   4.377   6.190  3.6180  1.3004 -0.8137
 8391SOL    HW236807   3.010   4.464   6.294  0.7025  1.9168  0.1613
 8392SOL     OW36808   4.705   3.034   5.584 -0.1606  0.5526 -0.2896
 8392SOL    HW136809   4.616   3.008   5.561  0.0262 -0.1292 -0.2665
 8392SOL    HW236810   0.014   3.022   5.502 -1.2452 -1.1975 -0.6692
 8393SOL     OW36811   0.795   3.350   2.755 -0.6988  0.0815 -0.3129
 8393SOL    HW136812   0.793   3.438   2.717 -1.1373  1.1385  2.1271
 8393SOL    HW236813   0.709   3.318   2.728 -0.3329 -0.1275 -1.2366
 8394SOL     OW36814   1.374   4.253   6.081 -0.0460  0.2860 -0.2264
 8394SOL    HW136815   1.288   4.218   6.057 -0.3213  1.0929 -0.4029
 8394SOL    HW236816   1.372   4.248   6.176 -0.6692 -1.5775 -0.3402
 8395SOL     OW36817   2.007   3.478  10.038 -0.6416 -0.2433 -0.2539
 8395SOL    HW136818   2.070   3.520   9.979  0.8950 -3.2192 -0.7423
 8395SOL    HW236819   1.992   3.543  10.107 -0.0961 -0.7297  0.3313
 8396SOL     OW36820   3.354   0.367   1.992 -1.0381  0.2215  0.3542
 8396SOL    HW136821   3.416   0.439   2.002 -0.6423  0.0006 -0.5156
 8396SOL    HW236822   3.270   0.408   1.972  0.5750  3.5742  0.5828
 8397SOL     OW36823   0.086   1.618   9.118 -0.1670  0.6466 -0.6514
 8397SOL    HW136824   0.080   1.523   9.118  0.8499  0.5808 -1.2851
 8397SOL    HW236825   0.066   1.635   9.211 -2.1846 -0.3002 -0.9297
 8398SOL     OW36826   2.240   3.769   3.729 -0.5987 -0.1448 -0.8334
 8398SOL    HW136827   2.150   3.797   3.713 -1.1007 -0.9758  0.5688
 8398SOL    HW236828   2.246   3.761   3.824 -0.2013 -0.7325 -0.9051
 8399SOL     OW36829   0.920   4.260   1.355 -0.0776  0.1122 -0.4999
 8399SOL    HW136830   0.989   4.195   1.366  0.6626  0.9332 -0.2675
 8399SOL    HW236831   0.872   4.253   1.437  0.4542 -2.8342 -0.4546
 8400SOL     OW36832   3.173   3.027  11.963 -0.4854  0.0329  0.0627
 8400SOL    HW136833   3.197   2.941  11.929 -1.3281 -0.0558 -0.2983
 8400SOL    HW236834   3.235   3.089  11.924  0.3627 -1.2440 -0.6208
 8401SOL     OW36835   3.544   4.256  16.616 -0.3842  0.3730  0.2009
 8401SOL    HW136836   3.522   4.233  16.706 -1.0411  0.6040  0.0953
 8401SOL    HW236837   3.462   4.253  16.567 -0.0264 -3.1957 -0.1901
 8402SOL     OW36838   2.709   1.435  17.450  0.3045 -0.2724  0.2416
 8402SOL    HW136839   2.642   1.373  17.479 -0.7802 -0.0549 -1.8454
 8402SOL    HW236840   2.788   1.389  17.481  0.7013  0.1250 -0.1916
 8403SOL     OW36841   1.450   1.735   7.079  0.4649  0.2044 -0.3456
 8403SOL    HW136842   1.377   1.780   7.037  0.8120  0.3351 -0.8066
 8403SOL    HW236843   1.507   1.722   7.004 -0.4615  0.4873 -1.0930
 8404SOL     OW36844   3.133   2.000   9.061 -0.0376 -0.1900  0.4997
 8404SOL    HW136845   3.209   1.965   9.108 -0.0446 -0.6759  0.1438
 8404SOL    HW236846   3.063   1.944   9.097 -0.2970 -0.4573 -0.4212
 8405SOL     OW36847   1.622   2.543   3.615 -0.7634 -0.1543 -0.4850
 8405SOL    HW136848   1.572   2.479   3.666  0.7115 -1.5526 -0.8121
 8405SOL    HW236849   1.613   2.513   3.525 -1.2102  0.0863 -0.5221
 8406SOL     OW36850   1.595   1.345   4.970 -0.9896  0.5554  0.1045
 8406SOL    HW136851   1.533   1.301   4.911 -0.6946 -0.8680  0.8638
 8406SOL    HW236852   1.566   1.317   5.057  0.1621 -0.3835  0.1935
 8407SOL     OW36853   1.191   0.141  10.788 -0.3949 -0.4716  0.2786
 8407SOL    HW136854   1.182   0.048  10.807  0.6446 -0.8681 -1.1681
 8407SOL    HW236855   1.204   0.175  10.876 -0.0772 -0.6504  0.3005
 8408SOL     OW36856   4.687   1.552   1.732 -0.0523  0.1124  0.2481
 8408SOL    HW136857   4.594   1.575   1.733  0.0268  0.4038  1.3710
 8408SOL    HW236858   4.699   1.542   1.827 -1.7277 -0.0538  0.4430
 8409SOL     OW36859   3.773   0.857   3.034  0.3464 -0.0241  0.6888
 8409SOL    HW136860   3.717   0.795   3.082 -0.2521  0.1883  0.2640
 8409SOL    HW236861   3.776   0.929   3.097  1.5794  0.6974 -0.1831
 8410SOL     OW36862   0.432   4.129   3.435 -0.0758  0.2364  0.2983
 8410SOL    HW136863   0.372   4.178   3.492 -0.3860  1.0061 -0.6908
 8410SOL    HW236864   0.478   4.207   3.404 -2.7455  1.9081  0.4984
 8411SOL     OW36865   1.081   0.897   7.259  0.2911  0.1206  0.5939
 8411SOL    HW136866   1.087   0.803   7.243  1.1261 -0.2527  3.0062
 8411SOL    HW236867   1.085   0.901   7.355  0.8156  1.2447  0.5283
 8412SOL     OW36868   0.609   3.271   3.812 -0.4334 -0.0296 -0.0211
 8412SOL    HW136869   0.531   3.282   3.758 -0.5606  3.9967  1.0299
 8412SOL    HW236870   0.662   3.348   3.793 -1.2462  0.5073 -0.1115
 8413SOL     OW36871   3.324   1.932   8.464 -0.0289  0.1312  0.7626
 8413SOL    HW136872   3.308   1.850   8.417 -1.0400  1.0634 -0.5193
 8413SOL    HW236873   3.419   1.946   8.471  0.6124 -4.1155  0.4316
 8414SOL     OW36874   1.551   4.721   8.452 -0.0409 -0.1490 -0.0997
 8414SOL    HW136875   1.520   4.631   8.438  1.0383 -0.0907 -2.7735
 8414SOL    HW236876   1.563   4.721   8.547  0.1995 -0.9363 -0.1289
 8415SOL     OW36877   0.732   2.438   5.407 -0.1013  0.2579 -0.4336
 8415SOL    HW136878   0.648   2.403   5.437 -0.0547  0.0363 -0.5650
 8415SOL    HW236879   0.788   2.361   5.415  1.2304  1.2014 -0.6116
 8416SOL     OW36880   1.881   2.726  17.065 -0.7180 -0.5219 -0.4963
 8416SOL    HW136881   1.869   2.699  16.974 -3.4007 -1.3932  0.1320
 8416SOL    HW236882   1.816   2.795  17.079  0.9737  1.1001 -0.6769
 8417SOL     OW36883   2.472   3.342   6.750 -0.0384 -0.0117  0.2462
 8417SOL    HW136884   2.515   3.409   6.803 -0.8230  0.4513  0.2944
 8417SOL    HW236885   2.515   3.342   6.664  1.8736 -0.8164  1.2056
 8418SOL     OW36886   3.231   2.397   8.034  0.1550 -0.1434 -0.9261
 8418SOL    HW136887   3.172   2.472   8.033  1.6606  1.0673  1.1347
 8418SOL    HW236888   3.253   2.393   7.941  0.8364 -1.7465 -0.6972
 8419SOL     OW36889   3.543   0.406   2.728 -0.0960  0.2910  0.7423
 8419SOL    HW136890   3.558   0.406   2.634 -1.9391  1.9510  0.4443
 8419SOL    HW236891   3.495   0.487   2.748  0.4388  0.3394  1.8961
 8420SOL     OW36892   0.990   4.286   3.874  0.1920 -0.0961  0.1308
 8420SOL    HW136893   0.903   4.275   3.835 -0.8109  0.4533  2.1865
 8420SOL    HW236894   1.028   4.199   3.863  1.8041  0.3380  2.3224
 8421SOL     OW36895   4.670   2.382   5.938  0.4749  0.1124  0.1814
 8421SOL    HW136896   4.618   2.303   5.951  0.1042  0.5109  1.1385
 8421SOL    HW236897   4.669   2.412   6.029 -2.2216  0.5285 -0.0026
 8422SOL     OW36898   0.707   1.599   2.108 -0.0537  0.2025 -0.5329
 8422SOL    HW136899   0.616   1.617   2.083 -0.6238  0.2245  1.5030
 8422SOL    HW236900   0.745   1.679   2.070  1.1855  0.1369  0.5703
 8423SOL     OW36901   3.800   0.962   3.527 -0.4913 -0.1967 -0.6962
 8423SOL    HW136902   3.826   0.891   3.585  3.5787  1.4099 -0.5649
 8423SOL    HW236903   3.711   0.980   3.557 -1.1767 -0.9971 -2.2180
 8424SOL     OW36904   4.167   4.656   3.195  0.2980 -0.4622 -0.1798
 8424SOL    HW136905   4.182   0.008   3.223 -0.2163  0.0733 -1.6457
 8424SOL    HW236906   4.105   4.633   3.264  1.3848  0.8160  1.2094
 8425SOL     OW36907   0.595   2.519   6.004 -0.1838  0.1625  0.0917
 8425SOL    HW136908   0.670   2.565   5.966 -1.4130  0.6812 -1.7058
 8425SOL    HW236909   0.578   2.456   5.933  0.5972 -0.7992  0.7718
 8426SOL     OW36910   3.838   1.373   0.929  0.0389 -0.5091  0.2123
 8426SOL    HW136911   3.812   1.411   1.013  0.7822  0.2627  0.1002
 8426SOL    HW236912   3.924   1.335   0.947 -0.0418 -0.4335  0.7498
 8427SOL     OW36913   4.189   1.656   6.088 -0.7366 -0.4639  0.0475
 8427SOL    HW136914   4.204   1.600   6.164  1.1672 -0.1599 -0.1043
 8427SOL    HW236915   4.255   1.622   6.028  1.1624 -0.6374  2.2486
 8428SOL     OW36916   1.169   1.687   9.945 -0.2215 -0.4892  0.2651
 8428SOL    HW136917   1.113   1.610   9.946 -1.8277  0.6743 -1.6701
 8428SOL    HW236918   1.259   1.657   9.962 -0.0861  1.2777  2.7471
 8429SOL     OW36919   1.007   4.492  12.631 -0.6039 -0.1324  0.3622
 8429SOL    HW136920   1.035   4.496  12.722 -3.3210  0.0725  1.2049
 8429SOL    HW236921   0.921   4.452  12.643 -0.4227 -0.7640 -0.4218
 8430SOL     OW36922   3.307   0.359  10.415 -0.0668  0.3434 -0.2616
 8430SOL    HW136923   3.345   0.373  10.502  1.0587 -0.9622 -0.5434
 8430SOL    HW236924   3.215   0.356  10.440  0.6785  0.2452  2.5307
 8431SOL     OW36925   1.851   1.072  10.081  0.0816  0.8118 -0.0087
 8431SOL    HW136926   1.844   1.166  10.070 -1.3644  0.5448 -1.2668
 8431SOL    HW236927   1.768   1.052  10.125 -0.0239  2.1590  0.3961
 8432SOL     OW36928   2.339   3.267  17.171  0.2319  0.3299 -0.0076
 8432SOL    HW136929   2.333   3.339  17.233  0.8708 -0.1167  0.5693
 8432SOL    HW236930   2.433   3.259  17.156  0.0271 -2.2213  0.0145
 8433SOL     OW36931   1.076   4.723   3.879 -0.3957 -0.0438 -0.5243
 8433SOL    HW136932   1.035   4.652   3.928 -0.5114  0.1761 -0.3036
 8433SOL    HW236933   1.161   4.718   3.923 -0.1777 -0.0424 -0.9466
 8434SOL     OW36934   0.185   3.620  15.317 -0.0612  0.1476  0.3268
 8434SOL    HW136935   0.168   3.552  15.253  2.6799  0.6790 -0.9533
 8434SOL    HW236936   0.202   3.566  15.395 -1.7940 -3.0773 -1.5360
 8435SOL     OW36937   1.602   3.297   5.007 -0.0851  0.4446  0.1257
 8435SOL    HW136938   1.522   3.341   4.981 -1.2296 -1.4519  0.4420
 8435SOL    HW236939   1.595   3.208   4.972  1.9694 -0.5698  2.2403
 8436SOL     OW36940   0.448   3.447  15.419  0.3340  0.8139 -0.1227
 8436SOL    HW136941   0.471   3.513  15.353 -0.1772 -0.0321 -1.1469
 8436SOL    HW236942   0.486   3.365  15.388 -2.1142  0.0425 -1.0809
 8437SOL     OW36943   4.059   1.288   7.546  0.1499 -0.3371 -0.1928
 8437SOL    HW136944   4.012   1.223   7.599  1.7406 -1.7145 -0.4653
 8437SOL    HW236945   4.026   1.368   7.588  0.0113 -0.8009  0.5889
 8438SOL     OW36946   4.670   1.383   6.181 -0.1331  0.1996  0.7600
 8438SOL    HW136947   4.599   1.340   6.134  2.3963 -1.9255 -1.1708
 8438SOL    HW236948   4.627   1.412   6.261 -1.3292  0.7153 -0.0710
 8439SOL     OW36949   1.942   4.132  16.644 -0.0196 -0.4540 -0.2169
 8439SOL    HW136950   2.011   4.110  16.582 -0.3247 -0.5817 -0.5157
 8439SOL    HW236951   1.948   4.056  16.703  0.1043  0.5545  1.0744
 8440SOL     OW36952   1.976   2.464   7.408 -0.2295  0.3138 -0.2462
 8440SOL    HW136953   1.976   2.528   7.479 -0.4745  0.4127 -0.3327
 8440SOL    HW236954   1.892   2.419   7.418  1.3600 -2.5474  0.2195
 8441SOL     OW36955   1.168   2.678  10.034 -0.1451 -0.3560 -0.4110
 8441SOL    HW136956   1.263   2.684  10.026  0.0455 -0.4319  1.8537
 8441SOL    HW236957   1.152   2.605  10.094 -1.7892  0.7409  0.5100
 8442SOL     OW36958   2.000   2.492  11.301  0.4592  0.1767  0.1136
 8442SOL    HW136959   2.019   2.406  11.263 -1.4614 -0.2180  0.0411
 8442SOL    HW236960   1.913   2.485  11.341  0.9915  2.5284  1.6896
 8443SOL     OW36961   1.467   1.827  11.703 -0.6392 -0.1499  0.0222
 8443SOL    HW136962   1.521   1.856  11.629 -0.2597 -1.0998 -0.0763
 8443SOL    HW236963   1.517   1.754  11.739 -0.1103 -0.1567 -0.7181
 8444SOL     OW36964   0.158   1.300   5.560  0.5193  0.1167  0.1778
 8444SOL    HW136965   0.103   1.222   5.555  0.1408  0.1660  3.9414
 8444SOL    HW236966   0.105   1.365   5.606 -0.6797  1.0770 -2.5375
 8445SOL     OW36967   1.673   3.995  10.383 -0.1525 -0.4854 -0.4584
 8445SOL    HW136968   1.766   3.976  10.398 -0.1754  0.7547  1.2477
 8445SOL    HW236969   1.644   3.915  10.339 -1.9509  0.1027 -0.3455
 8446SOL     OW36970   1.797   0.269   9.676  0.1020  0.5221 -0.1720
 8446SOL    HW136971   1.857   0.260   9.601  0.5311 -0.7592  0.3358
 8446SOL    HW236972   1.776   0.362   9.671 -1.3211  0.2640  1.1397
 8447SOL     OW36973   1.961   0.580   5.787  0.1251  0.0835  0.0639
 8447SOL    HW136974   2.014   0.500   5.791 -2.2195 -1.5030 -0.4167
 8447SOL    HW236975   1.875   0.541   5.803  0.2309  1.1755  3.1625
 8448SOL     OW36976   3.038   1.216  10.328  0.0535 -0.3285 -0.8226
 8448SOL    HW136977   3.009   1.174  10.409 -1.5236 -1.8928 -2.1904
 8448SOL    HW236978   2.976   1.288  10.322  0.8580  0.2849 -1.8545
 8449SOL     OW36979   3.131   1.637   7.718  0.4071 -0.0411 -0.2198
 8449SOL    HW136980   3.043   1.601   7.729  0.8498 -1.3857 -1.0350
 8449SOL    HW236981   3.142   1.625   7.624 -0.0863 -0.1007 -0.2656
 8450SOL     OW36982   0.753   1.076  12.337  0.3414 -0.0059 -0.0614
 8450SOL    HW136983   0.707   1.160  12.333  0.6994  0.2245  0.7506
 8450SOL    HW236984   0.726   1.051  12.425 -2.4260  1.3464 -0.5136
 8451SOL     OW36985   0.915   2.194   5.385  0.3157 -0.7501  0.3762
 8451SOL    HW136986   0.976   2.127   5.414  0.9739 -1.1866 -1.9802
 8451SOL    HW236987   0.950   2.275   5.421 -0.8249 -0.5814  1.0961
 8452SOL     OW36988   3.780   1.738  15.143 -0.4617  0.5221 -0.5731
 8452SOL    HW136989   3.710   1.733  15.208 -1.2948 -0.7001 -1.5826
 8452SOL    HW236990   3.754   1.680  15.072  0.6163  0.3864 -0.8639
 8453SOL     OW36991   1.914   1.543   7.524  0.2706  0.2572  0.1751
 8453SOL    HW136992   1.891   1.474   7.586  0.1411  0.5223  0.4226
 8453SOL    HW236993   2.002   1.517   7.495  0.8036  2.0625  0.1761
 8454SOL     OW36994   3.482   2.951   1.843  0.1505 -0.7977 -0.2802
 8454SOL    HW136995   3.531   2.932   1.763  1.1594 -1.1968  0.4251
 8454SOL    HW236996   3.410   3.007   1.813  0.2604 -0.4752  0.0625
 8455SOL     OW36997   3.298   4.280   7.037  0.5997 -0.2133 -0.2762
 8455SOL    HW136998   3.210   4.277   7.075  0.0073  0.8589 -1.5750
 8455SOL    HW236999   3.338   4.245   7.117 -1.5275 -2.0220  0.0111
 8456SOL     OW37000   4.513   2.947   6.679  0.5542 -0.8885  0.0294
 8456SOL    HW137001   4.581   2.888   6.712  1.2479  0.2876  0.6787
 8456SOL    HW237002   4.540   2.960   6.588  0.8158  0.1563  0.2582
 8457SOL     OW37003   2.163   4.198  11.438  0.5697 -0.1123 -0.0878
 8457SOL    HW137004   2.201   4.141  11.505 -0.3840 -0.4797  0.1326
 8457SOL    HW237005   2.117   4.261  11.494  0.0889 -2.0852  1.7317
 8458SOL     OW37006   3.648   3.534   4.834 -0.2155  0.0817 -0.1251
 8458SOL    HW137007   3.732   3.579   4.844 -0.5233  0.7402 -0.5182
 8458SOL    HW237008   3.585   3.604   4.817 -0.8621 -0.8631 -1.5884
 8459SOL     OW37009   3.783   1.534   0.249 -0.2109 -0.5533  0.0882
 8459SOL    HW137010   3.778   1.630   0.247  0.6893 -0.4616  1.8780
 8459SOL    HW237011   3.877   1.524   0.265 -0.0105 -0.3561 -0.9951
 8460SOL     OW37012   4.019   3.836  11.338  0.1413  0.0839  0.2632
 8460SOL    HW137013   4.073   3.854  11.414  1.1696 -0.2263 -0.3954
 8460SOL    HW237014   3.969   3.765  11.380 -0.2700  1.1686  1.5863
 8461SOL     OW37015   1.056   4.204   4.901  0.0263 -0.5004  0.1613
 8461SOL    HW137016   1.031   4.114   4.882 -0.0501  0.0497 -2.3685
 8461SOL    HW237017   0.975   4.230   4.944 -0.5266 -3.4458  0.8906
 8462SOL     OW37018   0.538   2.828   2.388  0.4984 -0.3195  0.4422
 8462SOL    HW137019   0.587   2.796   2.313  1.3486  1.1058  0.3804
 8462SOL    HW237020   0.446   2.807   2.372 -0.8177  4.1798  2.1237
 8463SOL     OW37021   3.634   4.201  14.783  0.3781 -0.0044  0.1627
 8463SOL    HW137022   3.640   4.177  14.875 -0.0593 -2.4347 -0.4405
 8463SOL    HW237023   3.540   4.217  14.792  0.6166  1.3778  0.2043
 8464SOL     OW37024   3.004   1.050   0.939 -0.1052  0.1771 -0.0118
 8464SOL    HW137025   3.013   1.109   0.865  0.3852 -0.2345 -0.2751
 8464SOL    HW237026   3.094   1.054   0.971 -0.9533 -1.2690  2.5942
 8465SOL     OW37027   2.261   1.819  10.810  0.0767 -0.7419 -0.1814
 8465SOL    HW137028   2.315   1.837  10.887 -0.4817 -0.9479  0.2600
 8465SOL    HW237029   2.304   1.888  10.759  2.2199 -1.7416  0.2878
 8466SOL     OW37030   2.289   4.691   6.693 -0.1172 -0.7011  0.1029
 8466SOL    HW137031   2.289   4.680   6.788  0.8865 -0.3091  0.1514
 8466SOL    HW237032   2.382   4.708   6.678  0.0936 -1.2550  0.7674
 8467SOL     OW37033   2.173   4.573   0.460 -0.0314  0.0045 -0.1398
 8467SOL    HW137034   2.253   4.623   0.477  2.1139 -2.7287 -2.0812
 8467SOL    HW237035   2.108   4.633   0.496  1.0343  0.6400  0.7315
 8468SOL     OW37036   2.872   2.383  10.959 -0.0352  0.5587  0.0244
 8468SOL    HW137037   2.870   2.357  11.051 -1.9038  1.4390  0.2332
 8468SOL    HW237038   2.957   2.426  10.945 -0.1959  0.7476 -0.3554
 8469SOL     OW37039   2.747   0.977   3.796  0.5333  0.3108 -0.1912
 8469SOL    HW137040   2.786   0.969   3.883 -1.6144  0.0007  0.7645
 8469SOL    HW237041   2.665   0.930   3.813 -1.1328  3.6141  1.0164
 8470SOL     OW37042   0.211   2.223   2.797 -0.1524 -0.0228  0.3808
 8470SOL    HW137043   0.159   2.215   2.877 -0.7656  1.5458  0.1423
 8470SOL    HW237044   0.160   2.165   2.740  0.0740 -1.4340  1.6126
 8471SOL     OW37045   0.451   4.258   5.064 -0.1529 -0.6601  0.2675
 8471SOL    HW137046   0.489   4.232   4.979 -0.3193  2.8917 -0.9016
 8471SOL    HW237047   0.370   4.208   5.061  0.1882 -1.0235 -3.0566
 8472SOL     OW37048   0.697   0.835   8.727 -0.0904  0.4264 -0.0786
 8472SOL    HW137049   0.710   0.919   8.682 -0.8556 -0.1779 -1.3935
 8472SOL    HW237050   0.602   0.831   8.722 -0.1256  1.6533 -0.3703
 8473SOL     OW37051   3.065   2.555   7.391 -0.1813  0.0751  0.1219
 8473SOL    HW137052   3.027   2.594   7.469  0.2071  1.5437 -0.4219
 8473SOL    HW237053   3.046   2.464   7.411  0.5773  0.0040  0.5088
 8474SOL     OW37054   3.052   2.412  15.324  0.3723 -0.2507 -0.2492
 8474SOL    HW137055   3.131   2.360  15.341  0.0849 -0.3613  0.7354
 8474SOL    HW237056   2.993   2.386  15.395 -0.4794  0.1491 -0.8086
 8475SOL     OW37057   2.851   3.551   8.031 -0.2565  0.1005  0.1940
 8475SOL    HW137058   2.876   3.611   7.960 -1.3155  1.4476  0.9561
 8475SOL    HW237059   2.804   3.491   7.973 -2.1501 -0.1950  2.0494
 8476SOL     OW37060   1.066   2.150  12.839 -0.1756 -0.1511  0.0718
 8476SOL    HW137061   1.034   2.225  12.788 -2.3718 -1.3148 -0.2456
 8476SOL    HW237062   1.109   2.204  12.905  0.7223  1.4436 -1.7954
 8477SOL     OW37063   0.658   1.887  16.188  0.3670  0.6011 -0.1070
 8477SOL    HW137064   0.681   1.843  16.106  0.4026  0.8902 -0.2515
 8477SOL    HW237065   0.600   1.824  16.230  1.2385  1.6944  2.7153
 8478SOL     OW37066   1.398   0.977   4.726  0.0279 -0.0691  0.3283
 8478SOL    HW137067   1.345   0.991   4.647  1.7273  1.0927 -0.6114
 8478SOL    HW237068   1.429   0.887   4.722 -0.9616 -0.3888 -0.1479
 8479SOL     OW37069   3.234   4.097   5.682  0.2388 -0.5068 -0.4351
 8479SOL    HW137070   3.319   4.117   5.723 -0.7787  1.9931  0.4658
 8479SOL    HW237071   3.187   4.172   5.719 -0.1002 -0.5578 -0.7668
 8480SOL     OW37072   3.432   4.024   4.961  0.0113 -0.0201  0.1719
 8480SOL    HW137073   3.385   4.043   4.880 -1.0766 -4.8741 -0.2924
 8480SOL    HW237074   3.361   3.999   5.019  1.3153 -2.4056  0.7688
 8481SOL     OW37075   0.132   1.926  16.595 -0.0167 -0.0557 -0.1519
 8481SOL    HW137076   0.059   1.944  16.536 -1.6853  0.3191  2.0020
 8481SOL    HW237077   0.191   1.872  16.542  1.0492  0.1000  0.8675
 8482SOL     OW37078   4.272   4.577   6.621 -0.4748 -0.4711 -0.4786
 8482SOL    HW137079   4.350   4.545   6.576 -0.4196  0.1205 -0.8108
 8482SOL    HW237080   4.285   4.672   6.631 -0.9439 -0.5790  1.1620
 8483SOL     OW37081   0.270   3.715  16.422 -0.7672 -0.6482 -0.3603
 8483SOL    HW137082   0.292   3.795  16.374 -0.2862  0.0919  1.1042
 8483SOL    HW237083   0.232   3.740  16.506  2.3655 -0.7278  1.0758
 8484SOL     OW37084   3.310   1.056  16.363  0.3859  0.3048  0.0501
 8484SOL    HW137085   3.246   1.026  16.428  1.0918 -0.8175  0.2318
 8484SOL    HW237086   3.297   1.150  16.373 -0.1739  0.0462  1.7780
 8485SOL     OW37087   1.792   1.259   4.638 -0.7758  0.2398 -0.0983
 8485SOL    HW137088   1.815   1.175   4.678  2.6757  0.5142 -1.5197
 8485SOL    HW237089   1.879   1.299   4.640 -1.7057  2.1011  2.5350
 8486SOL     OW37090   1.776   0.180   2.596  0.0703  0.4395 -0.7484
 8486SOL    HW137091   1.700   0.232   2.572 -1.0757 -0.7546  0.2382
 8486SOL    HW237092   1.784   0.203   2.689  1.3867 -0.0342 -0.7328
 8487SOL     OW37093   3.173   1.102   2.937 -0.3258 -0.6234 -0.6414
 8487SOL    HW137094   3.208   1.012   2.935 -0.0160 -0.4259 -3.7941
 8487SOL    HW237095   3.185   1.117   3.031 -1.5812 -0.9568 -0.4326
 8488SOL     OW37096   2.363   2.597   3.958 -0.7572 -0.1507 -0.4841
 8488SOL    HW137097   2.325   2.666   4.012  0.1269  1.0255 -1.3469
 8488SOL    HW237098   2.447   2.639   3.939  0.0164 -2.0635 -1.3175
 8489SOL     OW37099   1.915   4.031   7.496 -0.3397  0.2149  0.1630
 8489SOL    HW137100   1.965   4.028   7.578 -0.5895  2.4849  0.4210
 8489SOL    HW237101   1.945   3.953   7.451 -0.5486  0.6981 -0.8088
 8490SOL     OW37102   1.794   1.646   2.406  0.3569 -0.1967 -0.0564
 8490SOL    HW137103   1.780   1.659   2.312  0.6342  3.3508  0.4289
 8490SOL    HW237104   1.886   1.621   2.408  0.3233 -0.3231 -0.0531
 8491SOL     OW37105   1.586   3.364   2.665 -0.5135  0.4757 -0.0938
 8491SOL    HW137106   1.658   3.306   2.643 -0.6380  1.2724 -2.6474
 8491SOL    HW237107   1.602   3.398   2.753 -0.0266 -0.8018  0.3122
 8492SOL     OW37108   4.369   4.463   7.073  0.3852  0.4808 -0.1314
 8492SOL    HW137109   4.421   4.519   7.016 -0.5477 -0.4872 -1.8993
 8492SOL    HW237110   4.284   4.462   7.031  1.9410  2.0712 -3.2995
 8493SOL     OW37111   2.922   0.778  17.079  0.3424  0.1355 -0.5096
 8493SOL    HW137112   2.833   0.750  17.102  0.4483 -2.4740 -3.1901
 8493SOL    HW237113   2.939   0.815  17.166 -0.4881 -1.1004  0.1942
 8494SOL     OW37114   1.459   1.152   9.942  0.0959  0.1612  0.6190
 8494SOL    HW137115   1.365   1.170   9.938 -0.0703 -0.8762  0.0750
 8494SOL    HW237116   1.498   1.201  10.015 -0.8803  1.4762  0.2716
 8495SOL     OW37117   3.230   0.012  10.669  0.4541  0.0986 -0.2476
 8495SOL    HW137118   3.171   0.022  10.595 -0.5590  0.3797  0.6069
 8495SOL    HW237119   3.185   0.073  10.728  0.4170 -0.7576  0.6165
 8496SOL     OW37120   1.152   4.304  10.722  0.6440  0.0018 -0.5166
 8496SOL    HW137121   1.157   4.348  10.807 -3.3439 -0.6731  0.0752
 8496SOL    HW237122   1.245   4.288  10.707  0.2651 -0.6894 -2.1409
 8497SOL     OW37123   2.415   0.128   0.501  0.1996 -0.1172  0.6119
 8497SOL    HW137124   2.483   0.156   0.440 -1.7895  2.0083 -0.6870
 8497SOL    HW237125   2.387   0.206   0.550  1.1890  0.8737 -0.4036
 8498SOL     OW37126   4.529   3.520   3.110  0.1109  0.0751 -0.4391
 8498SOL    HW137127   4.465   3.538   3.179  1.4529  2.4005  0.2126
 8498SOL    HW237128   4.512   3.426   3.099  0.3615 -0.4309  3.2221
 8499SOL     OW37129   2.281   0.166   2.537  0.5298 -0.9305 -0.6893
 8499SOL    HW137130   2.291   0.247   2.587  1.1755 -1.0094 -0.6910
 8499SOL    HW237131   2.238   0.202   2.460  1.4671  1.5581 -0.0302
 8500SOL     OW37132   0.637   0.198   7.684 -0.3003  0.1137 -0.5200
 8500SOL    HW137133   0.565   0.215   7.623 -2.4680  0.2523  2.0428
 8500SOL    HW237134   0.687   0.279   7.693  1.9362 -1.1809 -1.2778
 8501SOL     OW37135   0.093   4.102  16.127  0.6214  0.3133  0.0803
 8501SOL    HW137136   0.143   4.120  16.047 -0.7846  0.5447 -0.7458
 8501SOL    HW237137   0.020   4.058  16.083  1.0278 -0.5668  0.2903
 8502SOL     OW37138   0.881   4.376   9.716 -0.2300 -0.1925  0.0304
 8502SOL    HW137139   0.853   4.461   9.749 -0.5585  0.1443 -1.1282
 8502SOL    HW237140   0.912   4.339   9.799 -1.8742 -0.4623  0.5116
 8503SOL     OW37141   3.086   3.389   8.715  0.4675  0.7061 -0.5380
 8503SOL    HW137142   3.005   3.363   8.759 -0.4653 -1.6016 -3.6933
 8503SOL    HW237143   3.090   3.321   8.648  1.4475 -0.0571  0.2840
 8504SOL     OW37144   0.150   0.455   2.996 -0.1580 -0.7179 -0.0530
 8504SOL    HW137145   0.232   0.443   3.045 -0.7924 -1.4076  0.8402
 8504SOL    HW237146   0.089   0.437   3.068  0.1622 -1.7070 -0.0348
 8505SOL     OW37147   0.321   0.942   6.526 -0.3535 -0.4775 -0.2806
 8505SOL    HW137148   0.343   0.860   6.571 -1.3226  0.8383  2.6002
 8505SOL    HW237149   0.351   0.931   6.436 -1.8554  0.3784 -0.8800
 8506SOL     OW37150   1.098   0.000  10.307  0.5491 -0.1665 -0.0137
 8506SOL    HW137151   1.136   4.681  10.240 -0.0399 -0.0717 -0.4307
 8506SOL    HW237152   1.020   4.690  10.334  0.6134 -0.5005 -0.4279
 8507SOL     OW37153   2.285   2.149   2.675  0.4641 -0.2871  0.0206
 8507SOL    HW137154   2.225   2.118   2.742 -0.4848  0.6080 -0.4274
 8507SOL    HW237155   2.267   2.243   2.673 -2.1325 -0.7570  1.4002
 8508SOL     OW37156   0.417   4.175   9.102  0.4572 -0.2603 -0.0069
 8508SOL    HW137157   0.345   4.121   9.133  0.3220  0.2804  0.6294
 8508SOL    HW237158   0.462   4.111   9.046  0.6090  0.8853 -1.2136
 8509SOL     OW37159   2.292   0.408   8.037  1.0884 -0.1121 -0.5983
 8509SOL    HW137160   2.376   0.446   8.008  1.6649 -0.1268  1.0785
 8509SOL    HW237161   2.298   0.318   8.004  1.9535  0.4869 -2.1023
 8510SOL     OW37162   3.362   3.902   7.868  0.3555 -0.0954 -0.9336
 8510SOL    HW137163   3.386   3.827   7.923  0.5078  1.7652  1.5373
 8510SOL    HW237164   3.416   3.970   7.910 -0.9340  0.7228 -0.5989
 8511SOL     OW37165   1.744   3.235  12.375 -0.0481 -0.1127  0.4969
 8511SOL    HW137166   1.689   3.251  12.298 -0.0637  1.7534  0.9063
 8511SOL    HW237167   1.776   3.147  12.352 -1.9425 -0.7249  0.1994
 8512SOL     OW37168   3.030   0.396   3.601  0.3125 -0.4011  0.1270
 8512SOL    HW137169   2.991   0.360   3.680 -1.3253 -0.5036 -0.7243
 8512SOL    HW237170   3.035   0.490   3.616 -1.9615 -0.4461  1.2129
 8513SOL     OW37171   1.749   1.365  10.093 -0.6988 -0.7926 -0.5412
 8513SOL    HW137172   1.805   1.398  10.163 -0.7373 -1.4398 -0.2059
 8513SOL    HW237173   1.665   1.371  10.139 -0.6035  0.3128 -0.5245
 8514SOL     OW37174   1.073   4.256  12.121 -0.2203 -0.2552 -0.8857
 8514SOL    HW137175   1.011   4.325  12.097 -2.8960 -1.6142  2.0451
 8514SOL    HW237176   1.055   4.231  12.212 -1.1631  0.6385 -0.8136
 8515SOL     OW37177   3.596   3.635   7.379 -0.0224  0.1013 -0.9715
 8515SOL    HW137178   3.523   3.684   7.416  0.7111  0.7767 -0.4147
 8515SOL    HW237179   3.633   3.590   7.456 -1.3723  0.2681 -0.2364
 8516SOL     OW37180   1.990   1.906  13.408  0.3281 -0.0027 -0.2410
 8516SOL    HW137181   1.974   1.904  13.502 -1.0513  0.7107 -0.4580
 8516SOL    HW237182   2.078   1.942  13.405 -1.4675  4.2967 -2.3175
 8517SOL     OW37183   2.690   3.277  11.174 -0.0228  0.2119 -0.1613
 8517SOL    HW137184   2.659   3.360  11.136 -2.3770  1.0035  3.4786
 8517SOL    HW237185   2.634   3.280  11.252 -1.6828  1.4268 -1.3807
 8518SOL     OW37186   0.073   4.021   3.361 -0.1640 -0.5840  0.8584
 8518SOL    HW137187   0.010   3.954   3.387 -3.1599  1.1834 -1.7962
 8518SOL    HW237188   0.031   4.080   3.298  0.4728  0.8402  1.7760
 8519SOL     OW37189   4.240   3.866   3.289 -0.2864  0.2818 -0.4533
 8519SOL    HW137190   4.312   3.909   3.334  0.5857 -0.2485 -1.3360
 8519SOL    HW237191   4.167   3.927   3.303 -0.5531  0.1040 -1.0176
 8520SOL     OW37192   0.075   0.159   5.408  0.1985 -0.4306 -0.4360
 8520SOL    HW137193   0.057   0.143   5.501  1.1430 -2.3168 -0.5556
 8520SOL    HW237194   0.060   0.252   5.398 -0.0049 -0.0359  3.3629
 8521SOL     OW37195   1.858   4.506   4.865  0.7489 -0.6801  0.3730
 8521SOL    HW137196   1.909   4.474   4.940  3.8136  0.0883 -1.3488
 8521SOL    HW237197   1.769   4.490   4.896  0.9882 -1.9592  0.3910
 8522SOL     OW37198   4.035   2.552   7.163  1.0594 -0.5212  0.0158
 8522SOL    HW137199   4.033   2.615   7.092 -0.1147  1.0716  1.4519
 8522SOL    HW237200   3.977   2.586   7.231 -0.9726 -0.7999 -1.5662
 8523SOL     OW37201   0.750   4.671   3.919  0.1416 -0.1479  0.0145
 8523SOL    HW137202   0.822   4.722   3.880  1.0889 -1.0937  0.5234
 8523SOL    HW237203   0.794   4.589   3.943 -0.1825 -1.0545 -2.5440
 8524SOL     OW37204   1.977   2.585   5.170 -0.3173 -0.0971  0.1742
 8524SOL    HW137205   1.979   2.670   5.126 -3.4877 -0.3408 -0.4255
 8524SOL    HW237206   2.005   2.589   5.261 -0.2919 -2.8801  0.2762
 8525SOL     OW37207   2.529   4.023   1.734 -0.0698  0.3039  0.3600
 8525SOL    HW137208   2.483   4.033   1.651  0.8023  1.8951  0.0749
 8525SOL    HW237209   2.617   4.054   1.712 -0.3036  1.0318  0.4718
 8526SOL     OW37210   3.177   3.709   5.216 -0.3513 -0.5818  0.7019
 8526SOL    HW137211   3.240   3.648   5.256 -0.0424 -0.3879  0.5100
 8526SOL    HW237212   3.109   3.725   5.281 -1.3544 -1.7287 -0.0526
 8527SOL     OW37213   0.531   1.624  12.794  0.0010  0.2254 -0.3389
 8527SOL    HW137214   0.587   1.589  12.724  1.1177 -2.1070  1.7155
 8527SOL    HW237215   0.565   1.711  12.811  1.4346 -0.1753 -1.1423
 8528SOL     OW37216   4.410   2.736   6.472 -0.5624 -0.5492 -0.5512
 8528SOL    HW137217   4.361   2.713   6.393  0.8643 -0.4681 -1.4623
 8528SOL    HW237218   4.348   2.791   6.519  0.8627 -1.3817  2.3464
 8529SOL     OW37219   4.429   2.944  11.288 -0.0475  0.2896 -0.1958
 8529SOL    HW137220   4.498   3.011  11.289  1.4414 -1.2518  0.4265
 8529SOL    HW237221   4.354   3.003  11.293 -1.4961 -1.6707  0.7461
 8530SOL     OW37222   4.391   1.322  17.668  0.0435  0.1293 -0.0661
 8530SOL    HW137223   4.448   1.307  17.744  0.8354 -0.4192 -0.7720
 8530SOL    HW237224   4.431   1.286  17.589 -2.4443 -1.0677 -0.7776
 8531SOL     OW37225   1.731   2.196  16.320  0.0756 -0.2248  0.3395
 8531SOL    HW137226   1.769   2.250  16.389 -0.0718  1.4345 -0.8830
 8531SOL    HW237227   1.666   2.144  16.367  0.9618 -0.0528  1.7588
 8532SOL     OW37228   1.120   0.941   2.416  0.0984  0.2154  0.5878
 8532SOL    HW137229   1.146   1.027   2.382  1.1190 -0.3888 -0.1546
 8532SOL    HW237230   1.174   0.886   2.359  0.3960  1.3374 -0.2130
 8533SOL     OW37231   4.121   3.035  12.543  0.1036  0.1772 -0.0620
 8533SOL    HW137232   4.201   3.084  12.559  0.1528 -0.7402  2.5161
 8533SOL    HW237233   4.159   2.948  12.531  1.0220  0.7171 -1.0168
 8534SOL     OW37234   0.297   2.117   4.857  0.1622 -0.0945  0.2155
 8534SOL    HW137235   0.287   2.022   4.852 -0.5538 -0.2908  5.3227
 8534SOL    HW237236   0.336   2.142   4.773  0.4502  0.8552  0.6341
 8535SOL     OW37237   2.643   0.346   7.155 -0.0555 -0.0870 -0.2831
 8535SOL    HW137238   2.584   0.329   7.228  1.3530 -1.1958  0.5990
 8535SOL    HW237239   2.580   0.397   7.104 -0.5269  1.0968  1.4949
 8536SOL     OW37240   3.480   3.640   7.685 -0.0095  0.6977  0.0974
 8536SOL    HW137241   3.517   3.551   7.686 -1.2756  0.1435 -1.1122
 8536SOL    HW237242   3.457   3.660   7.775  3.3786 -0.4132  1.2191
 8537SOL     OW37243   3.107   0.330   1.664  0.2082  0.1306  0.2794
 8537SOL    HW137244   3.072   0.253   1.618 -1.9342  0.7859  0.7854
 8537SOL    HW237245   3.201   0.320   1.675  0.2640 -0.3599 -0.6661
 8538SOL     OW37246   4.485   0.300  15.590 -0.4504  0.0133 -0.0824
 8538SOL    HW137247   4.504   0.328  15.680  0.0362 -1.4512  0.2775
 8538SOL    HW237248   4.563   0.245  15.582  0.3252  1.0217  0.5752
 8539SOL     OW37249   2.931   2.766   3.424 -0.1194 -0.1009  0.0147
 8539SOL    HW137250   2.866   2.702   3.395 -0.8078  1.5101 -2.0114
 8539SOL    HW237251   3.010   2.713   3.415  0.0030  0.2385 -0.9449
 8540SOL     OW37252   2.048   0.296   3.910 -0.5099 -0.1792  0.2999
 8540SOL    HW137253   2.088   0.351   3.977 -1.8171  0.3688  0.6313
 8540SOL    HW237254   2.120   0.277   3.850 -1.1016 -2.1263  0.1924
 8541SOL     OW37255   0.396   3.436   5.088  0.5383  0.1742 -1.0444
 8541SOL    HW137256   0.435   3.456   5.173 -2.1281  0.6330  0.0729
 8541SOL    HW237257   0.311   3.407   5.122  1.9234 -1.8252  0.6410
 8542SOL     OW37258   3.522   1.300   2.578  0.0568 -0.1432  0.0399
 8542SOL    HW137259   3.432   1.331   2.587  0.4694  1.3779 -1.1203
 8542SOL    HW237260   3.512   1.211   2.544 -0.1414 -0.4753  0.9473
 8543SOL     OW37261   3.143   1.414   4.455 -0.0688 -0.2514  0.2654
 8543SOL    HW137262   3.220   1.463   4.486 -0.2216 -0.8162  1.5236
 8543SOL    HW237263   3.125   1.457   4.371 -3.3892 -0.2646  0.9621
 8544SOL     OW37264   0.008   0.894   0.166 -0.0396  0.1095  0.2219
 8544SOL    HW137265   4.678   0.842   0.209 -0.9188  2.2813  1.4620
 8544SOL    HW237266   0.075   0.877   0.232 -0.1248  0.2477  0.3450
 8545SOL     OW37267   3.070   0.432   6.047 -0.4433 -0.2277 -0.4953
 8545SOL    HW137268   3.066   0.373   5.972 -0.1842  0.0935 -0.7609
 8545SOL    HW237269   3.103   0.514   6.009  0.1942  0.1752  0.9221
 8546SOL     OW37270   1.548   0.301   3.557 -0.1492  0.0402  0.3258
 8546SOL    HW137271   1.536   0.294   3.652 -0.4234  2.0821  0.4565
 8546SOL    HW237272   1.587   0.389   3.548 -2.1320  0.6655 -2.0437
 8547SOL     OW37273   2.662   0.673   5.638  0.1322  0.4567  0.0889
 8547SOL    HW137274   2.583   0.723   5.621  0.5929  2.0508  2.5793
 8547SOL    HW237275   2.620   0.589   5.620  0.9992  0.4896 -2.1143
 8548SOL     OW37276   4.556   1.633   4.077  0.3541 -0.0070  0.4998
 8548SOL    HW137277   4.537   1.663   3.988 -0.6379 -0.7159  0.4739
 8548SOL    HW237278   4.527   1.706   4.133 -1.1718  0.7292 -1.2465
 8549SOL     OW37279   0.335   0.333  16.159  0.1754  0.0997 -0.2871
 8549SOL    HW137280   0.296   0.251  16.187 -0.8842 -0.6846 -4.1204
 8549SOL    HW237281   0.367   0.363  16.244  0.6055  1.6703 -0.9890
 8550SOL     OW37282   3.488   4.157   7.250  0.0485 -0.2510  0.1391
 8550SOL    HW137283   3.465   4.119   7.335  1.5996 -0.2472  0.5612
 8550SOL    HW237284   3.556   4.093   7.231  0.7034  0.5860 -0.3455
 8551SOL     OW37285   2.290   3.076  11.423  0.3789 -0.1191 -0.2333
 8551SOL    HW137286   2.201   3.048  11.404 -0.2677  1.4033  0.5880
 8551SOL    HW237287   2.293   3.163  11.385  1.8540  0.1669  0.5180
 8552SOL     OW37288   0.797   1.911   6.377  0.6436 -0.8821  0.0126
 8552SOL    HW137289   0.778   1.901   6.470 -3.0091 -2.4913 -0.8633
 8552SOL    HW237290   0.886   1.945   6.377  1.0306 -1.8928  0.9792
 8553SOL     OW37291   4.480   3.016  15.647 -0.8503  0.3358  0.5683
 8553SOL    HW137292   4.394   3.054  15.630  0.5055  4.2487  2.6640
 8553SOL    HW237293   4.451   2.925  15.654 -0.3015  0.0257 -1.0547
 8554SOL     OW37294   3.644   4.484   6.691  0.6692  0.5095  0.5319
 8554SOL    HW137295   3.687   4.533   6.761  0.4646 -0.4282  1.2986
 8554SOL    HW237296   3.573   4.442   6.739  1.8128 -1.4392  0.5093
 8555SOL     OW37297   2.621   4.062   7.140 -0.1658  0.2146 -0.2187
 8555SOL    HW137298   2.607   4.012   7.221  2.5646  2.3899  1.6015
 8555SOL    HW237299   2.533   4.076   7.104  0.6999 -0.3875 -2.5433
 8556SOL     OW37300   2.327   3.249  14.564  0.1166 -0.3115  0.5380
 8556SOL    HW137301   2.342   3.180  14.629 -1.5537 -3.3922 -2.3638
 8556SOL    HW237302   2.407   3.241  14.512  0.3913  1.1439  0.7573
 8557SOL     OW37303   3.743   4.053  11.022  0.0927 -0.5962  0.2769
 8557SOL    HW137304   3.777   4.103  10.948 -0.7805 -0.0156  0.2648
 8557SOL    HW237305   3.790   4.083  11.100 -1.9504  0.0560  1.2591
 8558SOL     OW37306   4.157   3.709   0.390  0.3523  0.2945 -0.5642
 8558SOL    HW137307   4.087   3.738   0.332  1.1232 -0.1842 -1.7124
 8558SOL    HW237308   4.235   3.721   0.336  1.9268 -0.2829  1.5432
 8559SOL     OW37309   0.621   3.738   5.326 -0.6682  1.0713 -0.4569
 8559SOL    HW137310   0.695   3.798   5.337  1.1401 -1.7426  2.9067
 8559SOL    HW237311   0.641   3.678   5.398  0.3168  0.2464 -1.4254
 8560SOL     OW37312   4.223   2.676   6.291 -0.1564 -0.1378 -0.1101
 8560SOL    HW137313   4.229   2.695   6.197 -1.3765  1.8199  0.2273
 8560SOL    HW237314   4.128   2.681   6.295 -0.2200 -0.9216 -0.5720
 8561SOL     OW37315   2.327   2.134   0.390  0.3013 -0.9699  0.0959
 8561SOL    HW137316   2.404   2.192   0.389  0.4256 -1.1808 -2.1003
 8561SOL    HW237317   2.278   2.173   0.317  1.2606 -0.9898 -0.5506
 8562SOL     OW37318   1.430   0.412   9.185 -0.2173 -0.4701 -0.2774
 8562SOL    HW137319   1.473   0.490   9.149 -2.2837 -0.6731 -3.1567
 8562SOL    HW237320   1.362   0.458   9.234 -2.6263 -1.9640 -2.2424
 8563SOL     OW37321   3.889   3.757   4.419  0.3297  0.1859 -0.1269
 8563SOL    HW137322   3.855   3.669   4.427 -0.3693  0.6088  1.5241
 8563SOL    HW237323   3.978   3.729   4.398  0.1226 -0.4644 -0.1165
 8564SOL     OW37324   2.790   4.689   6.431 -0.1060 -0.2772 -0.3050
 8564SOL    HW137325   2.827   4.734   6.355 -0.4216  0.8422  0.1994
 8564SOL    HW237326   2.861   4.631   6.459  0.5589  0.5820 -0.1989
 8565SOL     OW37327   1.164   0.247   9.214 -0.3276  0.4027 -0.0147
 8565SOL    HW137328   1.170   0.180   9.146  2.7162  1.6832 -1.0243
 8565SOL    HW237329   1.232   0.223   9.277  0.4028  1.1099 -0.5315
 8566SOL     OW37330   3.187   1.508   3.827 -0.2662  0.2790 -0.1616
 8566SOL    HW137331   3.185   1.581   3.765  1.8423 -0.1142 -0.6690
 8566SOL    HW237332   3.108   1.458   3.803 -0.1524 -0.3878  0.8357
 8567SOL     OW37333   2.342   4.264   5.007 -0.2403  0.6675  0.3071
 8567SOL    HW137334   2.407   4.311   4.954 -1.0991  2.3379  0.7262
 8567SOL    HW237335   2.302   4.203   4.946  0.0655  3.0468 -2.2548
 8568SOL     OW37336   2.028   1.229   3.510  0.2393  0.2932  0.4717
 8568SOL    HW137337   2.009   1.290   3.439 -0.3504  0.2430  0.5873
 8568SOL    HW237338   1.944   1.185   3.520 -1.3495  3.0963 -0.4572
 8569SOL     OW37339   4.706   3.937   2.687 -0.4842  0.6312 -0.2270
 8569SOL    HW137340   4.611   3.938   2.702 -0.7278 -1.7630 -1.5968
 8569SOL    HW237341   4.730   4.024   2.656  0.9979  0.2603 -0.1305
 8570SOL     OW37342   0.818   1.224   8.947 -0.4206 -0.2290 -0.1798
 8570SOL    HW137343   0.801   1.224   9.042 -0.7224  0.8883 -0.2263
 8570SOL    HW237344   0.792   1.313   8.921 -0.1528 -0.2659 -0.5685
 8571SOL     OW37345   3.964   1.883  12.679 -0.4339  0.3808  0.3027
 8571SOL    HW137346   3.909   1.864  12.755  1.1224  1.7795  1.7659
 8571SOL    HW237347   4.030   1.928  12.731 -0.3672  1.6254 -0.8880
 8572SOL     OW37348   3.302   4.562   2.605 -0.2357  0.0349 -0.1767
 8572SOL    HW137349   3.231   4.562   2.669 -1.5807  2.2114 -1.7142
 8572SOL    HW237350   3.326   4.469   2.608 -0.9672 -0.1771 -1.2516
 8573SOL     OW37351   4.292   1.783  15.071  0.1930 -0.2160 -0.4891
 8573SOL    HW137352   4.361   1.808  15.132  0.5223 -0.8269 -0.6135
 8573SOL    HW237353   4.215   1.805  15.123 -1.6807  0.3597 -3.4927
 8574SOL     OW37354   3.148   2.759  14.607  0.1765  0.9111 -1.1193
 8574SOL    HW137355   3.157   2.808  14.689  0.0552  0.6091 -0.9287
 8574SOL    HW237356   3.074   2.808  14.569  0.1850  1.8340  0.0280
 8575SOL     OW37357   2.396   4.523   7.060 -0.0568  0.2096  0.7438
 8575SOL    HW137358   2.423   4.496   7.147  2.4851  0.3476  0.0042
 8575SOL    HW237359   2.306   4.554   7.077 -1.0302 -1.8976 -0.6504
 8576SOL     OW37360   0.443   2.866  15.489  0.0903  0.3194 -0.3934
 8576SOL    HW137361   0.411   2.954  15.505 -2.3666 -0.3654 -1.5695
 8576SOL    HW237362   0.383   2.835  15.421  1.5302 -2.2378 -0.5208
 8577SOL     OW37363   1.020   0.831  15.222 -0.4088  0.4129  0.3956
 8577SOL    HW137364   0.997   0.889  15.150  2.1891 -0.9392 -1.5637
 8577SOL    HW237365   0.937   0.784  15.228 -0.7840  1.2889  1.8976
 8578SOL     OW37366   3.302   0.945   5.829  0.7006 -0.3987  0.6188
 8578SOL    HW137367   3.367   0.925   5.762  2.3130 -0.5926  2.2074
 8578SOL    HW237368   3.364   0.968   5.898  1.3940 -3.8192  1.1703
 8579SOL     OW37369   3.116   1.616   7.441 -0.6808  0.4728 -0.1448
 8579SOL    HW137370   3.073   1.531   7.447  2.0270 -0.9283 -0.5332
 8579SOL    HW237371   3.052   1.667   7.391  0.2313  0.8368 -0.9414
 8580SOL     OW37372   0.706   4.494   4.541 -0.0521 -0.6101 -0.0900
 8580SOL    HW137373   0.737   4.577   4.504  2.3878  0.2388  3.8584
 8580SOL    HW237374   0.721   4.507   4.635  1.2292 -1.6007 -0.1570
 8581SOL     OW37375   0.432   4.734   3.544  0.6775  0.5164  0.1332
 8581SOL    HW137376   0.339   0.009   3.560  1.0211  1.7210  1.1810
 8581SOL    HW237377   0.446   0.020   3.453 -2.2998  0.6518 -0.2817
 8582SOL     OW37378   2.608   0.114   4.860  0.1868  0.0576 -0.0081
 8582SOL    HW137379   2.641   0.033   4.898  1.8508  0.3275 -0.8552
 8582SOL    HW237380   2.514   0.101   4.864  0.0598  1.3336  1.5951
 8583SOL     OW37381   0.135   4.326   7.542  0.0777 -0.2109 -0.1806
 8583SOL    HW137382   0.227   4.351   7.548  0.3150 -1.0725 -0.2632
 8583SOL    HW237383   0.105   4.416   7.535  2.3979  0.7546  1.9880
 8584SOL     OW37384   3.366   3.176  10.792  0.4521 -0.1883  0.0329
 8584SOL    HW137385   3.434   3.220  10.843 -0.2210 -0.1605  0.9171
 8584SOL    HW237386   3.294   3.183  10.855  0.7190 -3.0368  0.6664
 8585SOL     OW37387   3.292   2.875   8.795  0.4814  0.2102 -0.4760
 8585SOL    HW137388   3.377   2.832   8.801  0.1069 -0.4962 -0.2393
 8585SOL    HW237389   3.264   2.865   8.704 -0.0646  0.2071 -0.3071
 8586SOL     OW37390   2.110   3.336  16.250 -0.4732 -0.0013 -0.1389
 8586SOL    HW137391   2.082   3.275  16.182  2.0603 -3.8180  2.1976
 8586SOL    HW237392   2.109   3.278  16.326  0.8255 -2.1130 -1.7348
 8587SOL     OW37393   1.199   4.612  11.694 -0.0617  0.0330  0.3868
 8587SOL    HW137394   1.251   4.692  11.695 -0.5771  0.3550  0.8622
 8587SOL    HW237395   1.120   4.645  11.735  0.5417 -0.3353  1.8604
 8588SOL     OW37396   2.617   4.585   8.748 -0.5968 -0.3529 -0.5860
 8588SOL    HW137397   2.616   4.501   8.703  2.2613  0.0323 -1.3653
 8588SOL    HW237398   2.610   4.569   8.842 -0.3659 -1.9490 -0.8370
 8589SOL     OW37399   0.740   1.743  14.571  0.3713  0.3148  0.4982
 8589SOL    HW137400   0.822   1.695  14.584 -0.1353 -0.8413 -0.5686
 8589SOL    HW237401   0.704   1.692  14.499 -0.9424 -0.6314  1.8207
 8590SOL     OW37402   2.770   2.289  10.231  1.2469 -0.3800 -0.2236
 8590SOL    HW137403   2.845   2.262  10.284  1.7650  1.6967  0.0686
 8590SOL    HW237404   2.776   2.246  10.145  2.4851 -1.2952  0.3123
 8591SOL     OW37405   1.773   2.550   3.059 -0.1058  0.3566  0.4053
 8591SOL    HW137406   1.800   2.547   2.967  0.2169 -1.9746  0.5688
 8591SOL    HW237407   1.678   2.564   3.052  0.1153  0.5493 -2.1338
 8592SOL     OW37408   0.094   2.518   4.263  0.0645  0.2668  0.3930
 8592SOL    HW137409   0.070   2.489   4.175 -0.1906  0.5070  0.3830
 8592SOL    HW237410   0.186   2.494   4.254 -0.1967 -0.9932  1.1054
 8593SOL     OW37411   1.822   2.134   1.726  0.0142  0.3286 -0.1380
 8593SOL    HW137412   1.899   2.141   1.669 -1.1016 -0.1102 -1.7062
 8593SOL    HW237413   1.858   2.201   1.784 -3.4236  0.6954  1.5537
 8594SOL     OW37414   1.742   2.025   4.774  0.0290  0.0013  0.3289
 8594SOL    HW137415   1.822   1.998   4.728 -0.5558 -0.6816 -0.2809
 8594SOL    HW237416   1.751   2.119   4.761 -1.5886 -0.3432 -3.0022
 8595SOL     OW37417   4.214   3.390   7.149  0.0243 -0.1635 -0.3920
 8595SOL    HW137418   4.134   3.400   7.200  0.9351 -0.2287  1.0291
 8595SOL    HW237419   4.269   3.451   7.197 -0.7612  1.4245 -1.5318
 8596SOL     OW37420   1.759   2.311   6.279  0.5301 -0.5449  0.1555
 8596SOL    HW137421   1.800   2.397   6.274 -0.0626 -0.1962  1.3297
 8596SOL    HW237422   1.692   2.317   6.210  1.2322  0.5785 -0.4305
 8597SOL     OW37423   4.562   3.386   2.112  0.1391 -0.1769 -0.1995
 8597SOL    HW137424   4.626   3.442   2.069  0.5351 -1.2391 -0.9914
 8597SOL    HW237425   4.500   3.391   2.039  0.1979  1.5481 -0.1168
 8598SOL     OW37426   0.888   0.791   9.732  0.7397 -0.0846 -0.3737
 8598SOL    HW137427   0.942   0.757   9.660 -2.8246 -0.5148 -2.8220
 8598SOL    HW237428   0.808   0.740   9.728 -0.6786  2.1952 -1.1348
 8599SOL     OW37429   4.318   0.794   8.402 -0.0203  0.2085 -0.5295
 8599SOL    HW137430   4.312   0.829   8.490 -3.2452 -2.2259  0.2263
 8599SOL    HW237431   4.259   0.854   8.357  0.0803 -0.9193 -2.1833
 8600SOL     OW37432   0.987   3.861   2.259 -0.1463 -0.3833  0.4080
 8600SOL    HW137433   1.028   3.945   2.279 -1.4464  0.2374  0.4689
 8600SOL    HW237434   1.065   3.813   2.233 -0.2343 -1.3127  1.8065
 8601SOL     OW37435   2.263   0.603   7.237 -0.2962  0.3522 -0.2645
 8601SOL    HW137436   2.284   0.510   7.231 -0.6480  0.3459 -1.3872
 8601SOL    HW237437   2.334   0.651   7.194 -0.4007  1.5840  0.9281
 8602SOL     OW37438   4.196   2.759  12.944  0.2029 -0.2363 -0.2950
 8602SOL    HW137439   4.245   2.693  12.894  1.0329 -0.0750  0.2965
 8602SOL    HW237440   4.109   2.745  12.907  0.8746 -0.5375 -1.7653
 8603SOL     OW37441   2.919   2.788   2.097  0.3947 -0.0029  0.3724
 8603SOL    HW137442   2.935   2.705   2.142  0.3940 -0.7813 -1.0578
 8603SOL    HW237443   2.958   2.853   2.156  1.2466  0.1090 -0.3106
 8604SOL     OW37444   3.365   3.702   9.637  0.1209  0.7497 -0.1080
 8604SOL    HW137445   3.363   3.702   9.541 -2.4067 -2.0752 -0.0676
 8604SOL    HW237446   3.272   3.721   9.653 -0.7033 -1.1800 -2.6292
 8605SOL     OW37447   1.558   3.044  15.854  0.1497  0.2906  0.8017
 8605SOL    HW137448   1.498   3.113  15.880 -1.1445  0.0325 -1.4904
 8605SOL    HW237449   1.572   2.992  15.934 -1.3821 -1.8011 -0.2992
 8606SOL     OW37450   3.175   0.886   3.836  0.0475 -0.0861 -0.4919
 8606SOL    HW137451   3.151   0.971   3.871 -0.5573 -0.1830 -0.6625
 8606SOL    HW237452   3.269   0.889   3.852 -0.1233  0.0999  0.4427
 8607SOL     OW37453   2.070   2.542   5.418  0.1392  0.0812  0.5562
 8607SOL    HW137454   2.112   2.461   5.445 -0.6857 -0.5190  0.0456
 8607SOL    HW237455   2.148   2.596   5.426  0.8035 -1.0003  1.2963
 8608SOL     OW37456   2.661   2.839   2.484  0.5371 -0.1620 -0.0029
 8608SOL    HW137457   2.702   2.768   2.535  1.0134  0.6515  0.7588
 8608SOL    HW237458   2.708   2.912   2.524 -2.2814  1.3573  0.4775
 8609SOL     OW37459   3.164   3.454  15.340  0.5576 -0.0269 -0.2919
 8609SOL    HW137460   3.090   3.478  15.396  0.6548  0.2690 -0.2898
 8609SOL    HW237461   3.235   3.495  15.389 -0.8543  2.6858 -0.5415
 8610SOL     OW37462   1.978   3.839   2.129  0.1786 -0.0642 -0.1036
 8610SOL    HW137463   1.884   3.830   2.144  0.5224  0.4665  2.4258
 8610SOL    HW237464   2.014   3.753   2.107 -2.6256 -1.2517  0.0516
 8611SOL     OW37465   2.298   3.184   7.891 -0.5172  0.7176 -1.0950
 8611SOL    HW137466   2.276   3.254   7.953 -1.8768 -0.3524 -0.3370
 8611SOL    HW237467   2.372   3.221   7.845 -1.6643  1.6270 -2.1974
 8612SOL     OW37468   0.493   1.199   9.183 -0.4281  0.0269  0.8129
 8612SOL    HW137469   0.507   1.293   9.172  1.2878 -0.1484  1.5038
 8612SOL    HW237470   0.428   1.168   9.120 -0.2691  2.5256 -0.5838
 8613SOL     OW37471   0.082   2.210  11.363 -0.1381  0.8581 -0.1628
 8613SOL    HW137472   0.052   2.239  11.277 -1.4435 -0.1812 -0.0512
 8613SOL    HW237473   0.141   2.282  11.387  0.8653  1.0462 -3.2142
 8614SOL     OW37474   3.645   4.676   6.915 -0.0617  0.1939 -0.2252
 8614SOL    HW137475   3.574   4.629   6.957  0.5737 -1.6164 -1.1682
 8614SOL    HW237476   3.625   0.028   6.939  1.5577  0.6762 -0.6748
 8615SOL     OW37477   0.002   4.488   6.218  0.0155 -0.4578  0.1485
 8615SOL    HW137478   0.035   4.541   6.290 -2.8036  2.2549 -0.5299
 8615SOL    HW237479   4.717   4.562   6.161 -1.2660 -1.3469 -0.4865
 8616SOL     OW37480   0.157   3.780  15.646  0.3647 -0.5802 -0.3644
 8616SOL    HW137481   0.158   3.818  15.558 -3.2815  4.1482  1.6462
 8616SOL    HW237482   0.185   3.692  15.622 -0.5130 -0.4077 -2.0634
 8617SOL     OW37483   4.382   2.783  15.685  0.4192 -0.2958 -0.2210
 8617SOL    HW137484   4.312   2.767  15.749  1.1420  1.7181  1.0586
 8617SOL    HW237485   4.453   2.743  15.735  0.3482 -0.5600 -0.3311
 8618SOL     OW37486   1.168   2.819   1.554  0.1875 -0.1726 -0.1252
 8618SOL    HW137487   1.085   2.866   1.552  0.5019  0.4296  0.6880
 8618SOL    HW237488   1.222   2.898   1.549 -2.9982  1.8533 -2.4418
 8619SOL     OW37489   2.030   0.685  10.552 -0.2396 -1.0544 -0.0058
 8619SOL    HW137490   2.125   0.673  10.555 -0.0139  1.0431  0.7251
 8619SOL    HW237491   2.017   0.771  10.592  2.6584 -0.6936  0.1668
 8620SOL     OW37492   2.971   4.102  15.116 -0.1453 -0.6226  0.4737
 8620SOL    HW137493   2.884   4.063  15.130 -1.3465  2.0482  0.2970
 8620SOL    HW237494   3.017   4.026  15.153 -0.2710 -1.4471 -1.0730
 8621SOL     OW37495   3.046   3.342  11.836  0.0237 -0.5582  0.2069
 8621SOL    HW137496   3.120   3.375  11.784  0.6008 -0.5561  1.0306
 8621SOL    HW237497   3.000   3.296  11.765  0.4692 -0.7588  0.0473
 8622SOL     OW37498   1.775   4.117  14.598  0.3188  0.0490 -0.1328
 8622SOL    HW137499   1.767   4.204  14.637 -2.0047  0.1248 -0.7739
 8622SOL    HW237500   1.688   4.076  14.598  0.0556  0.5831  1.0796
 8623SOL     OW37501   3.046   1.138   1.894 -0.1859  0.1249 -0.0851
 8623SOL    HW137502   2.994   1.103   1.966 -0.5057 -3.0158 -1.8519
 8623SOL    HW237503   2.980   1.176   1.835  0.0618  1.1782  0.3166
 8624SOL     OW37504   2.368   2.931  17.702  0.2989 -0.6182  0.1289
 8624SOL    HW137505   2.297   2.868  17.714  0.8262 -0.7427  2.6369
 8624SOL    HW237506   2.439   2.880  17.662 -1.6312 -1.9791 -1.5384
 8625SOL     OW37507   4.582   2.562  14.524  0.3975  0.4033  0.2972
 8625SOL    HW137508   4.638   2.619  14.576  1.1539 -0.3643  0.3212
 8625SOL    HW237509   4.622   2.476  14.531 -1.7916 -0.7237 -0.8892
 8626SOL     OW37510   3.379   0.105  10.996 -0.2665  0.4657 -0.1059
 8626SOL    HW137511   3.358   0.129  11.086  0.0943 -1.7088  0.5487
 8626SOL    HW237512   3.297   0.122  10.950 -0.0020 -0.1677 -0.8080
 8627SOL     OW37513   4.617   3.465  13.209 -0.2075 -0.0487  0.2338
 8627SOL    HW137514   4.608   3.417  13.127 -1.9993  0.6114  0.0533
 8627SOL    HW237515   4.628   3.557  13.184 -0.5093 -0.5613 -1.7786
 8628SOL     OW37516   3.463   3.493   5.643 -0.5189 -0.0216  0.0535
 8628SOL    HW137517   3.377   3.464   5.612 -0.4994  0.3246 -0.3262
 8628SOL    HW237518   3.504   3.533   5.566  2.9910  0.4103  2.1742
 8629SOL     OW37519   1.462   3.464   4.609  0.5607  0.0420 -0.0319
 8629SOL    HW137520   1.471   3.463   4.514  2.7211 -0.6636  0.1854
 8629SOL    HW237521   1.381   3.414   4.619  0.1329  0.2945 -2.1271
 8630SOL     OW37522   1.104   3.446   0.842 -0.2940 -0.4826  0.2214
 8630SOL    HW137523   1.067   3.376   0.895 -2.4666 -0.4436 -1.2418
 8630SOL    HW237524   1.057   3.522   0.877  3.2563  0.9201  1.9763
 8631SOL     OW37525   0.096   2.525   2.863 -0.1566 -0.0321 -0.2778
 8631SOL    HW137526   0.136   2.477   2.936 -2.7563 -0.0635  1.1239
 8631SOL    HW237527   0.011   2.482   2.870 -1.1704  2.1855  1.1010
 8632SOL     OW37528   3.974   0.190  10.144  0.5431 -0.0417  0.1177
 8632SOL    HW137529   3.890   0.197  10.099  0.3837  1.1665  0.5930
 8632SOL    HW237530   3.936   0.188  10.232 -1.0250 -2.1725 -0.6155
 8633SOL     OW37531   0.036   3.756  15.121 -1.1377  0.3165  0.5169
 8633SOL    HW137532   0.020   3.849  15.137 -1.8922  0.0970  1.0106
 8633SOL    HW237533   0.091   3.735  15.196  1.2384 -2.8602 -2.0949
 8634SOL     OW37534   3.147   1.577   3.218 -0.0685  0.2418 -0.0263
 8634SOL    HW137535   3.082   1.582   3.289 -0.6292 -0.6442 -0.4649
 8634SOL    HW237536   3.223   1.529   3.251 -0.1457  0.6000  0.6801
 8635SOL     OW37537   0.430   3.976   0.066  0.1438 -0.0649  0.3661
 8635SOL    HW137538   0.523   3.997   0.058  0.5340 -1.8147  0.2567
 8635SOL    HW237539   0.398   4.064   0.048  0.4274 -0.0103  0.1220
 8636SOL     OW37540   2.782   1.683   6.335  0.2198 -1.2358  0.1119
 8636SOL    HW137541   2.753   1.613   6.277 -0.7583 -1.4268  0.8240
 8636SOL    HW237542   2.863   1.644   6.368  1.0796 -1.0396 -1.7796
 8637SOL     OW37543   3.197   1.757  13.840  0.2978 -0.2115 -0.0354
 8637SOL    HW137544   3.147   1.689  13.795 -1.3787 -0.5014  2.2881
 8637SOL    HW237545   3.283   1.714  13.849 -0.2970 -1.4163 -0.0451
 8638SOL     OW37546   2.424   1.836  10.546  0.5157  0.3291 -0.4744
 8638SOL    HW137547   2.381   1.753  10.566  1.9336 -0.6883 -1.6540
 8638SOL    HW237548   2.386   1.868  10.464 -0.2703  0.5472 -0.0285
 8639SOL     OW37549   3.297   2.792  10.877  0.6758  0.2003 -0.1862
 8639SOL    HW137550   3.317   2.855  10.945 -0.8324  1.8290 -1.2267
 8639SOL    HW237551   3.362   2.816  10.811  0.9485 -0.4770 -0.1706
 8640SOL     OW37552   0.870   3.966  12.760  0.4455 -0.2650  0.5902
 8640SOL    HW137553   0.938   3.986  12.824  2.0307 -0.5282 -1.0308
 8640SOL    HW237554   0.899   3.883  12.723  0.2825  0.1038 -0.3613
 8641SOL     OW37555   0.805   1.821   5.940  0.1749 -0.5304 -0.7162
 8641SOL    HW137556   0.768   1.733   5.942  1.1384 -1.0072 -3.2886
 8641SOL    HW237557   0.806   1.837   5.846 -1.8766 -0.3131 -0.7006
 8642SOL     OW37558   2.139   2.880  17.169  0.2028 -0.3119 -0.2923
 8642SOL    HW137559   2.072   2.812  17.159 -0.5062  0.2206  0.7950
 8642SOL    HW237560   2.195   2.831  17.229 -2.2674  0.1321  2.4161
 8643SOL     OW37561   2.871   2.536   0.993 -0.4464 -0.2210 -0.0437
 8643SOL    HW137562   2.904   2.446   1.003  0.3586  0.2219  1.3013
 8643SOL    HW237563   2.925   2.589   1.051  0.1246 -1.1925  0.3243
 8644SOL     OW37564   0.813   0.804   4.436  0.0283 -0.7841  0.1822
 8644SOL    HW137565   0.776   0.771   4.355  1.0555 -0.8147 -0.2673
 8644SOL    HW237566   0.756   0.878   4.460  0.6164 -0.0384 -0.7498
 8645SOL     OW37567   3.785   4.551   4.724  0.1365  0.0305 -0.4108
 8645SOL    HW137568   3.816   4.631   4.767 -0.3184  0.2309 -0.4548
 8645SOL    HW237569   3.764   4.502   4.804 -1.8891 -2.8892 -2.7647
 8646SOL     OW37570   2.733   0.658   2.351  0.0154 -0.3865 -0.2641
 8646SOL    HW137571   2.643   0.653   2.319  0.2382 -0.0628 -0.9389
 8646SOL    HW237572   2.754   0.571   2.386  2.5936  1.4960  2.8973
 8647SOL     OW37573   0.025   2.570  16.133 -0.1872  0.0521  0.3112
 8647SOL    HW137574   0.023   2.602  16.223 -2.2322  0.9952 -0.0608
 8647SOL    HW237575   0.075   2.637  16.087 -0.3319 -1.2220 -1.6907
 8648SOL     OW37576   2.537   1.221  17.484  0.0375 -0.2324  0.3412
 8648SOL    HW137577   2.456   1.249  17.526  0.6918 -0.6339  1.8833
 8648SOL    HW237578   2.538   1.142  17.538  0.8834  0.4362  1.3033
 8649SOL     OW37579   3.630   2.524   8.436  0.5296  0.0201  0.3820
 8649SOL    HW137580   3.589   2.609   8.454  0.2871 -0.4390  1.9641
 8649SOL    HW237581   3.659   2.496   8.522  0.4333  1.2626  0.8245
 8650SOL     OW37582   1.862   3.885   7.024 -0.2507  0.1999  0.2684
 8650SOL    HW137583   1.854   3.863   6.931 -0.7369 -1.2472  0.6467
 8650SOL    HW237584   1.930   3.825   7.055 -0.9490 -0.0746  1.2613
 8651SOL     OW37585   4.340   2.515  10.377  0.3999 -0.0380 -0.3511
 8651SOL    HW137586   4.316   2.607  10.366 -2.5591 -0.8142 -0.4871
 8651SOL    HW237587   4.351   2.508  10.472 -1.3520  2.2805  0.0388
 8652SOL     OW37588   1.182   0.826   3.693  0.0890 -0.2738  0.2486
 8652SOL    HW137589   1.100   0.780   3.708 -0.5760  0.8997  0.2289
 8652SOL    HW237590   1.145   0.884   3.627  0.7055  0.0042  0.1514
 8653SOL     OW37591   1.607   1.046  17.079  0.4763 -0.3096 -0.3666
 8653SOL    HW137592   1.547   1.118  17.096  0.2742 -0.1543 -1.7490
 8653SOL    HW237593   1.611   1.054  16.984  1.1814  1.0108 -0.2337
 8654SOL     OW37594   2.119   1.110  10.069  0.6789 -0.1949  0.6953
 8654SOL    HW137595   2.078   1.196  10.062 -0.0202 -0.5930 -0.1466
 8654SOL    HW237596   2.038   1.060  10.056  0.7341  0.0105 -0.3920
 8655SOL     OW37597   0.068   4.178   2.512 -0.0770 -0.6968  0.0070
 8655SOL    HW137598   4.726   4.181   2.563 -0.8054 -0.1174 -1.1567
 8655SOL    HW237599   0.074   4.265   2.473 -0.5059 -0.6411  0.0691
 8656SOL     OW37600   2.618   0.774  17.468  0.2851 -0.2262 -0.1660
 8656SOL    HW137601   2.641   0.809  17.382 -3.9582 -0.9127 -1.6110
 8656SOL    HW237602   2.690   0.725  17.506  1.8235  0.5981 -2.0381
 8657SOL     OW37603   3.545   4.124  16.050 -0.2919 -0.2012 -0.1131
 8657SOL    HW137604   3.631   4.126  16.092 -0.1674  3.4355 -0.5657
 8657SOL    HW237605   3.570   4.112  15.959 -1.2684  0.4410 -0.4692
 8658SOL     OW37606   4.368   1.749   8.097  0.6545 -0.5102 -0.3327
 8658SOL    HW137607   4.435   1.765   8.164 -0.0422  1.8525 -0.2148
 8658SOL    HW237608   4.336   1.838   8.086  0.3042 -0.4079  1.5053
 8659SOL     OW37609   3.219   2.858  16.839  0.0788  0.2725 -0.2765
 8659SOL    HW137610   3.296   2.872  16.894 -0.5078 -2.4151  1.2240
 8659SOL    HW237611   3.147   2.878  16.898 -1.4354 -0.0080 -2.0284
 8660SOL     OW37612   0.518   0.737  15.538 -0.5820 -0.2206 -0.2365
 8660SOL    HW137613   0.564   0.778  15.611 -1.0002  0.6170 -0.4466
 8660SOL    HW237614   0.561   0.759  15.456  0.7636 -1.2971  0.1745
 8661SOL     OW37615   0.025   0.114   3.223  0.1289  0.4238 -0.3693
 8661SOL    HW137616   0.062   0.030   3.195 -2.1840 -1.0960  1.0890
 8661SOL    HW237617   4.709   0.087   3.297  0.7597  0.3248  0.0576
 8662SOL     OW37618   3.022   2.526  17.328  0.4701 -0.4805  0.3278
 8662SOL    HW137619   3.115   2.504  17.338  0.6769 -0.1900 -0.8277
 8662SOL    HW237620   2.993   2.438  17.306  0.9958 -0.4515 -0.5100
 8663SOL     OW37621   2.868   0.210   4.188 -0.4649 -0.0910 -0.2220
 8663SOL    HW137622   2.883   0.304   4.186  0.5281 -0.2349  0.8584
 8663SOL    HW237623   2.842   0.205   4.096  0.6629 -1.2561 -0.4700
 8664SOL     OW37624   4.561   4.406  17.482 -0.0477  0.9585 -0.0201
 8664SOL    HW137625   4.587   4.496  17.502  2.0324  0.6077 -1.1672
 8664SOL    HW237626   4.572   4.405  17.386 -0.8395  1.0311 -0.1144
 8665SOL     OW37627   2.997   4.278  15.975  0.1228 -0.2774 -0.4328
 8665SOL    HW137628   2.925   4.312  16.028  0.9312  1.6530 -0.5510
 8665SOL    HW237629   3.053   4.356  15.970 -0.9565  0.4954 -0.5596
 8666SOL     OW37630   3.454   3.744   1.470  0.4325  0.2201 -0.6064
 8666SOL    HW137631   3.412   3.659   1.485  0.4903  0.2477 -0.2878
 8666SOL    HW237632   3.547   3.722   1.465  0.4089 -0.4670  1.8588
 8667SOL     OW37633   1.058   2.643   9.787 -0.2381  0.2788 -0.2816
 8667SOL    HW137634   1.082   2.659   9.878 -0.3997  0.6823 -0.3074
 8667SOL    HW237635   1.089   2.555   9.765  2.0255  1.5650 -2.2794
 8668SOL     OW37636   1.454   3.524   8.251  0.5058  0.2198 -0.0842
 8668SOL    HW137637   1.450   3.619   8.245  0.7447  0.3689  1.9965
 8668SOL    HW237638   1.488   3.530   8.341 -0.4791  1.5192  0.2081
 8669SOL     OW37639   2.766   2.476   8.144  0.4461  0.0237 -0.1628
 8669SOL    HW137640   2.818   2.548   8.108  0.4687 -1.3183 -2.8333
 8669SOL    HW237641   2.681   2.499   8.106 -1.2286 -0.7733  3.1159
 8670SOL     OW37642   2.007   3.595   7.984 -0.4612 -0.1240 -0.2697
 8670SOL    HW137643   2.031   3.615   8.074  1.2080 -4.3078  0.1830
 8670SOL    HW237644   1.914   3.615   7.982 -0.3853  0.3575  1.4310
 8671SOL     OW37645   2.341   3.313   5.769  0.3061  0.4568  0.2996
 8671SOL    HW137646   2.278   3.335   5.700  1.1543  0.6773 -0.3977
 8671SOL    HW237647   2.292   3.325   5.850  0.3259 -0.9455  0.5151
 8672SOL     OW37648   1.027   0.331   7.786  0.3020  0.1806 -0.1048
 8672SOL    HW137649   1.051   0.402   7.726  1.1752  0.9029  1.0911
 8672SOL    HW237650   1.036   0.262   7.721  1.9256  0.3778 -0.0989
 8673SOL     OW37651   1.499   3.075   5.604 -0.6430  0.0904 -0.5231
 8673SOL    HW137652   1.475   3.166   5.619  1.0359  0.0418  2.4828
 8673SOL    HW237653   1.587   3.069   5.640 -0.5607 -0.7717 -0.8430
 8674SOL     OW37654   0.168   4.535   2.712 -0.4329 -0.0978 -0.0070
 8674SOL    HW137655   0.127   4.481   2.645 -0.1311  0.3338 -0.5338
 8674SOL    HW237656   0.210   4.463   2.759  0.5292 -0.0099 -0.7279
 8675SOL     OW37657   4.022   2.952  15.708 -0.1827 -0.5066 -0.1889
 8675SOL    HW137658   4.018   2.872  15.655  1.5749 -0.7236 -0.0085
 8675SOL    HW237659   4.014   3.020  15.642  3.2927 -2.7643 -2.9344
 8676SOL     OW37660   2.554   2.916   6.448 -0.1070 -0.1007  0.3415
 8676SOL    HW137661   2.550   2.929   6.543  2.1861  0.2533  0.3931
 8676SOL    HW237662   2.512   2.995   6.413 -1.8540 -1.3502 -0.3568
 8677SOL     OW37663   3.942   3.675   8.151 -0.0067  0.3467  0.2461
 8677SOL    HW137664   3.931   3.674   8.246 -1.3532 -0.3944  0.0856
 8677SOL    HW237665   3.858   3.709   8.122  0.0702  1.0079  0.7999
 8678SOL     OW37666   2.907   2.251   8.069 -0.8083  0.5998  0.2525
 8678SOL    HW137667   2.983   2.266   8.124 -2.4913 -0.3250  2.8416
 8678SOL    HW237668   2.856   2.328   8.091 -1.7352 -0.1433  0.7294
 8679SOL     OW37669   4.155   3.371   1.611  0.2100 -0.7936  0.1370
 8679SOL    HW137670   4.153   3.287   1.656  2.1488 -0.5428  0.6852
 8679SOL    HW237671   4.077   3.363   1.555 -1.2956  1.7234  1.8800
 8680SOL     OW37672   0.531   1.510   1.808 -0.1145  0.1127  0.4641
 8680SOL    HW137673   0.559   1.420   1.824  0.6374  0.5568  1.6555
 8680SOL    HW237674   0.439   1.514   1.834  0.2023  1.4423  1.4037
 8681SOL     OW37675   3.962   3.331   2.858  0.4497  0.4234 -0.0409
 8681SOL    HW137676   3.945   3.253   2.912  1.1070  1.3769  1.5435
 8681SOL    HW237677   4.057   3.335   2.848  0.4857 -0.5019 -0.1272
 8682SOL     OW37678   1.328   1.932   0.057 -0.2167 -0.0539 -0.1636
 8682SOL    HW137679   1.350   1.934   0.150  1.5106  1.6754 -0.5952
 8682SOL    HW237680   1.235   1.912   0.052 -0.1518 -0.5956  0.8970
 8683SOL     OW37681   4.487   4.035   5.082  0.6378 -0.0001 -0.1516
 8683SOL    HW137682   4.469   4.027   4.988 -0.6592 -1.5903  0.2309
 8683SOL    HW237683   4.486   3.945   5.114  0.9610 -1.0413 -3.0861
 8684SOL     OW37684   2.178   1.094   9.797 -0.1853  1.0014  0.3703
 8684SOL    HW137685   2.156   1.104   9.889 -0.7934  1.7067  0.1532
 8684SOL    HW237686   2.200   1.179   9.758  4.1942  0.4443  1.6458
 8685SOL     OW37687   2.543   4.431   3.225  0.3797 -0.0679 -0.0541
 8685SOL    HW137688   2.495   4.356   3.189  0.0685  0.0062  0.2107
 8685SOL    HW237689   2.525   4.495   3.156 -1.0470  0.7802  1.1310
 8686SOL     OW37690   2.153   1.545   8.114 -0.1741  0.2446 -0.1629
 8686SOL    HW137691   2.146   1.498   8.197  1.5048 -0.0719 -0.2116
 8686SOL    HW237692   2.245   1.569   8.109  0.3179 -1.7753 -0.9064
 8687SOL     OW37693   2.833   3.333   8.838 -0.0469 -0.3517  0.4220
 8687SOL    HW137694   2.783   3.275   8.780 -1.5153 -0.9730  2.3139
 8687SOL    HW237695   2.766   3.395   8.866 -0.4886 -0.6940  0.1210
 8688SOL     OW37696   4.463   4.401   9.429 -0.2087 -0.0919 -0.1039
 8688SOL    HW137697   4.448   4.348   9.507 -2.5858  2.0995  0.9305
 8688SOL    HW237698   4.415   4.354   9.361  1.2519 -0.1932 -1.0605
 8689SOL     OW37699   3.940   3.864   9.306  0.0726 -0.2718 -0.3671
 8689SOL    HW137700   3.950   3.939   9.365 -1.3651 -0.6732  0.3821
 8689SOL    HW237701   4.010   3.801   9.321 -0.2629 -1.0699 -2.2330
 8690SOL     OW37702   2.950   3.269   6.197  0.0315 -0.2733 -0.2992
 8690SOL    HW137703   2.965   3.201   6.131  0.4616 -0.5910  0.1347
 8690SOL    HW237704   3.039   3.273   6.232  1.0862  1.3775 -3.1134
 8691SOL     OW37705   1.118   4.177   5.995 -0.0049 -0.0194 -0.8106
 8691SOL    HW137706   1.140   4.087   6.021 -0.5004  0.9577  2.9903
 8691SOL    HW237707   1.074   4.156   5.912 -1.8365  2.3371 -0.4111
 8692SOL     OW37708   3.362   0.522   8.569 -0.0354  0.0146 -0.3725
 8692SOL    HW137709   3.370   0.603   8.618 -0.0767  0.5110 -1.1918
 8692SOL    HW237710   3.362   0.552   8.479 -1.6513  0.1210 -0.3378
 8693SOL     OW37711   0.888   4.039   4.670  0.1955 -0.5492  0.2904
 8693SOL    HW137712   0.918   3.974   4.605 -1.4772  0.7525 -1.7641
 8693SOL    HW237713   0.803   4.059   4.631 -0.0784 -1.6622  0.3132
 8694SOL     OW37714   4.243   0.109   6.676 -0.2781  0.1196 -0.3735
 8694SOL    HW137715   4.233   0.163   6.754 -1.8145 -0.0613 -0.4413
 8694SOL    HW237716   4.173   0.144   6.621 -0.1509 -0.2819 -0.7891
 8695SOL     OW37717   0.778   3.220  12.236  0.2540  0.0269  0.2645
 8695SOL    HW137718   0.740   3.184  12.316 -1.0686  0.3936 -0.1888
 8695SOL    HW237719   0.840   3.150  12.215 -0.5208 -0.2956 -0.9374
 8696SOL     OW37720   0.684   3.699   8.133 -0.1424 -0.3446 -0.0191
 8696SOL    HW137721   0.731   3.719   8.214 -0.9313 -0.4940  0.4798
 8696SOL    HW237722   0.742   3.724   8.062  0.6048 -0.5751  0.5154
 8697SOL     OW37723   4.426   2.667   5.933 -0.0671  0.0231 -0.0546
 8697SOL    HW137724   4.476   2.709   5.863  1.5136  1.0305  1.7001
 8697SOL    HW237725   4.449   2.577   5.908 -1.4053 -0.1930 -0.5165
 8698SOL     OW37726   3.090   4.332  14.754  0.3297 -0.0812  0.1838
 8698SOL    HW137727   3.055   4.339  14.842  0.3804 -0.9790  0.2768
 8698SOL    HW237728   3.011   4.296  14.713 -0.2086  0.5280  0.7059
 8699SOL     OW37729   4.282   2.728   1.420  0.1634 -0.0632  0.4773
 8699SOL    HW137730   4.189   2.747   1.427  0.3440 -0.0935  2.8222
 8699SOL    HW237731   4.295   2.733   1.325  0.5657  0.6183  0.5650
 8700SOL     OW37732   1.098   0.445  17.355  0.0139 -0.1815 -0.0225
 8700SOL    HW137733   1.125   0.535  17.375  1.2898 -0.6485  0.3268
 8700SOL    HW237734   1.120   0.413  17.443  0.8265  1.8615  0.5278
 8701SOL     OW37735   0.179   2.880   7.572  0.1885 -0.6866  0.0739
 8701SOL    HW137736   0.257   2.845   7.529  0.4127 -0.5178  0.3497
 8701SOL    HW237737   0.157   2.940   7.501 -0.7927  0.8096  1.6446
 8702SOL     OW37738   0.548   3.667   6.446 -0.2600  0.5893 -0.5000
 8702SOL    HW137739   0.641   3.679   6.465  0.5375  0.3657 -4.3214
 8702SOL    HW237740   0.507   3.696   6.528  1.5045 -0.1839  0.6477
 8703SOL     OW37741   4.268   3.254  15.035  0.1653 -0.5765  0.1147
 8703SOL    HW137742   4.227   3.319  14.980 -1.3003 -2.8842 -1.5186
 8703SOL    HW237743   4.357   3.276  15.007 -0.2222  1.2201  0.2965
 8704SOL     OW37744   4.409   2.857  14.792  0.0096 -0.3594 -0.3275
 8704SOL    HW137745   4.460   2.776  14.800  1.6659  0.6318 -0.7681
 8704SOL    HW237746   4.411   2.873  14.698 -0.4369  2.1585  0.1034
 8705SOL     OW37747   4.565   4.613   9.047 -0.3062  0.0743 -0.3343
 8705SOL    HW137748   4.485   4.660   9.022 -1.0042 -1.1183 -0.3264
 8705SOL    HW237749   4.568   4.623   9.142 -2.0312  0.7709 -0.3406
 8706SOL     OW37750   4.595   3.108  14.559  0.1931 -0.4255 -0.3643
 8706SOL    HW137751   4.657   3.037  14.578 -0.5830 -1.3324 -1.2182
 8706SOL    HW237752   4.546   3.114  14.641 -0.5658  1.3960 -0.9713
 8707SOL     OW37753   2.955   0.758   3.993 -0.7710 -0.0552 -0.0609
 8707SOL    HW137754   3.039   0.786   3.956 -0.6830 -0.0159  0.1677
 8707SOL    HW237755   2.931   0.832   4.048  3.5161  0.9539  0.5007
 8708SOL     OW37756   2.270   4.301   1.553 -0.1318 -0.3165  0.3138
 8708SOL    HW137757   2.309   4.386   1.572 -1.9898  0.1029  2.1758
 8708SOL    HW237758   2.307   4.292   1.465 -3.6303  0.4507 -1.2426
 8709SOL     OW37759   1.811   0.417   6.943 -0.0043  0.4630  0.3165
 8709SOL    HW137760   1.892   0.384   6.904  0.4460 -0.8195  2.3247
 8709SOL    HW237761   1.852   0.488   6.991 -0.7362  0.6757  0.6220
 8710SOL     OW37762   0.300   0.319   3.641  0.5194  0.5647  0.2914
 8710SOL    HW137763   0.266   0.254   3.703  2.4333  0.2439  1.0122
 8710SOL    HW237764   0.385   0.285   3.612  0.5657  1.3643 -0.4639
 8711SOL     OW37765   3.224   1.902   3.252 -0.3013  0.0133  0.2761
 8711SOL    HW137766   3.296   1.847   3.283 -0.6259 -0.0391  0.9551
 8711SOL    HW237767   3.150   1.851   3.286  0.7445 -2.6230 -1.3947
 8712SOL     OW37768   1.225   1.656   0.289 -0.1689 -0.2531 -0.0199
 8712SOL    HW137769   1.272   1.574   0.270 -0.1939 -0.5170  1.0703
 8712SOL    HW237770   1.188   1.645   0.376  1.0599 -0.5072  0.4768
 8713SOL     OW37771   1.295   0.848   2.630 -0.4253  0.1638 -0.0723
 8713SOL    HW137772   1.272   0.786   2.560 -1.6744 -0.2407  0.6944
 8713SOL    HW237773   1.232   0.913   2.599  1.7817  1.3714 -2.0011
 8714SOL     OW37774   4.299   0.089   8.093  0.0646 -0.2085 -0.6080
 8714SOL    HW137775   4.302   0.165   8.036 -0.3863  1.4550  1.5983
 8714SOL    HW237776   4.288   0.023   8.024 -1.0522  0.2702 -0.8849
 8715SOL     OW37777   3.304   2.494   5.255  0.7624 -0.4646  0.3985
 8715SOL    HW137778   3.339   2.443   5.329  2.2366  1.3798  0.9576
 8715SOL    HW237779   3.298   2.434   5.181 -0.1197  1.9331 -1.4777
 8716SOL     OW37780   2.526   2.375   4.903  0.1908 -0.0647  0.2088
 8716SOL    HW137781   2.598   2.353   4.961 -0.1087 -0.2983  0.4929
 8716SOL    HW237782   2.454   2.379   4.966  0.1595  1.0745  0.1125
 8717SOL     OW37783   3.534   0.069  16.968 -0.4992  0.6340  0.5722
 8717SOL    HW137784   3.476   0.145  16.970  0.6278  1.5429 -1.6715
 8717SOL    HW237785   3.603   0.104  17.026  0.4694  1.3966 -1.0409
 8718SOL     OW37786   1.103   3.450   1.750 -0.7129 -0.5772 -0.2704
 8718SOL    HW137787   1.102   3.422   1.842  0.6987 -0.5134 -0.2353
 8718SOL    HW237788   1.195   3.428   1.734 -0.6431 -2.0656  2.2046
 8719SOL     OW37789   1.335   1.252   8.042  0.2765 -0.0734 -0.3584
 8719SOL    HW137790   1.385   1.285   8.116 -0.0924 -1.0609  0.3354
 8719SOL    HW237791   1.302   1.335   8.007 -1.8638 -0.1887  1.4159
 8720SOL     OW37792   3.453   3.257   6.672 -0.5471 -0.2901  0.2244
 8720SOL    HW137793   3.546   3.244   6.688 -0.4662 -0.3064 -0.2561
 8720SOL    HW237794   3.425   3.205   6.596  2.0316 -0.2342 -0.7644
 8721SOL     OW37795   2.442   1.625   6.266 -0.4506  0.0684 -0.4430
 8721SOL    HW137796   2.503   1.580   6.208 -0.8136  0.9383 -1.4912
 8721SOL    HW237797   2.373   1.558   6.259 -2.3942  1.9331  0.8945
 8722SOL     OW37798   3.832   0.415  10.613 -0.1321  0.5015 -0.4483
 8722SOL    HW137799   3.884   0.425  10.533 -1.0544  0.2038 -1.0899
 8722SOL    HW237800   3.839   0.321  10.629 -0.5881  0.9320  2.2555
 8723SOL     OW37801   2.753   2.221   9.719 -0.4145 -0.4823 -0.2864
 8723SOL    HW137802   2.785   2.284   9.654  1.1753 -0.5790  0.4236
 8723SOL    HW237803   2.761   2.139   9.670 -0.1792  0.2853 -1.5329
 8724SOL     OW37804   4.692   3.662   5.387  0.2932  0.3927  0.1953
 8724SOL    HW137805   4.644   3.738   5.355  0.6820  0.3420 -0.5146
 8724SOL    HW237806   0.045   3.690   5.381 -0.4209  2.8480  0.5820
 8725SOL     OW37807   0.955   0.863  12.285  0.3364  0.0808 -0.3819
 8725SOL    HW137808   0.908   0.944  12.305  0.2923  0.1499 -0.7717
 8725SOL    HW237809   0.948   0.857  12.190  2.5390 -1.6258 -0.4338
 8726SOL     OW37810   1.645   1.386   6.904  0.2553 -0.0333 -0.1878
 8726SOL    HW137811   1.615   1.387   6.814 -0.2878  0.1375 -0.0077
 8726SOL    HW237812   1.585   1.324   6.945 -0.7453  1.9334  1.3424
 8727SOL     OW37813   1.367   3.188   7.953 -0.2835  0.3108  0.7659
 8727SOL    HW137814   1.292   3.129   7.969  0.1359 -0.6287 -0.7366
 8727SOL    HW237815   1.345   3.258   8.015 -1.1284 -0.9803  1.9382
 8728SOL     OW37816   4.254   3.610   8.248 -0.1410  0.1508  0.3426
 8728SOL    HW137817   4.190   3.541   8.264  1.1019 -1.4357 -1.4179
 8728SOL    HW237818   4.217   3.690   8.285 -0.7324 -0.2034  0.5149
 8729SOL     OW37819   2.839   0.794   4.542 -0.4426  0.0005  0.2752
 8729SOL    HW137820   2.874   0.862   4.599 -1.7621 -2.1862  3.7332
 8729SOL    HW237821   2.905   0.725   4.552 -1.2751 -0.5373  2.1060
 8730SOL     OW37822   0.347   4.679   4.171 -0.3194 -0.2628 -0.3007
 8730SOL    HW137823   0.414   4.735   4.131  0.5102 -1.8726 -1.1197
 8730SOL    HW237824   0.377   4.672   4.262  1.4387  3.6550 -0.5685
 8731SOL     OW37825   2.853   0.617  10.758 -0.5557 -0.1077  0.0163
 8731SOL    HW137826   2.881   0.600  10.668 -1.1050 -1.4762  0.1015
 8731SOL    HW237827   2.764   0.582  10.765 -0.1596 -1.0068  0.4426
 8732SOL     OW37828   2.313   1.600   1.673  0.1323 -0.1434 -0.1068
 8732SOL    HW137829   2.353   1.668   1.728 -0.2376  0.9513 -1.1792
 8732SOL    HW237830   2.349   1.617   1.586 -0.2968  2.6732  0.2558
 8733SOL     OW37831   3.512   2.740   4.469 -0.4468 -0.3985 -0.1417
 8733SOL    HW137832   3.423   2.750   4.505 -0.0051  2.5476  0.1143
 8733SOL    HW237833   3.493   2.734   4.375  1.4315 -1.3891 -0.4526
 8734SOL     OW37834   3.767   4.235   4.013 -0.2281 -0.3122  0.2830
 8734SOL    HW137835   3.702   4.255   3.946  1.0431 -0.5799 -1.0262
 8734SOL    HW237836   3.779   4.142   3.995 -1.4100 -0.4006 -0.0401
 8735SOL     OW37837   3.574   0.955   8.836 -0.2645 -0.6589 -0.0410
 8735SOL    HW137838   3.582   1.051   8.835  3.2472 -0.9771  2.2360
 8735SOL    HW237839   3.506   0.946   8.903 -0.1076  2.4568  0.5275
 8736SOL     OW37840   0.790   4.242   3.672 -0.2000  0.1141 -0.3800
 8736SOL    HW137841   0.814   4.228   3.580 -2.2651  1.3485 -1.1185
 8736SOL    HW237842   0.729   4.314   3.658  0.5358  0.6879 -0.6399
 8737SOL     OW37843   4.364   2.774   9.012 -0.2558 -0.4570 -0.3198
 8737SOL    HW137844   4.390   2.819   8.931 -2.4458  2.1049  0.4127
 8737SOL    HW237845   4.357   2.682   8.987 -1.0487 -0.6441  0.6124
 8738SOL     OW37846   0.804   0.002   4.505 -0.3907  0.8443  0.1404
 8738SOL    HW137847   0.803   0.043   4.591 -0.8685 -0.2943  0.6829
 8738SOL    HW237848   0.864   0.063   4.465  0.2684 -0.1977 -0.4606
 8739SOL     OW37849   3.416   4.037   7.466  0.4374  0.0406 -0.2214
 8739SOL    HW137850   3.442   4.051   7.557 -1.3971 -1.5596  0.5630
 8739SOL    HW237851   3.394   3.943   7.469  0.4201  0.0297 -0.6799
 8740SOL     OW37852   1.856   3.310   1.083 -0.1366  0.3885  1.1317
 8740SOL    HW137853   1.904   3.352   1.011 -1.0399  0.6703  0.6894
 8740SOL    HW237854   1.864   3.376   1.151 -0.7145 -0.1981  1.7536
 8741SOL     OW37855   1.617   4.484  10.348  0.1669 -0.5109 -0.5070
 8741SOL    HW137856   1.544   4.522  10.396  0.7351  1.2984 -1.0813
 8741SOL    HW237857   1.690   4.543  10.369 -0.3452 -0.4555  1.0810
 8742SOL     OW37858   1.436   1.680   8.042  0.3394 -0.5712  0.1312
 8742SOL    HW137859   1.471   1.645   7.959  0.0094  1.2639 -0.7746
 8742SOL    HW237860   1.347   1.644   8.039 -0.7359  2.0645  0.5211
 8743SOL     OW37861   4.270   3.970  15.537 -0.5541  0.9234 -0.0156
 8743SOL    HW137862   4.341   4.034  15.532  1.3556 -1.3127 -0.9658
 8743SOL    HW237863   4.327   3.894  15.544  0.7817  1.9591  0.3489
 8744SOL     OW37864   0.907   1.164   3.044  0.2958  0.0107  0.0716
 8744SOL    HW137865   0.964   1.224   2.996  1.2731 -0.2244  0.9392
 8744SOL    HW237866   0.818   1.191   3.021  0.2760  0.0310  0.1759
 8745SOL     OW37867   3.241   4.018   5.168  0.7300 -0.2738 -0.3428
 8745SOL    HW137868   3.153   4.044   5.194  0.5162 -2.4260  1.0904
 8745SOL    HW237869   3.260   3.958   5.240 -0.5506 -0.1551  0.0788
 8746SOL     OW37870   4.480   0.979   3.086 -0.2726  0.1285  0.3234
 8746SOL    HW137871   4.551   0.992   3.023  0.6937 -1.4405  1.0935
 8746SOL    HW237872   4.517   1.039   3.152  1.1773 -0.0907 -0.2995
 8747SOL     OW37873   2.105   3.725   9.665 -0.5242  0.8215 -0.5690
 8747SOL    HW137874   2.185   3.777   9.656  0.9525 -1.2998  0.4415
 8747SOL    HW237875   2.086   3.693   9.576  5.8668 -2.7622 -0.6360
 8748SOL     OW37876   4.241   2.288  10.275  0.0124  0.0755 -0.2941
 8748SOL    HW137877   4.251   2.378  10.307 -0.6551  0.7635 -2.0270
 8748SOL    HW237878   4.298   2.232  10.328  0.7440  2.2448  1.2212
 8749SOL     OW37879   2.494   0.596  17.313  0.3280  0.3517 -0.3266
 8749SOL    HW137880   2.418   0.574  17.367  0.6998 -3.2210 -1.2225
 8749SOL    HW237881   2.541   0.663  17.363  2.2157 -1.1651 -0.0446
 8750SOL     OW37882   2.653   2.697   4.809  0.0596  0.2297  0.5056
 8750SOL    HW137883   2.718   2.756   4.772  0.6359 -1.0683 -0.5521
 8750SOL    HW237884   2.579   2.736   4.762  0.5221  1.0464  0.4603
 8751SOL     OW37885   0.033   3.461  10.284 -0.3530 -0.2019  0.3432
 8751SOL    HW137886   4.681   3.435  10.300 -0.8940  2.6080  1.7110
 8751SOL    HW237887   0.030   3.479  10.190  1.1181  0.4574  0.4209
 8752SOL     OW37888   2.822   1.125  10.730 -0.2564  0.0603 -0.3037
 8752SOL    HW137889   2.845   1.111  10.822  0.3873  0.6265 -0.3840
 8752SOL    HW237890   2.875   1.051  10.698  0.4555 -0.0797  1.1941
 8753SOL     OW37891   2.961   0.379   9.036  0.5396  0.5208  0.1363
 8753SOL    HW137892   2.924   0.416   9.117 -2.5207 -2.8254  0.2722
 8753SOL    HW237893   3.027   0.447   9.023 -0.3792  1.6515  1.3211
 8754SOL     OW37894   2.096   3.529   2.927 -0.1687 -0.0048  0.0910
 8754SOL    HW137895   2.116   3.477   2.849  1.4506 -1.8783  1.7498
 8754SOL    HW237896   2.082   3.613   2.884  0.2649  0.5615  1.0684
 8755SOL     OW37897   0.243   0.051   7.354 -0.0446 -0.2018 -0.0982
 8755SOL    HW137898   0.176   4.726   7.329  2.1431 -2.2006 -0.9860
 8755SOL    HW237899   0.199   0.115   7.409 -3.5956 -1.6528 -1.2994
 8756SOL     OW37900   1.398   2.997  15.324 -0.0652  0.3010  0.5440
 8756SOL    HW137901   1.453   3.008  15.401 -0.0621 -0.3004  0.6257
 8756SOL    HW237902   1.401   2.904  15.302 -0.4734  0.3955  0.0984
 8757SOL     OW37903   1.487   3.776   4.591 -0.0170  0.2289 -0.4278
 8757SOL    HW137904   1.454   3.786   4.502 -1.5393  3.2978  0.5068
 8757SOL    HW237905   1.463   3.683   4.599  0.2233  0.1363 -0.8044
 8758SOL     OW37906   2.258   1.110   2.880  0.1679  0.2651 -0.2326
 8758SOL    HW137907   2.296   1.099   2.968  0.9107 -0.2645 -0.6218
 8758SOL    HW237908   2.308   1.181   2.840  2.0876 -1.4061 -0.8065
 8759SOL     OW37909   0.928   1.324   7.484 -0.2963  0.3177  0.0825
 8759SOL    HW137910   1.012   1.329   7.438 -0.3853  0.2379 -0.0885
 8759SOL    HW237911   0.899   1.405   7.443  1.3655  0.9357  0.1193
 8760SOL     OW37912   2.277   3.657   4.765  0.5137 -0.1769  0.4726
 8760SOL    HW137913   2.196   3.696   4.733  1.9344  3.3718  1.1993
 8760SOL    HW237914   2.291   3.704   4.847  1.0413  0.0163  0.2724
 8761SOL     OW37915   1.152   1.591   5.874  0.4251  0.1786 -0.0941
 8761SOL    HW137916   1.131   1.644   5.951 -1.0432 -1.4867  0.6474
 8761SOL    HW237917   1.133   1.651   5.802  1.9110  0.3539 -0.3420
 8762SOL     OW37918   0.374   3.507   6.326  0.3337 -0.0748 -0.0803
 8762SOL    HW137919   0.302   3.534   6.384  0.1801 -0.0324 -0.2908
 8762SOL    HW237920   0.444   3.566   6.353 -0.4027 -0.2080  2.1158
 8763SOL     OW37921   4.158   0.820   6.434 -0.3430  0.0341 -0.2063
 8763SOL    HW137922   4.129   0.734   6.403 -2.5556  1.0049 -0.8661
 8763SOL    HW237923   4.111   0.872   6.369 -2.7456  0.2925  1.7244
 8764SOL     OW37924   3.969   2.838  11.977  0.2178  0.1773 -0.0584
 8764SOL    HW137925   4.040   2.777  11.959 -0.9037 -1.6708  1.7363
 8764SOL    HW237926   4.004   2.882  12.053  0.0645 -3.4719  2.1224
 8765SOL     OW37927   3.953   2.260   5.149  1.0610 -0.2372 -0.3506
 8765SOL    HW137928   3.967   2.190   5.214 -0.4850 -1.1457 -1.0098
 8765SOL    HW237929   3.905   2.206   5.087  2.0961 -0.4114 -0.9942
 8766SOL     OW37930   0.308   4.099  12.412  0.5454  0.6569  0.4271
 8766SOL    HW137931   0.368   4.140  12.474  0.2191  2.5314 -0.4867
 8766SOL    HW237932   0.306   4.009  12.444 -1.3778  0.5109 -0.1084
 8767SOL     OW37933   4.222   2.785  16.409  0.4404  0.4009 -0.2517
 8767SOL    HW137934   4.279   2.805  16.483  1.8030 -1.6928 -0.7185
 8767SOL    HW237935   4.148   2.832  16.447  0.4820  0.0587  0.2572
 8768SOL     OW37936   4.530   1.013   6.269 -0.1786 -0.1340  0.1472
 8768SOL    HW137937   4.529   0.944   6.336 -2.0670  0.6090  0.9016
 8768SOL    HW237938   4.621   1.041   6.264  0.1328 -1.0118  0.8761
 8769SOL     OW37939   1.368   0.492   7.007 -0.0969 -0.0213  0.1131
 8769SOL    HW137940   1.368   0.587   7.014 -0.1144 -0.1412  1.7210
 8769SOL    HW237941   1.350   0.484   6.914 -0.0227  0.6319  0.0439
 8770SOL     OW37942   3.341   0.784   3.593 -0.3042 -0.7485 -0.6496
 8770SOL    HW137943   3.330   0.702   3.545  0.1262 -0.9422 -0.4135
 8770SOL    HW237944   3.252   0.803   3.622 -0.7049 -2.7471 -0.5745
 8771SOL     OW37945   2.529   2.886  10.883 -0.8059  0.6078 -0.1128
 8771SOL    HW137946   2.449   2.840  10.905 -0.2215 -0.6435 -0.6192
 8771SOL    HW237947   2.500   2.937  10.807  0.9223  2.6196  0.5468
 8772SOL     OW37948   1.666   3.713   1.459 -0.6190  0.1050 -0.3791
 8772SOL    HW137949   1.669   3.799   1.417 -3.4525 -0.1504 -1.0601
 8772SOL    HW237950   1.747   3.738   1.504  0.7787 -1.4773 -2.0387
 8773SOL     OW37951   4.307   2.465  15.719  0.0399  0.2311 -0.5389
 8773SOL    HW137952   4.245   2.513  15.665  0.3955 -1.7089 -2.6571
 8773SOL    HW237953   4.320   2.529  15.789 -0.8674  1.0293 -1.1059
 8774SOL     OW37954   1.421   0.058   0.339 -0.3800 -0.3570 -0.2443
 8774SOL    HW137955   1.503   0.027   0.378 -0.0307 -0.4033 -1.0227
 8774SOL    HW237956   1.410   0.005   0.260 -0.3439  1.1180 -1.2262
 8775SOL     OW37957   1.132   3.026  10.849  0.4225  0.1793 -0.2303
 8775SOL    HW137958   1.197   3.058  10.785  0.7438  0.9259  0.4789
 8775SOL    HW237959   1.142   2.932  10.828  1.8915 -0.1778  2.0923
 8776SOL     OW37960   3.149   3.259   3.931 -0.5701  0.4941  0.1226
 8776SOL    HW137961   3.162   3.233   4.022 -0.4693 -0.7779 -0.2582
 8776SOL    HW237962   3.240   3.277   3.910 -0.4644 -1.4641 -1.0853
 8777SOL     OW37963   1.780   3.138  15.476 -0.1509 -0.5014 -0.7241
 8777SOL    HW137964   1.706   3.147  15.536  0.6176 -2.0707  0.4670
 8777SOL    HW237965   1.853   3.107  15.530 -1.4655  1.6428  2.2672
 8778SOL     OW37966   4.322   2.106   2.496 -0.1824 -0.8387 -0.1659
 8778SOL    HW137967   4.402   2.068   2.532 -1.7089 -2.8126  1.1036
 8778SOL    HW237968   4.347   2.118   2.405 -1.2422  1.6059 -0.1237
 8779SOL     OW37969   1.705   2.703   3.875  0.1323 -0.3638 -0.5599
 8779SOL    HW137970   1.716   2.613   3.844 -2.0673 -0.8580  0.1123
 8779SOL    HW237971   1.630   2.728   3.821 -1.0595  0.0932  1.2895
 8780SOL     OW37972   2.987   4.250  12.242 -0.1665 -0.1157  0.1418
 8780SOL    HW137973   3.060   4.290  12.195  0.0235  1.7438  2.0322
 8780SOL    HW237974   3.015   4.264  12.332  1.1392  0.3633 -0.3399
 8781SOL     OW37975   2.141   1.988   5.964 -0.3502 -0.8917  0.3926
 8781SOL    HW137976   2.142   1.894   5.977 -2.0090 -1.3753 -2.7614
 8781SOL    HW237977   2.197   1.999   5.887 -0.3044  0.3874  0.5944
 8782SOL     OW37978   1.464   4.570   2.347  0.2457  1.0047  0.0593
 8782SOL    HW137979   1.558   4.587   2.358  0.5021 -0.4119  0.0205
 8782SOL    HW237980   1.462   4.534   2.259  0.7924  1.0857  0.0124
 8783SOL     OW37981   2.602   1.264   2.448  0.5121  0.4559 -0.3363
 8783SOL    HW137982   2.552   1.278   2.368 -0.9719 -1.5980  0.2398
 8783SOL    HW237983   2.690   1.249   2.414  1.4408  0.0703  2.1759
 8784SOL     OW37984   4.472   2.340   9.097 -0.2798 -0.1544  0.2909
 8784SOL    HW137985   4.551   2.316   9.048 -1.2558 -1.3307 -0.7132
 8784SOL    HW237986   4.464   2.265   9.155 -1.1475 -0.9535 -0.8649
 8785SOL     OW37987   4.623   3.570   2.751 -0.3122 -0.6918 -0.2984
 8785SOL    HW137988   4.667   3.487   2.765  1.4840  0.4022  0.5814
 8785SOL    HW237989   4.610   3.571   2.656  1.8374 -1.0747 -0.5772
 8786SOL     OW37990   0.010   0.802   3.486 -0.4082  0.2822 -0.1840
 8786SOL    HW137991   0.008   0.771   3.396  1.2043 -1.6497  0.4550
 8786SOL    HW237992   0.071   0.744   3.532 -0.5333 -0.2416 -0.6845
 8787SOL     OW37993   1.614   2.444   3.919 -0.0017 -0.3353 -0.4299
 8787SOL    HW137994   1.523   2.437   3.889  0.2704 -0.4843 -1.2160
 8787SOL    HW237995   1.607   2.435   4.014  1.1901  0.4375 -0.2704
 8788SOL     OW37996   1.949   0.000   7.619  0.6677  0.4136 -0.0518
 8788SOL    HW137997   1.860   0.027   7.595 -0.4079 -1.9226  1.3774
 8788SOL    HW237998   1.924   4.662   7.670  0.8037  0.7150  0.4684
 8789SOL     OW37999   1.856   1.204  11.234  0.2547  0.0003 -0.0373
 8789SOL    HW138000   1.945   1.211  11.269 -0.1882 -0.1981  1.1177
 8789SOL    HW238001   1.874   1.205  11.139  1.3479 -1.2528  0.1610
 8790SOL     OW38002   0.975   0.807   7.950  0.3334  0.1024 -0.0600
 8790SOL    HW138003   1.053   0.862   7.951 -0.9069  1.8373  0.8744
 8790SOL    HW238004   0.918   0.852   8.013  0.0611  0.0162 -0.2426
 8791SOL     OW38005   0.504   1.842   2.762  0.0916 -0.1531 -0.4053
 8791SOL    HW138006   0.536   1.854   2.852  0.0583  1.1353 -0.5710
 8791SOL    HW238007   0.414   1.864   2.784  0.0249  1.5972 -2.5099
 8792SOL     OW38008   2.079   0.887   9.154 -0.1536 -0.1975 -0.2203
 8792SOL    HW138009   2.030   0.956   9.109 -0.8707 -0.2574  0.4642
 8792SOL    HW238010   2.020   0.812   9.155 -1.3007  0.6970 -0.6497
 8793SOL     OW38011   1.610   1.567   4.608 -0.0560 -0.6779  0.4336
 8793SOL    HW138012   1.561   1.591   4.530  1.0571 -1.4059 -0.4971
 8793SOL    HW238013   1.580   1.476   4.614 -0.0521 -0.6821  0.3906
 8794SOL     OW38014   2.652   3.089   9.243  0.1288  0.3838 -0.6100
 8794SOL    HW138015   2.591   3.062   9.313  1.0777 -1.2503 -0.4195
 8794SOL    HW238016   2.639   3.183   9.239  0.6539  0.4910  0.2782
 8795SOL     OW38017   2.212   4.542   3.136  0.2402  0.4636 -0.3042
 8795SOL    HW138018   2.289   4.538   3.079  0.4325  3.8812 -0.2629
 8795SOL    HW238019   2.189   4.452   3.114 -1.1118  1.0011 -1.1104
 8796SOL     OW38020   1.410   1.508  10.381  0.0171 -0.2281  0.4746
 8796SOL    HW138021   1.320   1.493  10.411  0.3601  0.8689  2.1012
 8796SOL    HW238022   1.462   1.465  10.449  1.3095  1.0937  0.3160
 8797SOL     OW38023   1.393   4.638  12.028 -0.4124  0.1028  0.5146
 8797SOL    HW138024   1.447   4.717  12.019  1.3598 -1.1721 -0.1513
 8797SOL    HW238025   1.322   4.677  12.078  1.4903  0.4329  2.9400
 8798SOL     OW38026   3.307   2.328   4.860  0.2562 -1.1036 -0.4797
 8798SOL    HW138027   3.277   2.303   4.948 -4.0951  0.1210 -1.6054
 8798SOL    HW238028   3.374   2.260   4.855  1.0961 -0.2319 -1.1001
 8799SOL     OW38029   1.451   4.481  14.812  0.7974  0.1807  0.0445
 8799SOL    HW138030   1.388   4.477  14.741  1.9899 -1.1092 -0.9482
 8799SOL    HW238031   1.473   4.574  14.815 -2.3260  0.8608  1.7849
 8800SOL     OW38032   0.424   1.330   3.271  0.1375 -0.0992 -0.6329
 8800SOL    HW138033   0.346   1.361   3.315 -0.2261  0.8469 -1.9402
 8800SOL    HW238034   0.398   1.259   3.212 -0.1380 -0.2335 -0.3499
 8801SOL     OW38035   0.311   0.245  15.887 -0.5763 -0.3125  0.1172
 8801SOL    HW138036   0.217   0.231  15.872 -0.6329 -1.2563  1.4071
 8801SOL    HW238037   0.321   0.286  15.973 -1.1334  1.6071 -0.7240
 8802SOL     OW38038   1.749   3.492  12.446 -0.2362 -0.0805  0.0335
 8802SOL    HW138039   1.695   3.493  12.524 -2.1565 -3.1430 -1.2226
 8802SOL    HW238040   1.727   3.409  12.402 -0.2186  0.6045 -1.2566
 8803SOL     OW38041   4.181   1.779  10.413 -0.0104 -0.4640  0.0174
 8803SOL    HW138042   4.248   1.845  10.393  0.9690 -0.5763  2.9312
 8803SOL    HW238043   4.107   1.828  10.377 -0.0168 -0.1338  0.4652
 8804SOL     OW38044   3.385   2.601  11.260 -0.3202  1.4553  0.2751
 8804SOL    HW138045   3.344   2.587  11.345 -0.1635 -0.6625 -0.0034
 8804SOL    HW238046   3.458   2.659  11.283  0.1539  0.8207  0.3980
 8805SOL     OW38047   4.423   0.654   5.360  0.4079  0.0517 -0.4972
 8805SOL    HW138048   4.464   0.591   5.419 -1.0110 -0.2305  0.1745
 8805SOL    HW238049   4.507   0.679   5.320 -0.5815  1.2860 -1.8500
 8806SOL     OW38050   2.333   2.159  11.131 -0.4135 -0.2843 -0.0502
 8806SOL    HW138051   2.423   2.135  11.152  0.0007  0.6539 -0.7735
 8806SOL    HW238052   2.346   2.254  11.133 -0.5830 -0.2604 -0.1044
 8807SOL     OW38053   4.434   3.789   6.923 -0.0141 -0.8021 -0.1246
 8807SOL    HW138054   4.449   3.820   7.013 -1.1285 -2.9193  0.8039
 8807SOL    HW238055   4.340   3.773   6.918 -0.3546  0.7246  1.5381
 8808SOL     OW38056   0.514   4.559   1.733 -0.3888  0.2515  0.2463
 8808SOL    HW138057   0.550   4.492   1.791 -0.1706  0.9155  0.8807
 8808SOL    HW238058   0.498   4.509   1.653  0.8419  2.2243 -1.2181
 8809SOL     OW38059   3.761   1.340   8.951  0.1650 -0.1569 -0.2035
 8809SOL    HW138060   3.757   1.308   9.042  1.4568  0.9303  0.2365
 8809SOL    HW238061   3.847   1.303   8.934  0.2874  0.8279 -1.6588
 8810SOL     OW38062   4.537   1.466   5.286 -0.1270  0.2275  0.4368
 8810SOL    HW138063   4.485   1.427   5.216  0.8684  1.6455 -1.0885
 8810SOL    HW238064   4.553   1.552   5.247 -0.9527 -0.2444 -0.9003
 8811SOL     OW38065   3.642   3.406   8.548 -0.3074  0.5733 -0.0497
 8811SOL    HW138066   3.597   3.409   8.632 -0.2595 -1.2371  0.0413
 8811SOL    HW238067   3.725   3.369   8.579  0.7133  0.7345 -2.5183
 8812SOL     OW38068   2.626   2.795   1.555 -0.7171  0.1957  0.0339
 8812SOL    HW138069   2.707   2.776   1.604  0.5143  0.5504 -1.8549
 8812SOL    HW238070   2.600   2.704   1.539  0.6263 -0.1460 -0.2289
 8813SOL     OW38071   3.104   1.665   5.231 -0.1224  0.2271  0.2254
 8813SOL    HW138072   3.172   1.731   5.230  0.2707 -0.1900 -1.1729
 8813SOL    HW238073   3.036   1.724   5.264  0.6316  0.7590  0.7977
 8814SOL     OW38074   2.570   0.307   6.749 -0.5834 -0.6331 -0.4909
 8814SOL    HW138075   2.556   0.213   6.764  0.1817 -0.8570 -1.1861
 8814SOL    HW238076   2.562   0.301   6.654  0.0149  0.4093 -0.6025
 8815SOL     OW38077   3.301   2.004   1.676  0.7489 -0.0290 -0.2830
 8815SOL    HW138078   3.297   2.045   1.762 -2.0562 -3.2458  1.0825
 8815SOL    HW238079   3.387   2.033   1.644  0.4582 -0.1044 -1.1432
 8816SOL     OW38080   3.781   4.336   8.226 -0.2635  0.4711 -0.1542
 8816SOL    HW138081   3.712   4.388   8.268 -0.3615 -0.5258  0.9143
 8816SOL    HW238082   3.805   4.391   8.152 -0.4452  0.0272 -0.5421
 8817SOL     OW38083   0.364   1.668   9.154 -0.0318  0.1123 -0.1730
 8817SOL    HW138084   0.369   1.713   9.238  2.0942  0.8757 -0.7015
 8817SOL    HW238085   0.270   1.659   9.135 -0.2354  1.3774  0.2766
 8818SOL     OW38086   2.242   2.334   9.689  0.6585  0.2182 -0.4122
 8818SOL    HW138087   2.204   2.361   9.773 -1.4316  0.7262 -1.5149
 8818SOL    HW238088   2.232   2.415   9.638 -1.0563 -1.0405 -2.0288
 8819SOL     OW38089   0.586   0.327  17.016  0.3978 -0.6597  0.0946
 8819SOL    HW138090   0.628   0.320  16.930  0.2838  0.9900 -0.0868
 8819SOL    HW238091   0.561   0.418  17.029 -1.9479 -1.6646  2.6773
 8820SOL     OW38092   2.638   1.027  16.716  0.0846  0.5282 -0.2457
 8820SOL    HW138093   2.729   1.029  16.746 -0.1981 -1.8052  0.7622
 8820SOL    HW238094   2.628   1.122  16.708 -0.1058  0.5093 -0.2316
 8821SOL     OW38095   4.727   1.051  10.465  0.1647  0.5962 -0.4825
 8821SOL    HW138096   4.684   0.966  10.454  2.3831 -0.5838  0.0414
 8821SOL    HW238097   0.079   1.029  10.445 -0.5917 -3.3636  0.6096
 8822SOL     OW38098   0.191   0.306   8.866  0.5635 -0.5757 -0.0503
 8822SOL    HW138099   0.167   0.213   8.863 -2.0102  0.0908  0.1882
 8822SOL    HW238100   0.278   0.294   8.904  1.0713  2.1738 -0.3627
 8823SOL     OW38101   2.208   3.685   8.765 -0.5909  0.8876  0.0132
 8823SOL    HW138102   2.219   3.779   8.776 -1.5484  1.1583 -1.2981
 8823SOL    HW238103   2.298   3.658   8.783 -2.0249 -3.4344  0.7749
 8824SOL     OW38104   2.306   0.678   5.258  1.0493 -0.4869  0.4713
 8824SOL    HW138105   2.394   0.717   5.249  0.8548  0.1310  1.2135
 8824SOL    HW238106   2.280   0.698   5.168  2.0856  0.0538  0.2878
 8825SOL     OW38107   1.981   0.272   7.658 -0.7004  0.1777  1.1493
 8825SOL    HW138108   1.932   0.190   7.649 -2.6123  1.3712  0.5294
 8825SOL    HW238109   1.981   0.310   7.570  0.1849  1.5567  1.7371
 8826SOL     OW38110   2.800   1.799   7.544 -0.4434  0.0532  0.0343
 8826SOL    HW138111   2.846   1.757   7.472  0.2619  0.8064  0.0469
 8826SOL    HW238112   2.788   1.727   7.606 -0.5441 -1.2923 -1.5546
 8827SOL     OW38113   2.618   0.718   2.673  0.0127  0.2866  0.4080
 8827SOL    HW138114   2.643   0.626   2.676 -0.4841  0.1282 -0.4390
 8827SOL    HW238115   2.527   0.719   2.646  0.5228 -2.8527 -1.4316
 8828SOL     OW38116   3.816   0.773  10.537 -0.0716  0.2460  0.3938
 8828SOL    HW138117   3.750   0.706  10.518  2.0984 -1.8072  0.1610
 8828SOL    HW238118   3.774   0.827  10.604 -0.6579 -0.3366  0.4995
 8829SOL     OW38119   2.644   1.204   7.476  0.1304 -0.1032  0.1818
 8829SOL    HW138120   2.672   1.255   7.552 -1.3882  0.0578  0.6181
 8829SOL    HW238121   2.572   1.263   7.458 -0.9907 -2.1844 -2.1480
 8830SOL     OW38122   4.176   4.166   8.541 -0.2361 -0.3018  0.3750
 8830SOL    HW138123   4.118   4.217   8.485  1.9404  2.3261  0.5012
 8830SOL    HW238124   4.266   4.181   8.512  0.2073  0.5141  2.2063
 8831SOL     OW38125   1.276   0.754   2.300  0.0580 -0.2878  0.1722
 8831SOL    HW138126   1.366   0.783   2.317 -0.5651  0.2721  2.4765
 8831SOL    HW238127   1.284   0.663   2.328 -0.0766 -0.6831 -1.0590
 8832SOL     OW38128   2.736   0.840  16.217 -0.0418  0.3780 -0.1402
 8832SOL    HW138129   2.656   0.853  16.268  0.6763  0.2893  1.0173
 8832SOL    HW238130   2.763   0.931  16.207 -0.1435  0.3158 -0.9697
 8833SOL     OW38131   2.116   4.539   4.483 -0.0496  0.0946  0.3341
 8833SOL    HW138132   2.056   4.594   4.431  1.0475 -0.0804 -1.1189
 8833SOL    HW238133   2.123   4.591   4.563 -0.8380  1.4375 -0.4537
 8834SOL     OW38134   0.512   4.047   1.096  0.5723 -0.0066  0.5226
 8834SOL    HW138135   0.607   4.048   1.108  0.6005  0.8337  0.2795
 8834SOL    HW238136   0.518   4.005   1.010 -1.0781  0.0332  0.3878
 8835SOL     OW38137   2.752   0.848   5.293  0.7469 -0.2718  0.2673
 8835SOL    HW138138   2.803   0.797   5.230 -1.8351 -0.9070 -1.3146
 8835SOL    HW238139   2.679   0.786   5.296  1.4501 -1.0086  2.0815
 8836SOL     OW38140   0.262   4.461   6.725 -0.0321  0.0280  0.0853
 8836SOL    HW138141   0.302   4.456   6.638 -0.6986  0.9328 -0.2741
 8836SOL    HW238142   0.208   4.382   6.731  1.3518 -1.0034 -0.8906
 8837SOL     OW38143   3.503   4.108   2.798  0.7479  0.7819 -0.4776
 8837SOL    HW138144   3.518   4.044   2.868 -2.2126  0.7221  0.0667
 8837SOL    HW238145   3.568   4.072   2.737  1.7515  0.2725  0.8616
 8838SOL     OW38146   4.713   2.137   2.932  0.1656  0.3773  0.8852
 8838SOL    HW138147   4.622   2.162   2.912  0.5360 -0.0415 -1.3585
 8838SOL    HW238148   4.705   2.042   2.930 -1.4247  0.4772  2.2852
 8839SOL     OW38149   2.520   2.227  15.624  0.4244 -0.1309  0.2396
 8839SOL    HW138150   2.495   2.268  15.707  0.9086 -2.1775  1.3965
 8839SOL    HW238151   2.570   2.155  15.663  0.0757  1.0590  2.8504
 8840SOL     OW38152   4.446   3.129   6.940  0.5065  0.6657 -0.3984
 8840SOL    HW138153   4.513   3.180   6.985  2.3384 -1.7020 -0.4434
 8840SOL    HW238154   4.503   3.055   6.920 -0.8487 -1.1281  2.3768
 8841SOL     OW38155   4.312   4.276   3.209 -0.4209 -0.4524 -0.0878
 8841SOL    HW138156   4.246   4.209   3.224  1.3011 -2.1411 -0.0479
 8841SOL    HW238157   4.386   4.222   3.182 -0.8047 -0.8057 -0.4325
 8842SOL     OW38158   1.413   3.331   6.392  0.0931  0.0622 -0.6288
 8842SOL    HW138159   1.451   3.368   6.471 -0.4954 -1.0227  0.1710
 8842SOL    HW238160   1.492   3.345   6.340 -0.5770  0.7194 -1.4792
 8843SOL     OW38161   0.614   2.649   2.188 -0.0560 -0.1659 -0.1874
 8843SOL    HW138162   0.528   2.672   2.154  0.1835 -0.1411 -0.7775
 8843SOL    HW238163   0.654   2.608   2.112 -0.1072  0.1018 -0.3575
 8844SOL     OW38164   3.512   0.836  15.165  0.1901  0.2322 -0.1314
 8844SOL    HW138165   3.562   0.917  15.156 -1.0730  1.0291 -0.0323
 8844SOL    HW238166   3.513   0.810  15.073  1.5513 -1.1103  0.2679
 8845SOL     OW38167   2.366   4.705   6.372  0.2829  0.4772  0.6743
 8845SOL    HW138168   2.322   4.632   6.328  1.1231  0.4636 -0.1293
 8845SOL    HW238169   2.416   4.660   6.440 -0.5441  0.8157  1.5048
 8846SOL     OW38170   0.510   3.990   9.575 -0.2047 -0.5755 -0.1572
 8846SOL    HW138171   0.572   4.053   9.612 -0.4301 -0.9266  0.8064
 8846SOL    HW238172   0.429   4.036   9.599  0.1138 -1.0572  1.8314
 8847SOL     OW38173   0.048   4.123   7.368  1.1958  0.0171  0.1688
 8847SOL    HW138174   0.092   4.185   7.426  0.2760 -0.6094  1.5408
 8847SOL    HW238175   0.044   4.049   7.429  0.6649 -0.1956 -0.1257
 8848SOL     OW38176   1.216   0.881  17.614 -0.0988  0.5594 -0.0680
 8848SOL    HW138177   1.210   0.921  17.701  1.0861 -2.0661  1.2328
 8848SOL    HW238178   1.243   0.963  17.572  0.7932  0.5454  0.4795
 8849SOL     OW38179   4.657   2.221  13.514 -0.0863  0.5075 -0.6306
 8849SOL    HW138180   4.622   2.152  13.459 -2.7670  0.3501  1.3034
 8849SOL    HW238181   4.581   2.232  13.571  0.4847  0.7970  0.0806
 8850SOL     OW38182   4.357   3.091  11.007  0.6623  0.1107  0.2604
 8850SOL    HW138183   4.450   3.073  11.016  0.8902  0.1854 -1.7349
 8850SOL    HW238184   4.364   3.183  10.982  0.8470 -0.3995 -1.6102
 8851SOL     OW38185   2.020   1.261  13.342 -0.3406 -0.0427  0.5318
 8851SOL    HW138186   2.000   1.169  13.355  0.7685  0.1595  3.6162
 8851SOL    HW238187   2.024   1.267  13.246 -0.5320 -3.3071  0.3185
 8852SOL     OW38188   0.732   4.133   2.517 -0.4808  0.1643 -0.4207
 8852SOL    HW138189   0.752   4.199   2.451 -0.0337  0.5943  0.1513
 8852SOL    HW238190   0.645   4.112   2.483  0.4840 -3.4454 -0.6639
 8853SOL     OW38191   3.022   0.622  14.737 -0.4915  0.1177 -0.1493
 8853SOL    HW138192   3.087   0.659  14.677 -0.3509  1.5539  0.8862
 8853SOL    HW238193   2.982   0.705  14.763  2.3259  0.8927  1.7385
 8854SOL     OW38194   4.221   4.295   3.679  0.1532  0.0586 -1.0553
 8854SOL    HW138195   4.264   4.276   3.762  2.4042  3.6331 -1.3598
 8854SOL    HW238196   4.305   4.307   3.634 -0.1395 -1.4796 -2.0194
 8855SOL     OW38197   3.283   1.849   9.838 -0.5194 -0.0368  0.4604
 8855SOL    HW138198   3.225   1.773   9.828 -0.1782 -0.3081  0.5056
 8855SOL    HW238199   3.305   1.842   9.931  0.2259  0.7411  0.3378
 8856SOL     OW38200   4.624   0.278   6.637  0.1599  0.4629  0.0844
 8856SOL    HW138201   4.648   0.226   6.561  2.5261  0.6864  0.6883
 8856SOL    HW238202   4.532   0.252   6.632  0.0178  1.0617 -0.3151
 8857SOL     OW38203   1.826   2.687   5.448  0.7044  0.5832  0.1808
 8857SOL    HW138204   1.837   2.768   5.397 -1.1178 -0.5511 -1.9566
 8857SOL    HW238205   1.917   2.658   5.442  0.7035  0.3707  1.2283
 8858SOL     OW38206   2.953   2.732   6.053 -0.5673  0.4895 -0.4750
 8858SOL    HW138207   2.962   2.700   5.963 -1.8604  0.5347 -0.6198
 8858SOL    HW238208   2.870   2.687   6.070 -1.6839  1.8573 -2.3032
 8859SOL     OW38209   2.708   4.448   4.039  0.4206  0.7028 -0.6747
 8859SOL    HW138210   2.707   4.356   4.066 -0.7025  0.3623 -1.8828
 8859SOL    HW238211   2.674   4.473   4.126 -0.8096  1.3864 -1.3460
 8860SOL     OW38212   2.044   2.244   2.372  0.2815 -0.3718  0.4740
 8860SOL    HW138213   2.086   2.285   2.297 -1.3986 -0.6250 -0.6201
 8860SOL    HW238214   2.062   2.306   2.442 -1.2529  0.8272 -0.2058
 8861SOL     OW38215   2.890   1.107   7.412  0.0749  0.1498 -0.2143
 8861SOL    HW138216   2.830   1.168   7.455  0.5706  0.2861  0.2914
 8861SOL    HW238217   2.836   1.081   7.337  0.1982 -0.8233  0.0317
 8862SOL     OW38218   2.073   4.410   8.142  0.0730 -0.3885  0.2279
 8862SOL    HW138219   2.146   4.466   8.168  0.1160 -0.9069  1.2194
 8862SOL    HW238220   2.106   4.367   8.063 -0.5085 -1.6681  0.6911
 8863SOL     OW38221   0.256   0.025   5.261 -0.3327 -0.2754  0.2165
 8863SOL    HW138222   0.232   0.047   5.172  0.7599 -0.9048 -0.2346
 8863SOL    HW238223   0.194   0.075   5.314 -0.0692  0.6829 -0.4014
 8864SOL     OW38224   1.596   0.724   2.061 -0.1095  0.3341  0.0904
 8864SOL    HW138225   1.678   0.675   2.073 -0.6959 -0.4289  0.9958
 8864SOL    HW238226   1.586   0.736   1.967 -1.0308  1.1626  0.2965
 8865SOL     OW38227   1.633   1.640   3.143  0.4289 -0.3469 -0.7622
 8865SOL    HW138228   1.551   1.591   3.142 -0.1035  0.5799 -1.2205
 8865SOL    HW238229   1.655   1.619   3.234 -3.4407 -1.1294 -0.0097
 8866SOL     OW38230   3.378   0.037   5.403 -0.4920  0.6766  0.0008
 8866SOL    HW138231   3.445   0.043   5.471 -1.1037  0.0842  0.6519
 8866SOL    HW238232   3.364   0.127   5.373 -0.7364  1.1061  1.4099
 8867SOL     OW38233   1.328   0.297   3.897  0.6525  0.1426 -1.2282
 8867SOL    HW138234   1.294   0.274   3.811 -1.0422 -3.4228  0.3842
 8867SOL    HW238235   1.245   0.323   3.937  0.4652 -0.1701 -1.4130
 8868SOL     OW38236   0.443   0.184   9.367 -0.7321 -0.0732 -0.2462
 8868SOL    HW138237   0.488   0.264   9.394 -1.8434  0.7345 -0.8172
 8868SOL    HW238238   0.482   0.180   9.279  0.5416 -0.7519  0.3403
 8869SOL     OW38239   1.366   4.574  16.591 -0.1607  0.1142 -0.6163
 8869SOL    HW138240   1.407   4.520  16.659 -1.2874 -0.8083 -0.6658
 8869SOL    HW238241   1.322   4.508  16.537 -1.9107  0.3133  0.5578
 8870SOL     OW38242   0.382   2.533   0.242  0.5540  0.0838  0.7098
 8870SOL    HW138243   0.395   2.627   0.235 -1.5900  0.2620 -1.0757
 8870SOL    HW238244   0.392   2.513   0.335  0.4981  0.8372  0.8718
 8871SOL     OW38245   2.715   1.340   7.724 -0.0275 -0.0666  0.3289
 8871SOL    HW138246   2.715   1.436   7.732 -1.6931  0.0437 -0.8792
 8871SOL    HW238247   2.783   1.306   7.782  1.5149 -0.9259 -2.0106
 8872SOL     OW38248   2.316   2.879  11.678  0.2450  0.2866 -0.0287
 8872SOL    HW138249   2.345   2.923  11.598  1.8142  0.0886  0.4261
 8872SOL    HW238250   2.398   2.837  11.707 -0.0515 -1.4540 -1.7365
 8873SOL     OW38251   1.411   4.505   6.943  0.1673 -0.5177  0.0321
 8873SOL    HW138252   1.495   4.508   6.988  0.8646  0.5560 -1.3226
 8873SOL    HW238253   1.420   4.570   6.874  4.0368 -1.0434  0.0167
 8874SOL     OW38254   4.513   2.887  10.506  0.3790  0.4961  0.6728
 8874SOL    HW138255   4.571   2.869  10.579  2.0405 -1.1471 -1.0489
 8874SOL    HW238256   4.573   2.905  10.433  0.5964 -1.2768  0.4102
 8875SOL     OW38257   4.735   3.568   0.826 -0.1054 -0.4816  0.0593
 8875SOL    HW138258   0.072   3.553   0.883  0.7538 -0.4644 -1.0878
 8875SOL    HW238259   0.007   3.663   0.820 -0.3294 -0.3892  1.1457
 8876SOL     OW38260   1.631   3.074   7.835 -0.6307 -0.0682  0.1978
 8876SOL    HW138261   1.590   3.148   7.879  0.3443 -0.5871  1.9839
 8876SOL    HW238262   1.567   3.003   7.839  0.4427 -1.0582 -0.1368
 8877SOL     OW38263   4.615   0.264   4.189 -0.1967  0.3513  0.9352
 8877SOL    HW138264   4.625   0.310   4.273 -0.3576 -0.2618  1.2878
 8877SOL    HW238265   4.677   0.192   4.195 -0.9323 -0.3950 -0.5329
 8878SOL     OW38266   0.117   3.194   0.039  0.3163 -0.8312  0.3036
 8878SOL    HW138267   0.091   3.129  17.725  1.3887 -0.0311 -0.9104
 8878SOL    HW238268   0.201   3.230   0.012  0.2888 -2.6495 -2.1978
 8879SOL     OW38269   1.525   3.098   1.846 -0.2338 -0.2655  0.3563
 8879SOL    HW138270   1.484   3.172   1.892 -0.2261  0.1738 -0.3354
 8879SOL    HW238271   1.445   3.083   1.795 -0.9709  0.8480  1.1973
 8880SOL     OW38272   3.604   3.797   5.801  0.2421 -0.1168 -0.2056
 8880SOL    HW138273   3.694   3.809   5.772  0.4113 -0.2673  0.2611
 8880SOL    HW238274   3.588   3.719   5.855 -2.1141  0.3614 -0.2271
 8881SOL     OW38275   3.559   0.161   6.481  0.3014  0.0941 -0.3507
 8881SOL    HW138276   3.529   0.236   6.532 -1.3549 -0.1185 -1.0217
 8881SOL    HW238277   3.510   0.098   6.532  0.2340  0.8936  0.5665
 8882SOL     OW38278   1.757   1.815   7.126 -0.5265 -0.6890  0.0135
 8882SOL    HW138279   1.753   1.724   7.098  0.6481 -0.4465 -0.9733
 8882SOL    HW238280   1.827   1.864   7.082 -2.0850 -0.5971 -2.3914
 8883SOL     OW38281   4.401   1.864   3.590  0.0647 -0.6928 -0.3674
 8883SOL    HW138282   4.381   1.957   3.581 -1.3204 -0.9882 -0.2431
 8883SOL    HW238283   4.497   1.866   3.594 -0.0666  1.3078  1.3937
 8884SOL     OW38284   4.068   4.101   6.930  0.0643 -0.6172 -0.0920
 8884SOL    HW138285   4.106   4.068   6.850  0.3948 -0.8315  0.1549
 8884SOL    HW238286   3.995   4.039   6.932  0.1806 -0.7294  0.6665
 8885SOL     OW38287   0.445   1.436   8.121  0.0914  0.0941  0.0199
 8885SOL    HW138288   0.406   1.350   8.111  0.4160 -0.0782  0.2439
 8885SOL    HW238289   0.392   1.492   8.064  1.6735 -0.3384 -1.8752
 8886SOL     OW38290   0.869   4.176   9.026 -0.5393  0.7060  0.0832
 8886SOL    HW138291   0.890   4.266   9.054  0.1532  0.6396 -0.2227
 8886SOL    HW238292   0.817   4.196   8.949  1.7968  1.8814 -1.2089
 8887SOL     OW38293   2.599   1.584   6.992 -0.0989 -0.3448  0.1072
 8887SOL    HW138294   2.530   1.573   7.058 -0.7551  0.1516 -0.5006
 8887SOL    HW238295   2.653   1.658   7.018  1.1473 -1.6855  1.4058
 8888SOL     OW38296   1.605   0.855   9.589  1.0710 -0.1940 -0.0560
 8888SOL    HW138297   1.544   0.886   9.656  0.2647 -0.5350 -0.6325
 8888SOL    HW238298   1.619   0.938   9.543 -0.2079 -0.1671 -0.3999
 8889SOL     OW38299   3.066   0.405   7.694 -0.4051 -0.2483 -0.3641
 8889SOL    HW138300   3.032   0.470   7.755  1.2466 -1.0402  1.3949
 8889SOL    HW238301   3.148   0.380   7.736 -1.0337 -1.1966  0.2764
 8890SOL     OW38302   3.421   1.189   8.073  0.1211  0.7912 -0.1189
 8890SOL    HW138303   3.462   1.164   8.156  0.6564  0.0671 -0.6002
 8890SOL    HW238304   3.356   1.253   8.101 -2.8441 -0.9842 -3.0110
 8891SOL     OW38305   4.070   1.576   6.524  0.2335  0.0918 -0.0091
 8891SOL    HW138306   4.142   1.596   6.463  0.2115 -0.4842 -0.2262
 8891SOL    HW238307   4.049   1.666   6.548  1.9287  0.2862  0.7476
 8892SOL     OW38308   3.553   2.188  16.073 -0.8459  0.0016 -0.2571
 8892SOL    HW138309   3.632   2.242  16.071 -0.6912 -0.1687  1.2870
 8892SOL    HW238310   3.536   2.173  15.980  0.9507 -0.2301 -0.5434
 8893SOL     OW38311   2.806   2.117   1.271 -0.2678  0.5935  0.0023
 8893SOL    HW138312   2.725   2.100   1.319  0.8614 -1.9879  0.9892
 8893SOL    HW238313   2.875   2.072   1.320 -0.5455  1.4406  1.1749
 8894SOL     OW38314   3.513   1.213   2.129 -0.3298  0.2639  0.3175
 8894SOL    HW138315   3.424   1.216   2.095 -0.4284  0.0459  0.5592
 8894SOL    HW238316   3.562   1.211   2.047 -0.8000 -0.7280  0.0598
 8895SOL     OW38317   1.900   3.875   0.425 -0.2633  0.0927  0.1298
 8895SOL    HW138318   1.981   3.840   0.389  0.7107  0.9802  1.4524
 8895SOL    HW238319   1.915   3.970   0.422 -1.2857  0.2058 -1.1880
 8896SOL     OW38320   2.000   3.959   1.547 -0.2651 -0.3775  0.5528
 8896SOL    HW138321   2.021   3.932   1.458 -0.4526  1.5391 -0.0646
 8896SOL    HW238322   1.965   3.876   1.581 -2.8383 -0.5363 -2.5085
 8897SOL     OW38323   2.249   2.613   4.922 -0.5816  0.9905 -0.1343
 8897SOL    HW138324   2.250   2.672   4.998  2.4189  0.2671  0.3666
 8897SOL    HW238325   2.215   2.530   4.958  0.5444 -0.4871 -2.4994
 8898SOL     OW38326   0.702   0.496   1.927 -0.1591 -0.1712  0.3655
 8898SOL    HW138327   0.634   0.494   1.995 -1.8728  0.4655 -1.3086
 8898SOL    HW238328   0.703   0.403   1.905  0.5360 -0.4005  1.3633
 8899SOL     OW38329   0.007   0.476   5.784 -0.6377  0.0138 -0.8368
 8899SOL    HW138330   4.730   0.569   5.797  0.5012  0.1864 -0.7283
 8899SOL    HW238331   4.670   0.435   5.827  1.1022 -0.4783  1.7577
 8900SOL     OW38332   4.468   1.715  13.486  0.1434  0.3541  0.0183
 8900SOL    HW138333   4.494   1.789  13.542  0.0362 -0.2053  0.8036
 8900SOL    HW238334   4.551   1.693  13.443 -0.6646  2.7266 -2.7576
 8901SOL     OW38335   3.515   0.428   4.014  0.1593  0.0517 -0.0956
 8901SOL    HW138336   3.432   0.410   4.059  0.9753 -1.4559  0.8132
 8901SOL    HW238337   3.561   0.346   4.031  1.1376  0.8521  1.0692
 8902SOL     OW38338   1.272   1.021   4.263  0.7718 -0.7338 -0.3350
 8902SOL    HW138339   1.232   1.014   4.349 -0.5707 -0.8380 -0.9713
 8902SOL    HW238340   1.254   0.937   4.220  2.0844 -1.4651  0.5503
 8903SOL     OW38341   2.972   2.092   1.679 -0.5761 -0.4370 -0.3486
 8903SOL    HW138342   3.040   2.039   1.638 -0.0336  0.3647 -0.4962
 8903SOL    HW238343   3.003   2.182   1.685  0.2393 -0.6295 -1.7888
 8904SOL     OW38344   1.738   2.922   4.416 -0.9642  0.2674  0.1525
 8904SOL    HW138345   1.747   2.979   4.492  0.0834 -1.2007  1.1242
 8904SOL    HW238346   1.644   2.906   4.417 -0.5409 -2.2332  0.6696
 8905SOL     OW38347   0.105   3.088   7.918 -0.1356 -0.8161  0.1375
 8905SOL    HW138348   0.076   3.068   8.006 -0.3991 -0.9738  0.0151
 8905SOL    HW238349   0.108   3.183   7.923 -1.6309 -0.8473  1.3928
 8906SOL     OW38350   1.971   3.483  11.518  0.0226 -0.1228 -0.1580
 8906SOL    HW138351   1.999   3.402  11.475  0.9141  0.7096 -1.1447
 8906SOL    HW238352   1.908   3.526  11.459  1.2993  0.3353 -1.1824
 8907SOL     OW38353   1.801   1.207   5.907  0.1148 -0.4202 -0.3928
 8907SOL    HW138354   1.892   1.228   5.928  0.2716 -1.9909  0.5253
 8907SOL    HW238355   1.765   1.294   5.891  0.5424  0.0170  1.0268
 8908SOL     OW38356   4.430   3.788  15.843 -0.5355 -0.5367 -0.1581
 8908SOL    HW138357   4.335   3.779  15.845 -0.5111 -0.6266  0.6426
 8908SOL    HW238358   4.446   3.792  15.749  4.3209 -0.5592  0.6729
 8909SOL     OW38359   1.280   0.821   7.727 -0.1427 -0.8361  0.3570
 8909SOL    HW138360   1.269   0.895   7.787 -0.5432 -1.8244  1.5194
 8909SOL    HW238361   1.323   0.753   7.779 -1.6039 -0.4955  2.0253
 8910SOL     OW38362   4.410   4.023   4.807 -0.2685  0.2446 -0.3492
 8910SOL    HW138363   4.334   3.964   4.806 -1.6999  2.0907 -0.6516
 8910SOL    HW238364   4.432   4.027   4.713  1.4336 -0.9568 -0.0061
 8911SOL     OW38365   2.038   2.965   1.166 -0.6709 -0.2429  0.8406
 8911SOL    HW138366   2.063   2.947   1.075 -0.5633  1.4334  0.5541
 8911SOL    HW238367   2.051   2.880   1.209  2.7937 -0.2252 -0.2066
 8912SOL     OW38368   1.230   4.482   4.223 -0.3782  0.1221 -0.4769
 8912SOL    HW138369   1.151   4.469   4.275 -0.6483 -0.6210 -1.0851
 8912SOL    HW238370   1.295   4.500   4.292 -0.1284  1.3914 -1.0342
 8913SOL     OW38371   1.266   0.161   9.455  0.4874  0.2694  0.0166
 8913SOL    HW138372   1.331   0.231   9.443  2.1618 -1.2678  0.0822
 8913SOL    HW238373   1.256   0.168   9.550 -4.3624 -1.4343 -0.3645
 8914SOL     OW38374   4.704   3.042   2.196  0.0091 -0.1870 -0.6838
 8914SOL    HW138375   4.612   3.056   2.217  0.8680  0.1306  2.8368
 8914SOL    HW238376   4.718   3.130   2.159  0.8250 -0.6163 -1.3936
 8915SOL     OW38377   3.010   4.071   2.273  0.0027 -0.2665 -0.3984
 8915SOL    HW138378   2.945   4.097   2.207 -2.4987  1.6846  2.8082
 8915SOL    HW238379   3.083   4.126   2.246 -0.8195 -0.0189 -2.0914
 8916SOL     OW38380   1.027   2.546   5.038 -0.1924 -0.2104 -0.4296
 8916SOL    HW138381   0.991   2.536   4.949  0.9121 -3.4580 -0.5232
 8916SOL    HW238382   0.942   2.539   5.081  0.5018  0.0256  0.9491
 8917SOL     OW38383   2.476   2.158   7.144  0.6482  0.8315 -0.0906
 8917SOL    HW138384   2.398   2.189   7.098  1.1724  0.8707 -0.9507
 8917SOL    HW238385   2.483   2.239   7.194 -0.4832  0.6357  0.3720
 8918SOL     OW38386   0.235   4.033   1.896  0.8527  0.1799 -0.3828
 8918SOL    HW138387   0.211   4.013   1.987  0.6835  0.9577 -0.2510
 8918SOL    HW238388   0.208   3.948   1.862  1.3043 -1.2457  2.8238
 8919SOL     OW38389   1.253   1.360   6.939 -0.5113  0.1820  0.0080
 8919SOL    HW138390   1.235   1.323   7.026 -0.2151 -1.0281 -0.4532
 8919SOL    HW238391   1.282   1.447   6.968  2.6993 -0.9719  0.2055
 8920SOL     OW38392   1.897   2.606   9.102  0.1025 -0.4380 -0.2706
 8920SOL    HW138393   1.892   2.689   9.149 -1.1403 -0.7314  0.1173
 8920SOL    HW238394   1.851   2.622   9.019  0.2638  0.7070 -0.1350
 8921SOL     OW38395   0.971   2.533   4.774  0.1328 -0.2417  0.5980
 8921SOL    HW138396   0.911   2.606   4.760 -1.8788 -1.9548  0.1242
 8921SOL    HW238397   1.038   2.569   4.716 -1.3945  0.5516 -0.7020
 8922SOL     OW38398   3.974   0.609  14.726  0.0380 -0.8839 -0.3660
 8922SOL    HW138399   3.896   0.662  14.744  2.3392  1.7514  1.9162
 8922SOL    HW238400   4.007   0.652  14.648  1.0210 -0.2516  0.3904
 8923SOL     OW38401   2.306   4.143   4.156 -0.4163 -0.0815  0.3720
 8923SOL    HW138402   2.299   4.184   4.069 -1.7342 -0.4989  0.2793
 8923SOL    HW238403   2.265   4.206   4.215  0.0755 -0.4456  1.0988
 8924SOL     OW38404   4.296   2.051   3.356 -0.8643  0.1684 -0.2478
 8924SOL    HW138405   4.286   2.095   3.440 -1.1659 -1.7472  0.7185
 8924SOL    HW238406   4.391   2.043   3.349 -1.0758 -0.1736 -2.7982
 8925SOL     OW38407   0.702   1.790   7.923 -0.4032  0.0993  0.7802
 8925SOL    HW138408   0.671   1.871   7.965  1.3533  0.0085  2.2798
 8925SOL    HW238409   0.795   1.776   7.939 -0.3842 -0.7991 -0.1245
 8926SOL     OW38410   0.134   3.233   5.141 -0.2822 -0.3543 -0.5608
 8926SOL    HW138411   0.071   3.291   5.183  1.4057  0.9365  0.1733
 8926SOL    HW238412   0.166   3.175   5.210 -0.5651 -3.0836 -2.7287
 8927SOL     OW38413   0.180   0.098   5.013 -0.2361 -0.6054 -0.2011
 8927SOL    HW138414   0.245   0.054   4.958  0.0765  1.4298 -1.4789
 8927SOL    HW238415   0.104   0.042   4.995 -1.2288  0.6450  0.1294
 8928SOL     OW38416   3.740   3.014   3.755 -0.6536 -0.0539  0.0429
 8928SOL    HW138417   3.822   3.044   3.717 -0.6305  0.5010  0.5520
 8928SOL    HW238418   3.707   3.088   3.806 -0.9691 -0.1076 -0.0803
 8929SOL     OW38419   1.240   3.328   8.930 -0.2881 -0.6305  0.2181
 8929SOL    HW138420   1.324   3.373   8.920 -0.5552 -0.1066  0.3319
 8929SOL    HW238421   1.246   3.291   9.018 -0.2949 -1.4671 -0.1388
 8930SOL     OW38422   3.191   1.253   4.153 -1.1436  0.1433  0.1612
 8930SOL    HW138423   3.202   1.345   4.176 -0.9752 -0.0729  0.9203
 8930SOL    HW238424   3.145   1.216   4.228 -0.8794  0.6187  0.5557
 8931SOL     OW38425   1.827   3.861   3.064 -0.8946  0.7735  0.0368
 8931SOL    HW138426   1.914   3.844   3.028 -1.7906 -2.0483 -0.8241
 8931SOL    HW238427   1.820   3.793   3.131 -1.2913  2.1377  1.3740
 8932SOL     OW38428   0.393   0.540   5.361  0.3041 -0.2730  0.6809
 8932SOL    HW138429   0.371   0.484   5.287 -1.1064 -2.9072  3.1218
 8932SOL    HW238430   0.484   0.565   5.345 -0.2212  1.3402  0.1523
 8933SOL     OW38431   4.683   0.762  12.066 -0.3962 -1.2422 -0.6031
 8933SOL    HW138432   4.708   0.755  12.158 -0.2579  1.9997 -0.3793
 8933SOL    HW238433   4.621   0.835  12.062  0.7182 -0.1113  2.7019
 8934SOL     OW38434   0.613   0.951  12.835 -0.2206  0.0702  1.0442
 8934SOL    HW138435   0.555   0.983  12.904 -0.1568  1.1208  0.6147
 8934SOL    HW238436   0.628   0.865  12.873 -2.2848  0.5374  2.9378
 8935SOL     OW38437   1.615   2.065   5.724 -0.2830 -0.3551 -0.4121
 8935SOL    HW138438   1.557   2.140   5.711 -2.8792 -2.0012  1.5119
 8935SOL    HW238439   1.670   2.063   5.646  1.5520 -2.6045  0.9362
 8936SOL     OW38440   4.375   0.606   4.048 -0.4357 -0.1707  0.0352
 8936SOL    HW138441   4.385   0.657   3.967  2.4795  0.4731  0.7737
 8936SOL    HW238442   4.335   0.680   4.094  2.0661  1.7087 -0.8022
 8937SOL     OW38443   2.282   0.788   1.981  0.9392 -0.4406 -0.2937
 8937SOL    HW138444   2.352   0.853   1.974 -0.3332  0.8933 -0.7483
 8937SOL    HW238445   2.279   0.737   1.901  0.4539 -1.6048  0.4720
 8938SOL     OW38446   0.631   3.668   5.866  0.3587  0.4338 -0.1049
 8938SOL    HW138447   0.684   3.591   5.880 -1.8649 -0.9738  0.5946
 8938SOL    HW238448   0.585   3.661   5.950  1.3635 -2.2735  0.2141
 8939SOL     OW38449   3.191   4.567  16.943  0.6658  0.0789 -0.0984
 8939SOL    HW138450   3.121   4.621  16.979  0.2945 -0.8050  0.5184
 8939SOL    HW238451   3.165   4.541  16.855  0.2879  0.9877 -0.2528
 8940SOL     OW38452   2.492   0.822  15.818 -0.0088  0.3007 -0.4324
 8940SOL    HW138453   2.487   0.861  15.731 -0.8958 -2.0115 -1.4032
 8940SOL    HW238454   2.497   0.901  15.872 -0.0952 -1.0274  1.4861
 8941SOL     OW38455   1.945   2.468   0.804  0.6762  0.9154  0.0474
 8941SOL    HW138456   1.850   2.455   0.795  1.0216 -1.5623 -0.0763
 8941SOL    HW238457   1.939   2.559   0.777  1.0386  2.0021  3.6487
 8942SOL     OW38458   2.447   2.611   1.237  0.1050  0.7349 -0.4589
 8942SOL    HW138459   2.458   2.702   1.264 -0.0695  1.5724 -3.1729
 8942SOL    HW238460   2.457   2.566   1.321 -1.1202  1.6023  0.1426
 8943SOL     OW38461   2.719   3.724   8.298  0.4678  0.1760 -0.2452
 8943SOL    HW138462   2.796   3.698   8.246 -0.1411 -0.5453 -0.7798
 8943SOL    HW238463   2.650   3.665   8.270 -0.9468  2.0230 -0.6368
 8944SOL     OW38464   0.461   4.081   8.364  0.3989  0.2665  0.2719
 8944SOL    HW138465   0.530   4.139   8.330 -0.3882  1.1250  0.1312
 8944SOL    HW238466   0.511   4.031   8.428 -1.0658  0.3021  1.4567
 8945SOL     OW38467   0.623   0.243  14.476 -0.3172 -0.4917  0.3403
 8945SOL    HW138468   0.717   0.246  14.493 -0.2791  0.0669  0.0433
 8945SOL    HW238469   0.622   0.240  14.380  0.8035 -0.8276  0.3424
 8946SOL     OW38470   2.868   2.828   7.179  0.2339 -0.1192  0.4057
 8946SOL    HW138471   2.900   2.912   7.144 -0.0489 -0.8651 -1.6126
 8946SOL    HW238472   2.838   2.862   7.264  1.2302  1.0837  0.2743
 8947SOL     OW38473   3.556   0.965   2.795 -0.5724 -0.0087  0.7651
 8947SOL    HW138474   3.565   1.055   2.825  0.2887 -0.7707  2.7530
 8947SOL    HW238475   3.486   0.931   2.851 -0.1376 -2.8482 -0.4210
 8948SOL     OW38476   1.729   2.729   0.910 -0.4794  0.1084  0.1706
 8948SOL    HW138477   1.634   2.725   0.924 -0.4364  1.1779  0.7639
 8948SOL    HW238478   1.722   2.759   0.820 -3.9631 -3.3604 -0.7473
 8949SOL     OW38479   1.162   2.542   6.049  0.4191 -0.4388  0.5565
 8949SOL    HW138480   1.174   2.460   6.003  0.3468 -0.2650  0.2247
 8949SOL    HW238481   1.234   2.560   6.110 -0.2369 -0.1608  1.2546
 8950SOL     OW38482   4.235   1.838   2.428 -0.2192 -0.2201 -0.3404
 8950SOL    HW138483   4.158   1.786   2.451  0.7590 -1.6725 -0.3270
 8950SOL    HW238484   4.205   1.927   2.444  0.2489  0.0347 -0.8898
 8951SOL     OW38485   4.299   0.584   9.161  0.1240  0.6991 -0.5282
 8951SOL    HW138486   4.296   0.633   9.079  0.1890 -1.1993 -1.6770
 8951SOL    HW238487   4.378   0.533   9.142 -1.6246 -2.8187  1.5072
 8952SOL     OW38488   1.175   3.653   7.415 -0.4279 -0.1632  0.1191
 8952SOL    HW138489   1.157   3.747   7.420 -0.0532  0.0936 -2.9637
 8952SOL    HW238490   1.115   3.648   7.340 -1.2884  2.2399  0.6476
 8953SOL     OW38491   0.372   0.179   7.589  0.3180 -0.3160  0.1615
 8953SOL    HW138492   0.320   0.167   7.510 -1.2175 -4.1032  1.7282
 8953SOL    HW238493   0.306   0.172   7.658 -0.2251  0.6017 -0.2678
 8954SOL     OW38494   2.995   2.493   3.335 -0.6507  0.0333 -0.2087
 8954SOL    HW138495   3.068   2.478   3.395 -1.3341  1.5501  0.9800
 8954SOL    HW238496   3.017   2.437   3.259 -0.5146  1.8959 -1.5411
 8955SOL     OW38497   4.292   3.494   5.307 -0.4259  0.1524 -0.4037
 8955SOL    HW138498   4.249   3.420   5.265  0.3379  0.3964 -1.6063
 8955SOL    HW238499   4.323   3.446   5.384  0.5251  1.4874  0.0515
 8956SOL     OW38500   1.861   2.407   9.279  0.0457 -0.3164  0.1480
 8956SOL    HW138501   1.925   2.388   9.211  1.6428 -0.5210  1.6927
 8956SOL    HW238502   1.815   2.475   9.229 -1.8020 -1.2132  0.6195
 8957SOL     OW38503   2.055   1.699   4.062  0.1133 -0.1608  0.1229
 8957SOL    HW138504   2.117   1.634   4.097  1.0271 -0.8342 -2.7442
 8957SOL    HW238505   2.027   1.649   3.985 -1.9408  1.3283 -0.1038
 8958SOL     OW38506   1.667   3.165   6.243  0.5563 -0.8657  0.3950
 8958SOL    HW138507   1.581   3.146   6.205  0.6738  1.2984 -0.9466
 8958SOL    HW238508   1.660   3.260   6.254  1.1331 -0.5181 -2.3465
 8959SOL     OW38509   3.358   4.032   6.941 -0.2873 -0.2310 -0.0005
 8959SOL    HW138510   3.346   4.009   7.033 -0.8048 -0.5234 -0.1383
 8959SOL    HW238511   3.350   4.127   6.933  0.1463 -0.1217  0.9289
 8960SOL     OW38512   4.470   1.806   1.096  0.0755  0.1134 -0.0855
 8960SOL    HW138513   4.427   1.785   1.179 -1.1169 -2.4627 -1.3169
 8960SOL    HW238514   4.463   1.719   1.057  1.9340  0.0403 -0.2127
 8961SOL     OW38515   4.255   2.897   3.435  0.0673  0.0457 -0.3040
 8961SOL    HW138516   4.189   2.960   3.463 -1.6090 -1.8325  0.0087
 8961SOL    HW238517   4.340   2.938   3.449 -0.2440 -0.0826  1.9695
 8962SOL     OW38518   0.407   1.144   6.120 -0.5787 -0.6912 -0.1604
 8962SOL    HW138519   0.365   1.230   6.111  1.5244  0.1638 -2.0023
 8962SOL    HW238520   0.389   1.110   6.033 -1.0226  1.4631 -0.9232
 8963SOL     OW38521   0.071   3.186   6.664  0.1500 -0.3344 -0.4459
 8963SOL    HW138522   0.093   3.205   6.755  0.3971  1.0637 -0.8033
 8963SOL    HW238523   4.715   3.181   6.679  0.4766  2.5303  2.4895
 8964SOL     OW38524   2.071   3.962   1.277  0.2739  0.6607  0.3160
 8964SOL    HW138525   2.082   3.868   1.268 -0.2807  0.6333 -0.0989
 8964SOL    HW238526   2.072   3.989   1.185 -0.0059  1.2595  0.4863
 8965SOL     OW38527   1.499   2.877  11.065 -0.1152  0.0156 -0.5108
 8965SOL    HW138528   1.544   2.947  11.018  1.8728 -0.1103  1.1858
 8965SOL    HW238529   1.476   2.916  11.149 -0.8181  1.1151 -1.2256
 8966SOL     OW38530   2.688   0.488   3.336 -0.3874  0.0162 -0.5583
 8966SOL    HW138531   2.627   0.414   3.332  1.8601 -1.8452 -0.1308
 8966SOL    HW238532   2.740   0.449   3.406 -0.9739 -1.0485 -0.7098
 8967SOL     OW38533   3.222   2.654   5.046 -0.1040 -0.5708 -0.0659
 8967SOL    HW138534   3.265   2.638   5.130  1.4151  0.9711 -0.5534
 8967SOL    HW238535   3.293   2.662   4.982  0.1635  0.6901  0.3992
 8968SOL     OW38536   2.623   3.988   9.063  0.0387  0.3876  0.3320
 8968SOL    HW138537   2.659   3.937   8.991 -1.1307 -0.0398  0.0489
 8968SOL    HW238538   2.571   4.047   9.008 -0.7420 -0.7927 -0.2180
 8969SOL     OW38539   2.481   3.491  15.787  0.2317 -0.0017  0.3876
 8969SOL    HW138540   2.461   3.524  15.874  0.8937 -1.7762  1.2118
 8969SOL    HW238541   2.389   3.475  15.765  1.2756 -3.7435 -1.3618
 8970SOL     OW38542   3.768   0.953   4.913 -0.3435  0.2157 -0.8199
 8970SOL    HW138543   3.763   1.032   4.859  3.0843  0.2478 -1.1120
 8970SOL    HW238544   3.831   0.979   4.980 -1.2456 -2.5577  1.1062
 8971SOL     OW38545   0.251   0.272   8.294  0.6944 -0.2659  0.1121
 8971SOL    HW138546   0.269   0.191   8.245 -0.0316  1.0146 -2.2662
 8971SOL    HW238547   0.307   0.331   8.244 -2.3976  1.5858 -1.1499
 8972SOL     OW38548   3.859   0.822   8.132 -0.0678 -0.0787  0.1208
 8972SOL    HW138549   3.767   0.846   8.119  0.4676  2.2569  0.5413
 8972SOL    HW238550   3.854   0.735   8.172 -0.2491 -0.4429 -0.6915
 8973SOL     OW38551   1.333   2.630   7.585 -0.4040 -0.1666  0.2942
 8973SOL    HW138552   1.293   2.681   7.515  1.2564 -0.5446 -0.9296
 8973SOL    HW238553   1.292   2.680   7.656  1.9839  2.1034  0.0893
 8974SOL     OW38554   3.735   1.676   8.557  0.2268  0.1642  0.0450
 8974SOL    HW138555   3.654   1.628   8.540  0.3351  0.2832 -0.8046
 8974SOL    HW238556   3.754   1.662   8.649 -1.4051 -0.9104  0.2266
 8975SOL     OW38557   0.221   0.508   8.500  0.1432 -0.0040 -0.3859
 8975SOL    HW138558   0.264   0.522   8.585 -2.3144  1.7753  0.5628
 8975SOL    HW238559   0.171   0.428   8.519  0.5570 -0.2730 -0.4293
 8976SOL     OW38560   2.207   1.846   3.542  0.4798  0.4097  0.2888
 8976SOL    HW138561   2.231   1.930   3.504 -0.5152  0.4657 -0.2221
 8976SOL    HW238562   2.181   1.783   3.474 -0.1630 -0.4650  1.3372
 8977SOL     OW38563   3.977   0.579   4.942 -0.2364 -0.0996  0.1100
 8977SOL    HW138564   3.899   0.594   4.996  0.1466 -0.7884  0.8476
 8977SOL    HW238565   4.037   0.525   4.994  0.9667 -0.7430 -1.9430
 8978SOL     OW38566   0.295   3.344   3.821  0.0266  0.7017 -0.1688
 8978SOL    HW138567   0.365   3.345   3.887  0.0589  0.5407 -0.1994
 8978SOL    HW238568   0.302   3.433   3.789  2.6103 -0.0147 -1.6012
 8979SOL     OW38569   0.243   0.545   8.779 -0.7049  0.5089  0.7760
 8979SOL    HW138570   0.234   0.459   8.819 -1.6305 -0.6333 -1.9454
 8979SOL    HW238571   0.156   0.578   8.802  0.0054  4.1934 -1.8301
 8980SOL     OW38572   0.851   4.272   1.087 -0.0106  0.3852 -0.0059
 8980SOL    HW138573   0.943   4.271   1.062  0.2016 -1.1727  0.8466
 8980SOL    HW238574   0.856   4.292   1.180  2.7505 -1.6351  0.2517
 8981SOL     OW38575   2.210   1.970   2.458  0.2453 -0.2207 -0.0685
 8981SOL    HW138576   2.125   1.947   2.493  0.7756  0.3799  1.5938
 8981SOL    HW238577   2.227   2.047   2.512 -0.5575  0.9619 -1.5083
 8982SOL     OW38578   1.509   4.283   2.775 -0.0552 -0.5481  0.2465
 8982SOL    HW138579   1.464   4.339   2.839  1.2270  2.0284 -1.0816
 8982SOL    HW238580   1.450   4.297   2.701 -0.0955  1.2778  0.6164
 8983SOL     OW38581   3.006   3.617   4.846 -0.2465  0.5054 -0.0224
 8983SOL    HW138582   3.021   3.664   4.764  2.2086 -0.2994 -0.0320
 8983SOL    HW238583   3.092   3.616   4.887  0.0388  2.0569 -0.5725
 8984SOL     OW38584   2.603   4.499   5.217 -0.0881  0.0400 -0.5670
 8984SOL    HW138585   2.638   4.483   5.305 -1.7388 -3.3985 -0.5120
 8984SOL    HW238586   2.671   4.457   5.164 -0.7012 -0.7111 -0.7645
 8985SOL     OW38587   2.514   1.314  14.780  0.1589  0.3984  0.3263
 8985SOL    HW138588   2.603   1.325  14.747  0.0666  2.4009  0.7209
 8985SOL    HW238589   2.463   1.312  14.699  0.0158  2.5226  0.3504
 8986SOL     OW38590   1.902   0.174  10.210  0.0117  0.4481 -0.4120
 8986SOL    HW138591   1.880   0.153  10.119  1.6502  0.1254 -0.7276
 8986SOL    HW238592   1.989   0.136  10.222 -0.1521  0.2099  0.0287
 8987SOL     OW38593   0.601   1.059   1.902  0.2851  0.7058 -0.0582
 8987SOL    HW138594   0.683   1.099   1.873  0.0549  0.4922 -1.0111
 8987SOL    HW238595   0.617   1.031   1.992  0.2521 -0.9801 -0.5762
 8988SOL     OW38596   0.523   4.204  10.709  0.1317  0.4332 -0.0388
 8988SOL    HW138597   0.595   4.248  10.754 -0.4537  1.5871 -0.2229
 8988SOL    HW238598   0.568   4.137  10.658 -0.3120  0.4355 -0.4382
 8989SOL     OW38599   3.799   0.670   2.109 -0.0728 -0.3206  0.3089
 8989SOL    HW138600   3.741   0.745   2.125  1.2974  0.9851 -0.8518
 8989SOL    HW238601   3.883   0.705   2.138  0.3004 -1.2317  0.3149
 8990SOL     OW38602   2.347   2.910   1.756  0.5204 -0.3433  0.0511
 8990SOL    HW138603   2.421   2.956   1.716  0.0108 -1.1967 -1.9014
 8990SOL    HW238604   2.359   2.926   1.850  2.9666 -0.9366 -0.1537
 8991SOL     OW38605   3.084   1.561   8.202  0.0400 -0.1132 -0.4711
 8991SOL    HW138606   2.989   1.560   8.198  0.0727  3.0472 -2.3792
 8991SOL    HW238607   3.095   1.583   8.109  1.2466  2.0748  0.1646
 8992SOL     OW38608   3.411   4.353  13.465  0.6312 -0.1290  0.0871
 8992SOL    HW138609   3.475   4.305  13.518  1.0680  1.3913  0.9422
 8992SOL    HW238610   3.418   4.446  13.487 -0.1281 -0.5920  2.2290
 8993SOL     OW38611   2.445   2.159   9.154 -0.0164  0.3239 -0.5672
 8993SOL    HW138612   2.358   2.137   9.188  0.3859 -0.1270  0.1827
 8993SOL    HW238613   2.438   2.254   9.162  0.4475  0.3137  0.0442
 8994SOL     OW38614   0.639   3.112   8.071  1.1328  0.7335 -0.2298
 8994SOL    HW138615   0.704   3.045   8.090  0.9233  1.0959  1.7734
 8994SOL    HW238616   0.689   3.182   8.029  0.8863  1.9315  1.4782
 8995SOL     OW38617   0.177   3.171   1.245  0.2933  0.9478 -0.1586
 8995SOL    HW138618   0.267   3.204   1.243  1.0472 -1.0873  0.2446
 8995SOL    HW238619   0.165   3.127   1.161  3.9444 -0.2502 -0.0199
 8996SOL     OW38620   1.478   0.383   7.229  0.2138 -1.2255  0.1125
 8996SOL    HW138621   1.557   0.435   7.247  0.3961 -0.8030 -1.8352
 8996SOL    HW238622   1.467   0.405   7.136  0.0476  0.5033  0.5444
 8997SOL     OW38623   3.029   2.291   6.168 -0.0759 -0.1452 -0.4246
 8997SOL    HW138624   3.074   2.238   6.102 -0.6389 -0.9772 -0.1367
 8997SOL    HW238625   2.994   2.220   6.222  0.6456  0.5875  0.9850
 8998SOL     OW38626   4.410   3.358   1.885 -0.1293  0.2317  0.0085
 8998SOL    HW138627   4.325   3.314   1.882  1.2843 -2.5081 -0.0848
 8998SOL    HW238628   4.435   3.353   1.793  0.1834 -0.7061  0.1468
 8999SOL     OW38629   3.730   4.230   1.682 -0.5545  0.2075 -0.5422
 8999SOL    HW138630   3.702   4.265   1.598  3.6966  0.6271 -1.7510
 8999SOL    HW238631   3.692   4.284   1.752 -0.7440 -2.0874  1.1779
 9000SOL     OW38632   0.057   4.247   6.815  0.3380 -0.5158 -0.1586
 9000SOL    HW138633   0.093   4.212   6.897  1.5476 -0.4169 -0.6404
 9000SOL    HW238634   0.090   4.183   6.752 -1.0130 -0.1225 -1.2579
 9001SOL     OW38635   4.631   1.548   4.908  0.1920  0.0618  0.0070
 9001SOL    HW138636   4.706   1.523   4.963  1.0678  1.1221 -0.7336
 9001SOL    HW238637   4.559   1.498   4.948  0.3178 -1.4153 -1.6411
 9002SOL     OW38638   4.678   2.489  11.398 -0.1310 -0.3083  0.1939
 9002SOL    HW138639   4.728   2.533  11.330 -1.1184 -1.5640 -1.3675
 9002SOL    HW238640   0.014   2.466  11.454 -0.4423 -0.8016  0.4070
 9003SOL     OW38641   1.087   3.550  13.818  0.0686  0.1247  0.5089
 9003SOL    HW138642   1.123   3.499  13.746  4.4959  0.4651  2.4687
 9003SOL    HW238643   1.155   3.613  13.843  0.8050 -0.8734  1.0009
 9004SOL     OW38644   3.755   0.411   3.389  0.3157 -0.2302 -0.3606
 9004SOL    HW138645   3.766   0.335   3.446 -1.3992  0.9227  1.4894
 9004SOL    HW238646   3.840   0.455   3.396 -0.3778  0.7054  2.3589
 9005SOL     OW38647   0.265   3.840   3.636  0.0373 -0.5630 -0.2985
 9005SOL    HW138648   0.250   3.807   3.547  3.8988 -0.7061 -0.9190
 9005SOL    HW238649   0.258   3.934   3.621  1.5756  0.1914  3.8558
 9006SOL     OW38650   4.495   4.731   4.392 -1.0302 -1.0046  0.7034
 9006SOL    HW138651   4.502   0.008   4.486  1.6039 -1.7704  0.6326
 9006SOL    HW238652   4.585   0.014   4.369 -1.6992  2.2836  1.2646
 9007SOL     OW38653   3.679   4.323   1.941 -0.3015 -0.3722 -0.2626
 9007SOL    HW138654   3.668   4.391   2.008 -0.4618 -2.8090  2.1882
 9007SOL    HW238655   3.661   4.251   2.002  0.4377  0.8583  1.3952
 9008SOL     OW38656   3.079   4.589   7.076  0.3489 -0.4089 -0.3369
 9008SOL    HW138657   3.072   4.661   7.138 -1.0229  0.0405 -1.0139
 9008SOL    HW238658   2.985   4.584   7.056 -0.1281 -0.0713  1.8350
 9009SOL     OW38659   3.984   2.559  15.229 -0.3801 -0.1275  0.0482
 9009SOL    HW138660   4.072   2.574  15.195 -0.4946  0.2426 -0.0761
 9009SOL    HW238661   3.998   2.501  15.304  1.8055 -0.2678 -0.4842
 9010SOL     OW38662   1.392   1.209   3.557  0.2837  0.4082 -0.1915
 9010SOL    HW138663   1.306   1.206   3.515  0.2993 -4.1044  0.0431
 9010SOL    HW238664   1.456   1.245   3.495  0.1537  1.4634  0.2805
 9011SOL     OW38665   2.478   2.420  14.611  0.2517 -0.4173 -0.4330
 9011SOL    HW138666   2.496   2.326  14.612  2.1465 -0.0463 -0.1359
 9011SOL    HW238667   2.483   2.441  14.518  0.1852 -3.7359 -1.2011
 9012SOL     OW38668   0.505   3.309   3.138  0.0180  0.4278 -0.0822
 9012SOL    HW138669   0.429   3.353   3.101 -0.6058  0.4124  1.1754
 9012SOL    HW238670   0.542   3.270   3.059 -0.0194 -2.4516  1.2991
 9013SOL     OW38671   3.271   0.290   7.224  0.4800 -0.8208 -0.8312
 9013SOL    HW138672   3.216   0.301   7.302  1.5064  1.0621 -0.3523
 9013SOL    HW238673   3.343   0.351   7.243 -1.0901  1.2402 -1.4794
 9014SOL     OW38674   3.593   0.692   7.134 -0.0402 -0.4478  0.4388
 9014SOL    HW138675   3.669   0.732   7.090  0.2255 -0.5421  0.8180
 9014SOL    HW238676   3.589   0.755   7.205  0.2487 -0.1002  0.1507
 9015SOL     OW38677   4.097   0.523   9.344  0.0337  0.7132 -0.1684
 9015SOL    HW138678   4.121   0.431   9.346  0.9539  0.9748  1.0198
 9015SOL    HW238679   4.166   0.553   9.285 -0.6886 -0.0082 -1.3845
 9016SOL     OW38680   3.245   1.190  17.703  0.4097 -0.0277 -0.0782
 9016SOL    HW138681   3.255   1.228  17.615  0.6337 -0.7404 -0.3577
 9016SOL    HW238682   3.204   1.258   0.005 -0.2644 -0.0298 -0.5884
 9017SOL     OW38683   4.367   0.817   0.398 -0.3112 -0.4278 -0.4240
 9017SOL    HW138684   4.318   0.745   0.439 -0.7746 -0.8071 -1.6668
 9017SOL    HW238685   4.303   0.852   0.337 -1.8035 -1.2885  0.6440
 9018SOL     OW38686   1.332   0.780   2.947 -0.0672 -0.3900 -0.4126
 9018SOL    HW138687   1.260   0.742   2.896 -1.0295  0.9626 -0.0608
 9018SOL    HW238688   1.315   0.870   2.921  0.9280  0.0513  0.4352
 9019SOL     OW38689   3.061   4.147   5.419 -0.0163 -0.5096 -0.5564
 9019SOL    HW138690   3.021   4.230   5.444  0.7241  0.4500 -2.5010
 9019SOL    HW238691   3.137   4.145   5.476 -0.6338  0.7002  0.3025
 9020SOL     OW38692   0.561   0.489   0.810 -0.5550 -0.8304  0.0442
 9020SOL    HW138693   0.611   0.476   0.730 -1.4171 -1.4744 -0.4031
 9020SOL    HW238694   0.471   0.504   0.781  0.7112  1.8593 -2.4080
 9021SOL     OW38695   1.083   2.267   7.583 -0.3244 -0.7883  0.2159
 9021SOL    HW138696   1.117   2.309   7.504  0.3724 -0.3780  0.7342
 9021SOL    HW238697   1.154   2.295   7.641  0.8014  0.4176 -1.7191
 9022SOL     OW38698   2.941   1.154  13.704 -0.0816  0.4657 -0.1372
 9022SOL    HW138699   3.014   1.215  13.700  0.5723 -0.3028  0.0697
 9022SOL    HW238700   2.941   1.135  13.798  1.2393 -0.8520 -0.4008
 9023SOL     OW38701   1.836   3.434   9.378  0.1781 -0.0618  0.4748
 9023SOL    HW138702   1.896   3.491   9.426  2.7901  0.3931 -3.3096
 9023SOL    HW238703   1.798   3.376   9.445 -0.5915 -0.5177 -0.3546
 9024SOL     OW38704   3.595   4.169  13.520 -0.7583  0.3769 -0.3037
 9024SOL    HW138705   3.629   4.112  13.451 -1.4565 -0.3416 -0.0638
 9024SOL    HW238706   3.618   4.127  13.603  1.0772  1.9327 -0.0380
 9025SOL     OW38707   0.338   0.010   4.750 -0.2902 -0.4207 -0.4151
 9025SOL    HW138708   0.425   4.710   4.761  0.7925  1.2756 -3.1699
 9025SOL    HW238709   0.283   4.673   4.730  1.5488 -1.4992 -1.3584
 9026SOL     OW38710   1.159   1.483   3.020 -0.0916  0.4180 -0.1476
 9026SOL    HW138711   1.075   1.481   2.974  1.2385 -0.1675 -2.5294
 9026SOL    HW238712   1.141   1.550   3.086  2.4426 -0.7884  1.7640
 9027SOL     OW38713   2.522   0.624   7.971  0.8675  0.0955 -0.4847
 9027SOL    HW138714   2.484   0.659   7.890 -3.5047  0.6886  1.8309
 9027SOL    HW238715   2.535   0.705   8.021  2.2239  1.1143 -2.5000
 9028SOL     OW38716   3.443   0.623   7.449  0.2589  0.2867 -0.5911
 9028SOL    HW138717   3.446   0.549   7.389  1.3673 -1.1814  1.2593
 9028SOL    HW238718   3.360   0.665   7.426  1.1046  1.5222 -1.3954
 9029SOL     OW38719   1.000   4.632   7.227 -0.1396  0.0976 -0.7050
 9029SOL    HW138720   1.057   4.568   7.186  3.2430  2.1639  0.8147
 9029SOL    HW238721   1.000   4.696   7.156 -1.2550 -0.6192 -1.3577
 9030SOL     OW38722   1.199   0.440   6.809  0.4432  0.3186 -0.2466
 9030SOL    HW138723   1.141   0.418   6.736  1.4230 -0.6679 -0.7315
 9030SOL    HW238724   1.132   0.484   6.861  0.8074  0.0895  0.4137
 9031SOL     OW38725   1.178   0.587   4.480 -0.3004 -0.2660  0.2781
 9031SOL    HW138726   1.246   0.614   4.419 -0.8019 -0.1686 -0.2423
 9031SOL    HW238727   1.197   0.495   4.499  0.0677 -0.3864 -0.7168
 9032SOL     OW38728   4.668   1.843   2.090 -0.1746  0.0334  0.3629
 9032SOL    HW138729   4.637   1.833   2.180 -2.0345 -0.4488 -0.3287
 9032SOL    HW238730   4.716   1.926   2.085 -2.6810  1.3228 -2.3864
 9033SOL     OW38731   0.523   3.730   7.271 -0.2018  0.0631  0.1939
 9033SOL    HW138732   0.463   3.801   7.248  1.1947  0.6125 -1.7833
 9033SOL    HW238733   0.603   3.779   7.293  0.6752 -0.9772 -0.6988
 9034SOL     OW38734   1.975   4.115   4.244  0.1469 -0.0920 -0.7617
 9034SOL    HW138735   1.941   4.108   4.155 -0.9731 -0.5791 -0.2892
 9034SOL    HW238736   2.008   4.205   4.243 -2.5128  0.8433 -2.5909
 9035SOL     OW38737   0.028   1.890   5.875  0.1231  0.1815  0.0384
 9035SOL    HW138738   0.055   1.888   5.967  1.1200 -2.0415 -0.3065
 9035SOL    HW238739   0.061   1.804   5.848  0.7912 -0.2782  2.3114
 9036SOL     OW38740   2.070   1.868   9.067 -0.1686 -0.4517 -0.3395
 9036SOL    HW138741   2.063   1.926   8.991 -0.3625 -2.7521 -2.0769
 9036SOL    HW238742   2.121   1.925   9.125 -1.2207 -1.8441  1.9677
 9037SOL     OW38743   0.638   3.808   2.981  0.2076  0.0069 -0.1670
 9037SOL    HW138744   0.685   3.822   2.899 -0.2654  0.4233 -0.3676
 9037SOL    HW238745   0.680   3.727   3.011 -2.1617 -1.6295 -1.3044
 9038SOL     OW38746   2.713   2.124   8.450 -0.2679 -0.1717  0.3012
 9038SOL    HW138747   2.671   2.205   8.422 -0.2727 -0.0046  0.8088
 9038SOL    HW238748   2.695   2.071   8.372 -4.4418  2.5261 -0.5957
 9039SOL     OW38749   3.243   3.635   9.054  0.9163 -0.4341  0.2087
 9039SOL    HW138750   3.283   3.646   9.140  1.2005 -0.6468  0.1061
 9039SOL    HW238751   3.222   3.542   9.047 -0.6564 -0.0941  0.4398
 9040SOL     OW38752   3.768   2.349   3.558 -0.0315 -0.8775  0.6025
 9040SOL    HW138753   3.863   2.356   3.562 -0.1289 -0.7815  2.6222
 9040SOL    HW238754   3.735   2.421   3.612 -1.1906 -0.2091 -1.0044
 9041SOL     OW38755   2.082   0.492  11.646  0.4810 -0.3478 -0.1545
 9041SOL    HW138756   1.997   0.535  11.648  0.1788 -1.0871  3.0257
 9041SOL    HW238757   2.070   0.447  11.730 -1.4426  1.4644  0.5440
 9042SOL     OW38758   3.226   2.664   3.040 -1.0710  0.1536  0.0342
 9042SOL    HW138759   3.143   2.705   3.068 -0.9391 -0.1417  0.8492
 9042SOL    HW238760   3.283   2.677   3.116  0.2612 -1.4059 -0.7051
 9043SOL     OW38761   4.405   3.422  16.695 -0.5712  0.5771 -0.5202
 9043SOL    HW138762   4.380   3.498  16.644 -3.0937 -0.3281 -0.6187
 9043SOL    HW238763   4.409   3.458  16.784 -2.7616  2.2837 -1.1206
 9044SOL     OW38764   3.846   4.477   2.821 -0.1054  0.0996  0.4051
 9044SOL    HW138765   3.753   4.461   2.836 -1.0696  3.5248 -1.9475
 9044SOL    HW238766   3.876   4.512   2.904 -0.3115 -1.2928  1.0698
 9045SOL     OW38767   4.077   3.366   4.361  0.6449 -0.3691  0.4292
 9045SOL    HW138768   4.084   3.427   4.435 -1.8470  0.1895  0.1919
 9045SOL    HW238769   3.985   3.342   4.355  0.6683  0.1529 -1.6851
 9046SOL     OW38770   2.440   3.476   8.630  0.2578 -0.8126 -0.2601
 9046SOL    HW138771   2.533   3.462   8.610  0.3506 -1.3560  0.5329
 9046SOL    HW238772   2.425   3.457   8.723 -1.7794  1.4309 -0.1290
 9047SOL     OW38773   3.741   4.558   5.217  0.1977 -0.3483 -0.1613
 9047SOL    HW138774   3.725   4.520   5.303 -0.5019  0.7921  0.2190
 9047SOL    HW238775   3.762   4.648   5.245 -0.3610  0.0348 -0.9741
 9048SOL     OW38776   1.455   4.497  15.706 -0.1042 -0.1218 -0.0620
 9048SOL    HW138777   1.531   4.515  15.761  1.5231 -2.0403 -1.6706
 9048SOL    HW238778   1.459   4.402  15.696  2.2460  0.2033 -2.1916
 9049SOL     OW38779   4.483   4.254   3.490 -0.0560  0.2946 -0.2597
 9049SOL    HW138780   4.422   4.327   3.477 -1.6520 -0.8338  0.9842
 9049SOL    HW238781   4.538   4.271   3.413 -0.8091 -0.3424 -0.9373
 9050SOL     OW38782   1.294   0.823   1.549  0.3200 -0.1143 -0.5657
 9050SOL    HW138783   1.225   0.794   1.608  1.6414  2.3840  2.1919
 9050SOL    HW238784   1.347   0.743   1.548 -1.1010 -1.0952  3.4046
 9051SOL     OW38785   0.283   0.869  12.113 -0.1897 -0.0676 -0.1578
 9051SOL    HW138786   0.346   0.921  12.163 -0.8576 -0.4183  1.0295
 9051SOL    HW238787   0.209   0.859  12.172 -0.3229 -1.3760 -0.5487
 9052SOL     OW38788   3.140   4.401   5.536 -0.6250 -0.2041 -0.0630
 9052SOL    HW138789   3.146   4.496   5.540 -0.5956 -0.2618  1.0663
 9052SOL    HW238790   3.119   4.378   5.626  1.8281 -0.6786  0.3854
 9053SOL     OW38791   2.700   2.095   8.132  0.1562  0.0027  0.9636
 9053SOL    HW138792   2.674   2.151   8.060  1.3406  1.1180  1.4045
 9053SOL    HW238793   2.793   2.120   8.135  0.6590 -1.7571  0.2913
 9054SOL     OW38794   2.781   3.997  13.440  0.0775 -1.0255  0.0815
 9054SOL    HW138795   2.718   3.936  13.478 -0.8630 -0.1455 -0.0545
 9054SOL    HW238796   2.735   4.077  13.414  3.7572  0.6620 -1.2674
 9055SOL     OW38797   4.591   3.720   8.174  0.3009 -0.1775 -0.3680
 9055SOL    HW138798   4.543   3.748   8.096 -0.8985  0.7880  0.7013
 9055SOL    HW238799   4.683   3.720   8.147  0.6418 -0.8645  0.7686
 9056SOL     OW38800   4.211   1.884   2.161 -0.1166  0.3280  0.2981
 9056SOL    HW138801   4.222   1.969   2.118  1.3594 -0.5405 -1.0495
 9056SOL    HW238802   4.209   1.926   2.247  0.9549 -0.2056  0.5891
 9057SOL     OW38803   4.344   0.553   3.318  0.4957 -0.5639  0.5388
 9057SOL    HW138804   4.300   0.557   3.234  0.6898 -0.8927  0.4194
 9057SOL    HW238805   4.410   0.620   3.303 -1.0671  0.0996 -3.2995
 9058SOL     OW38806   1.068   1.800   0.105 -0.1793  0.7412 -0.3287
 9058SOL    HW138807   0.978   1.768   0.104 -0.5122  1.6849 -0.7098
 9058SOL    HW238808   1.113   1.734   0.158 -1.1726 -0.0459 -0.4706
 9059SOL     OW38809   2.838   2.408   9.234  0.0496  0.3396  0.4266
 9059SOL    HW138810   2.855   2.502   9.229 -0.3092  0.4281  0.8440
 9059SOL    HW238811   2.810   2.402   9.143 -0.2447  0.2443  0.5243
 9060SOL     OW38812   0.248   4.565   3.892 -0.0824 -0.0619  0.1951
 9060SOL    HW138813   0.263   4.565   3.987  0.1859  1.7664  0.1554
 9060SOL    HW238814   0.300   4.486   3.876  1.2807  1.7192 -4.0329
 9061SOL     OW38815   4.103   1.337   5.572  0.2216 -0.4215 -0.6359
 9061SOL    HW138816   4.036   1.293   5.625  0.1776 -0.2076 -0.5145
 9061SOL    HW238817   4.109   1.285   5.492  2.3796 -0.4087 -0.4837
 9062SOL     OW38818   1.738   2.146   9.304 -0.0377 -1.0791  0.5600
 9062SOL    HW138819   1.792   2.224   9.310  1.3040 -2.0283  0.7185
 9062SOL    HW238820   1.770   2.080   9.365 -0.2102 -0.3534  1.4325
 9063SOL     OW38821   0.714   4.130   6.134 -0.3277 -0.0656 -0.0751
 9063SOL    HW138822   0.662   4.111   6.056 -1.2045  1.7220  0.0702
 9063SOL    HW238823   0.736   4.039   6.156 -0.9596 -0.5624 -1.4867
 9064SOL     OW38824   0.433   0.345  16.426 -0.3691 -0.6392 -0.0969
 9064SOL    HW138825   0.460   0.322  16.515  3.0844  0.3305 -0.9060
 9064SOL    HW238826   0.397   0.261  16.397  2.2402 -1.5880 -0.5964
 9065SOL     OW38827   4.055   0.577   0.688  0.4230  0.0016 -0.1221
 9065SOL    HW138828   3.968   0.616   0.681  1.0732  1.1640 -1.8644
 9065SOL    HW238829   4.066   0.543   0.600  0.1042  1.2076 -0.6276
 9066SOL     OW38830   4.686   3.537   4.510  0.6491 -0.0086  0.1627
 9066SOL    HW138831   4.642   3.590   4.576  0.1065  1.6087 -1.4914
 9066SOL    HW238832   0.040   3.558   4.520  0.1405  1.9629  0.8229
 9067SOL     OW38833   1.517   1.783   6.592  0.3173  0.2257  0.0621
 9067SOL    HW138834   1.578   1.857   6.589 -1.0844  1.2856 -2.7155
 9067SOL    HW238835   1.516   1.758   6.684 -0.0369  0.8660  0.2294
 9068SOL     OW38836   1.891   3.252   9.629 -0.1688 -0.0118  0.3132
 9068SOL    HW138837   1.862   3.262   9.719 -0.2162  1.9011  0.0729
 9068SOL    HW238838   1.807   3.234   9.586 -0.8829  1.8095  0.9779
 9069SOL     OW38839   2.461   4.667   5.796 -0.2477  0.0023 -0.8139
 9069SOL    HW138840   2.496   4.583   5.766 -2.7883 -1.5913  0.5786
 9069SOL    HW238841   2.407   4.628   5.866 -0.3659  1.7450  0.0742
 9070SOL     OW38842   1.309   4.658   3.346  0.1776  0.0918 -0.5121
 9070SOL    HW138843   1.337   4.629   3.259 -0.4697 -0.1329 -0.6377
 9070SOL    HW238844   1.390   4.704   3.372  1.3992 -1.0136 -2.4271
 9071SOL     OW38845   2.056   3.679   6.426  0.4102  0.3478 -0.1510
 9071SOL    HW138846   2.036   3.651   6.516  0.8355 -0.8490 -0.4193
 9071SOL    HW238847   2.145   3.642   6.432  0.1215  0.0179  2.1750
 9072SOL     OW38848   2.223   0.849   7.970 -0.0516 -0.2138  0.5780
 9072SOL    HW138849   2.183   0.771   7.932 -0.9440  0.4372  0.1794
 9072SOL    HW238850   2.191   0.842   8.060 -1.0810  2.0472  0.3919
 9073SOL     OW38851   2.873   4.619  14.691 -0.1060 -0.4502  0.0463
 9073SOL    HW138852   2.822   4.700  14.688  1.4043  0.6163  2.8174
 9073SOL    HW238853   2.953   4.635  14.740 -0.0847 -0.4288  0.0039
 9074SOL     OW38854   3.119   4.465   6.432  0.5647  0.1335 -0.3167
 9074SOL    HW138855   3.120   4.560   6.447  2.1658 -0.2416  2.0345
 9074SOL    HW238856   3.076   4.437   6.513 -0.3977 -1.0382 -1.2355
 9075SOL     OW38857   2.805   0.273   4.460 -0.0956  0.2303 -0.9604
 9075SOL    HW138858   2.884   0.322   4.435 -0.2185  0.0188 -1.7499
 9075SOL    HW238859   2.779   0.228   4.380  0.0308 -1.6994  0.0903
 9076SOL     OW38860   0.176   2.789  16.104 -0.5089  0.3607  0.6067
 9076SOL    HW138861   0.094   2.839  16.110 -1.2344 -1.1152  2.8697
 9076SOL    HW238862   0.190   2.799  16.010  0.5774  0.1809  0.7550
 9077SOL     OW38863   4.472   1.060   2.610 -0.9567  0.5295 -0.1815
 9077SOL    HW138864   4.462   1.114   2.688  2.1331 -1.3237  1.4815
 9077SOL    HW238865   4.393   1.095   2.567 -1.3871  1.0029  1.0123
 9078SOL     OW38866   2.317   2.622  15.213 -0.5134 -0.4464 -0.3489
 9078SOL    HW138867   2.290   2.567  15.286  0.6202 -0.0349  0.3766
 9078SOL    HW238868   2.373   2.563  15.163  1.0375 -0.4453  1.3778
 9079SOL     OW38869   4.070   0.475   0.112 -0.0964  0.2808  0.3512
 9079SOL    HW138870   4.054   0.396   0.060 -0.6395  0.3290  0.4489
 9079SOL    HW238871   3.987   0.523   0.106 -1.5553 -2.4002 -0.6768
 9080SOL     OW38872   1.615   2.180   0.661 -0.1768 -0.5768 -0.1259
 9080SOL    HW138873   1.612   2.188   0.565 -0.9485 -0.9509 -0.1307
 9080SOL    HW238874   1.665   2.101   0.678  0.6931 -0.2320 -1.0534
 9081SOL     OW38875   3.519   3.756   5.542 -0.3847  0.1719 -0.7094
 9081SOL    HW138876   3.438   3.802   5.521 -1.0066 -0.8055 -0.4339
 9081SOL    HW238877   3.520   3.764   5.638 -1.2931 -1.5344 -0.5652
 9082SOL     OW38878   4.100   2.633  13.347 -0.2591  0.0155 -0.1494
 9082SOL    HW138879   4.105   2.593  13.260  0.4707  1.2629 -0.6688
 9082SOL    HW238880   4.194   2.626  13.362 -0.3361  0.2451  0.4595
 9083SOL     OW38881   2.325   2.131   3.120 -0.1539  0.0779  0.4101
 9083SOL    HW138882   2.304   2.224   3.132  0.0123  0.0294  1.0852
 9083SOL    HW238883   2.390   2.150   3.052  0.8349 -1.3384  0.9734
 9084SOL     OW38884   3.330   1.483   7.345  0.0054  0.3728 -0.2635
 9084SOL    HW138885   3.268   1.422   7.303  0.1164  1.3981 -1.9313
 9084SOL    HW238886   3.265   1.520   7.404 -0.4615 -0.1919 -0.4178
 9085SOL     OW38887   2.741   4.019   3.995 -0.1683  0.0022 -0.4964
 9085SOL    HW138888   2.696   4.083   3.940 -2.3915 -0.6651  0.5448
 9085SOL    HW238889   2.769   4.086   4.057  1.0313 -1.5920  0.6647
 9086SOL     OW38890   4.051   0.736   0.393  0.0109  0.4589 -0.2220
 9086SOL    HW138891   4.072   0.820   0.434 -0.1574 -0.3713  1.5888
 9086SOL    HW238892   4.097   0.744   0.310  0.1607 -0.2611 -0.2065
 9087SOL     OW38893   3.603   4.611   9.403  0.2599 -0.3178 -0.1768
 9087SOL    HW138894   3.591   4.527   9.447  0.7718 -0.6112 -0.5951
 9087SOL    HW238895   3.694   4.598   9.375  0.2594 -1.5819  0.3973
 9088SOL     OW38896   1.799   2.472  12.505  0.4834  0.0632 -0.1132
 9088SOL    HW138897   1.849   2.535  12.453  1.0272  1.0913  1.6377
 9088SOL    HW238898   1.855   2.396  12.490 -0.0459 -0.2769 -0.3435
 9089SOL     OW38899   1.057   4.523  12.349 -0.2706 -0.6600  0.1253
 9089SOL    HW138900   1.056   4.518  12.445 -0.3075  2.3133  0.2988
 9089SOL    HW238901   0.966   4.552  12.338 -0.6181 -1.8780 -0.2325
 9090SOL     OW38902   2.018   0.093   6.150 -0.3160  0.3948 -0.5096
 9090SOL    HW138903   2.063   0.136   6.223  1.7519 -1.4978 -0.7009
 9090SOL    HW238904   1.987   0.177   6.116 -0.2005 -0.2641 -2.2663
 9091SOL     OW38905   3.041   2.879  17.235  0.4821  0.4501 -0.1577
 9091SOL    HW138906   3.060   2.827  17.157 -0.6502  1.3206 -1.0048
 9091SOL    HW238907   2.947   2.893  17.229  0.5892  2.1693  2.3035
 9092SOL     OW38908   3.516   1.678   0.635 -0.5221 -0.2796 -0.0822
 9092SOL    HW138909   3.486   1.677   0.725  0.3934  4.4817  0.3181
 9092SOL    HW238910   3.528   1.587   0.609  0.6975 -0.0518 -0.3118
 9093SOL     OW38911   1.289   1.958  10.062 -0.3298  0.2070 -0.2213
 9093SOL    HW138912   1.225   1.976  10.130  0.2103  1.2399  0.0214
 9093SOL    HW238913   1.239   1.925   9.987  0.3897  2.3658 -1.6679
 9094SOL     OW38914   1.974   2.182   4.595  0.1395 -0.2506 -0.1115
 9094SOL    HW138915   1.993   2.093   4.624  1.4258 -0.0516 -0.3640
 9094SOL    HW238916   2.039   2.239   4.636 -0.6934  0.3726  0.3498
 9095SOL     OW38917   0.971   2.793   5.317  0.1456 -0.1047  0.0687
 9095SOL    HW138918   0.882   2.764   5.298  0.1415 -1.2549  1.8968
 9095SOL    HW238919   1.024   2.721   5.284  1.0788  0.7155 -0.2140
 9096SOL     OW38920   4.381   0.385   7.112  0.1269 -0.4402  0.1766
 9096SOL    HW138921   4.420   0.371   7.198 -0.1114  1.3115  0.5564
 9096SOL    HW238922   4.458   0.424   7.071 -0.2149  0.4139  0.3582
 9097SOL     OW38923   2.061   0.906   2.077 -0.0628 -0.1691 -0.0171
 9097SOL    HW138924   2.077   0.952   2.160 -0.5026  1.0430 -0.6145
 9097SOL    HW238925   2.151   0.890   2.049  0.0712  0.3933  0.1010
 9098SOL     OW38926   2.821   3.787   4.952 -0.3465  0.1537 -0.2527
 9098SOL    HW138927   2.898   3.742   4.918  1.2497  0.4693  2.9067
 9098SOL    HW238928   2.756   3.722   4.980  0.1397 -1.1475 -2.2530
 9099SOL     OW38929   2.725   0.958   9.548 -0.1800 -0.3919 -0.0610
 9099SOL    HW138930   2.741   1.035   9.494 -0.4351 -0.9482 -0.9444
 9099SOL    HW238931   2.764   0.990   9.629  0.4807  0.8525 -0.8860
 9100SOL     OW38932   1.626   0.041   9.675 -0.5866 -0.0446  0.0639
 9100SOL    HW138933   1.687   0.115   9.670  1.3674 -1.7722 -1.2894
 9100SOL    HW238934   1.653   4.726   9.601 -0.5954  1.0267 -0.7099
 9101SOL     OW38935   2.247   3.906   8.462  0.1708 -0.6583  0.0912
 9101SOL    HW138936   2.285   3.972   8.404  1.9698 -1.8950 -0.1226
 9101SOL    HW238937   2.305   3.833   8.442  0.7458  0.0165 -0.6956
 9102SOL     OW38938   4.703   4.006  15.774 -0.6518 -0.1341 -0.4928
 9102SOL    HW138939   0.029   4.061  15.730 -0.6504  0.1359 -0.1510
 9102SOL    HW238940   0.017   3.926  15.781  0.7209  0.7254 -0.8688
 9103SOL     OW38941   1.064   2.627   8.958  0.3712 -0.2129 -0.2454
 9103SOL    HW138942   1.121   2.580   9.020  1.5071  1.3011 -0.1220
 9103SOL    HW238943   1.049   2.699   9.019  1.9189 -3.3178  3.8129
 9104SOL     OW38944   4.160   4.013   7.661 -0.2380  0.2827 -0.2000
 9104SOL    HW138945   4.158   3.924   7.695  1.8756 -0.1865 -1.3030
 9104SOL    HW238946   4.068   4.029   7.639 -0.4321 -1.1678 -0.3985
 9105SOL     OW38947   0.443   3.195   3.541  0.2901 -0.1809  0.4461
 9105SOL    HW138948   0.495   3.147   3.477 -0.6578 -0.6246  0.0058
 9105SOL    HW238949   0.419   3.276   3.497  3.0779  0.6783  0.4968
 9106SOL     OW38950   0.532   0.037  16.546  0.0001 -0.4743 -0.3486
 9106SOL    HW138951   0.582   4.695  16.560  0.8279  0.4125  1.7908
 9106SOL    HW238952   0.443   0.005  16.560  0.1057 -0.5056  0.2683
 9107SOL     OW38953   3.989   0.026  13.124  0.2744  0.3066  0.3876
 9107SOL    HW138954   3.952   4.686  13.083 -0.9615  1.3379 -0.4594
 9107SOL    HW238955   3.918   0.090  13.121 -1.0177 -1.0728  1.6983
 9108SOL     OW38956   2.667   0.940  10.161 -0.4216  0.4052 -0.9220
 9108SOL    HW138957   2.634   0.914  10.075  0.8006 -1.3209 -0.8544
 9108SOL    HW238958   2.688   0.859  10.207  3.6083  2.0792  0.1550
 9109SOL     OW38959   4.597   3.880   4.148 -0.4970  0.2068 -0.7564
 9109SOL    HW138960   4.616   3.800   4.197  0.1346  1.0030  0.2964
 9109SOL    HW238961   4.651   3.950   4.184  0.4776 -0.4344 -0.9768
 9110SOL     OW38962   1.674   2.590  11.184  0.8300 -0.1463 -0.1373
 9110SOL    HW138963   1.705   2.605  11.273  1.6969  1.1920 -0.6642
 9110SOL    HW238964   1.747   2.617  11.129  1.8767 -0.4115  1.1236
 9111SOL     OW38965   1.078   0.711  16.006  0.5101  0.3127  0.1264
 9111SOL    HW138966   1.109   0.621  16.009 -2.0973 -0.4915  2.5665
 9111SOL    HW238967   1.152   0.749  16.054  0.5422  1.8664 -1.1486
 9112SOL     OW38968   4.236   3.210  13.642 -0.3168  0.2682  0.0911
 9112SOL    HW138969   4.191   3.194  13.725  1.1259 -2.2157  0.3913
 9112SOL    HW238970   4.318   3.250  13.673  1.0334 -2.2390 -0.2591
 9113SOL     OW38971   3.714   3.421   5.115  0.0353 -0.0142 -0.2806
 9113SOL    HW138972   3.759   3.473   5.048  0.1204  1.1362  0.6485
 9113SOL    HW238973   3.784   3.389   5.171 -1.4364  0.6793  1.9568
 9114SOL     OW38974   2.520   1.685   1.138  0.4498 -0.1388  0.8959
 9114SOL    HW138975   2.447   1.636   1.099  1.8052 -0.7925 -0.8420
 9114SOL    HW238976   2.478   1.724   1.214 -1.1053 -2.6339  1.3042
 9115SOL     OW38977   3.668   2.249   8.735 -0.4330 -0.2180 -0.3309
 9115SOL    HW138978   3.750   2.208   8.761 -0.0601 -0.0626 -1.2391
 9115SOL    HW238979   3.694   2.340   8.745  1.4618 -0.8171  0.1196
 9116SOL     OW38980   3.436   0.799   6.748 -0.1972  0.0354  1.1141
 9116SOL    HW138981   3.517   0.751   6.730 -1.7252 -1.9665 -0.4330
 9116SOL    HW238982   3.418   0.765   6.836 -0.1548  2.1530  1.9276
 9117SOL     OW38983   4.719   3.480  13.648 -0.3712  0.0666  0.6755
 9117SOL    HW138984   0.035   3.558  13.650 -1.1873  0.6938 -3.1446
 9117SOL    HW238985   4.658   3.522  13.588  1.0879  1.9923  0.5469
 9118SOL     OW38986   0.542   2.760   8.656  0.2576 -0.0604  0.1788
 9118SOL    HW138987   0.512   2.839   8.611 -1.7107 -0.9453 -0.0566
 9118SOL    HW238988   0.628   2.752   8.615 -0.6351 -0.5400 -1.6060
 9119SOL     OW38989   2.394   1.168   8.215 -0.7892 -0.0672 -0.2028
 9119SOL    HW138990   2.429   1.220   8.287 -0.3035 -0.5832 -0.0627
 9119SOL    HW238991   2.381   1.078   8.245  2.5346 -1.5338 -3.1248
 9120SOL     OW38992   2.252   2.935   5.624 -0.5233 -0.3116 -0.1081
 9120SOL    HW138993   2.200   2.983   5.559  0.5820  2.5140  1.1028
 9120SOL    HW238994   2.266   2.860   5.566  0.3230  0.3334 -0.7407
 9121SOL     OW38995   3.316   4.660   5.182 -0.1473  0.3305  0.6968
 9121SOL    HW138996   3.220   4.667   5.174  0.0434  0.3754 -1.3870
 9121SOL    HW238997   3.325   4.721   5.255  0.6662 -0.8837  1.6154
 9122SOL     OW38998   1.402   4.640   1.648 -0.0959  0.2856  0.4404
 9122SOL    HW138999   1.343   4.676   1.582  0.9638  0.2657 -0.5195
 9122SOL    HW239000   1.386   4.547   1.632 -0.0318 -0.0236  2.1022
 9123SOL     OW39001   3.652   1.047  15.086  0.3873 -0.5377  0.8002
 9123SOL    HW139002   3.616   1.087  15.007  0.8049 -0.3975  0.6805
 9123SOL    HW239003   3.704   1.123  15.112  1.6963 -0.5267 -1.8182
 9124SOL     OW39004   0.162   4.544   4.755 -0.1559  0.3873  0.3435
 9124SOL    HW139005   0.073   4.512   4.739  0.8248 -2.1861  0.1294
 9124SOL    HW239006   0.188   4.479   4.820  0.2692  0.5494  0.3380
 9125SOL     OW39007   0.370   1.951   5.252 -0.5379 -0.3487  0.0478
 9125SOL    HW139008   0.433   1.920   5.317 -0.7117  2.3353  1.5272
 9125SOL    HW239009   0.419   2.007   5.192  0.9588 -1.6671  0.0376
 9126SOL     OW39010   4.415   2.198  10.816 -0.8494  0.4432 -0.1162
 9126SOL    HW139011   4.384   2.117  10.776  1.4880  0.0404 -1.1285
 9126SOL    HW239012   4.420   2.267  10.749 -2.5644 -0.9664 -1.6984
 9127SOL     OW39013   3.781   4.072   6.702  0.4932 -0.0059  0.3968
 9127SOL    HW139014   3.771   4.143   6.766 -0.8230 -2.1481  2.5456
 9127SOL    HW239015   3.800   3.999   6.761  1.9664  0.7322  0.8507
 9128SOL     OW39016   4.249   0.202   8.751  0.1066  0.3925  0.4417
 9128SOL    HW139017   4.184   0.144   8.712  0.9604 -0.0260 -0.3866
 9128SOL    HW239018   4.278   0.232   8.664  1.0300 -1.2370  0.1705
 9129SOL     OW39019   0.651   0.321   4.619 -0.3815 -0.0186 -0.1554
 9129SOL    HW139020   0.678   0.253   4.680  1.4014  2.1745  1.5256
 9129SOL    HW239021   0.626   0.275   4.539 -1.1695  0.0577  0.0562
 9130SOL     OW39022   1.659   1.034   3.421 -0.2356 -0.2968 -0.5755
 9130SOL    HW139023   1.579   0.981   3.415 -0.7377  0.5011 -0.9097
 9130SOL    HW239024   1.637   1.122   3.391  1.1901  0.0386 -0.6406
 9131SOL     OW39025   4.581   0.356   5.975 -0.2303 -0.1488  0.3556
 9131SOL    HW139026   4.535   0.379   6.056  1.2616 -0.4153  1.2829
 9131SOL    HW239027   4.656   0.310   6.013 -1.2098 -1.4278  0.7312
 9132SOL     OW39028   1.267   0.162  14.405 -0.4843 -0.0113  0.0127
 9132SOL    HW139029   1.288   0.243  14.357 -0.1791  0.1660  0.4455
 9132SOL    HW239030   1.184   0.177  14.449  0.3172  0.7768  1.2498
 9133SOL     OW39031   4.157   3.142   5.761  0.2190  0.0524 -0.3619
 9133SOL    HW139032   4.183   3.055   5.793  4.2626  2.0770  1.8182
 9133SOL    HW239033   4.203   3.194   5.827  1.8589 -2.9616  0.9113
 9134SOL     OW39034   1.228   4.149  14.190  0.3465 -0.0735  0.0029
 9134SOL    HW139035   1.265   4.087  14.128  1.1598 -0.3270  0.7419
 9134SOL    HW239036   1.173   4.206  14.136  0.5376  0.7592  0.6751
 9135SOL     OW39037   0.853   1.408   5.846 -0.3740  0.0351  0.0495
 9135SOL    HW139038   0.940   1.438   5.820  0.4078 -1.7322  0.6393
 9135SOL    HW239039   0.865   1.322   5.887 -2.4863 -0.3119 -0.0369
 9136SOL     OW39040   3.850   2.306   6.872 -0.2186  0.4140  0.1940
 9136SOL    HW139041   3.939   2.325   6.902  0.1761  0.6895 -1.1742
 9136SOL    HW239042   3.871   2.217   6.845  0.4823  0.7198 -0.2648
 9137SOL     OW39043   0.907   2.067   3.046  0.2673 -0.7300 -0.6970
 9137SOL    HW139044   0.838   2.029   2.991 -2.3633  1.4386  1.0988
 9137SOL    HW239045   0.892   2.159   3.022  2.2185  0.2993  2.0541
 9138SOL     OW39046   2.023   3.247   2.289 -0.0493  0.3978 -0.2248
 9138SOL    HW139047   2.088   3.180   2.309  0.5050  1.0574  0.1785
 9138SOL    HW239048   2.025   3.263   2.194 -0.6791  0.1174 -0.2871
 9139SOL     OW39049   3.812   0.219   3.550 -0.2109 -0.2588  0.1532
 9139SOL    HW139050   3.733   0.174   3.581  0.1781 -1.4194 -0.5377
 9139SOL    HW239051   3.871   0.143   3.546  0.5212  0.3128  0.1059
 9140SOL     OW39052   3.300   4.527  10.810  0.1189  0.1027 -0.8613
 9140SOL    HW139053   3.382   4.504  10.767  0.4501  1.7465 -1.0898
 9140SOL    HW239054   3.264   4.592  10.750 -1.1399 -1.3381 -1.6749
 9141SOL     OW39055   4.411   4.736   4.993 -0.3187  0.1104  0.5769
 9141SOL    HW139056   4.329   0.046   4.993 -0.8723 -0.8403 -0.1059
 9141SOL    HW239057   4.387   4.664   5.052  0.7050 -0.7382 -0.0464
 9142SOL     OW39058   3.865   1.528   6.782  0.0613  0.7777 -0.1782
 9142SOL    HW139059   3.922   1.456   6.754  2.0418  1.4506  2.1114
 9142SOL    HW239060   3.927   1.579   6.834 -0.7150 -0.2423  1.7432
 9143SOL     OW39061   1.830   3.736   5.538  0.0350 -0.1875  0.3139
 9143SOL    HW139062   1.857   3.646   5.515  0.0382 -0.1165  0.0397
 9143SOL    HW239063   1.738   3.724   5.560 -0.8423  1.7231 -2.3694
 9144SOL     OW39064   2.070   2.102   6.889 -0.2223 -0.1712  0.3509
 9144SOL    HW139065   2.089   2.037   6.957 -0.0027 -0.2546  0.2109
 9144SOL    HW239066   2.144   2.162   6.891 -0.6460  0.3687 -0.2498
 9145SOL     OW39067   2.010   2.179   7.325 -0.4804 -0.2250 -0.9045
 9145SOL    HW139068   1.977   2.140   7.406 -1.4898  0.2029 -1.1058
 9145SOL    HW239069   1.999   2.273   7.343  1.7445  0.6862 -4.3323
 9146SOL     OW39070   2.895   1.079   2.377  0.1457 -0.2541  0.2293
 9146SOL    HW139071   2.838   1.057   2.450  0.4914 -1.0023  0.2705
 9146SOL    HW239072   2.966   1.016   2.385 -1.3673 -2.0775 -0.6420
 9147SOL     OW39073   2.543   2.862   2.838  0.7895  0.2101  0.0016
 9147SOL    HW139074   2.474   2.928   2.850  0.2564 -0.4566  0.6344
 9147SOL    HW239075   2.484   2.796   2.802  0.7321  0.2596  0.0049
 9148SOL     OW39076   4.250   2.359  13.138 -0.0175 -0.3900  0.0921
 9148SOL    HW139077   4.302   2.433  13.169 -0.7116 -0.5111  1.5439
 9148SOL    HW239078   4.181   2.409  13.094 -1.1713 -1.9560  0.1514
 9149SOL     OW39079   2.333   1.499   5.944  0.3906 -0.3029  0.7481
 9149SOL    HW139080   2.385   1.445   6.003  1.8261  0.2960  0.0375
 9149SOL    HW239081   2.402   1.539   5.890 -0.2092  0.3754  0.4952
 9150SOL     OW39082   1.526   3.075  15.551 -0.1754 -0.5859  0.0414
 9150SOL    HW139083   1.494   3.164  15.566  0.4744 -0.2076 -0.8166
 9150SOL    HW239084   1.534   3.045  15.642  0.4826 -0.0913  0.1420
 9151SOL     OW39085   0.034   3.525   6.242 -0.6643 -0.3877 -0.8582
 9151SOL    HW139086   0.098   3.458   6.219  0.2498  0.8864 -2.0624
 9151SOL    HW239087   0.047   3.530   6.337 -2.4336  1.5174 -0.7165
 9152SOL     OW39088   1.153   1.610  17.301  0.2756 -0.2444  0.0504
 9152SOL    HW139089   1.182   1.636  17.388  0.0899  1.1063 -0.2852
 9152SOL    HW239090   1.234   1.581  17.260 -0.5087 -1.0157 -0.9450
 9153SOL     OW39091   1.015   2.799   5.981 -0.2847 -0.2307  0.0560
 9153SOL    HW139092   1.082   2.806   5.913  0.3171 -0.7012  0.6084
 9153SOL    HW239093   1.065   2.829   6.057  1.8494 -0.8465 -1.1147
 9154SOL     OW39094   4.363   3.082   1.647 -0.5263 -0.0528 -0.1689
 9154SOL    HW139095   4.412   3.000   1.658  1.5244  0.9833 -1.5405
 9154SOL    HW239096   4.324   3.070   1.561 -1.2748 -0.7360  0.2661
 9155SOL     OW39097   2.961   4.425   2.483  0.1096 -0.1233  0.0646
 9155SOL    HW139098   3.045   4.378   2.490  1.1063  1.9387  2.1062
 9155SOL    HW239099   2.906   4.374   2.424 -1.0661  0.7884  0.3760
 9156SOL     OW39100   0.204   0.726  14.252 -0.2063 -0.1431  0.6017
 9156SOL    HW139101   0.272   0.779  14.295 -0.6576  0.3556  0.6919
 9156SOL    HW239102   0.255   0.651  14.221  2.1740  1.2555  1.1204
 9157SOL     OW39103   0.319   3.110   4.959 -0.3310  0.0842  0.3166
 9157SOL    HW139104   0.234   3.069   4.949 -1.0351  1.5361  0.3682
 9157SOL    HW239105   0.307   3.177   5.027  0.8149  0.3353  0.2695
 9158SOL     OW39106   4.058   1.463   3.944 -0.2389  0.1105  0.4843
 9158SOL    HW139107   4.094   1.540   3.987  0.4972  0.4272 -0.7125
 9158SOL    HW239108   4.134   1.433   3.895  1.4130  2.7647  1.4304
 9159SOL     OW39109   3.843   3.864   6.877  0.1108  0.4758  0.1389
 9159SOL    HW139110   3.802   3.837   6.959 -2.5465  0.3791 -1.2050
 9159SOL    HW239111   3.869   3.781   6.837 -0.0532  0.3837  0.2219
 9160SOL     OW39112   2.714   0.470   2.668 -0.2637 -0.0877 -0.2272
 9160SOL    HW139113   2.744   0.412   2.597 -0.7802 -1.6137  0.7942
 9160SOL    HW239114   2.718   0.406   2.739 -1.9569 -0.6582 -0.6467
 9161SOL     OW39115   1.543   0.864   2.293  0.5609  0.5374  0.5681
 9161SOL    HW139116   1.546   0.855   2.198  0.8764  0.1860  0.6116
 9161SOL    HW239117   1.612   0.805   2.322  0.0434 -0.0360  0.6311
 9162SOL     OW39118   0.868   1.803   3.269 -0.3746  0.7477 -0.4950
 9162SOL    HW139119   0.842   1.711   3.263  1.4825  0.1471  0.6977
 9162SOL    HW239120   0.804   1.822   3.338 -1.8934  1.1523 -2.0011
 9163SOL     OW39121   3.597   4.607   9.063  0.4683 -0.3019 -0.2601
 9163SOL    HW139122   3.549   4.550   9.123  1.3363 -1.6418 -0.8153
 9163SOL    HW239123   3.529   4.621   8.998 -1.7079 -2.0864  1.5993
 9164SOL     OW39124   4.212   1.320  11.674  0.1560 -0.2947 -0.2740
 9164SOL    HW139125   4.177   1.344  11.760  0.7543  0.3605 -0.2123
 9164SOL    HW239126   4.299   1.359  11.680  1.7246 -4.2593  3.2485
 9165SOL     OW39127   3.151   2.909   9.152 -0.1237 -0.6680  0.2500
 9165SOL    HW139128   3.107   2.894   9.236  0.8925  1.3652  1.1511
 9165SOL    HW239129   3.156   2.820   9.116 -1.9747 -0.1270 -1.3385
 9166SOL     OW39130   3.802   2.992   6.882  0.6117 -0.0742 -0.2901
 9166SOL    HW139131   3.866   2.934   6.842 -1.1133 -2.6803  0.7361
 9166SOL    HW239132   3.730   2.988   6.819 -1.9900  1.1377  2.5806
 9167SOL     OW39133   3.887   1.054   9.935  0.3074 -0.1952  0.0319
 9167SOL    HW139134   3.938   1.017   9.863  0.7300 -0.2032  0.3332
 9167SOL    HW239135   3.802   1.055   9.890  0.1742  1.1816  0.2963
 9168SOL     OW39136   1.595   0.387   2.772  0.1114 -0.1308 -0.7400
 9168SOL    HW139137   1.664   0.452   2.761 -0.8056  1.4187  2.5561
 9168SOL    HW239138   1.530   0.421   2.834 -1.4553 -0.8971 -1.9325
 9169SOL     OW39139   1.925   2.443   0.284 -0.0604 -0.7367 -0.3424
 9169SOL    HW139140   1.929   2.456   0.189  0.9385 -0.9512 -0.3256
 9169SOL    HW239141   1.837   2.407   0.292  0.1559 -0.9660  0.9006
 9170SOL     OW39142   0.377   2.586   6.656 -0.2910  0.0227 -0.2033
 9170SOL    HW139143   0.435   2.617   6.586 -0.0572  0.6756  0.2876
 9170SOL    HW239144   0.326   2.666   6.669 -0.6814 -0.1227 -0.8441
 9171SOL     OW39145   2.555   1.811   9.501  0.4170 -0.0092 -0.4055
 9171SOL    HW139146   2.477   1.863   9.479 -0.6429 -1.9625 -1.2564
 9171SOL    HW239147   2.579   1.770   9.418 -0.5192  1.1887 -1.2725
 9172SOL     OW39148   0.714   0.054   7.256 -0.0020  0.1062 -0.8960
 9172SOL    HW139149   0.697   0.147   7.273  1.8489  0.6598 -2.1158
 9172SOL    HW239150   0.807   0.071   7.245 -0.3258  1.6614 -1.3191
 9173SOL     OW39151   4.333   1.294   5.776  0.7452 -0.3600 -0.3725
 9173SOL    HW139152   4.253   1.305   5.726 -0.5131 -1.1826  1.4360
 9173SOL    HW239153   4.391   1.314   5.703 -1.2114  0.6079 -1.6714
 9174SOL     OW39154   3.972   2.097   3.486  0.1645 -0.7657  0.0462
 9174SOL    HW139155   3.973   2.136   3.399  1.9207 -1.1300 -0.1069
 9174SOL    HW239156   3.974   2.177   3.539 -0.8849 -1.0589  0.5292
 9175SOL     OW39157   2.648   4.737   8.058 -0.0170 -0.7305  0.0094
 9175SOL    HW139158   2.701   0.076   8.077  2.4900 -2.5302  0.5166
 9175SOL    HW239159   2.719   4.674   8.041  0.6154 -0.2160  0.7362
 9176SOL     OW39160   3.701   2.663   4.771 -0.1623 -0.4414 -0.6062
 9176SOL    HW139161   3.687   2.659   4.866 -0.6565  0.4034 -0.6421
 9176SOL    HW239162   3.649   2.587   4.743  0.8171 -1.1733 -0.4334
 9177SOL     OW39163   3.883   1.220   2.589 -0.1455 -0.0266 -0.3200
 9177SOL    HW139164   3.942   1.248   2.659  0.5807  1.3049 -1.4668
 9177SOL    HW239165   3.872   1.130   2.620  2.6695 -0.6294 -0.9873
 9178SOL     OW39166   1.330   3.140  15.082  0.4806  0.0872 -0.1615
 9178SOL    HW139167   1.335   3.134  15.178 -2.2109  2.7292  0.1303
 9178SOL    HW239168   1.414   3.099  15.062  0.2087  0.7124 -2.5586
 9179SOL     OW39169   0.755   1.423  12.042 -0.0190 -0.8846 -0.3701
 9179SOL    HW139170   0.792   1.507  12.014 -1.8772 -0.0657 -0.3510
 9179SOL    HW239171   0.683   1.449  12.100  0.0806 -1.6897  0.1223
 9180SOL     OW39172   2.355   2.908   7.869 -0.7762 -0.2110 -0.5131
 9180SOL    HW139173   2.352   2.891   7.963 -0.1853 -2.1502 -0.8257
 9180SOL    HW239174   2.332   3.000   7.877 -0.7677 -0.3490  1.0915
 9181SOL     OW39175   1.045   2.117   9.061 -0.6460  0.0134  0.3639
 9181SOL    HW139176   1.006   2.131   8.975  2.6882 -1.1235 -1.3543
 9181SOL    HW239177   0.968   2.068   9.091 -0.9903  0.0855 -0.4064
 9182SOL     OW39178   2.796   0.893   9.234 -0.5801  0.0088  0.0961
 9182SOL    HW139179   2.783   0.830   9.163 -2.1067 -1.1935  1.4633
 9182SOL    HW239180   2.708   0.926   9.251 -0.1839  1.0266  0.1978
 9183SOL     OW39181   3.297   3.116  11.627  0.6375  0.8872  0.2809
 9183SOL    HW139182   3.364   3.136  11.693  0.3341  1.6549  0.3543
 9183SOL    HW239183   3.218   3.159  11.660  1.7412  3.7381 -0.8295
 9184SOL     OW39184   4.563   3.801   7.207 -0.0312 -0.1088  0.1273
 9184SOL    HW139185   4.471   3.811   7.228 -0.1596  1.9911 -1.3849
 9184SOL    HW239186   4.595   3.778   7.294 -1.4120 -0.6015  0.5048
 9185SOL     OW39187   0.415   1.921   8.153 -0.1138 -0.5118 -0.2118
 9185SOL    HW139188   0.363   1.890   8.079 -0.7732 -0.4525  0.2250
 9185SOL    HW239189   0.457   1.989   8.101 -0.4057 -0.7839 -0.7992
 9186SOL     OW39190   0.823   0.744   9.439  0.3412  0.1871  0.5595
 9186SOL    HW139191   0.795   0.658   9.470 -2.1777  0.9755  0.4659
 9186SOL    HW239192   0.759   0.808   9.471  0.0789  0.2649 -0.1238
 9187SOL     OW39193   2.760   1.585   2.496 -0.4793 -0.2811 -0.3328
 9187SOL    HW139194   2.808   1.512   2.459  1.8495  0.9567  0.2184
 9187SOL    HW239195   2.796   1.601   2.583  1.1088 -1.0108 -0.8506
 9188SOL     OW39196   2.292   0.328   3.714  0.2419 -0.5132  0.3086
 9188SOL    HW139197   2.266   0.267   3.645 -0.3091  1.6226 -1.3830
 9188SOL    HW239198   2.253   0.409   3.680 -0.6173 -0.2877  1.8448
 9189SOL     OW39199   1.179   3.669   5.856  0.1135  0.2051  0.6074
 9189SOL    HW139200   1.131   3.586   5.852 -1.6014  1.2453 -0.1146
 9189SOL    HW239201   1.250   3.649   5.794 -1.6784  1.0695 -1.7148
 9190SOL     OW39202   0.064   0.211   9.250 -0.1085 -0.2044  0.2478
 9190SOL    HW139203   0.041   0.173   9.165  0.5544 -0.9868  0.4160
 9190SOL    HW239204   0.135   0.269   9.223  0.2730 -0.8412 -0.1446
 9191SOL     OW39205   1.937   1.625   9.011  0.1193  0.2892 -0.0101
 9191SOL    HW139206   1.866   1.634   9.075 -1.8639 -0.8318 -2.0610
 9191SOL    HW239207   2.001   1.684   9.049  0.4359 -1.7655  2.6641
 9192SOL     OW39208   1.747   2.145   7.221  0.3413 -0.2838  0.8860
 9192SOL    HW139209   1.836   2.113   7.238  1.2449  2.0164  0.4272
 9192SOL    HW239210   1.761   2.236   7.196  1.2821 -0.9101 -0.8688
 9193SOL     OW39211   1.920   4.693  11.101  0.2054  0.1290  0.3915
 9193SOL    HW139212   1.919   4.605  11.139 -1.8289  0.0660  0.1786
 9193SOL    HW239213   1.833   4.708  11.065  0.1815 -2.0862 -0.5100
 9194SOL     OW39214   3.926   4.623   7.343 -0.1306 -0.0969  0.5689
 9194SOL    HW139215   3.883   4.556   7.397 -2.8467  1.2799  0.1450
 9194SOL    HW239216   3.852   4.683   7.330 -1.3212 -1.8956 -0.8603
 9195SOL     OW39217   1.704   3.664   4.872  0.4302  0.2495 -0.4803
 9195SOL    HW139218   1.612   3.685   4.886  0.5912 -0.2783  1.3070
 9195SOL    HW239219   1.738   3.750   4.896  3.0207  0.0000 -3.2075
 9196SOL     OW39220   1.075   4.529   3.212  0.2735 -0.0846  0.0964
 9196SOL    HW139221   1.081   4.452   3.268 -1.2873  0.2787  0.7672
 9196SOL    HW239222   1.120   4.592   3.268  1.4141 -0.2883 -0.5868
 9197SOL     OW39223   3.791   4.361   6.137  0.7777  0.5858  0.0127
 9197SOL    HW139224   3.735   4.288   6.164  1.8454 -0.6525 -1.1165
 9197SOL    HW239225   3.737   4.432   6.172  0.6259 -0.1685  1.2948
 9198SOL     OW39226   3.652   3.002   2.826 -0.1554 -0.0316  0.2932
 9198SOL    HW139227   3.732   3.036   2.866 -0.0168  0.1673 -0.1488
 9198SOL    HW239228   3.602   3.084   2.824  0.1717  0.1752  0.6015
 9199SOL     OW39229   2.263   0.437   9.835 -0.3561  0.2427  0.0937
 9199SOL    HW139230   2.302   0.499   9.897  1.6046  0.1892 -1.0892
 9199SOL    HW239231   2.227   0.503   9.776 -0.3650  0.1202 -0.0384
 9200SOL     OW39232   1.004   0.557   6.967  0.1231  0.1836 -0.0428
 9200SOL    HW139233   0.969   0.637   6.927  1.5770  0.1867 -1.2993
 9200SOL    HW239234   1.058   0.596   7.035  0.0762 -1.4938  0.9664
 9201SOL     OW39235   3.887   0.988   3.268 -0.2581  0.2100 -0.3038
 9201SOL    HW139236   3.845   0.959   3.349  1.1362 -1.7770 -0.3026
 9201SOL    HW239237   3.979   0.987   3.294 -0.7668  0.2122  1.4816
 9202SOL     OW39238   0.143   0.133   4.182 -0.1177  0.3302  0.2400
 9202SOL    HW139239   0.221   0.078   4.170  1.0233  2.2899 -1.2493
 9202SOL    HW239240   0.162   0.204   4.121  2.6440 -0.0763  0.6311
 9203SOL     OW39241   3.046   2.538   4.773  0.1628  0.4427 -0.2255
 9203SOL    HW139242   3.021   2.583   4.854  1.1393 -1.6607  1.2446
 9203SOL    HW239243   2.973   2.478   4.755  0.1869  0.5478 -0.6621
 9204SOL     OW39244   0.321   3.467   8.867 -0.0735  0.2675  0.1323
 9204SOL    HW139245   0.264   3.397   8.899  0.2482  0.6720  1.5651
 9204SOL    HW239246   0.295   3.462   8.775 -1.3848  2.3948  0.3878
 9205SOL     OW39247   4.202   2.613   6.758  0.8047 -0.1173  0.2814
 9205SOL    HW139248   4.133   2.613   6.692  2.1938  1.8888 -1.1622
 9205SOL    HW239249   4.221   2.705   6.775  0.3127  0.1237 -0.4763
 9206SOL     OW39250   2.853   3.060  11.711 -0.0700  0.0286 -0.3408
 9206SOL    HW139251   2.902   3.130  11.667 -2.4014  2.8234  1.5410
 9206SOL    HW239252   2.765   3.095  11.715  0.3258  1.0519 -0.5744
 9207SOL     OW39253   0.356   0.161   4.462 -0.2803  0.0189  0.5685
 9207SOL    HW139254   0.374   0.075   4.500 -1.6853 -0.2703  0.5679
 9207SOL    HW239255   0.438   0.178   4.417  0.0849  1.5811  1.8161
 9208SOL     OW39256   1.262   1.420  17.602  0.4953 -1.3839  0.1695
 9208SOL    HW139257   1.169   1.395  17.594 -0.1928  0.9634  0.8583
 9208SOL    HW239258   1.260   1.515  17.607 -0.1842 -1.3280 -1.1417
 9209SOL     OW39259   2.916   1.921   7.859 -0.5165 -0.9092 -0.2161
 9209SOL    HW139260   2.876   2.007   7.869 -0.3957 -0.6445 -2.0150
 9209SOL    HW239261   2.922   1.891   7.950  2.1053 -0.6824 -0.3221
 9210SOL     OW39262   4.043   2.274   8.247 -0.1390  0.4086 -0.1213
 9210SOL    HW139263   4.021   2.182   8.234  2.3251 -0.0496 -0.9995
 9210SOL    HW239264   3.964   2.294   8.297  0.9841 -0.5160  2.0650
 9211SOL     OW39265   3.862   0.865   5.741  0.1801  0.6792 -0.3452
 9211SOL    HW139266   3.933   0.852   5.678  0.0447  0.3748 -0.4373
 9211SOL    HW239267   3.808   0.793   5.708  0.0138  0.5261  0.2661
 9212SOL     OW39268   2.749   3.062   4.151  0.0393 -0.1041  0.1559
 9212SOL    HW139269   2.720   3.122   4.082 -0.3046 -1.6946 -1.0630
 9212SOL    HW239270   2.666   3.015   4.162 -1.0061  1.4263 -1.1100
 9213SOL     OW39271   3.023   3.521   8.262 -0.0916 -0.2583 -0.0275
 9213SOL    HW139272   3.073   3.593   8.224 -0.8300 -0.8591 -2.1414
 9213SOL    HW239273   2.965   3.506   8.188 -1.9793  1.8414  0.9989
 9214SOL     OW39274   4.269   4.066  13.285  0.4255 -0.4119 -0.4460
 9214SOL    HW139275   4.187   4.100  13.249  1.4789  0.3735 -2.1337
 9214SOL    HW239276   4.232   4.013  13.355  1.3476 -0.2290  0.1851
 9215SOL     OW39277   4.588   3.335   7.089  0.1352 -0.0532 -0.2125
 9215SOL    HW139278   4.564   3.399   7.022 -0.9266 -0.0513  0.1688
 9215SOL    HW239279   4.516   3.353   7.149 -1.7353 -1.7279 -1.9785
 9216SOL     OW39280   1.079   0.017   2.084 -0.4976 -0.0950  0.5286
 9216SOL    HW139281   1.071   0.074   2.161 -2.6227  0.3280  0.0032
 9216SOL    HW239282   1.036   0.069   2.015 -2.6136 -0.4594  1.5828
 9217SOL     OW39283   3.849   0.352  12.793 -0.0295  0.1751 -0.6069
 9217SOL    HW139284   3.885   0.394  12.714 -0.4772  0.8733 -0.4402
 9217SOL    HW239285   3.818   0.422  12.850  0.9432 -0.1752  0.3529
 9218SOL     OW39286   1.065   3.945  11.053 -0.1780 -0.1368  0.1317
 9218SOL    HW139287   0.991   3.934  10.993  0.2113  3.1898 -0.9461
 9218SOL    HW239288   1.079   4.040  11.053 -0.1932 -0.1379 -0.8630
 9219SOL     OW39289   1.764   1.430   6.192  0.2368 -0.4264  0.4953
 9219SOL    HW139290   1.710   1.456   6.267  2.6190  2.2312  1.3149
 9219SOL    HW239291   1.761   1.336   6.209  1.9343 -0.0721  2.7291
 9220SOL     OW39292   3.453   2.904   2.630 -0.6136  0.4342 -0.2936
 9220SOL    HW139293   3.393   2.843   2.674 -2.4682  1.1973 -1.7809
 9220SOL    HW239294   3.534   2.888   2.679 -0.3541  1.4485 -0.3996
 9221SOL     OW39295   0.499   0.201   5.091  0.3620  0.3829  0.6528
 9221SOL    HW139296   0.457   0.214   5.007  0.0834  2.0235  1.0507
 9221SOL    HW239297   0.425   0.207   5.151  0.4490  2.7946  0.4831
 9222SOL     OW39298   2.752   3.375  17.501 -0.1549  0.4748  0.0229
 9222SOL    HW139299   2.814   3.396  17.431 -0.1244 -3.1168 -1.0140
 9222SOL    HW239300   2.671   3.423  17.480 -1.8727 -2.8133 -0.9114
 9223SOL     OW39301   4.438   1.409   3.939  0.1960  0.7712 -0.9969
 9223SOL    HW139302   4.475   1.486   3.982 -0.7023  0.9657 -0.5506
 9223SOL    HW239303   4.487   1.336   3.976  0.6773  0.8345 -1.5274
 9224SOL     OW39304   3.792   4.093   5.837 -0.3935 -0.0646 -0.1337
 9224SOL    HW139305   3.878   4.127   5.862 -0.9891  1.3382  0.0344
 9224SOL    HW239306   3.805   3.999   5.823 -0.9166 -0.1262 -0.1972
 9225SOL     OW39307   1.811   2.908   7.727  0.2978  0.0257 -0.3259
 9225SOL    HW139308   1.779   2.989   7.767  0.5556  0.1754 -0.4220
 9225SOL    HW239309   1.832   2.858   7.806  2.9320  1.7044  0.0258
 9226SOL     OW39310   0.857   1.578   6.568  0.4561 -0.3197 -0.0574
 9226SOL    HW139311   0.791   1.516   6.538  0.1954  0.1103 -0.3733
 9226SOL    HW239312   0.885   1.618   6.486 -2.7129  1.5936 -0.2026
 9227SOL     OW39313   2.712   0.355   4.850 -0.0397  0.0663  0.0501
 9227SOL    HW139314   2.667   0.404   4.780 -0.3630 -0.5936 -0.1968
 9227SOL    HW239315   2.670   0.269   4.849 -1.3018  0.6849 -0.0553
 9228SOL     OW39316   2.260   1.893   6.955  0.1195  0.0250 -0.1919
 9228SOL    HW139317   2.212   1.820   6.916  1.4065 -2.9644  3.8391
 9228SOL    HW239318   2.299   1.920   6.872  0.0804  1.2063  0.1660
 9229SOL     OW39319   4.299   0.221  15.093 -0.1811  0.0513 -0.0269
 9229SOL    HW139320   4.227   0.282  15.106 -0.4137  0.0016 -1.0483
 9229SOL    HW239321   4.353   0.237  15.170  0.7324  1.6444 -0.9884
 9230SOL     OW39322   2.833   1.292   5.131 -0.1595 -0.4847 -0.2457
 9230SOL    HW139323   2.900   1.341   5.179 -0.0640 -0.0734 -0.7972
 9230SOL    HW239324   2.806   1.226   5.195  1.5873 -1.7265 -0.7918
 9231SOL     OW39325   4.315   2.021   8.101 -0.2144 -0.6451  0.9362
 9231SOL    HW139326   4.380   2.088   8.080 -1.6638  0.3464 -0.4392
 9231SOL    HW239327   4.293   2.033   8.194 -1.5593 -1.0957  0.6853
 9232SOL     OW39328   3.996   0.970   3.966  0.0756 -0.8248 -0.4854
 9232SOL    HW139329   4.043   1.031   4.023 -1.0942 -1.5142  1.2331
 9232SOL    HW239330   3.997   0.889   4.017 -1.0745 -0.8868 -0.5685
 9233SOL     OW39331   3.971   1.490   8.571  0.6330  0.2783 -0.0706
 9233SOL    HW139332   3.884   1.489   8.532 -0.1707 -0.9550  1.7397
 9233SOL    HW239333   3.980   1.585   8.581 -2.1218  0.5327 -0.1876
 9234SOL     OW39334   3.139   0.686   5.124 -0.0534  0.0952  0.6229
 9234SOL    HW139335   3.048   0.713   5.115 -0.2140 -0.3585  0.9041
 9234SOL    HW239336   3.178   0.772   5.142  0.6928 -0.0419 -0.3523
 9235SOL     OW39337   3.684   1.503  14.982 -0.3398 -0.0829 -0.0450
 9235SOL    HW139338   3.742   1.455  15.042  1.6140  3.6667  1.0369
 9235SOL    HW239339   3.626   1.436  14.946 -0.9460  0.2446  0.3251
 9236SOL     OW39340   4.449   4.541   9.775  0.3491 -0.0488 -0.2261
 9236SOL    HW139341   4.448   4.570   9.866 -0.8560  0.2977 -0.3547
 9236SOL    HW239342   4.431   4.626   9.736  1.4816  0.8603  1.2234
 9237SOL     OW39343   0.931   1.251  15.384 -0.4958 -0.1851 -0.2117
 9237SOL    HW139344   1.022   1.246  15.355 -0.1918  4.1345 -0.0847
 9237SOL    HW239345   0.934   1.336  15.428  0.6445  0.1514 -0.9514
 9238SOL     OW39346   1.580   3.652   9.363 -0.1525 -0.0464  0.1178
 9238SOL    HW139347   1.646   3.691   9.421  0.9158 -1.7932  0.0806
 9238SOL    HW239348   1.527   3.729   9.345  1.3180  1.1126  0.7548
 9239SOL     OW39349   2.404   2.059   4.926  0.7569  0.1049 -0.1728
 9239SOL    HW139350   2.494   2.063   4.894  0.4210  0.2105 -1.1357
 9239SOL    HW239351   2.366   1.989   4.873  1.0417 -0.1640 -0.0194
 9240SOL     OW39352   0.629   1.822   6.964 -0.3263  0.0779 -0.8157
 9240SOL    HW139353   0.636   1.727   6.956 -0.6035  0.0777 -1.0403
 9240SOL    HW239354   0.721   1.827   6.990  0.3787  0.2080 -3.3055
 9241SOL     OW39355   4.155   3.665  12.847 -0.6427  0.4843 -0.4214
 9241SOL    HW139356   4.162   3.592  12.908 -3.2302  1.6377  1.2202
 9241SOL    HW239357   4.128   3.623  12.765 -0.4437  2.4130 -1.4950
 9242SOL     OW39358   0.407   4.514   4.979 -0.1558 -0.6196 -0.4286
 9242SOL    HW139359   0.314   4.497   4.993 -0.3039 -0.0866 -0.7331
 9242SOL    HW239360   0.434   4.425   4.998 -0.8701 -0.5789  0.7676
 9243SOL     OW39361   3.728   1.999   2.955 -0.1170  0.3700 -0.5860
 9243SOL    HW139362   3.765   2.018   3.041 -3.1181 -1.3465  1.0882
 9243SOL    HW239363   3.656   1.939   2.975 -0.2964  1.3908  1.7891
 9244SOL     OW39364   3.512   1.604  10.939  0.6703  0.1879  0.1411
 9244SOL    HW139365   3.592   1.565  10.973  0.0234 -0.8353  0.5085
 9244SOL    HW239366   3.533   1.618  10.847 -2.3159 -0.7102 -0.6961
 9245SOL     OW39367   3.408   2.710   5.629 -0.3853  0.0360  0.1286
 9245SOL    HW139368   3.410   2.736   5.721 -0.7608 -0.5646  0.3084
 9245SOL    HW239369   3.465   2.633   5.628  1.5086  1.4769 -1.5554
 9246SOL     OW39370   3.381   0.163   7.489 -0.8356  0.1341  0.0796
 9246SOL    HW139371   3.287   0.181   7.501 -0.5427  0.4567  1.9537
 9246SOL    HW239372   3.391   0.171   7.395  0.0491  1.4477  0.2971
 9247SOL     OW39373   0.081   1.541   7.341 -0.4510 -0.0200  0.0307
 9247SOL    HW139374   0.101   1.627   7.378  0.3043  0.0132 -0.4523
 9247SOL    HW239375   0.117   1.487   7.412  0.2490 -0.4748 -0.6697
 9248SOL     OW39376   0.068   3.083   7.124 -0.7596 -0.8687  0.1448
 9248SOL    HW139377   0.098   3.029   7.197  2.6195  1.9921  0.8513
 9248SOL    HW239378   0.008   3.144   7.167  0.3967  0.2168  0.1965
 9249SOL     OW39379   1.419   0.663   9.505  0.4714 -0.0041  0.3322
 9249SOL    HW139380   1.372   0.672   9.588 -1.3938  1.1390 -0.8564
 9249SOL    HW239381   1.491   0.725   9.520  0.1116  0.9946 -2.0249
 9250SOL     OW39382   1.823   4.153   5.483  0.3592  0.7837 -0.1327
 9250SOL    HW139383   1.892   4.165   5.417  0.2717 -0.3130 -0.4323
 9250SOL    HW239384   1.872   4.125   5.560 -3.9975  1.4710  2.8413
 9251SOL     OW39385   1.959   3.383   9.073  0.5336 -0.1385 -0.7376
 9251SOL    HW139386   1.941   3.341   9.157  0.7072  1.2302 -0.0172
 9251SOL    HW239387   1.883   3.366   9.017  0.9748 -1.6034 -0.8925
 9252SOL     OW39388   2.481   2.298   5.759 -0.0506  0.6012 -0.2884
 9252SOL    HW139389   2.527   2.381   5.768 -0.0581  0.8803 -3.0720
 9252SOL    HW239390   2.533   2.252   5.826 -1.6861  0.3839  0.8177
 9253SOL     OW39391   2.122   3.126   3.080 -0.5015 -0.1298 -0.2274
 9253SOL    HW139392   2.058   3.140   3.010  0.6090 -0.5576 -1.3275
 9253SOL    HW239393   2.075   3.059   3.129  1.9862 -1.4268  0.3786
 9254SOL     OW39394   1.882   0.950  17.659 -0.3159  0.0073 -0.7193
 9254SOL    HW139395   1.955   0.895  17.686 -0.3190 -0.6294 -1.9963
 9254SOL    HW239396   1.811   0.885  17.653 -0.5239  0.2325 -0.7027
 9255SOL     OW39397   1.156   1.696   3.249  0.1999  0.0201 -0.3501
 9255SOL    HW139398   1.180   1.645   3.326  1.9752 -0.4527 -1.2236
 9255SOL    HW239399   1.081   1.751   3.271  0.0734 -0.8111  1.2933
 9256SOL     OW39400   2.962   2.870  16.952  0.1744  0.0085  0.2278
 9256SOL    HW139401   2.897   2.930  16.915  0.5748 -0.7860 -1.7426
 9256SOL    HW239402   2.911   2.795  16.981  0.6844 -1.2547 -2.1422
 9257SOL     OW39403   2.041   0.115   6.952  0.0869 -0.4701  0.3702
 9257SOL    HW139404   2.044   0.184   6.886 -2.5199 -1.6127 -0.9377
 9257SOL    HW239405   1.976   0.057   6.912  0.4290 -0.5366 -0.0889
 9258SOL     OW39406   1.977   0.269  13.659  0.3055  0.4992 -0.1913
 9258SOL    HW139407   1.948   0.244  13.571  0.8185 -0.3398 -0.1153
 9258SOL    HW239408   1.948   0.360  13.664 -1.0039  0.0445  0.5939
 9259SOL     OW39409   1.617   0.094  16.728 -0.2056 -0.1884  0.3548
 9259SOL    HW139410   1.559   0.077  16.653 -0.8945 -0.5703  0.9792
 9259SOL    HW239411   1.567   0.086  16.809  1.5546  0.7026  1.5257
 9260SOL     OW39412   4.285   1.911  13.824 -0.2855 -0.4145 -0.8087
 9260SOL    HW139413   4.357   1.955  13.779 -0.7084  0.5896 -0.5104
 9260SOL    HW239414   4.244   1.976  13.881  0.5674  0.0076 -0.6674
 9261SOL     OW39415   3.681   4.423  13.812  1.0817  0.4989 -0.1601
 9261SOL    HW139416   3.627   4.347  13.832 -0.8241  2.2284  1.2728
 9261SOL    HW239417   3.768   4.382  13.813  1.5973  1.5296 -3.1078
 9262SOL     OW39418   4.683   3.241   5.759  0.1321  0.4147 -0.1789
 9262SOL    HW139419   4.673   3.170   5.695 -1.1146  1.0796 -0.7131
 9262SOL    HW239420   4.695   3.190   5.839  2.6152 -2.1565 -2.1695
 9263SOL     OW39421   3.910   1.442  17.508  0.5314 -0.2577 -0.3098
 9263SOL    HW139422   3.961   1.502  17.562  1.0286  0.2759 -1.3703
 9263SOL    HW239423   3.975   1.372  17.509  2.8679  1.8779 -2.7567
 9264SOL     OW39424   3.726   0.738  16.690 -0.2875 -0.1263 -0.1976
 9264SOL    HW139425   3.656   0.776  16.636  0.6377  1.7650 -0.0532
 9264SOL    HW239426   3.799   0.797  16.673 -1.3908  1.4862  0.6768
 9265SOL     OW39427   0.550   0.960   4.034 -0.0850 -0.0774 -0.4836
 9265SOL    HW139428   0.504   1.038   4.064  0.8642 -0.6801  2.5584
 9265SOL    HW239429   0.496   0.885   4.056 -1.0877  0.6009 -0.6709
 9266SOL     OW39430   0.789   3.489   4.176  0.6485  0.0049 -0.1563
 9266SOL    HW139431   0.749   3.508   4.091  0.3198 -0.3693 -0.0860
 9266SOL    HW239432   0.881   3.470   4.158  0.6696  1.0106 -1.1436
 9267SOL     OW39433   2.486   2.369   8.463  0.1286 -0.2222  0.4722
 9267SOL    HW139434   2.435   2.449   8.451  3.9657  1.9425 -1.4577
 9267SOL    HW239435   2.449   2.308   8.400 -1.4788  2.9525 -1.6878
 9268SOL     OW39436   3.875   0.898  15.020 -0.3360 -0.5926 -0.4203
 9268SOL    HW139437   3.867   0.856  14.934  1.1226 -0.3672 -0.6709
 9268SOL    HW239438   3.792   0.945  15.029 -0.4526 -0.3817 -2.7367
 9269SOL     OW39439   2.706   2.930   5.591  0.2115 -0.1722  0.0152
 9269SOL    HW139440   2.712   2.945   5.497 -0.9941 -3.2321 -0.5404
 9269SOL    HW239441   2.626   2.982   5.608 -0.4426 -0.5681 -1.8925
 9270SOL     OW39442   3.413   2.206   7.440  0.1711 -0.2823 -0.3040
 9270SOL    HW139443   3.494   2.170   7.404  2.4176  1.4399  3.0040
 9270SOL    HW239444   3.387   2.152   7.515  2.1382 -0.9395 -0.1097
 9271SOL     OW39445   3.650   3.793   8.636 -0.1747 -0.4640 -0.1776
 9271SOL    HW139446   3.710   3.767   8.566 -1.0689  0.0573 -1.1325
 9271SOL    HW239447   3.582   3.726   8.640 -0.1793 -0.4660 -0.2965
 9272SOL     OW39448   3.516   2.534  15.828  0.1578  0.0581  0.4266
 9272SOL    HW139449   3.422   2.535  15.812  0.1523 -2.8619  0.1129
 9272SOL    HW239450   3.534   2.627  15.825 -0.0858  0.1229  1.0963
 9273SOL     OW39451   4.374   4.319  10.020 -0.4654 -0.0736  0.1571
 9273SOL    HW139452   4.460   4.297  10.054 -0.4099 -0.9401 -0.5479
 9273SOL    HW239453   4.351   4.398  10.069  2.2975  0.5423  0.4400
 9274SOL     OW39454   0.471   4.392   5.312  0.3568  0.0279  0.5325
 9274SOL    HW139455   0.388   4.418   5.353  0.8490 -0.1052  1.6171
 9274SOL    HW239456   0.448   4.352   5.229  0.4373 -0.5328  0.7786
 9275SOL     OW39457   1.329   3.541   0.694 -0.5072 -0.7157 -0.0425
 9275SOL    HW139458   1.269   3.495   0.752 -0.7051 -1.8565 -1.1561
 9275SOL    HW239459   1.260   3.571   0.635  0.2935 -1.3666 -1.3103
 9276SOL     OW39460   3.130   1.895   4.166  0.1665 -0.1341 -0.4092
 9276SOL    HW139461   3.119   1.882   4.260  1.0546 -0.1683 -0.3110
 9276SOL    HW239462   3.221   1.924   4.159 -0.1191  1.0133  0.6969
 9277SOL     OW39463   2.014   3.703  10.198 -0.2100  0.2315 -0.1843
 9277SOL    HW139464   1.967   3.777  10.236  2.9517  1.3467  1.4515
 9277SOL    HW239465   2.100   3.730  10.228  0.4394  1.8515 -3.5198
 9278SOL     OW39466   1.765   2.043  17.522 -0.5589 -0.4100 -0.1529
 9278SOL    HW139467   1.683   2.039  17.474 -0.6571  0.6626 -0.0739
 9278SOL    HW239468   1.824   1.979  17.481  0.1407 -0.9081  1.6350
 9279SOL     OW39469   2.067   1.669   1.944 -0.3497  0.6393 -0.2246
 9279SOL    HW139470   2.097   1.722   1.870 -0.2369  0.0325 -0.6085
 9279SOL    HW239471   2.034   1.591   1.898 -0.4360 -0.2784  1.4190
 9280SOL     OW39472   1.470   0.059  16.496  0.3489  0.1688 -0.5357
 9280SOL    HW139473   1.418   0.108  16.431  0.6981  2.2057  0.7100
 9280SOL    HW239474   1.408   4.731  16.527 -0.9208  1.4654 -0.2845
 9281SOL     OW39475   2.070   4.534  13.541 -0.3601 -0.2787 -0.1682
 9281SOL    HW139476   2.138   4.597  13.515 -1.1630  0.9617  0.7183
 9281SOL    HW239477   2.113   4.499  13.619  0.1159  1.7864  0.5132
 9282SOL     OW39478   3.406   3.937  16.206 -0.5677  0.5721 -0.0348
 9282SOL    HW139479   3.477   3.938  16.271 -0.8645  0.4872  0.2945
 9282SOL    HW239480   3.436   4.001  16.142 -1.1677  0.6815 -0.2070
 9283SOL     OW39481   2.280   1.297   1.194  0.0717  0.1628 -0.2355
 9283SOL    HW139482   2.293   1.204   1.211 -0.3088  0.1250 -0.1456
 9283SOL    HW239483   2.329   1.336   1.267 -0.2359  2.0266 -1.0214
 9284SOL     OW39484   3.269   2.125   8.157 -0.4817  0.3999  0.8518
 9284SOL    HW139485   3.181   2.094   8.179 -0.6861 -0.7188 -1.5452
 9284SOL    HW239486   3.251   2.210   8.115 -1.1867  0.6170  1.5861
 9285SOL     OW39487   2.425   4.633   0.662 -0.3385 -0.0867 -0.1822
 9285SOL    HW139488   2.372   4.616   0.740 -0.9721  3.3730  0.1457
 9285SOL    HW239489   2.402   4.720   0.629 -1.0408  0.8750  2.7942
 9286SOL     OW39490   1.280   1.914  17.197 -0.1320  0.1517  0.2518
 9286SOL    HW139491   1.287   1.845  17.131  0.1242  1.4957 -1.1130
 9286SOL    HW239492   1.197   1.887  17.237 -0.3762  0.3639 -0.1217
 9287SOL     OW39493   2.806   0.480  15.873  0.2773  0.0070  0.2712
 9287SOL    HW139494   2.823   0.432  15.954 -2.6050 -2.5780 -0.6458
 9287SOL    HW239495   2.787   0.570  15.900  0.4291  0.3142 -0.6225
 9288SOL     OW39496   0.630   0.977   5.599  0.4370 -0.5584  0.3101
 9288SOL    HW139497   0.592   1.041   5.539  1.2361  0.6888  1.1077
 9288SOL    HW239498   0.550   0.933   5.628  0.6207  0.3870  2.2935
 9289SOL     OW39499   1.765   3.725   7.671  0.2729  0.2410 -0.2284
 9289SOL    HW139500   1.819   3.795   7.634 -0.3849  0.6663 -0.3965
 9289SOL    HW239501   1.833   3.658   7.675 -0.6310 -0.6720  0.0077
 9290SOL     OW39502   2.414   4.437   2.006 -0.0262 -0.2074  0.2863
 9290SOL    HW139503   2.431   4.433   2.100 -0.1559 -1.1970  0.2665
 9290SOL    HW239504   2.371   4.520   1.989  1.8628  0.3091 -2.0177
 9291SOL     OW39505   3.661   3.840   6.526 -0.1122  0.0988  0.4973
 9291SOL    HW139506   3.603   3.797   6.588  0.4656  0.6271  1.3937
 9291SOL    HW239507   3.696   3.910   6.581 -0.0180  2.2974 -2.3698
 9292SOL     OW39508   4.719   2.356   7.160 -0.0752 -0.1561  0.7322
 9292SOL    HW139509   4.715   2.367   7.065  2.6130  1.0121  0.7552
 9292SOL    HW239510   0.040   2.424   7.193  1.4665 -0.6615 -0.9816
 9293SOL     OW39511   0.534   3.019   3.998 -0.4789  1.2008  0.2891
 9293SOL    HW139512   0.461   3.024   3.936 -0.7146  1.1085  0.5571
 9293SOL    HW239513   0.582   3.098   3.972  0.9609  1.1088  2.6573
 9294SOL     OW39514   0.120   4.217   3.955 -0.5086  0.2218  0.0968
 9294SOL    HW139515   0.185   4.251   3.894  3.2281 -0.2336  3.8122
 9294SOL    HW239516   0.049   4.181   3.902  0.0480  1.7012 -1.6527
 9295SOL     OW39517   1.936   0.065   2.435  0.0266  0.2969  0.2508
 9295SOL    HW139518   1.867   0.089   2.496  0.6520  1.7307  0.3895
 9295SOL    HW239519   1.959   0.156   2.418  6.0534 -1.0995  1.0996
 9296SOL     OW39520   3.005   3.023   1.658  0.0287 -0.0852 -0.3118
 9296SOL    HW139521   2.932   3.047   1.715 -1.4105 -0.7759 -1.8956
 9296SOL    HW239522   2.971   2.942   1.620  1.1281 -0.0626 -1.3281
 9297SOL     OW39523   2.303   1.263   4.321  0.4603 -0.3854  0.1250
 9297SOL    HW139524   2.295   1.322   4.395  1.5153  0.9527 -0.8285
 9297SOL    HW239525   2.289   1.183   4.372  0.4504 -1.3594 -1.3767
 9298SOL     OW39526   1.662   0.200   6.816 -0.1910  0.6240 -0.7143
 9298SOL    HW139527   1.705   0.280   6.846 -0.4022  0.7762 -0.8156
 9298SOL    HW239528   1.735   0.142   6.798 -0.0598  0.6779 -0.3549
 9299SOL     OW39529   1.451   1.520   1.287  0.2256  1.0583  0.7467
 9299SOL    HW139530   1.386   1.590   1.295 -1.0956 -0.3960  2.7086
 9299SOL    HW239531   1.480   1.534   1.197 -2.3807  0.3000 -0.2319
 9300SOL     OW39532   2.519   3.267   3.623  0.0100  0.1064  1.0974
 9300SOL    HW139533   2.497   3.345   3.675  1.3698  0.1080  1.6647
 9300SOL    HW239534   2.612   3.260   3.642  0.6816  1.8546 -1.5255
 9301SOL     OW39535   0.906   4.076   0.814 -0.0038 -0.1178  0.3937
 9301SOL    HW139536   0.983   4.034   0.777  0.1864  0.3077  0.3067
 9301SOL    HW239537   0.916   4.058   0.907  1.1435 -1.3920  0.0316
 9302SOL     OW39538   3.062   0.378   5.129 -0.1105 -0.6404 -0.1356
 9302SOL    HW139539   3.083   0.470   5.147  1.6140 -1.4927  2.2908
 9302SOL    HW239540   3.079   0.377   5.035  3.3701 -1.7105  0.4768
 9303SOL     OW39541   1.918   1.773   3.466  0.6498  0.1343 -0.0762
 9303SOL    HW139542   1.966   1.778   3.549 -1.2957  1.4992  0.9467
 9303SOL    HW239543   1.983   1.729   3.410  2.0163 -0.3108  1.8726
 9304SOL     OW39544   0.926   2.330   6.696 -0.1759  0.1448 -0.2598
 9304SOL    HW139545   0.957   2.243   6.721  1.2850  0.5487 -0.6621
 9304SOL    HW239546   0.975   2.360   6.619 -2.0219  0.2139 -1.4239
 9305SOL     OW39547   3.130   0.558   4.220  0.5719  0.2542  0.1495
 9305SOL    HW139548   3.044   0.597   4.208  0.5441 -0.7539 -2.6692
 9305SOL    HW239549   3.111   0.465   4.228 -0.8569  0.4940 -0.4358
 9306SOL     OW39550   2.478   3.762   3.323  0.0317  0.0182 -0.3912
 9306SOL    HW139551   2.470   3.735   3.414 -0.0246  0.2637 -0.3231
 9306SOL    HW239552   2.485   3.857   3.333 -1.7849  0.3460 -2.1108
 9307SOL     OW39553   0.653   0.516   3.574 -0.3059 -0.2762 -0.3112
 9307SOL    HW139554   0.617   0.589   3.523  0.0509  0.3198  0.2783
 9307SOL    HW239555   0.572   0.486   3.613 -0.0691 -0.4131  0.0695
 9308SOL     OW39556   2.636   2.522   5.835 -0.1249 -0.0083 -0.1995
 9308SOL    HW139557   2.721   2.509   5.793  0.7699  0.1861  1.5282
 9308SOL    HW239558   2.668   2.559   5.918  2.2817 -0.4827 -0.9219
 9309SOL     OW39559   1.790   4.265  12.566  0.0720 -0.4234 -0.5810
 9309SOL    HW139560   1.810   4.172  12.576  1.4329 -0.0533  0.1609
 9309SOL    HW239561   1.829   4.284  12.481 -0.5611 -0.9736 -0.9936
 9310SOL     OW39562   0.031   2.581   9.027 -0.3441 -0.0032  0.2042
 9310SOL    HW139563   4.737   2.531   8.953 -1.1056  0.2807  0.3459
 9310SOL    HW239564   0.124   2.561   9.016 -0.1469  1.6590 -1.1885
 9311SOL     OW39565   3.825   2.463   3.038 -0.4425  0.5942  0.3453
 9311SOL    HW139566   3.917   2.459   3.063 -0.5096 -1.2825  0.3098
 9311SOL    HW239567   3.790   2.477   3.126 -1.3667  3.9151 -0.5258
 9312SOL     OW39568   0.090   0.681   0.586  0.2902  0.1747  0.5730
 9312SOL    HW139569   0.087   0.588   0.561 -0.7652  0.3095  0.2111
 9312SOL    HW239570   0.177   0.690   0.625 -0.3467  0.6647  1.8746
 9313SOL     OW39571   2.241   4.163   6.811 -0.1574 -0.0424 -0.3733
 9313SOL    HW139572   2.180   4.233   6.836  0.9127  1.2461 -1.3969
 9313SOL    HW239573   2.186   4.131   6.740  1.0425 -1.8029 -0.5010
 9314SOL     OW39574   0.092   0.338   2.419 -0.7823  0.2411 -0.7790
 9314SOL    HW139575   0.090   0.417   2.472  2.7578  0.2106 -0.5984
 9314SOL    HW239576   0.002   0.304   2.422 -0.2011 -1.3101 -0.6817
 9315SOL     OW39577   4.409   4.210   4.163  0.1195 -0.5347  0.4597
 9315SOL    HW139578   4.492   4.215   4.210 -0.6340  2.2805  1.5190
 9315SOL    HW239579   4.354   4.233   4.238  0.7524  2.1518  0.1216
 9316SOL     OW39580   3.080   0.293  12.120 -0.0466 -0.2611  0.0037
 9316SOL    HW139581   2.986   0.292  12.137 -0.0763  0.4421 -0.1108
 9316SOL    HW239582   3.109   0.226  12.182  1.0530  1.7756  1.6924
 9317SOL     OW39583   3.828   1.560   3.166  0.1558 -0.3316  0.5067
 9317SOL    HW139584   3.770   1.508   3.222 -0.5667  0.5587  0.6006
 9317SOL    HW239585   3.786   1.646   3.173  0.9353  0.0432  0.5088
 9318SOL     OW39586   0.010   2.342   6.507  0.3416  0.0169  0.2789
 9318SOL    HW139587   4.726   2.430   6.539 -0.9072 -0.5042  0.8233
 9318SOL    HW239588   0.092   2.328   6.554  0.2842 -2.1448 -0.2528
 9319SOL     OW39589   3.180   1.011   0.402  0.2670  0.0128  0.2572
 9319SOL    HW139590   3.210   1.040   0.316 -2.3985 -1.2823 -1.1084
 9319SOL    HW239591   3.256   1.029   0.457  0.1535  0.3420  0.3055
 9320SOL     OW39592   2.924   2.923   5.773  0.3753  0.1186 -0.3567
 9320SOL    HW139593   2.851   2.949   5.716  0.9881 -1.0168 -1.6513
 9320SOL    HW239594   2.877   2.865   5.833 -1.0714  2.1530  0.4899
 9321SOL     OW39595   2.945   2.132   5.590  0.1538 -0.3434  0.2302
 9321SOL    HW139596   3.017   2.194   5.602 -0.7696  0.6820  0.4168
 9321SOL    HW239597   2.881   2.153   5.658 -1.4790 -1.1487 -1.0717
 9322SOL     OW39598   4.714   3.300   6.451  0.3084  0.0172 -0.1367
 9322SOL    HW139599   0.049   3.291   6.390  0.2168  0.2968 -0.2869
 9322SOL    HW239600   0.020   3.256   6.523  0.9194  0.5204 -0.2089
 9323SOL     OW39601   0.236   1.628   8.884 -0.2401  0.5669 -0.3033
 9323SOL    HW139602   0.219   1.539   8.914 -0.5845  0.6723 -0.1823
 9323SOL    HW239603   0.202   1.683   8.954 -3.0062 -1.2320 -0.2267
 9324SOL     OW39604   2.441   4.417  16.979  0.2828 -0.3597 -0.1988
 9324SOL    HW139605   2.413   4.351  16.915 -2.9971  0.5867  0.2227
 9324SOL    HW239606   2.520   4.377  17.014  0.5765  0.6176  0.2414
 9325SOL     OW39607   3.997   1.994   2.417  0.0168 -0.2404  0.1726
 9325SOL    HW139608   3.988   2.090   2.422 -1.8784 -0.3676 -0.8641
 9325SOL    HW239609   3.976   1.976   2.326  1.6088 -0.1634 -0.2113
 9326SOL     OW39610   2.939   1.080   5.682  0.2678  0.0628 -0.5301
 9326SOL    HW139611   2.852   1.044   5.664  1.3201 -1.1312 -3.0885
 9326SOL    HW239612   2.962   1.021   5.754 -0.0206 -0.3759 -0.7997
 9327SOL     OW39613   1.266   0.710   9.740  0.4397 -0.0252  0.5395
 9327SOL    HW139614   1.201   0.746   9.679 -0.1625  1.8564  2.3094
 9327SOL    HW239615   1.264   0.769   9.815 -0.5670  0.9311 -0.2347
 9328SOL     OW39616   1.296   3.040   6.730 -0.0167 -0.3053  0.4821
 9328SOL    HW139617   1.252   2.957   6.711 -0.3632 -0.0477  0.1576
 9328SOL    HW239618   1.262   3.100   6.664 -0.2850  0.3626  1.2313
 9329SOL     OW39619   3.348   3.752   7.466  0.8636  0.2706  0.7295
 9329SOL    HW139620   3.253   3.750   7.456  0.8628  2.4192  0.4401
 9329SOL    HW239621   3.369   3.698   7.543 -1.9573 -0.2333  1.1456
 9330SOL     OW39622   3.064   2.340  11.413 -0.0058 -0.4843  0.0811
 9330SOL    HW139623   3.072   2.424  11.458  0.9595 -0.3513 -0.3329
 9330SOL    HW239624   3.094   2.267  11.468  1.3487 -0.4596 -0.6229
 9331SOL     OW39625   3.532   1.316   4.479  0.5847 -0.2259  0.2424
 9331SOL    HW139626   3.592   1.242   4.469  0.2040 -0.3875 -0.8285
 9331SOL    HW239627   3.451   1.272   4.452  0.1111 -0.8148  2.5545
 9332SOL     OW39628   1.526   3.021   9.582 -0.0872 -0.3385  0.1676
 9332SOL    HW139629   1.557   2.947   9.634  1.3475 -1.4312 -2.2279
 9332SOL    HW239630   1.505   3.086   9.649  0.0408 -0.5996  0.4583
 9333SOL     OW39631   3.703   1.548   2.029  0.1742  0.4125 -0.0975
 9333SOL    HW139632   3.691   1.638   2.059 -0.4372  0.5303 -0.7251
 9333SOL    HW239633   3.618   1.526   1.991  0.5885 -0.0346 -0.7832
 9334SOL     OW39634   1.418   1.699   4.953  0.3398 -0.1877 -0.5267
 9334SOL    HW139635   1.438   1.748   4.873  2.3999 -0.8418 -0.4140
 9334SOL    HW239636   1.340   1.650   4.928  1.0284 -0.7473 -1.5614
 9335SOL     OW39637   3.265   1.155   2.273 -0.2230  0.1164 -0.5278
 9335SOL    HW139638   3.264   1.205   2.192  1.7335 -0.7743 -1.0953
 9335SOL    HW239639   3.304   1.074   2.242  1.7327  0.1345  1.8644
 9336SOL     OW39640   4.086   2.374   5.722  0.6481  0.9832 -0.2123
 9336SOL    HW139641   4.110   2.299   5.667  1.1454 -0.8846  2.6047
 9336SOL    HW239642   4.003   2.344   5.759 -0.4860  2.7639 -1.2583
 9337SOL     OW39643   2.008   0.355  15.956 -0.7745  0.2631  0.6564
 9337SOL    HW139644   1.995   0.260  15.952 -0.1060  0.2143 -0.2741
 9337SOL    HW239645   2.102   0.356  15.971 -0.6915 -4.2483  0.2494
 9338SOL     OW39646   3.369   1.127   8.658 -0.4501  0.5162  0.1999
 9338SOL    HW139647   3.437   1.179   8.700 -0.4677  0.0690  0.7788
 9338SOL    HW239648   3.349   1.070   8.732  0.8648 -0.8889 -0.5143
 9339SOL     OW39649   2.402   1.092   8.931 -0.6220 -0.1871  0.0002
 9339SOL    HW139650   2.367   1.008   8.960 -0.3300 -0.7966 -1.4263
 9339SOL    HW239651   2.340   1.155   8.969  2.6739  1.7221  2.2433
 9340SOL     OW39652   0.783   1.599  10.624 -0.2222  0.1659 -0.0506
 9340SOL    HW139653   0.828   1.618  10.541  0.3047 -1.0005 -0.0317
 9340SOL    HW239654   0.828   1.662  10.681 -1.7802  1.3521 -0.1181
 9341SOL     OW39655   4.106   0.692   8.091  0.0574 -0.1249  0.0279
 9341SOL    HW139656   4.082   0.685   7.999 -1.4616 -0.1240  0.4248
 9341SOL    HW239657   4.035   0.749   8.118 -0.1545  0.3637 -1.5874
 9342SOL     OW39658   4.288   1.172   8.623 -0.3765 -0.4826  0.4487
 9342SOL    HW139659   4.255   1.252   8.583 -2.8732 -1.2945  0.8126
 9342SOL    HW239660   4.247   1.113   8.560 -1.7241  2.3536 -1.3000
 9343SOL     OW39661   2.006   3.879   3.530  0.3372 -0.4325  0.2281
 9343SOL    HW139662   2.012   3.807   3.468 -1.5202  0.5557 -1.1105
 9343SOL    HW239663   2.096   3.905   3.513  0.3982 -0.2277  0.8486
 9344SOL     OW39664   1.213   4.095   3.120  0.5050  0.8191  0.0282
 9344SOL    HW139665   1.287   4.156   3.115  2.9898 -2.2265 -1.1041
 9344SOL    HW239666   1.169   4.117   3.038 -1.1333  0.0795  0.7154
 9345SOL     OW39667   2.322   1.847   6.371 -0.1871  0.2662  0.6880
 9345SOL    HW139668   2.388   1.913   6.351 -0.1758 -0.2350 -0.9399
 9345SOL    HW239669   2.355   1.772   6.321  1.4507  1.7251 -0.4348
 9346SOL     OW39670   1.986   0.888   8.704  0.0268  0.4773  0.3678
 9346SOL    HW139671   1.946   0.809   8.742 -1.9319  1.1967 -0.2277
 9346SOL    HW239672   1.932   0.953   8.749  0.2387  0.5906  0.4621
 9347SOL     OW39673   2.502   0.856   3.841  0.0929 -0.3445  0.2011
 9347SOL    HW139674   2.425   0.911   3.854  0.0906  0.0046 -1.3337
 9347SOL    HW239675   2.477   0.796   3.770 -1.4226 -0.6448  0.9887
 9348SOL     OW39676   1.230   2.677  16.314  0.4290  0.0998  0.6892
 9348SOL    HW139677   1.281   2.597  16.301  2.4568  1.2406  1.4778
 9348SOL    HW239678   1.148   2.655  16.271  1.0816 -1.5419  0.3090
 9349SOL     OW39679   0.490   3.274   6.857  0.3735 -1.0261 -0.3047
 9349SOL    HW139680   0.445   3.262   6.773  0.4068  1.5161 -0.6712
 9349SOL    HW239681   0.556   3.341   6.840 -0.0592 -0.0826  1.7409
 9350SOL     OW39682   3.447   1.761  12.150  0.0299 -0.3043 -0.2955
 9350SOL    HW139683   3.413   1.818  12.081  1.1411  0.0722 -0.5388
 9350SOL    HW239684   3.433   1.814  12.228 -1.8216 -0.3425 -0.6041
 9351SOL     OW39685   1.387   3.284   9.434 -0.4519  0.1321  0.2032
 9351SOL    HW139686   1.302   3.272   9.476  0.1388 -0.2049  1.3088
 9351SOL    HW239687   1.433   3.347   9.489  0.0367  1.0878 -1.2967
 9352SOL     OW39688   1.869   1.529  17.646 -0.2186  0.1731 -0.4829
 9352SOL    HW139689   1.908   1.484  17.571 -0.1898 -1.0843  0.3078
 9352SOL    HW239690   1.776   1.514  17.629 -0.2222  2.3556 -2.4168
 9353SOL     OW39691   4.160   1.281   1.763  0.3409  0.3990  0.2139
 9353SOL    HW139692   4.186   1.362   1.805  1.2200 -0.8031  1.9896
 9353SOL    HW239693   4.119   1.247   1.843  2.7840  0.0230  1.2773
 9354SOL     OW39694   3.713   3.943   8.858  0.2113 -0.3567  0.1845
 9354SOL    HW139695   3.756   4.024   8.828 -2.6101  0.8023 -0.7308
 9354SOL    HW239696   3.682   3.894   8.782 -0.4943  0.2805  0.0545
 9355SOL     OW39697   4.439   3.501   8.881  0.1265 -0.4312  0.6319
 9355SOL    HW139698   4.529   3.493   8.847 -0.7004  1.6370 -2.0593
 9355SOL    HW239699   4.444   3.592   8.912  0.3681 -0.4769  0.7246
 9356SOL     OW39700   1.053   3.582   4.124  0.2787 -0.5600  0.2992
 9356SOL    HW139701   1.077   3.636   4.049 -1.6120 -0.2063 -0.0600
 9356SOL    HW239702   1.034   3.647   4.192  1.7715 -1.5692  1.6809
 9357SOL     OW39703   2.501   0.351   6.462  0.1279 -0.2120 -0.1722
 9357SOL    HW139704   2.545   0.304   6.392  0.6991 -0.1417  0.1437
 9357SOL    HW239705   2.419   0.304   6.446 -0.7989  1.6066 -0.7339
 9358SOL     OW39706   1.661   1.218  14.842  0.2760  0.1163 -0.0001
 9358SOL    HW139707   1.620   1.171  14.915  0.4240 -0.1722 -0.1024
 9358SOL    HW239708   1.736   1.161  14.826 -1.5376 -2.3414  0.1128
 9359SOL     OW39709   4.074   3.731   9.027 -0.5206  0.1457 -0.2083
 9359SOL    HW139710   4.131   3.708   9.100 -1.2305 -0.3724  0.1856
 9359SOL    HW239711   4.006   3.664   9.029 -1.4719  1.1847  1.3315
 9360SOL     OW39712   2.130   1.079   8.321 -0.3779 -0.0968  0.4297
 9360SOL    HW139713   2.177   1.017   8.377  1.0268  1.0856  0.5530
 9360SOL    HW239714   2.191   1.098   8.249  0.2048 -1.3001  0.6007
 9361SOL     OW39715   2.984   1.858   5.505  0.0693 -0.4891  0.0121
 9361SOL    HW139716   2.935   1.839   5.424  3.1628 -1.6566 -1.5991
 9361SOL    HW239717   2.997   1.953   5.504  1.0271 -0.6187  0.6510
 9362SOL     OW39718   4.435   2.070   5.527 -0.0167 -0.5036 -0.6107
 9362SOL    HW139719   4.415   2.088   5.435 -1.3456  0.2378 -0.1758
 9362SOL    HW239720   4.488   2.144   5.556 -0.0087 -0.7419 -0.0160
 9363SOL     OW39721   4.205   3.227   4.672 -0.2298  0.5728  0.5038
 9363SOL    HW139722   4.269   3.220   4.601  2.4095  1.2894  2.8109
 9363SOL    HW239723   4.252   3.285   4.731  1.6485 -0.8283  0.3786
 9364SOL     OW39724   0.416   2.361  12.658 -0.9184  0.0069  0.1601
 9364SOL    HW139725   0.415   2.368  12.563 -1.1956  1.1810  0.2393
 9364SOL    HW239726   0.328   2.388  12.687 -1.4879 -1.8064  0.0911
 9365SOL     OW39727   4.645   3.627   8.741  0.1602  0.3976 -0.2261
 9365SOL    HW139728   4.722   3.670   8.705 -0.0599  1.5471  0.6712
 9365SOL    HW239729   4.617   3.578   8.664  0.3784 -0.7245  0.4057
 9366SOL     OW39730   2.029   1.255   6.063  0.1280 -0.0051  0.0595
 9366SOL    HW139731   1.984   1.274   6.145  1.0117 -2.2930  1.0673
 9366SOL    HW239732   2.097   1.193   6.089 -0.5925 -1.8074 -2.4211
 9367SOL     OW39733   4.378   2.156  12.982  0.4387  0.5768 -0.3113
 9367SOL    HW139734   4.335   2.216  13.044  0.3695  0.5651 -0.3476
 9367SOL    HW239735   4.468   2.188  12.984  1.1357 -1.2461 -2.5130
 9368SOL     OW39736   1.358   1.047  10.247 -0.0990  0.2832  0.2163
 9368SOL    HW139737   1.302   1.084  10.178  0.3884 -0.6347 -0.6747
 9368SOL    HW239738   1.339   0.955  10.228  0.8454 -0.7073  4.2281
 9369SOL     OW39739   0.978   1.515   3.673  0.9696 -0.7283 -0.0784
 9369SOL    HW139740   1.007   1.605   3.683 -0.6999 -0.3551  1.5113
 9369SOL    HW239741   0.994   1.484   3.762  2.2790 -2.2756 -0.8620
 9370SOL     OW39742   2.012   0.236   2.109 -1.0603  0.9059  0.0789
 9370SOL    HW139743   2.009   0.250   2.015  0.8914 -0.3474 -0.1845
 9370SOL    HW239744   1.964   0.154   2.120 -1.6688  0.9224 -2.3728
 9371SOL     OW39745   4.333   3.864  15.148  0.2044 -0.0677  0.0058
 9371SOL    HW139746   4.359   3.954  15.132  1.0370 -0.2855  0.1505
 9371SOL    HW239747   4.238   3.870  15.135  0.5702  1.4319 -1.8927
 9372SOL     OW39748   4.622   0.218   9.525 -0.2888 -0.8009  0.0432
 9372SOL    HW139749   4.650   0.235   9.434  1.9638 -2.3262  0.4479
 9372SOL    HW239750   4.554   0.286   9.524  1.9158  1.4462  1.9979
 9373SOL     OW39751   0.050   1.345  10.981  0.1600 -0.3892 -0.5822
 9373SOL    HW139752   0.137   1.381  10.995  0.0727 -0.4624  0.1451
 9373SOL    HW239753   0.003   1.374  11.059  4.2023  0.7007  1.4162
 9374SOL     OW39754   3.918   1.136   8.491  0.0738 -0.6127 -0.3809
 9374SOL    HW139755   3.853   1.065   8.486  0.1720 -0.6220 -1.6206
 9374SOL    HW239756   3.872   1.210   8.450  0.2841  0.3527  1.1495
 9375SOL     OW39757   0.468   1.075   2.896 -0.0792  0.0939  0.2158
 9375SOL    HW139758   0.512   1.093   2.814  0.1146  0.3785  0.3826
 9375SOL    HW239759   0.474   0.979   2.899  2.3367  0.2086 -0.9265
 9376SOL     OW39760   0.875   3.112   5.041  0.8373  0.8053  0.2345
 9376SOL    HW139761   0.840   3.033   5.000 -0.9968  2.6910 -1.8471
 9376SOL    HW239762   0.794   3.153   5.071  1.4987  1.8604  0.5998
 9377SOL     OW39763   3.087   3.735   7.439  0.0559 -0.5020 -0.3128
 9377SOL    HW139764   3.045   3.717   7.355 -0.5788  0.4911 -0.1964
 9377SOL    HW239765   3.037   3.793   7.497 -0.5972  0.3241 -1.7233
 9378SOL     OW39766   0.786   1.743   7.468 -0.3874 -0.2109 -0.2067
 9378SOL    HW139767   0.707   1.690   7.475 -0.1489 -0.6247 -0.7320
 9378SOL    HW239768   0.758   1.834   7.479 -0.0579  0.1838 -2.5712
 9379SOL     OW39769   1.533   3.371   5.894  0.6056  0.3049 -0.8148
 9379SOL    HW139770   1.472   3.433   5.935 -0.7633 -2.3841  1.2207
 9379SOL    HW239771   1.527   3.296   5.953 -1.0682  1.7233  0.8572
 9380SOL     OW39772   1.205   2.215   6.277  0.5211  0.1016 -0.1518
 9380SOL    HW139773   1.234   2.159   6.205 -1.3301  0.8797 -1.5455
 9380SOL    HW239774   1.110   2.205   6.288  0.2464  2.8918  0.1156
 9381SOL     OW39775   0.326   2.240  16.867 -0.4366 -0.8649  0.0822
 9381SOL    HW139776   0.272   2.259  16.944 -1.7608  1.5158 -1.4391
 9381SOL    HW239777   0.262   2.226  16.798  0.5480 -0.2310 -0.9623
 9382SOL     OW39778   3.770   1.386  14.428  0.5664  0.0076 -0.1671
 9382SOL    HW139779   3.705   1.442  14.470 -1.8066 -1.9370 -1.2101
 9382SOL    HW239780   3.720   1.359  14.351  0.2830  0.2078 -0.0499
 9383SOL     OW39781   1.304   4.011  12.564  0.0695  0.3640  0.1310
 9383SOL    HW139782   1.352   4.039  12.487  0.1847 -0.5341 -0.1201
 9383SOL    HW239783   1.236   4.079  12.565  0.0683  0.3527  2.1563
 9384SOL     OW39784   3.760   0.789  14.785  0.0990 -0.1603  0.2665
 9384SOL    HW139785   3.701   0.842  14.732  1.5652  0.3503 -0.8424
 9384SOL    HW239786   3.708   0.709  14.795  1.2390 -0.8865  0.4207
 9385SOL     OW39787   3.147   3.627   8.541  0.2046 -0.1104  0.3212
 9385SOL    HW139788   3.073   3.648   8.484  1.1080  0.7623 -0.5416
 9385SOL    HW239789   3.119   3.543   8.577 -2.9865  0.7730 -0.1701
 9386SOL     OW39790   3.690   1.427  10.013 -0.0155 -0.2855  0.3152
 9386SOL    HW139791   3.712   1.459   9.926  0.5055  0.2830  0.6548
 9386SOL    HW239792   3.601   1.461  10.015  0.7579  1.7466 -0.1102
 9387SOL     OW39793   1.133   3.914  15.616 -0.2826  0.1471  0.0966
 9387SOL    HW139794   1.193   3.908  15.541 -2.3697  1.6805 -1.6962
 9387SOL    HW239795   1.198   3.917  15.686  1.8926 -2.2961 -1.8052
 9388SOL     OW39796   4.654   0.511   3.535 -0.1167  0.1406 -0.7768
 9388SOL    HW139797   4.629   0.571   3.465 -0.7838  0.2655 -0.4375
 9388SOL    HW239798   4.619   0.541   3.619 -0.4269 -1.2719 -0.4048
 9389SOL     OW39799   1.170   1.002   0.113  0.4379  0.4121  0.0015
 9389SOL    HW139800   1.241   1.064   0.127 -0.4303  1.2398  0.7586
 9389SOL    HW239801   1.094   1.059   0.125  1.2334  1.2095  1.2273
 9390SOL     OW39802   3.168   1.085   3.211 -0.4655  0.1696  0.4043
 9390SOL    HW139803   3.236   1.069   3.277  0.3181  1.2007 -0.1705
 9390SOL    HW239804   3.101   1.139   3.253 -1.9622  0.6658 -2.5995
 9391SOL     OW39805   1.161   1.923   2.544  0.2898  0.6014  0.0736
 9391SOL    HW139806   1.211   1.895   2.621 -1.8044 -0.0979  1.1889
 9391SOL    HW239807   1.189   2.014   2.544 -0.0396  0.7037  0.0659
 9392SOL     OW39808   3.869   0.137   4.642 -0.6192 -0.2508 -0.2772
 9392SOL    HW139809   3.780   0.103   4.630 -1.0143  0.5888  0.3703
 9392SOL    HW239810   3.858   0.224   4.680 -1.5033  0.4501 -2.1117
 9393SOL     OW39811   4.345   3.607   3.303  0.2642  0.6490 -0.1210
 9393SOL    HW139812   4.309   3.596   3.391  0.2470  1.4486 -0.0305
 9393SOL    HW239813   4.316   3.697   3.288 -1.0265  0.4892  1.4223
 9394SOL     OW39814   3.675   4.231   4.276  0.7568 -0.6884 -0.3546
 9394SOL    HW139815   3.746   4.264   4.331  1.0010  0.8899 -1.6177
 9394SOL    HW239816   3.731   4.206   4.203  0.1643 -0.0969 -1.0171
 9395SOL     OW39817   2.997   3.328   3.277 -0.0538  0.0447 -0.6182
 9395SOL    HW139818   2.988   3.348   3.371 -2.8006 -0.9738 -0.6606
 9395SOL    HW239819   3.088   3.342   3.254  0.3062  2.2786  2.1564
 9396SOL     OW39820   3.058   0.312   2.231  0.0976 -0.8591  0.2458
 9396SOL    HW139821   3.054   0.246   2.162  1.4946 -2.0263  1.2723
 9396SOL    HW239822   3.052   0.248   2.302 -0.9902 -0.9879  0.0453
 9397SOL     OW39823   1.249   3.651  15.407 -0.4575 -0.1659 -0.0960
 9397SOL    HW139824   1.342   3.670  15.425 -0.5110 -1.6935  1.7191
 9397SOL    HW239825   1.228   3.669  15.316  0.2308  0.5751 -0.1166
 9398SOL     OW39826   0.943   2.989   2.323  0.8376 -0.8432 -0.5473
 9398SOL    HW139827   0.893   2.985   2.241 -0.3828 -1.1714  0.2153
 9398SOL    HW239828   1.005   2.917   2.314  0.7548 -1.1255  1.2072
 9399SOL     OW39829   2.787   2.985   3.542 -0.6900 -0.1957 -0.3585
 9399SOL    HW139830   2.776   3.044   3.468 -1.5954  1.1404  0.8405
 9399SOL    HW239831   2.830   2.907   3.506  1.6882  0.7809  0.3420
 9400SOL     OW39832   3.230   2.008  12.274 -0.3017 -0.0173 -0.4530
 9400SOL    HW139833   3.149   1.957  12.274  0.6335 -1.5120  2.1339
 9400SOL    HW239834   3.288   1.957  12.331 -0.6448  0.1667  0.0652
 9401SOL     OW39835   2.508   0.807   5.116  0.0769  0.1301 -0.6474
 9401SOL    HW139836   2.554   0.750   5.055  0.4656 -0.2510  0.0019
 9401SOL    HW239837   2.558   0.885   5.091  0.4448  0.1025  0.0053
 9402SOL     OW39838   4.665   3.650   3.814 -0.5626  0.0967  0.4870
 9402SOL    HW139839   4.711   3.574   3.851  0.0531 -0.1981 -0.8602
 9402SOL    HW239840   4.586   3.639   3.867 -2.4212 -1.0431 -2.5262
 9403SOL     OW39841   1.637   1.254  14.535 -0.2720 -0.1259  0.4100
 9403SOL    HW139842   1.653   1.262  14.630  0.5997  2.2901  0.0453
 9403SOL    HW239843   1.707   1.310  14.502 -1.4226  0.0082 -1.7651
 9404SOL     OW39844   2.839   4.488   9.082  0.1312  0.9786  0.2385
 9404SOL    HW139845   2.787   4.419   9.122  3.8435 -2.0313 -0.1552
 9404SOL    HW239846   2.773   4.556   9.093  0.6050  1.5656 -0.4754
 9405SOL     OW39847   0.696   1.992   7.475 -0.1357  0.0620  0.0702
 9405SOL    HW139848   0.773   2.033   7.516 -0.1997 -1.1287  1.3974
 9405SOL    HW239849   0.677   2.044   7.398  0.3620 -0.2290 -0.2534
 9406SOL     OW39850   2.740   0.064   4.624  0.6856  0.1369 -0.7962
 9406SOL    HW139851   2.695   0.081   4.706 -0.6631 -0.9233 -1.3100
 9406SOL    HW239852   2.742   0.152   4.586  1.2685  0.5786  0.2623
 9407SOL     OW39853   4.220   3.082   8.273  0.3381 -0.2540  0.3725
 9407SOL    HW139854   4.217   3.150   8.205 -0.2705  0.6927  1.3578
 9407SOL    HW239855   4.145   3.028   8.247  0.5018  0.7210 -2.1823
 9408SOL     OW39856   0.164   1.900   3.997 -0.1830 -0.0175  0.4341
 9408SOL    HW139857   0.232   1.918   3.932  1.5446 -0.2032  2.1699
 9408SOL    HW239858   0.180   1.809   4.024  0.1295 -0.3310 -0.8029
 9409SOL     OW39859   2.078   3.843   2.986  0.0490 -0.2785 -0.7276
 9409SOL    HW139860   2.122   3.824   3.068  0.9196 -3.2420 -1.8727
 9409SOL    HW239861   2.138   3.901   2.941  2.9687 -2.3032  0.5825
 9410SOL     OW39862   4.693   0.379   3.179  0.0433  0.3996  0.1034
 9410SOL    HW139863   4.726   0.289   3.179  0.2521  0.4775 -0.3340
 9410SOL    HW239864   4.598   0.367   3.187  0.4869 -2.3582  1.1230
 9411SOL     OW39865   4.596   3.268   2.784  0.5902 -0.3888  0.1052
 9411SOL    HW139866   4.560   3.286   2.871  1.4211  2.2735 -0.1139
 9411SOL    HW239867   4.523   3.246   2.727 -0.1348 -2.6282  1.9147
 9412SOL     OW39868   0.171   3.303   6.273  0.2062 -0.5328 -0.1301
 9412SOL    HW139869   0.155   3.214   6.242  2.6342 -0.5519 -1.3397
 9412SOL    HW239870   0.267   3.310   6.273  0.2271 -0.8640 -0.7890
 9413SOL     OW39871   2.280   3.096  17.407 -0.2160  0.3373 -0.1373
 9413SOL    HW139872   2.352   3.123  17.463  0.0240 -2.5175  0.8944
 9413SOL    HW239873   2.295   3.135  17.320  1.1024 -0.3203 -0.1957
 9414SOL     OW39874   4.079   0.625   4.357 -0.4184 -0.0108 -0.8020
 9414SOL    HW139875   4.107   0.536   4.381  1.1746  0.8327  0.4849
 9414SOL    HW239876   4.071   0.622   4.261  0.7282  2.0400 -0.9584
 9415SOL     OW39877   4.091   0.932   3.035 -0.0138 -0.2348 -0.3120
 9415SOL    HW139878   4.069   0.842   3.060  0.5456 -0.3613 -0.2612
 9415SOL    HW239879   4.107   0.981   3.116 -2.9201 -0.2032  0.2147
 9416SOL     OW39880   1.402   3.092   5.170  0.1591  0.5124 -0.4913
 9416SOL    HW139881   1.483   3.083   5.220 -1.0749 -1.2280  1.1719
 9416SOL    HW239882   1.352   3.021   5.211  1.9199 -0.3136  0.2319
 9417SOL     OW39883   4.330   3.529   6.551 -0.3722  0.8704 -0.0341
 9417SOL    HW139884   4.371   3.444   6.538  0.2640  0.9657  1.2537
 9417SOL    HW239885   4.397   3.591   6.522  1.1552 -0.9678 -0.3877
 9418SOL     OW39886   0.599   2.294   3.893 -0.0022 -0.0225  0.6891
 9418SOL    HW139887   0.581   2.262   3.982  0.1157 -1.9615 -0.0020
 9418SOL    HW239888   0.688   2.261   3.884 -0.0530 -0.2754  1.0858
 9419SOL     OW39889   1.135   2.983  14.309  0.0378  1.1453 -0.1497
 9419SOL    HW139890   1.146   3.011  14.218  0.8375  1.4707  0.0535
 9419SOL    HW239891   1.215   3.001  14.358 -1.3975 -0.4924  2.7763
 9420SOL     OW39892   2.836   4.085   5.628 -0.0652 -0.5147 -0.2354
 9420SOL    HW139893   2.825   4.179   5.643  0.6084 -0.7043  1.5091
 9420SOL    HW239894   2.788   4.051   5.704 -0.0533  0.5062  0.2302
 9421SOL     OW39895   1.327   0.778  10.261  0.1113  0.5540 -0.2214
 9421SOL    HW139896   1.368   0.745  10.341 -0.2726 -0.1837 -0.3236
 9421SOL    HW239897   1.239   0.742  10.270  0.4436 -0.1316  0.3107
 9422SOL     OW39898   0.028   0.016   0.662  0.1048  0.1850  0.2899
 9422SOL    HW139899   4.711   4.737   0.739 -0.2077  0.6327  0.1713
 9422SOL    HW239900   0.022   4.674   0.611 -2.7976  1.9174 -2.0935
 9423SOL     OW39901   3.743   0.544   7.402 -0.0891 -0.5805  0.4120
 9423SOL    HW139902   3.680   0.609   7.433 -0.6611 -0.6836 -0.5571
 9423SOL    HW239903   3.768   0.511   7.489  1.3079  0.1548  0.2904
 9424SOL     OW39904   4.142   3.367   3.106  0.3717  0.7201 -0.4811
 9424SOL    HW139905   4.079   3.355   3.176 -0.9713 -1.2735 -2.0120
 9424SOL    HW239906   4.200   3.291   3.118 -0.9135  0.1724  2.1225
 9425SOL     OW39907   3.963   4.368   6.748  1.0186 -0.1438  0.2979
 9425SOL    HW139908   3.934   4.343   6.660  1.8806  0.1166 -0.0723
 9425SOL    HW239909   3.902   4.322   6.805  0.1706  3.0952  2.0205
 9426SOL     OW39910   4.731   4.015   8.835 -0.4788  0.2732  1.5719
 9426SOL    HW139911   4.692   3.996   8.750 -0.2400  2.5511  0.9616
 9426SOL    HW239912   0.037   4.099   8.829 -0.6198  0.0879 -1.7773
 9427SOL     OW39913   4.264   3.752   2.102  0.2563  0.1209  0.2190
 9427SOL    HW139914   4.239   3.737   2.011  1.9538 -0.2154 -0.2095
 9427SOL    HW239915   4.212   3.830   2.120 -2.2331 -1.3874 -0.4522
 9428SOL     OW39916   1.229   0.705  15.377  0.0252  0.5703 -0.2091
 9428SOL    HW139917   1.302   0.711  15.316  2.1879  0.6017  2.3970
 9428SOL    HW239918   1.160   0.744  15.322 -0.5487 -1.2190 -0.7393
 9429SOL     OW39919   0.786   2.566   5.179 -0.7353 -0.1715  0.8273
 9429SOL    HW139920   0.728   2.642   5.185 -0.2198  0.1593  1.5805
 9429SOL    HW239921   0.767   2.514   5.257 -0.8096 -0.3448  0.6939
 9430SOL     OW39922   0.025   3.898   9.062  0.4333  0.3560  0.6352
 9430SOL    HW139923   0.006   3.932   8.975  0.3560  0.4981  0.7075
 9430SOL    HW239924   0.103   3.845   9.045 -0.0375 -0.9397  2.5632
 9431SOL     OW39925   2.157   2.305   0.783  0.3687 -0.0212  0.4560
 9431SOL    HW139926   2.067   2.337   0.789  0.0972 -0.6787 -0.0935
 9431SOL    HW239927   2.156   2.222   0.735  0.0098  0.2337  0.0303
 9432SOL     OW39928   4.294   1.011   1.226  0.2416  0.1642 -0.1747
 9432SOL    HW139929   4.337   1.089   1.260 -1.6973  1.2744 -0.2335
 9432SOL    HW239930   4.201   1.021   1.249  0.3384  0.7249 -0.0363
 9433SOL     OW39931   3.948   0.108  12.851  0.1741  0.2946 -0.2111
 9433SOL    HW139932   3.935   0.202  12.835 -0.7356  0.4855  1.7175
 9433SOL    HW239933   4.003   0.108  12.929 -0.9639 -0.8047  0.5734
 9434SOL     OW39934   3.006   2.296   8.358 -0.0607 -0.2609  0.3587
 9434SOL    HW139935   2.944   2.365   8.332  1.0848  1.2087  1.5367
 9434SOL    HW239936   3.046   2.327   8.439 -1.3723 -0.7621  1.2082
 9435SOL     OW39937   2.234   3.440   9.052 -0.7240 -0.3996 -0.1621
 9435SOL    HW139938   2.144   3.414   9.073 -0.9790  0.6981  0.0722
 9435SOL    HW239939   2.270   3.384   8.983 -0.9999 -1.1565  0.3092
 9436SOL     OW39940   1.828   1.174   8.350  0.3573 -0.5056  0.3027
 9436SOL    HW139941   1.798   1.204   8.436  2.0673 -1.5490  1.2618
 9436SOL    HW239942   1.885   1.100   8.370  0.2337 -0.4434  0.8706
 9437SOL     OW39943   3.937   1.902   5.595 -0.1842 -0.2856  0.0694
 9437SOL    HW139944   3.925   1.810   5.570 -0.1138 -0.0462 -0.8612
 9437SOL    HW239945   4.030   1.923   5.590 -0.2017 -0.4056 -0.9512
 9438SOL     OW39946   1.587   2.756   8.073  0.5739 -0.4485  0.2686
 9438SOL    HW139947   1.567   2.787   7.984 -2.4558 -0.1381  1.0433
 9438SOL    HW239948   1.589   2.838   8.122 -0.2981  0.4454 -1.1749
 9439SOL     OW39949   1.995   1.320   8.620  0.3212 -0.0643  0.1664
 9439SOL    HW139950   2.020   1.385   8.685  1.3269  2.6182 -2.8895
 9439SOL    HW239951   2.050   1.250   8.656 -0.2726 -0.7559 -0.2558
 9440SOL     OW39952   1.664   1.875  10.524  0.2670  0.8280 -0.2789
 9440SOL    HW139953   1.594   1.932  10.491 -1.0763 -0.5475  0.2189
 9440SOL    HW239954   1.645   1.876  10.618 -0.7340 -0.4156 -0.4775
 9441SOL     OW39955   1.742   2.118   5.486 -0.2036  0.3026 -0.0015
 9441SOL    HW139956   1.830   2.136   5.520  0.1005 -0.2328 -0.5138
 9441SOL    HW239957   1.717   2.206   5.457  1.3820  0.0701 -2.0544
 9442SOL     OW39958   1.032   4.670   5.998 -0.0400  0.1149 -0.3729
 9442SOL    HW139959   1.086   4.723   5.940 -0.8498 -1.8462 -2.8813
 9442SOL    HW239960   0.983   4.620   5.932  0.0304 -1.9507  1.1231
 9443SOL     OW39961   4.241   1.472   2.542  0.1546  0.8315 -0.4401
 9443SOL    HW139962   4.207   1.493   2.629  1.7471  0.3306  0.3090
 9443SOL    HW239963   4.255   1.563   2.514 -2.6262  1.3350 -0.1741
 9444SOL     OW39964   4.673   4.711   6.037  0.2865 -0.1762 -0.3919
 9444SOL    HW139965   0.017   0.015   6.012  0.3608  0.5670  1.0884
 9444SOL    HW239966   4.640   4.689   5.950  0.2746  1.3557 -0.7683
 9445SOL     OW39967   4.232   2.447   8.099 -0.1804 -0.3876 -0.4110
 9445SOL    HW139968   4.300   2.447   8.166  1.9831 -0.9481 -2.6312
 9445SOL    HW239969   4.167   2.383   8.129 -0.9353 -0.1207 -1.5044
 9446SOL     OW39970   1.061   0.307   8.407 -0.2683  0.0856 -0.3532
 9446SOL    HW139971   1.067   0.251   8.484 -1.6630 -0.9089 -0.9697
 9446SOL    HW239972   1.149   0.339   8.384  0.0545 -0.9609 -0.5725
 9447SOL     OW39973   1.064   2.000   1.808  0.3915 -0.3003  0.4159
 9447SOL    HW139974   1.004   2.004   1.883 -0.4445 -2.3393 -0.1269
 9447SOL    HW239975   1.039   2.076   1.756  2.2274 -1.5809 -2.3272
 9448SOL     OW39976   0.639   0.578   5.256 -0.5610 -0.0888 -0.6585
 9448SOL    HW139977   0.677   0.522   5.189 -1.8592  1.5803 -2.7928
 9448SOL    HW239978   0.601   0.647   5.202 -1.3008 -0.1727 -0.2414
 9449SOL     OW39979   0.905   0.013   3.075 -0.2147 -0.3186 -0.5018
 9449SOL    HW139980   0.954   0.091   3.049 -1.1769  1.0805  1.8501
 9449SOL    HW239981   0.951   4.725   3.155 -3.1511 -2.1537  0.5929
 9450SOL     OW39982   3.076   1.694   5.990  0.1673 -0.2995 -0.4199
 9450SOL    HW139983   3.006   1.630   6.004 -0.7432  0.7400 -0.2483
 9450SOL    HW239984   3.157   1.645   5.978 -1.0270 -2.4126  0.2117
 9451SOL     OW39985   3.642   1.386   7.763  0.3376  0.3307  0.7037
 9451SOL    HW139986   3.671   1.473   7.735 -0.6775  0.4624  0.0463
 9451SOL    HW239987   3.627   1.396   7.857 -0.5581  1.0814  0.4809
 9452SOL     OW39988   0.253   3.078   5.851  0.4610  0.0609  0.2995
 9452SOL    HW139989   0.191   3.011   5.823  0.7887 -1.2251  2.7037
 9452SOL    HW239990   0.314   3.091   5.777  0.5990  2.1521  0.7623
 9453SOL     OW39991   1.579   3.663   9.833  0.6775  0.2406  0.5885
 9453SOL    HW139992   1.625   3.725   9.888  1.6835  1.3377 -1.4851
 9453SOL    HW239993   1.601   3.586   9.885 -1.1125 -0.0475  0.9389
 9454SOL     OW39994   0.489   4.693   7.438 -0.4509 -0.1169  0.4062
 9454SOL    HW139995   0.561   4.728   7.385  0.1389 -2.1952 -0.1688
 9454SOL    HW239996   0.414   0.009   7.415 -1.4992 -0.8539  2.0770
 9455SOL     OW39997   2.609   3.313   7.378 -0.1979  0.6413  0.0936
 9455SOL    HW139998   2.678   3.353   7.432 -0.1654  0.2270  0.3673
 9455SOL    HW239999   2.606   3.362   7.296  2.1945  0.6281 -0.0241
 9456SOL     OW40000   2.939   0.590   7.448  0.1966  0.1964  0.2099
 9456SOL    HW140001   2.898   0.666   7.488  2.3216  0.7735  1.3104
 9456SOL    HW240002   2.964   0.544   7.528 -0.5966 -0.1878  0.2385
 9457SOL     OW40003   1.130   2.661   2.620 -0.0601  0.0365  0.7246
 9457SOL    HW140004   1.062   2.613   2.669 -1.8205  0.5733 -1.1602
 9457SOL    HW240005   1.110   2.741   2.668 -1.2483 -0.5511  1.2237
 9458SOL     OW40006   4.635   0.644   3.273  0.2058 -0.1129  0.2410
 9458SOL    HW140007   4.660   0.705   3.204  0.0863 -1.0930 -0.6674
 9458SOL    HW240008   4.672   0.560   3.248 -0.6910 -0.4807  0.1317
 9459SOL     OW40009   1.118   4.543   2.939  0.0702  0.0749  0.6934
 9459SOL    HW140010   1.107   4.504   3.025 -0.9914 -2.1757 -0.4531
 9459SOL    HW240011   1.025   4.548   2.916  0.3056 -2.9066 -0.8988
 9460SOL     OW40012   3.048   1.995   8.555 -0.0910  0.0799  0.7805
 9460SOL    HW140013   3.075   2.082   8.587  2.0287  0.0596 -0.9636
 9460SOL    HW240014   3.139   1.976   8.530 -0.3775 -0.8939  0.5045
 9461SOL     OW40015   0.998   4.450   4.364  0.3773 -0.6077  0.1464
 9461SOL    HW140016   0.939   4.414   4.298 -0.6238  4.9723 -1.9794
 9461SOL    HW240017   0.953   4.475   4.444 -0.4733 -1.1396 -0.1609
 9462SOL     OW40018   2.478   4.028   2.216  0.2595 -0.0188  0.3663
 9462SOL    HW140019   2.389   4.003   2.192  0.0922  0.8241  0.1081
 9462SOL    HW240020   2.519   4.050   2.132 -0.1443  0.5598  0.3204
 9463SOL     OW40021   1.451   2.768  10.009  0.4360  0.6141  0.0324
 9463SOL    HW140022   1.508   2.846  10.007  1.5612 -0.2819 -4.1125
 9463SOL    HW240023   1.470   2.735  10.096 -2.8508 -0.1527  0.4173
 9464SOL     OW40024   2.785   1.348   7.196 -0.4256  0.3008  0.0307
 9464SOL    HW140025   2.733   1.300   7.261  1.4694 -0.5290  0.9096
 9464SOL    HW240026   2.730   1.338   7.118 -0.4480 -0.7559  0.1897
 9465SOL     OW40027   3.718   2.044   1.809  0.0074 -0.1192 -0.3691
 9465SOL    HW140028   3.676   2.051   1.724  0.4745  0.3973 -0.5561
 9465SOL    HW240029   3.697   2.128   1.849 -1.0002 -0.3396 -0.4417
 9466SOL     OW40030   3.017   0.059   4.903  0.9849 -0.2239  0.4522
 9466SOL    HW140031   2.926   0.028   4.903  0.5128  1.1994 -1.0063
 9466SOL    HW240032   3.031   0.081   4.996 -0.0218  0.5766  0.4097
 9467SOL     OW40033   3.221   2.843   8.542 -0.2653  0.0644 -0.1652
 9467SOL    HW140034   3.157   2.802   8.483  0.0888 -2.0155  0.8814
 9467SOL    HW240035   3.290   2.778   8.553 -0.5176 -0.2144 -0.2048
 9468SOL     OW40036   2.626   3.047  10.454 -0.1434  0.0829  0.1044
 9468SOL    HW140037   2.648   2.993  10.378 -0.1143  0.9720 -0.5210
 9468SOL    HW240038   2.537   3.012  10.463 -0.1021  0.4192  1.7234
 9469SOL     OW40039   1.954   0.343   2.348  0.0822 -0.2114 -0.5921
 9469SOL    HW140040   1.993   0.354   2.261 -0.8042  1.4130 -0.7849
 9469SOL    HW240041   1.865   0.335   2.315 -0.0995  0.8523 -0.3338
 9470SOL     OW40042   2.873   1.087  16.849  0.4236  0.4101 -0.7500
 9470SOL    HW140043   2.933   1.013  16.836 -0.9634 -1.2403  2.1086
 9470SOL    HW240044   2.935   1.127  16.910 -1.4611  0.2045  1.2825
 9471SOL     OW40045   4.209   0.417   0.365 -0.1890  0.0766  0.9168
 9471SOL    HW140046   4.178   0.427   0.275  0.7133 -1.7977  0.4014
 9471SOL    HW240047   4.237   0.504   0.393  4.0375 -0.7660 -0.6407
 9472SOL     OW40048   2.411   2.958  11.195 -0.2355  0.7303 -0.4764
 9472SOL    HW140049   2.407   3.028  11.260  0.4883 -0.3433  0.7292
 9472SOL    HW240050   2.344   2.908  11.241  0.4442  1.5362  1.3933
 9473SOL     OW40051   1.812   3.505   6.027 -0.2106 -0.1486  0.0155
 9473SOL    HW140052   1.728   3.535   5.993 -0.9568 -0.2902  1.6950
 9473SOL    HW240053   1.845   3.455   5.953 -1.4966 -0.9404 -0.0351
 9474SOL     OW40054   1.455   0.311   4.265  0.6036  0.1136 -0.3593
 9474SOL    HW140055   1.468   0.319   4.359  0.5957 -1.6856 -0.1978
 9474SOL    HW240056   1.438   0.217   4.261  1.3139 -0.0284 -0.0654
 9475SOL     OW40057   1.040   4.701  15.858 -0.1273 -0.1426 -0.2283
 9475SOL    HW140058   0.999   4.617  15.843  0.9207 -0.9237  1.2156
 9475SOL    HW240059   0.965   0.022  15.865 -0.4070 -0.5896  0.5875
 9476SOL     OW40060   0.981   4.250   2.987 -0.4165  0.0901 -0.2601
 9476SOL    HW140061   0.897   4.203   2.987 -2.0952  3.0989 -0.7326
 9476SOL    HW240062   0.963   4.301   2.909 -0.5808 -0.1450 -0.3761
 9477SOL     OW40063   0.926   0.310  10.444 -0.2973 -1.0126  0.4648
 9477SOL    HW140064   0.941   0.345  10.533  2.9021 -0.3297 -0.3512
 9477SOL    HW240065   1.015   0.301  10.412 -0.2819  0.9066 -0.0174
 9478SOL     OW40066   3.829   4.014   8.502 -0.3107 -0.1912 -0.6571
 9478SOL    HW140067   3.789   4.098   8.524 -1.1621 -0.3929 -1.4312
 9478SOL    HW240068   3.891   4.008   8.574  2.1721  2.4393 -2.6041
 9479SOL     OW40069   4.528   0.928   2.217  0.1697 -0.1187 -0.2788
 9479SOL    HW140070   4.485   0.962   2.138 -3.2001  0.6697  1.9051
 9479SOL    HW240071   4.537   0.837   2.189  1.3815 -0.0665 -0.0438
 9480SOL     OW40072   3.088   0.290   4.288 -0.3846 -0.8029 -0.0321
 9480SOL    HW140073   3.009   0.239   4.269 -0.0107 -0.5751 -2.2397
 9480SOL    HW240074   3.160   0.228   4.277  0.0741 -0.2571 -0.1346
 9481SOL     OW40075   3.778   1.614  14.733 -0.0334  0.0829  0.3975
 9481SOL    HW140076   3.866   1.585  14.708  0.1738 -0.5671  1.8926
 9481SOL    HW240077   3.768   1.593  14.826  0.1894 -1.7812  0.0195
 9482SOL     OW40078   0.746   3.579   2.661 -0.1104  0.2943  0.5678
 9482SOL    HW140079   0.675   3.635   2.691 -0.1313  1.1117 -1.0003
 9482SOL    HW240080   0.790   3.635   2.597  1.9165 -1.1307  0.6880
 9483SOL     OW40081   1.220   3.150   5.953  0.0190 -0.2824  0.7523
 9483SOL    HW140082   1.237   3.065   5.913 -0.2862  0.3400 -0.7019
 9483SOL    HW240083   1.125   3.155   5.944  0.3161  1.9337 -1.0591
 9484SOL     OW40084   1.574   2.757   4.115  0.3653 -0.0031  0.1080
 9484SOL    HW140085   1.480   2.767   4.099  0.8004  0.5043 -2.1092
 9484SOL    HW240086   1.604   2.750   4.025 -0.0064  0.8023 -0.0803
 9485SOL     OW40087   0.278   4.161  15.930 -0.3159 -0.0339 -0.5527
 9485SOL    HW140088   0.256   4.131  15.842 -1.3982 -1.8154  0.3197
 9485SOL    HW240089   0.373   4.157  15.931 -0.2543  1.7171  0.7572
 9486SOL     OW40090   2.460   3.592  12.644 -0.0697  0.9303  0.2227
 9486SOL    HW140091   2.550   3.584  12.674  0.9083  0.3612 -2.9181
 9486SOL    HW240092   2.462   3.571  12.551  1.3701  1.0516  0.2380
 9487SOL     OW40093   4.061   3.151   3.857 -0.2550 -0.4676 -0.0763
 9487SOL    HW140094   4.156   3.164   3.856 -0.6741  2.3829 -2.8723
 9487SOL    HW240095   4.042   3.160   3.950  2.7040 -3.3299  0.8151
 9488SOL     OW40096   3.515   1.397  12.943 -0.2561  0.9164 -0.1028
 9488SOL    HW140097   3.596   1.431  12.905  0.5363 -0.7024  0.1551
 9488SOL    HW240098   3.498   1.448  13.022 -0.3291  0.2878  0.2844
 9489SOL     OW40099   0.281   0.935  13.037  0.3962  0.0393 -0.3886
 9489SOL    HW140100   0.352   0.999  13.035  1.1060 -0.7605 -0.9095
 9489SOL    HW240101   0.232   0.946  13.118  0.3755  1.1778 -0.5610
 9490SOL     OW40102   0.047   3.184   8.309 -0.9008 -0.1067 -0.2249
 9490SOL    HW140103   0.008   3.168   8.395  1.3422 -3.3766  0.1986
 9490SOL    HW240104   4.709   3.222   8.267 -0.5595 -1.4782 -2.0441
 9491SOL     OW40105   4.061   1.988   7.569  0.3495  0.0696 -0.1111
 9491SOL    HW140106   4.054   2.075   7.607 -1.4620  0.0242 -0.3124
 9491SOL    HW240107   4.148   1.961   7.599 -0.3205 -0.2029  1.6151
 9492SOL     OW40108   2.653   4.486  14.807  0.3299 -0.0164  0.1295
 9492SOL    HW140109   2.659   4.432  14.886  0.1646  1.6164  1.2624
 9492SOL    HW240110   2.742   4.490  14.772  0.0792  0.3916 -0.4570
 9493SOL     OW40111   4.156   0.272   9.387  0.3995  0.1201  0.2644
 9493SOL    HW140112   4.106   0.250   9.466 -0.8659  0.0844 -0.5537
 9493SOL    HW240113   4.222   0.202   9.380 -2.4576 -2.8121  2.5615
 9494SOL     OW40114   3.847   3.944   3.102 -0.1489  0.0356  0.1860
 9494SOL    HW140115   3.850   4.022   3.159 -0.8520  1.6843 -2.0304
 9494SOL    HW240116   3.893   3.963   3.020 -1.0219  0.2385 -0.2588
 9495SOL     OW40117   1.738   3.059   8.987 -0.0714  0.0634 -0.7491
 9495SOL    HW140118   1.672   2.991   8.973  0.1284  0.1755 -2.1764
 9495SOL    HW240119   1.726   3.126   8.921 -1.6424 -0.5395 -1.0718
 9496SOL     OW40120   4.630   1.373   8.752 -0.4366 -0.1709  0.7157
 9496SOL    HW140121   4.566   1.320   8.800 -0.8453 -1.6161 -1.3806
 9496SOL    HW240122   4.716   1.335   8.772 -0.7450 -1.0080  0.4744
 9497SOL     OW40123   1.545   2.959  15.052 -0.5344 -0.4344 -0.1785
 9497SOL    HW140124   1.592   3.015  15.113  1.2110 -2.9045  0.7416
 9497SOL    HW240125   1.586   2.875  15.070 -0.3607 -0.2457  0.2961
 9498SOL     OW40126   0.265   0.519   2.290  0.3603  0.5777  0.1511
 9498SOL    HW140127   0.189   0.483   2.335  1.1908 -0.6099  0.6121
 9498SOL    HW240128   0.270   0.457   2.217 -2.6877  0.2769  0.1978
 9499SOL     OW40129   0.545   3.075   3.324 -0.4364 -0.5655 -0.2156
 9499SOL    HW140130   0.550   3.156   3.274 -0.7168  0.5941  1.6690
 9499SOL    HW240131   0.466   3.035   3.285 -0.4443  0.0476 -0.8280
 9500SOL     OW40132   1.641   1.916   5.367  0.3312  0.1763 -0.2088
 9500SOL    HW140133   1.576   1.951   5.306 -0.3286  0.3276  0.5673
 9500SOL    HW240134   1.674   1.990   5.417 -0.8060  1.5338 -1.4613
 9501SOL     OW40135   0.692   1.566   6.911  0.2738  0.0445  0.2186
 9501SOL    HW140136   0.765   1.504   6.915  0.7032  0.5171 -0.1671
 9501SOL    HW240137   0.707   1.598   6.822  0.5114  0.0827  0.2714
 9502SOL     OW40138   2.361   3.507   1.360  0.1746  0.5474 -0.4062
 9502SOL    HW140139   2.443   3.555   1.377  1.1485 -0.9472 -0.8598
 9502SOL    HW240140   2.390   3.420   1.388  2.9017  1.6649  0.2752
 9503SOL     OW40141   1.668   3.792  15.816 -0.0080 -0.2398  0.1421
 9503SOL    HW140142   1.681   3.860  15.750  0.6006 -0.6128 -0.1240
 9503SOL    HW240143   1.616   3.848  15.873  2.5302  1.1783  1.0972
 9504SOL     OW40144   0.358   2.935   6.122  0.5621  0.0979 -0.4602
 9504SOL    HW140145   0.352   2.941   6.027  1.7551  4.4663 -0.2723
 9504SOL    HW240146   0.442   2.980   6.133 -0.2313  1.4558  0.0714
 9505SOL     OW40147   2.888   2.850   4.238  0.0583 -0.6051 -0.1726
 9505SOL    HW140148   2.814   2.791   4.251  0.7761 -1.0186  2.0243
 9505SOL    HW240149   2.845   2.927   4.201 -1.2059 -1.0791  0.3262
 9506SOL     OW40150   3.822   4.510   5.531  0.1695 -0.0615 -0.2163
 9506SOL    HW140151   3.767   4.434   5.513 -1.5358  0.9384  0.6934
 9506SOL    HW240152   3.799   4.541   5.619 -3.3874 -1.9538 -0.4718
 9507SOL     OW40153   2.134   2.142   3.483  0.6224  0.5893 -0.1735
 9507SOL    HW140154   2.127   2.085   3.407  0.0587  1.5060 -0.8028
 9507SOL    HW240155   2.186   2.213   3.445 -1.7842  2.2913 -0.2460
 9508SOL     OW40156   2.728   3.333   8.249  0.6236 -0.2845  0.8270
 9508SOL    HW140157   2.817   3.301   8.237  0.2053 -0.7041 -1.2270
 9508SOL    HW240158   2.670   3.259   8.229 -1.5458  1.2503  1.3916
 9509SOL     OW40159   2.101   1.755   5.574 -0.3228  0.4116 -0.2723
 9509SOL    HW140160   2.049   1.679   5.601  1.5544 -1.2704 -1.4174
 9509SOL    HW240161   2.154   1.764   5.653 -1.3526 -3.3386  0.8462
 9510SOL     OW40162   1.953   4.657   7.988  0.0980 -0.2560 -0.3264
 9510SOL    HW140163   1.910   0.001   8.011  0.5904 -0.3648  0.9899
 9510SOL    HW240164   2.045   4.679   7.998 -0.3293  0.8617  1.2391
 9511SOL     OW40165   2.152   1.586   6.346 -0.1140 -0.1711  0.6018
 9511SOL    HW140166   2.070   1.595   6.298  2.1070  2.3785 -2.7514
 9511SOL    HW240167   2.157   1.677   6.374  2.3961  0.0601 -0.5862
 9512SOL     OW40168   0.452   0.548  17.104  0.2300  0.0218  0.2948
 9512SOL    HW140169   0.429   0.546  17.197  1.4011 -0.7199  0.5606
 9512SOL    HW240170   0.401   0.625  17.076  1.8194  0.2376 -2.0012
 9513SOL     OW40171   1.918   0.369   5.188  0.3486 -0.1498  0.1846
 9513SOL    HW140172   1.935   0.276   5.173 -0.6904 -0.1096 -1.1861
 9513SOL    HW240173   1.927   0.364   5.283  0.9571 -2.4515  0.0046
 9514SOL     OW40174   1.445   2.275   5.679  0.5389  0.0957  0.3980
 9514SOL    HW140175   1.351   2.259   5.689  0.4214  1.4867  1.5528
 9514SOL    HW240176   1.450   2.359   5.724  2.2549  0.0365  0.3148
 9515SOL     OW40177   3.026   4.701   6.041 -0.3119  0.0863 -0.6624
 9515SOL    HW140178   3.012   4.674   5.951 -0.6641 -0.3072 -0.4880
 9515SOL    HW240179   2.978   4.631   6.086  1.9002 -0.7134  0.4639
 9516SOL     OW40180   2.763   4.361   5.634 -0.8545 -0.4443 -0.2023
 9516SOL    HW140181   2.812   4.417   5.695 -1.8032 -1.0462  1.1262
 9516SOL    HW240182   2.672   4.386   5.650 -0.5458 -0.1370  1.1071
 9517SOL     OW40183   0.367   1.109   9.967  0.0130  0.5200  0.0061
 9517SOL    HW140184   0.351   1.136   9.877 -2.0145  1.2995  0.5973
 9517SOL    HW240185   0.312   1.030   9.971 -0.4656  0.8393 -0.2584
 9518SOL     OW40186   3.123   1.141   6.795  1.0181  0.1945 -0.6770
 9518SOL    HW140187   3.216   1.131   6.775  1.5009  0.6821  1.2983
 9518SOL    HW240188   3.119   1.235   6.777 -0.4669 -0.3966 -3.3198
 9519SOL     OW40189   2.696   4.343   4.648 -0.2116 -0.2578 -0.2098
 9519SOL    HW140190   2.773   4.365   4.595  0.0914 -0.3645  0.1890
 9519SOL    HW240191   2.627   4.318   4.587 -0.6638 -0.6791  0.4775
 9520SOL     OW40192   0.177   2.353   3.097 -0.0561  0.2396  0.4868
 9520SOL    HW140193   0.173   2.288   3.167  1.9797 -0.1596  0.2435
 9520SOL    HW240194   0.134   2.419   3.151  0.0343  0.8661 -0.2018
 9521SOL     OW40195   2.862   3.813  14.251  0.0945  0.2070  0.1111
 9521SOL    HW140196   2.936   3.812  14.191 -0.6897  0.9126 -0.8862
 9521SOL    HW240197   2.907   3.828  14.334 -2.9991 -0.4313  1.9090
 9522SOL     OW40198   0.382   4.038   7.901 -0.3652 -0.1177 -0.0379
 9522SOL    HW140199   0.404   4.021   7.810  1.0273  0.3162  0.2097
 9522SOL    HW240200   0.397   3.954   7.944  0.3903  0.5365  0.9707
 9523SOL     OW40201   0.479   2.610   5.622  0.1209  0.4273 -0.4061
 9523SOL    HW140202   0.570   2.608   5.650  0.0636  2.9424  0.0375
 9523SOL    HW240203   0.427   2.616   5.702  0.0815 -0.7693 -0.3462
 9524SOL     OW40204   0.915   3.081   0.584 -0.8875  0.0760 -0.0843
 9524SOL    HW140205   0.823   3.058   0.570 -0.6581  0.1381 -1.7671
 9524SOL    HW240206   0.950   3.001   0.545  2.6006  0.9974  1.1623
 9525SOL     OW40207   3.274   1.431   2.708 -0.0022 -0.0690  0.5026
 9525SOL    HW140208   3.202   1.422   2.771  2.8180 -0.9449  3.5554
 9525SOL    HW240209   3.227   1.395   2.632 -1.5858  1.1413  0.9065
 9526SOL     OW40210   0.610   2.024   6.764 -0.3313 -0.2170  0.2446
 9526SOL    HW140211   0.679   1.984   6.712 -1.1441  0.8307 -1.6561
 9526SOL    HW240212   0.623   1.979   6.847 -1.4554  1.4616  1.3539
 9527SOL     OW40213   1.698   4.236   8.474 -0.2966 -0.0479  0.4444
 9527SOL    HW140214   1.779   4.209   8.430 -0.4778 -0.1205  0.1505
 9527SOL    HW240215   1.743   4.269   8.551 -0.1764  0.0651  0.3267
 9528SOL     OW40216   1.832   1.318   6.557 -0.5507 -0.3226 -0.6679
 9528SOL    HW140217   1.793   1.237   6.589  3.1889 -1.4702  0.8709
 9528SOL    HW240218   1.765   1.387   6.555  0.1809  0.3700 -1.5067
 9529SOL     OW40219   1.505   1.622   4.024 -0.1670 -0.2602 -0.2810
 9529SOL    HW140220   1.551   1.566   3.963 -1.6541 -1.8999  0.0932
 9529SOL    HW240221   1.428   1.571   4.049  0.4984 -0.4439  1.4244
 9530SOL     OW40222   2.741   2.435   3.756  0.0167 -0.3463  0.1849
 9530SOL    HW140223   2.699   2.430   3.670  0.0599  0.7633  0.0984
 9530SOL    HW240224   2.679   2.495   3.797 -0.6676 -1.0461  0.1623
 9531SOL     OW40225   0.822   1.278   8.471  0.0781  0.4878  0.7974
 9531SOL    HW140226   0.760   1.348   8.452 -0.5312 -0.8118 -1.9499
 9531SOL    HW240227   0.900   1.312   8.427  1.1240 -1.7848  0.8604
 9532SOL     OW40228   4.243   3.727   4.957  0.0630  0.3204 -0.4959
 9532SOL    HW140229   4.196   3.643   4.957  0.0688  0.3094  0.7407
 9532SOL    HW240230   4.289   3.721   5.041  1.4775 -0.6131 -1.3412
 9533SOL     OW40231   4.697   2.202   9.496  0.0566  0.0310 -0.7058
 9533SOL    HW140232   4.657   2.207   9.583  0.9103 -0.5864 -0.2791
 9533SOL    HW240233   4.727   2.292   9.490 -0.3198  0.0613 -2.0537
 9534SOL     OW40234   3.411   3.676   8.645 -0.2839 -0.2782  0.2950
 9534SOL    HW140235   3.391   3.588   8.677  0.8073 -0.4832  0.4028
 9534SOL    HW240236   3.342   3.670   8.578 -0.3124 -3.9104  0.6251
 9535SOL     OW40237   2.863   1.881  13.595  0.0707 -0.1168  0.2820
 9535SOL    HW140238   2.901   1.968  13.584  0.5690 -0.5643 -1.5343
 9535SOL    HW240239   2.786   1.884  13.538  0.8123  1.1555 -0.6617
 9536SOL     OW40240   0.319   4.007   3.233  0.3060  0.4938  0.0316
 9536SOL    HW140241   0.362   4.069   3.291  1.6098 -0.0550 -0.3599
 9536SOL    HW240242   0.227   4.003   3.261  0.4004  1.3685  0.4478
 9537SOL     OW40243   0.225   0.249   3.362 -0.4554 -0.4138 -0.0943
 9537SOL    HW140244   0.144   0.218   3.322 -0.7664  0.6927 -0.3248
 9537SOL    HW240245   0.221   0.217   3.452  1.2503 -1.2647 -0.3208
 9538SOL     OW40246   3.737   0.320   7.235 -0.0332  0.2035  0.4124
 9538SOL    HW140247   3.832   0.331   7.238  0.2867 -3.3567  3.2053
 9538SOL    HW240248   3.714   0.406   7.269  1.0805  1.2774 -1.5187
 9539SOL     OW40249   0.049   1.909   4.242  0.0328 -0.1906  0.0734
 9539SOL    HW140250   4.692   1.914   4.242  0.1135  1.4016 -0.3907
 9539SOL    HW240251   0.077   1.892   4.152  1.6470 -0.1708  0.5608
 9540SOL     OW40252   2.376   3.680   8.377  0.8437 -0.4812 -0.9113
 9540SOL    HW140253   2.406   3.627   8.450  2.5461  0.4115 -0.9430
 9540SOL    HW240254   2.420   3.642   8.301  1.5931 -1.6414  0.1025
 9541SOL     OW40255   2.293   0.169   7.335 -0.0433 -0.5913  0.0548
 9541SOL    HW140256   2.282   0.165   7.240 -0.4643  0.7440  0.0546
 9541SOL    HW240257   2.213   0.121   7.357  0.1174  0.2427  2.3965
 9542SOL     OW40258   4.147   0.545   8.408 -0.5490  0.5457 -0.0545
 9542SOL    HW140259   4.095   0.621   8.435 -0.4601  1.7608 -3.2977
 9542SOL    HW240260   4.233   0.587   8.406 -0.1406 -0.2391  1.1209
 9543SOL     OW40261   3.022   2.658  15.206  0.0406  0.0076 -0.0267
 9543SOL    HW140262   2.983   2.641  15.120 -0.8377  0.1070  0.3551
 9543SOL    HW240263   2.994   2.574  15.241 -0.9173  0.6758  0.7982
 9544SOL     OW40264   0.006   3.963   5.794 -0.0715  0.3269 -0.2287
 9544SOL    HW140265   4.683   3.904   5.838  0.0192  0.4550  0.0690
 9544SOL    HW240266   0.057   3.903   5.739 -2.0433  1.6404 -3.4868
 9545SOL     OW40267   2.610   2.853   0.461 -0.1231  0.4749  0.1493
 9545SOL    HW140268   2.554   2.846   0.383  0.6635  0.0387 -0.3795
 9545SOL    HW240269   2.560   2.914   0.515  1.8400  2.7324 -0.5952
 9546SOL     OW40270   1.121   4.461   1.991  0.1817 -0.2920 -0.4430
 9546SOL    HW140271   1.191   4.509   2.035  0.5520 -0.4726 -0.8316
 9546SOL    HW240272   1.164   4.375   1.991  0.0189 -0.3641 -2.4843
 9547SOL     OW40273   3.539   4.019   9.133 -0.5154 -0.2151 -0.1335
 9547SOL    HW140274   3.571   3.936   9.099  2.9260  0.5846  1.1234
 9547SOL    HW240275   3.619   4.071   9.122 -0.7649  0.2518  0.2610
 9548SOL     OW40276   3.476   2.508   2.093 -0.0034 -0.0558  0.0664
 9548SOL    HW140277   3.444   2.418   2.085  2.2908 -0.7919 -1.0036
 9548SOL    HW240278   3.555   2.489   2.144 -0.4642 -2.8343 -0.2398
 9549SOL     OW40279   1.905   3.453   6.563 -0.4358 -0.2790 -0.1192
 9549SOL    HW140280   1.910   3.357   6.557 -0.3039 -0.3100  0.4730
 9549SOL    HW240281   1.878   3.482   6.476 -0.1344 -0.5568 -0.3068
 9550SOL     OW40282   0.970   2.517   3.632  0.2551 -0.0339  0.0472
 9550SOL    HW140283   0.962   2.600   3.583  0.9322 -0.1776 -0.2976
 9550SOL    HW240284   0.908   2.520   3.705  0.8499 -1.3411  0.6041
 9551SOL     OW40285   3.921   4.639   6.778 -0.1292 -0.9086 -0.0469
 9551SOL    HW140286   3.963   4.556   6.754  3.1441  0.7681 -0.0497
 9551SOL    HW240287   3.933   4.681   6.693  0.9446 -0.1928  0.4682
 9552SOL     OW40288   3.356   2.301  15.626  0.0282  0.0552 -0.2676
 9552SOL    HW140289   3.321   2.280  15.540  0.7143  0.9745 -0.7718
 9552SOL    HW240290   3.281   2.291  15.685 -0.7960  2.3051 -0.9575
 9553SOL     OW40291   4.462   0.965   5.098 -0.4349 -0.2928  0.7538
 9553SOL    HW140292   4.478   0.970   5.192  2.0088  1.2043  0.2595
 9553SOL    HW240293   4.487   1.052   5.067  0.7223 -0.5211  1.0444
 9554SOL     OW40294   1.733   2.692   2.349  0.7070  0.5712 -0.4600
 9554SOL    HW140295   1.643   2.724   2.339 -0.1168 -0.9350  2.0654
 9554SOL    HW240296   1.767   2.685   2.260  0.9606  1.5577 -0.4461
 9555SOL     OW40297   1.235   1.907   9.051 -0.6730  0.1584  0.5368
 9555SOL    HW140298   1.274   1.934   9.134  0.4077  1.0795 -0.2807
 9555SOL    HW240299   1.189   1.982   9.014 -1.6426 -1.2785 -1.1712
 9556SOL     OW40300   1.752   2.163   3.946 -0.0371  0.4477 -0.0245
 9556SOL    HW140301   1.764   2.238   3.888 -1.3184  0.9716  0.3864
 9556SOL    HW240302   1.660   2.139   3.934  0.7853 -1.3808 -2.5868
 9557SOL     OW40303   1.069   3.562   5.481 -0.0953  0.1850 -0.1692
 9557SOL    HW140304   1.118   3.574   5.399 -0.6936 -0.8778 -0.6687
 9557SOL    HW240305   1.040   3.653   5.485  3.1368  1.2527 -0.8145
 9558SOL     OW40306   1.833   0.404   4.932  0.0906 -0.4898 -0.0231
 9558SOL    HW140307   1.801   0.325   4.976  0.9060 -1.4281 -1.1266
 9558SOL    HW240308   1.898   0.433   4.996 -1.5732 -1.2835  2.0332
 9559SOL     OW40309   2.674   1.447   6.292 -0.1251  0.4382  0.8112
 9559SOL    HW140310   2.614   1.404   6.231  1.3413  0.3214 -0.5488
 9559SOL    HW240311   2.724   1.369   6.315 -0.6497 -0.3565 -0.7255
 9560SOL     OW40312   1.151   4.074   6.751 -0.3265 -0.0837 -0.1639
 9560SOL    HW140313   1.086   4.123   6.700 -2.7811 -2.4465  0.6521
 9560SOL    HW240314   1.206   4.142   6.788 -1.5213  0.4042  0.7165
 9561SOL     OW40315   2.171   1.836   7.925  0.3534 -1.0373 -0.0413
 9561SOL    HW140316   2.144   1.852   8.015 -1.0950  0.5825 -0.7570
 9561SOL    HW240317   2.134   1.750   7.908 -1.6146 -0.0950 -0.4668
 9562SOL     OW40318   0.717   4.583  12.782 -0.5423 -0.0918 -0.5022
 9562SOL    HW140319   0.657   4.561  12.711  1.3198 -0.8502 -1.8461
 9562SOL    HW240320   0.652   4.616  12.844 -0.6576  1.3429 -1.3590
 9563SOL     OW40321   4.592   2.962   1.299 -0.3079  0.3379 -0.2768
 9563SOL    HW140322   4.560   2.946   1.387  1.2625 -0.6394  0.1059
 9563SOL    HW240323   4.512   2.964   1.246 -0.0026  0.2159 -0.7418
 9564SOL     OW40324   1.476   2.403   7.927  0.2341 -0.4016 -0.0861
 9564SOL    HW140325   1.446   2.441   8.010  0.0714 -2.7768  0.9276
 9564SOL    HW240326   1.567   2.435   7.930  0.2987 -0.5115 -0.8094
 9565SOL     OW40327   2.811   1.912   2.171 -0.0022 -0.1651  0.2491
 9565SOL    HW140328   2.871   1.866   2.230  2.1764  0.2060 -1.6696
 9565SOL    HW240329   2.752   1.840   2.147 -0.0731  0.3532 -1.1325
 9566SOL     OW40330   0.169   0.782   8.520 -0.0453 -0.4909 -0.2984
 9566SOL    HW140331   0.189   0.689   8.531  1.5348 -0.4701 -3.0597
 9566SOL    HW240332   0.078   0.770   8.495  0.6020  0.3753 -3.0470
 9567SOL     OW40333   1.230   0.478   1.685  0.1092 -0.2285 -0.3604
 9567SOL    HW140334   1.204   0.456   1.596 -0.9875  0.2036 -0.1579
 9567SOL    HW240335   1.176   0.557   1.689 -2.3691 -1.9688  0.6592
 9568SOL     OW40336   4.481   1.474   0.631  0.0367 -0.5195  0.4262
 9568SOL    HW140337   4.575   1.490   0.646 -0.3983  0.8884  1.7663
 9568SOL    HW240338   4.452   1.565   0.618  0.8849 -0.4053 -0.6629
 9569SOL     OW40339   0.867   4.486   2.095  0.0096 -0.3793 -0.3016
 9569SOL    HW140340   0.871   4.565   2.149 -1.2636  1.0769 -2.3576
 9569SOL    HW240341   0.958   4.464   2.074  0.4581  0.3606  0.8937
 9570SOL     OW40342   0.450   1.159   8.715 -0.2091 -0.0278 -0.0772
 9570SOL    HW140343   0.456   1.205   8.632  3.0824 -0.5362 -0.1218
 9570SOL    HW240344   0.543   1.149   8.737 -0.3393 -2.7655 -0.8950
 9571SOL     OW40345   1.883   1.456   4.272  0.0202 -0.3429  0.4172
 9571SOL    HW140346   1.804   1.463   4.218  0.3584  0.7830  0.0643
 9571SOL    HW240347   1.857   1.491   4.357  0.5764  0.7418  0.1465
   4.73835   4.73835  17.75141
