Membrane in water
40347
    1TMC1    C1    1   0.361   2.793  11.464  0.0635  0.1668  0.0863
    1TMC1    C2    2   0.272   2.784  11.356  0.0162  0.4661  0.3745
    1TMC1    C3    3   0.288   2.865  11.249  0.5478 -0.1166  0.0201
    1TMC1    C4    4   0.478   2.859  11.449 -0.4449 -0.3464  0.1600
    1TMC1    C5    5   0.489   2.939  11.336 -0.1759  0.0477  0.7165
    1TMC1    C6    6   0.399   2.942  11.235 -0.0815 -0.0555 -0.3583
    1TMC1     C    7   0.332   2.724  11.589  0.3527  0.3879  0.3260
    1TMC1     O    8   0.222   2.668  11.600 -0.0320  0.4386 -0.0473
    1TMC1     H    9   0.181   2.726  11.361 -0.8757  1.9490  1.1351
    1TMC1    H1   10   0.552   2.871  11.527  1.7286 -0.1359 -1.9414
    1TMC1    H2   11   0.429   2.989  11.141  0.1070 -3.6823 -2.1086
    1TMC1    C7   12   0.624   2.955  11.282 -0.4680 -0.6751  0.5929
    1TMC1    C8   13   0.199   2.835  11.139  0.2112  0.0997 -0.1940
    1TMC1    O1   14   0.653   2.938  11.164  0.2338  0.4085 -0.0230
    1TMC1    O2   15   0.141   2.730  11.137 -0.3637  0.0907  0.3437
    1TMC1    O3   16   0.708   3.012  11.371  0.4711 -0.1416 -0.3256
    1TMC1    H3   17   0.662   3.024  11.457  1.9376 -0.0141  0.4559
    1TMC1    O5   18   0.129   2.954  11.136 -0.5480 -0.3973 -0.6213
    1TMC1    H5   19   0.193   3.029  11.134  0.6595 -1.3360  2.3678
    2MPD2     C   20   0.440   2.565  12.078  0.1418  0.7707 -0.0154
    2MPD2    C1   21   0.324   2.570  12.011  0.0558  0.0061  0.1701
    2MPD2    C2   22   0.318   2.616  11.878 -0.0200 -0.0963 -0.6847
    2MPD2    C3   23   0.432   2.661  11.811  0.6209 -0.7339  0.3866
    2MPD2    C4   24   0.543   2.651  11.884 -0.2939  0.0390  0.5826
    2MPD2    C5   25   0.550   2.603  12.013 -0.6113 -0.2366  0.5967
    2MPD2     H   26   0.221   2.619  11.828 -0.4798 -0.3997  0.1853
    2MPD2    H1   27   0.639   2.675  11.839 -0.2471 -0.4628  0.4079
    2MPD2    H2   28   0.437   2.534  12.181 -0.1644 -1.3723 -0.6721
    2MPD2    H3   29   0.649   2.611  12.058  0.0045  1.0290 -0.9652
    2MPD2     N   30   0.437   2.722  11.682 -0.4864  0.3124 -0.3800
    2MPD2    H5   31   0.527   2.760  11.652  0.3505 -2.0169 -0.8732
    2MPD2    N1   32   0.204   2.529  12.077  0.1474 -0.0525  0.9274
    2MPD2    H7   33   0.123   2.529  12.015  0.5125 -0.5227  0.4460
    3TMC1    C1   34   3.861   0.926  11.053 -0.6760 -0.8707  0.6201
    3TMC1    C2   35   3.814   1.056  11.033 -0.7559  0.7404  0.1575
    3TMC1    C3   36   3.828   1.104  10.907 -0.3714  0.6471 -0.1436
    3TMC1    C4   37   3.914   0.859  10.950 -0.7729  0.4326 -0.4940
    3TMC1    C5   38   3.951   0.924  10.839  0.2159 -0.7623 -0.1407
    3TMC1    C6   39   3.903   1.042  10.813  0.1623 -0.1445 -0.2035
    3TMC1     C   40   3.815   0.851  11.172  0.4742  0.3771  0.2308
    3TMC1     O   41   3.735   0.908  11.244 -0.1757  0.3704 -0.2861
    3TMC1     H   42   3.737   1.085  11.104 -1.9004 -1.0697 -0.3385
    3TMC1    H1   43   3.936   0.753  10.949 -1.7274  0.2137  1.1180
    3TMC1    H2   44   3.920   1.091  10.717 -1.2608  0.0428 -0.3617
    3TMC1    C7   45   4.001   0.843  10.731  0.2787  0.4415 -0.3919
    3TMC1    C8   46   3.779   1.237  10.884  0.3305  0.9024 -0.1673
    3TMC1    O1   47   3.986   0.862  10.612 -0.0191  0.0774  0.1524
    3TMC1    O2   48   3.766   1.281  10.771 -0.1413  0.0639  0.0789
    3TMC1    O3   49   4.094   0.754  10.781  0.2844  0.8980  0.4561
    3TMC1    H3   50   4.098   0.749  10.879 -0.3003 -1.7069  0.3524
    3TMC1    O5   51   3.821   1.302  10.990  0.6090  0.0098 -0.0823
    3TMC1    H5   52   3.885   1.253  11.045  0.9178 -1.2885 -1.5794
    4MPD2     C   53   3.910   0.502  11.522 -0.2965  0.0654  0.0923
    4MPD2    C1   54   3.791   0.570  11.503 -0.6294 -0.0150  0.5601
    4MPD2    C2   55   3.780   0.647  11.391 -0.0473 -0.4161 -0.2992
    4MPD2    C3   56   3.888   0.656  11.303 -0.0296 -0.3431  0.5650
    4MPD2    C4   57   4.005   0.589  11.321 -0.3099  0.2268  0.1181
    4MPD2    C5   58   4.022   0.508  11.430  0.3250  0.1878  0.5151
    4MPD2     H   59   3.693   0.712  11.389 -1.5125 -2.3074  2.1061
    4MPD2    H1   60   4.085   0.608  11.251 -1.9203  0.6348 -1.6039
    4MPD2    H2   61   3.928   0.429  11.600 -3.3811  0.3368  1.0273
    4MPD2    H3   62   4.115   0.456  11.448  1.0145  0.9005 -0.9460
    4MPD2     N   63   3.900   0.750  11.202 -0.1154 -0.0550  0.2805
    4MPD2    H5   64   3.978   0.726  11.142  1.4270  1.7187  1.6002
    4MPD2    N1   65   3.679   0.559  11.591  0.5444  0.4712 -0.1735
    4MPD2    H7   66   3.590   0.595  11.559 -0.2344 -0.1336  1.2958
    5TCq1    O1   67   4.587   0.492  12.122 -0.4005 -0.6585 -0.2478
    5TCq1    C1   68   4.608   0.616  12.163  0.5240  0.9926 -0.7593
    5TCq1    O2   69   4.628   0.656  12.276  0.0531  0.0898 -0.2921
    5TCq1    C2   70   4.607   0.696  12.045  0.3819 -0.1810  0.7305
    5TCq1    C3   71   4.673   0.813  12.053  0.9588  0.3507 -0.1865
    5TCq1    C4   72   4.652   0.904  11.947  0.4091  0.0525 -0.2854
    5TCq1    C5   73   4.576   0.877  11.843  0.0568  0.4526 -0.3478
    5TCq1    C6   74   4.516   0.755  11.838 -0.3443  0.5263 -0.3908
    5TCq1    C7   75   4.531   0.663  11.939 -0.6476  0.4061 -0.3129
    5TCq1    C8   76   4.459   0.722  11.706  0.3531  0.4892 -0.4625
    5TCq1    O4   77   4.474   0.611  11.661 -0.0212  0.3903 -0.0983
    5TCq1    C9   78   4.713   1.035  11.958  0.6359  0.9494 -0.2420
    5TCq1    O5   79   0.014   1.059  12.076 -0.4559 -0.1683 -0.1534
    5TCq1    O6   80   4.691   1.119  11.867  0.2244  0.3941  0.0494
    5TCq1    H1   81   4.615   0.487  12.029  1.5763 -0.6702  0.3434
    5TCq1    H2   82   4.730   0.836  12.142  0.2349 -1.6616  0.8051
    5TCq1    H3   83   4.572   0.958  11.772 -3.1223  0.3509 -0.2833
    5TCq1    H4   84   4.486   0.565  11.924  1.1969 -0.8133  2.1817
    6MPD2     C   85   4.252   0.935  11.498  0.0098  0.8549  0.1170
    6MPD2    C1   86   4.336   0.832  11.527  0.6115  0.0935 -0.1137
    6MPD2    C2   87   4.370   0.752  11.423 -0.0499 -0.1462  1.4418
    6MPD2    C3   88   4.318   0.767  11.294  0.7173 -0.7533 -0.2955
    6MPD2    C4   89   4.256   0.885  11.261 -0.4017 -0.2784 -0.6433
    6MPD2    C5   90   4.216   0.961  11.368 -0.2299 -0.4267 -0.7006
    6MPD2     H   91   4.438   0.669  11.440  0.5513 -0.1272 -0.8801
    6MPD2    H1   92   4.215   0.918  11.166  0.3705  0.1052 -0.8402
    6MPD2    H2   93   4.211   0.997  11.577  2.4875  0.0463  2.0342
    6MPD2    H3   94   4.170   1.054  11.338  0.0571 -1.0058 -2.9265
    6MPD2     N   95   4.338   0.667  11.194  0.4330 -0.0671  0.6923
    6MPD2    H5   96   4.400   0.592  11.221  2.7307  1.0341 -1.4431
    6MPD2    N1   97   4.384   0.823  11.660  0.3814 -0.2841  0.1959
    6MPD2    H7   98   4.352   0.884  11.735 -0.7381 -1.7780  0.9593
    7TCq1    O1   99   1.709   0.514  12.509  0.6061  0.0137  0.5914
    7TCq1    C1  100   1.748   0.469  12.632 -0.5944 -0.2548 -0.2378
    7TCq1    O2  101   1.841   0.520  12.689 -0.2494  0.2905 -0.0407
    7TCq1    C2  102   1.676   0.348  12.685 -0.1944 -0.5294  0.1781
    7TCq1    C3  103   1.554   0.321  12.653 -0.1029 -0.2191 -0.4060
    7TCq1    C4  104   1.494   0.198  12.678  0.1584  0.5094 -0.6197
    7TCq1    C5  105   1.554   0.113  12.766 -0.6763  0.1903 -0.5039
    7TCq1    C6  106   1.677   0.149  12.808  0.8071  0.8894 -0.4727
    7TCq1    C7  107   1.744   0.271  12.772 -0.1396 -0.4561 -0.0510
    7TCq1    C8  108   1.747   0.068  12.911 -0.2520 -0.0994  0.9976
    7TCq1    O4  109   1.749   4.690  12.894  0.0350  0.1050 -0.0478
    7TCq1    C9  110   1.351   0.180  12.663  0.6396  0.6722  0.0194
    7TCq1    O5  111   1.288   0.116  12.749 -0.8997  0.2911  0.7010
    7TCq1    O6  112   1.295   0.236  12.564  0.1356 -0.2227 -0.1059
    7TCq1    H1  113   1.639   0.450  12.483  0.9745 -0.3237  0.4294
    7TCq1    H2  114   1.504   0.400  12.597 -0.7178 -1.0551 -1.0219
    7TCq1    H3  115   1.513   0.021  12.807  1.2617  0.0851  1.2012
    7TCq1    H4  116   1.845   0.298  12.802 -0.2263  0.3271 -0.4581
    8MPD2     C  117   2.161   0.085  13.215 -0.3243  0.4879  0.0263
    8MPD2    C1  118   2.107   4.720  13.142 -0.2364  0.1930 -0.2414
    8MPD2    C2  119   1.986   4.736  13.078 -0.1447  0.4540  0.7168
    8MPD2    C3  120   1.928   0.122  13.081  0.8365  0.0154 -0.7614
    8MPD2    C4  121   1.978   0.226  13.156 -0.8836  0.3940  0.1117
    8MPD2    C5  122   2.097   0.209  13.227 -0.1382  0.7669  0.1590
    8MPD2     H  123   1.942   4.653  13.023  0.7370  1.7939 -2.0062
    8MPD2    H1  124   1.928   0.322  13.149 -0.9418  0.4093  0.6787
    8MPD2    H2  125   2.248   0.057  13.272 -0.5717 -0.1663  0.0901
    8MPD2    H3  126   2.140   0.283  13.294  1.5408  1.5160 -1.7470
    8MPD2     N  127   1.815   0.151  13.005 -0.3685  0.0012  0.2526
    8MPD2    H5  128   1.789   0.249  13.006  1.3900  0.4682 -1.0040
    8MPD2    N1  129   2.173   4.596  13.147  0.1575 -0.0095 -0.4116
    8MPD2    H7  130   2.272   4.589  13.172  0.5251  2.1131 -1.2966
    9TMC1    C1  131   4.388   3.574  11.216  0.1184  0.2932 -0.0967
    9TMC1    C2  132   4.473   3.536  11.114  0.0245 -0.1484 -0.2342
    9TMC1    C3  133   4.566   3.618  11.056  0.2662 -0.2804 -0.7669
    9TMC1    C4  134   4.416   3.688  11.283 -0.8475  0.0122  0.1705
    9TMC1    C5  135   4.512   3.767  11.234  0.3570 -0.4438 -0.6488
    9TMC1    C6  136   4.581   3.741  11.114  0.5169 -0.0416 -0.0566
    9TMC1     C  137   4.285   3.476  11.262 -0.3369 -0.6841  0.2385
    9TMC1     O  138   4.240   3.402  11.183 -0.1012  0.6676 -0.9218
    9TMC1     H  139   4.471   3.433  11.081  2.0431 -0.9507  2.0725
    9TMC1    H1  140   4.343   3.731  11.350 -2.3071  0.1934 -1.5225
    9TMC1    H2  141   4.645   3.814  11.068 -0.8666  2.3747  1.8704
    9TMC1    C7  142   4.542   3.897  11.293  0.0694 -0.4093  0.4258
    9TMC1    C8  143   4.589   3.600  10.919  0.0791 -0.2042 -0.1375
    9TMC1    O1  144   4.594   3.993  11.239 -0.3217 -0.3081  0.2856
    9TMC1    O2  145   4.505   3.544  10.847 -0.6679  0.7221 -0.6546
    9TMC1    O3  146   4.516   3.882  11.426  0.0905 -0.0014 -0.4548
    9TMC1    H3  147   4.450   3.812  11.444 -1.2337  0.9800 -1.4846
    9TMC1    O5  148   4.691   3.683  10.889 -0.1725  0.6280  0.2641
    9TMC1    H5  149   0.020   3.685  10.959 -1.1520 -1.5919  1.3205
   10MPD2     C  150   4.153   3.261  11.420 -1.0012  0.6676  0.1802
   10MPD2    C1  151   4.209   3.373  11.475 -0.6843  0.1556 -0.1255
   10MPD2    C2  152   4.208   3.388  11.613  0.2244  0.1702  0.1491
   10MPD2    C3  153   4.144   3.295  11.695 -0.3397 -1.0568  0.3136
   10MPD2    C4  154   4.086   3.184  11.638  0.0505 -0.1236 -0.7350
   10MPD2    C5  155   4.102   3.168  11.503  0.4583 -0.7927 -0.0340
   10MPD2     H  156   4.248   3.470  11.670  0.9589 -0.3250  0.3399
   10MPD2    H1  157   4.026   3.112  11.692  2.0011 -0.9812  0.3145
   10MPD2    H2  158   4.167   3.229  11.317 -2.0059 -0.4800  0.4004
   10MPD2    H3  159   4.071   3.074  11.459 -2.1206 -0.7911  1.8313
   10MPD2     N  160   4.119   3.306  11.838 -0.7747 -0.8587 -0.7727
   10MPD2    H5  161   4.077   3.227  11.885  0.3515 -0.4471  0.9189
   10MPD2    N1  162   4.275   3.473  11.401 -0.2668 -0.6718 -0.2690
   10MPD2    H7  163   4.318   3.547  11.456  0.1378 -1.6277  0.6888
   11TCq1    O1  164   0.789   3.325  14.217  0.3265 -0.0751  0.4553
   11TCq1    C1  165   0.693   3.367  14.129  1.1456 -0.4128 -0.0444
   11TCq1    O2  166   0.630   3.474  14.134 -0.1270  0.3057 -0.5219
   11TCq1    C2  167   0.675   3.252  14.040  0.1267  0.3618  0.3800
   11TCq1    C3  168   0.787   3.189  14.002 -0.0181 -0.1922 -0.2246
   11TCq1    C4  169   0.781   3.059  13.970  0.4136 -0.2128 -0.7024
   11TCq1    C5  170   0.667   2.985  13.979 -0.1660  0.3251 -0.3044
   11TCq1    C6  171   0.550   3.049  14.018 -0.4416  0.3435 -1.1262
   11TCq1    C7  172   0.554   3.187  14.052 -0.5707 -0.1493  0.3362
   11TCq1    C8  173   0.418   3.000  13.973  0.3123  0.4868 -0.7716
   11TCq1    O4  174   0.320   3.058  14.013  0.1442  0.2991 -0.4138
   11TCq1    C9  175   0.893   2.987  13.902  0.2014  0.0975  0.2819
   11TCq1    O5  176   0.865   2.903  13.816 -0.9140  0.1331  0.0601
   11TCq1    O6  177   1.010   3.005  13.959 -0.6247 -0.5242 -0.5159
   11TCq1    H1  178   0.814   3.235  14.188 -0.8444 -0.1041 -0.4335
   11TCq1    H2  179   0.877   3.247  13.987  0.1490 -0.4871 -0.3526
   11TCq1    H3  180   0.671   2.880  13.953 -0.7695 -0.3695  2.4306
   11TCq1    H4  181   0.466   3.249  14.066 -0.3898 -0.0173  0.9145
   12MPD2     C  182   0.199   2.886  13.819  0.3571  0.5115  0.3805
   12MPD2    C1  183   0.325   2.828  13.824  0.0661 -0.6423 -0.1176
   12MPD2    C2  184   0.349   2.695  13.801  0.0903  0.7813  0.4479
   12MPD2    C3  185   0.242   2.611  13.775 -0.2507 -0.0161 -0.0645
   12MPD2    C4  186   0.118   2.671  13.759  0.5261  0.0060 -0.1164
   12MPD2    C5  187   0.101   2.805  13.783 -1.2494 -0.4481  0.6711
   12MPD2     H  188   0.447   2.659  13.829 -0.2688  0.5894  1.4792
   12MPD2    H1  189   0.028   2.615  13.737  0.9254 -0.8185  0.3783
   12MPD2    H2  190   0.180   2.993  13.829  0.2440  0.5565 -0.3566
   12MPD2    H3  191   0.000   2.844  13.779 -1.5920 -1.3380  0.5909
   12MPD2     N  192   0.251   2.470  13.772  0.0973 -0.4215 -0.2337
   12MPD2    H5  193   0.166   2.416  13.763 -0.4556  1.0546 -4.0284
   12MPD2    N1  194   0.432   2.900  13.881  0.4989 -0.5094  0.1939
   12MPD2    H7  195   0.525   2.863  13.864  0.5288 -0.3671  0.0497
   13TCq1    O1  196   0.236   3.461  10.594 -0.4389 -0.4961 -0.0710
   13TCq1    C1  197   0.151   3.362  10.589 -0.4107 -0.6186  1.4378
   13TCq1    O2  198   0.060   3.361  10.509  0.0942  0.3825  0.4333
   13TCq1    C2  199   0.113   3.330  10.724 -0.4445  0.3368  0.2918
   13TCq1    C3  200   0.222   3.311  10.808 -0.1242 -0.1353 -0.8320
   13TCq1    C4  201   0.192   3.267  10.932 -0.2257 -0.1880  0.8056
   13TCq1    C5  202   0.063   3.247  10.974 -0.0181 -0.7354 -0.0115
   13TCq1    C6  203   4.701   3.255  10.885 -0.0457 -0.2253  0.2201
   13TCq1    C7  204   4.724   3.299  10.757 -0.7876  0.4277  1.1373
   13TCq1    C8  205   4.567   3.218  10.932 -0.6651 -0.0536 -0.0361
   13TCq1    O4  206   4.549   3.210  11.050  0.0018  0.8062  0.4839
   13TCq1    C9  207   0.291   3.237  11.027  0.4949 -0.9356 -0.1269
   13TCq1    O5  208   0.252   3.165  11.121 -0.6160 -0.2444 -0.8594
   13TCq1    O6  209   0.406   3.282  11.020  0.9415  0.0141 -0.7751
   13TCq1    H1  210   0.277   3.479  10.681  1.3412 -1.3784 -0.7141
   13TCq1    H2  211   0.325   3.318  10.776  0.0064  0.0016 -0.3852
   13TCq1    H3  212   0.051   3.194  11.068  1.8104 -2.9613 -1.0354
   13TCq1    H4  213   4.652   3.335  10.684 -0.0650 -0.7999 -0.1962
   14MPD2     C  214   4.287   3.131  10.712 -0.0613 -0.7364 -0.3795
   14MPD2    C1  215   4.347   3.176  10.826 -0.0029 -0.5846 -0.7560
   14MPD2    C2  216   4.275   3.228  10.927 -0.3479 -0.4017  0.1857
   14MPD2    C3  217   4.131   3.213  10.928  0.2264  0.0120  0.0640
   14MPD2    C4  218   4.070   3.163  10.812 -0.1531  0.3369  0.1732
   14MPD2    C5  219   4.153   3.127  10.705  0.0021 -0.1767  0.5731
   14MPD2     H  220   4.326   3.270  11.013 -0.1040 -1.2445  0.4550
   14MPD2    H1  221   3.965   3.153  10.791 -0.1891  1.2643 -0.0958
   14MPD2    H2  222   4.352   3.099  10.632 -0.5351 -1.1639 -0.5963
   14MPD2    H3  223   4.124   3.075  10.614  1.3554  2.1985 -1.2176
   14MPD2     N  224   4.048   3.259  11.029  0.2383  0.1536 -0.2888
   14MPD2    H5  225   4.084   3.325  11.097 -0.6204  2.8892 -2.5096
   14MPD2    N1  226   4.491   3.189  10.825  0.1944 -0.2907 -0.6056
   14MPD2    H7  227   4.536   3.178  10.735  0.3535 -0.4187 -0.5112
   15TCq1    O1  228   1.533   2.321   0.961  0.0436 -0.2216  0.0512
   15TCq1    C1  229   1.580   2.211   0.899  0.0305  0.1085  0.3419
   15TCq1    O2  230   1.540   2.191   0.783  0.2107  0.2059  0.0908
   15TCq1    C2  231   1.657   2.117   0.977  0.1486  0.2941  0.7482
   15TCq1    C3  232   1.667   2.121   1.109 -0.0613 -1.0330 -0.4527
   15TCq1    C4  233   1.730   2.021   1.184 -0.0667  0.0655 -0.5230
   15TCq1    C5  234   1.771   1.904   1.121  0.2422 -0.5261 -0.1624
   15TCq1    C6  235   1.751   1.906   0.990  0.5746 -0.1369  0.7234
   15TCq1    C7  236   1.696   2.007   0.913  0.1942 -0.0304  0.0157
   15TCq1    C8  237   1.816   1.803   0.917  0.0804  0.1159 -0.1056
   15TCq1    O4  238   1.903   1.736   0.980 -0.0923 -0.1101 -0.1012
   15TCq1    C9  239   1.733   2.029   1.327  0.3520 -1.0315  0.3841
   15TCq1    O5  240   1.745   1.919   1.390 -0.2117  0.5149  0.7809
   15TCq1    O6  241   1.687   2.135   1.376  0.2345 -0.7730 -0.4961
   15TCq1    H1  242   1.591   2.350   1.035 -1.6392  0.4016  1.1380
   15TCq1    H2  243   1.616   2.200   1.162 -0.6352 -1.9050  0.3024
   15TCq1    H3  244   1.808   1.816   1.172 -2.8073 -0.5924  1.9144
   15TCq1    H4  245   1.668   2.002   0.808  1.1290 -0.2672 -0.2195
   16MPD2     C  246   1.698   1.649   0.608 -0.0718  0.0531 -0.1008
   16MPD2    C1  247   1.784   1.671   0.712 -0.3693  0.0464  0.3234
   16MPD2    C2  248   1.906   1.592   0.714 -0.0600 -0.0140 -0.4631
   16MPD2    C3  249   1.924   1.496   0.613 -0.7959 -0.2320  0.3062
   16MPD2    C4  250   1.829   1.474   0.513  0.5660 -0.2727 -0.4969
   16MPD2    C5  251   1.729   1.566   0.508  0.1279 -0.6510  0.4780
   16MPD2     H  252   1.980   1.610   0.792 -0.2271 -2.2982  0.2042
   16MPD2    H1  253   1.832   1.408   0.427  0.0178 -0.1767 -0.5892
   16MPD2    H2  254   1.606   1.705   0.595  1.2632  1.5019 -3.4355
   16MPD2    H3  255   1.660   1.554   0.425 -1.2805  1.3662  1.3386
   16MPD2     N  256   2.046   1.423   0.616 -0.4272  0.1346 -0.1897
   16MPD2    H5  257   2.105   1.434   0.698  0.0383 -0.0174 -0.5039
   16MPD2    N1  258   1.753   1.779   0.800 -0.5684  0.5594  0.6085
   16MPD2    H7  259   1.668   1.834   0.785 -0.7210  0.7840  2.2905
   17TMC1    C1  260   4.175   2.346  10.127 -0.2691 -0.1098  0.1864
   17TMC1    C2  261   4.139   2.332  10.258  0.3430  0.2078 -0.6196
   17TMC1    C3  262   4.005   2.339  10.280  0.0822 -0.5175  0.3562
   17TMC1    C4  263   4.080   2.356  10.019  0.4263  0.3490 -0.1231
   17TMC1    C5  264   3.946   2.349  10.050  0.3842 -0.0086  0.0298
   17TMC1    C6  265   3.909   2.350  10.184  0.0340 -0.2097  0.6519
   17TMC1     C  266   4.311   2.331  10.080  0.6561  0.1503  0.8965
   17TMC1     O  267   4.327   2.298   9.964  0.0662  0.0241 -0.4835
   17TMC1     H  268   4.205   2.305  10.339 -0.6198  1.5292  0.6288
   17TMC1    H1  269   4.122   2.363   9.919  0.3600  0.2834 -0.1556
   17TMC1    H2  270   3.805   2.334  10.210 -0.0661 -0.0414  0.3591
   17TMC1    C7  271   3.846   2.356   9.948 -0.3820 -0.0712  0.0731
   17TMC1    C8  272   3.947   2.325  10.410  0.4304  0.0379 -0.7818
   17TMC1    O1  273   3.731   2.390   9.958 -0.1144  0.1011  0.3375
   17TMC1    O2  274   3.842   2.270  10.434  0.4900 -0.0457  0.0093
   17TMC1    O3  275   3.903   2.337   9.829  0.3040 -0.2342  0.4850
   17TMC1    H3  276   3.978   2.274   9.826  1.0941  0.7586 -0.6886
   17TMC1    O5  277   4.041   2.343  10.500  0.4374  0.4067 -0.2482
   17TMC1    H5  278   4.113   2.404  10.472  2.9249 -1.5414  1.7871
   18MPD2     C  279   4.605   2.309  10.042 -0.3737  1.0072  0.1480
   18MPD2    C1  280   4.544   2.331  10.164 -0.5100 -0.5864 -0.0337
   18MPD2    C2  281   4.621   2.376  10.273 -0.7921 -0.4145 -0.0967
   18MPD2    C3  282   0.019   2.398  10.252 -0.5005  1.1400 -0.1543
   18MPD2    C4  283   0.068   2.371  10.125  0.0419 -0.5472  0.1284
   18MPD2    C5  284   4.732   2.326  10.022 -1.0451  0.5364 -0.4903
   18MPD2     H  285   4.563   2.397  10.363 -2.0616  0.0306 -1.0181
   18MPD2    H1  286   0.174   2.386  10.110 -0.0696  0.3360  0.2638
   18MPD2    H2  287   4.558   2.295   9.945 -1.2673 -0.1278  0.7365
   18MPD2    H3  288   0.040   2.320   9.925 -1.1999 -0.6986 -0.4862
   18MPD2     N  289   0.104   2.454  10.349  0.1500 -0.4048  0.0180
   18MPD2    H5  290   0.200   2.466  10.319  0.2029 -0.8778 -0.0112
   18MPD2    N1  291   4.402   2.339  10.181 -0.0516  0.5873  0.2039
   18MPD2    H7  292   4.382   2.359  10.279 -2.3047 -1.7349  0.2093
   19TMC2    C1  293   1.493   3.086  14.053  0.2186 -0.1125  0.1624
   19TMC2    C2  294   1.448   3.132  13.930  0.6374 -0.0518  0.2303
   19TMC2    C3  295   1.342   3.074  13.882  0.0133  0.6370 -1.1727
   19TMC2    C4  296   1.446   2.969  14.110  0.2907 -0.0127  0.2339
   19TMC2    C5  297   1.343   2.911  14.052  0.9590 -0.3089 -0.3041
   19TMC2    C6  298   1.287   2.962  13.937 -0.0782  0.1151 -0.5875
   19TMC2     C  299   1.600   3.172  14.109  0.3930 -0.0701  0.8118
   19TMC2     O  300   1.612   3.280  14.052  0.7982 -0.2568  0.2543
   19TMC2     H  301   1.493   3.214  13.875  0.9405 -0.2099  0.2367
   19TMC2    H1  302   1.484   2.935  14.205 -0.7156 -2.5580 -0.2972
   19TMC2    H2  303   1.208   2.909  13.884 -1.6045  0.5420  1.2871
   19TMC2    C7  304   1.289   2.788  14.111 -0.1280 -0.4132  0.0647
   19TMC2    C8  305   1.278   3.144  13.773  0.0908 -0.1347 -0.1307
   19TMC2    O1  306   1.363   2.715  14.177 -0.4033  0.5319  0.2397
   19TMC2    O2  307   1.343   3.207  13.686  0.3874 -0.7237  0.1866
   19TMC2    O5  308   1.144   3.128  13.784 -0.3555  0.2119 -0.4175
   19TMC2    H5  309   1.109   3.083  13.864  1.5342 -0.9139 -0.2127
   20MPD2     C  310   1.811   3.329  14.239  0.2249  0.2068  0.1109
   20MPD2    C1  311   1.800   3.190  14.253  0.1754 -0.4789 -0.1675
   20MPD2    C2  312   1.898   3.123  14.321  0.7364  0.6991 -0.3531
   20MPD2    C3  313   2.006   3.185  14.369  0.0816 -0.3781 -0.4458
   20MPD2    C4  314   2.021   3.326  14.352 -0.0433 -0.3085 -0.9173
   20MPD2    C5  315   1.918   3.395  14.287 -0.5811 -0.0872 -1.2050
   20MPD2     H  316   1.888   3.016  14.330  0.4878  1.0101  2.9247
   20MPD2    H1  317   2.101   3.375  14.406 -0.2668 -0.7406 -0.1930
   20MPD2    H2  318   1.733   3.391  14.197  0.2240 -1.2656 -2.0702
   20MPD2    H3  319   1.931   3.502  14.277 -0.5703 -0.0022 -0.2707
   20MPD2     N  320   2.108   3.118  14.445  0.3295  0.2048 -0.2782
   20MPD2    H5  321   2.193   3.174  14.454  0.4679 -0.0851  0.1918
   20MPD2    N1  322   1.687   3.118  14.206 -0.1254  0.4578  0.5325
   20MPD2    H7  323   1.666   3.023  14.236 -0.2252  0.5774  0.8386
   21TMC2    C1  324   4.251   3.666  13.834 -0.7344 -0.2635  0.5986
   21TMC2    C2  325   4.298   3.537  13.801 -0.0696  0.2202  0.0919
   21TMC2    C3  326   4.274   3.435  13.883  0.3403 -0.0195 -0.4027
   21TMC2    C4  327   4.186   3.686  13.954 -0.6086 -0.6456  0.1044
   21TMC2    C5  328   4.150   3.577  14.025 -0.0392 -0.2829 -0.0968
   21TMC2    C6  329   4.195   3.450  13.993 -0.4060 -0.1501 -0.0163
   21TMC2     C  330   4.320   3.787  13.777 -0.4701 -0.2308  0.0212
   21TMC2     O  331   4.312   3.800  13.654 -0.0009 -0.1724 -0.1128
   21TMC2     H  332   4.358   3.522  13.711 -0.4389 -1.2722  0.0988
   21TMC2    H1  333   4.166   3.786  13.993  2.1512  0.1470 -0.5125
   21TMC2    H2  334   4.186   3.367  14.063 -0.7691  0.2979  0.4608
   21TMC2    C7  335   4.129   3.604  14.167 -0.0109 -0.8860 -0.7095
   21TMC2    C8  336   4.347   3.314  13.853  0.2489  0.0763 -0.1201
   21TMC2    O1  337   4.188   3.531  14.244  0.2631 -0.1603  0.1229
   21TMC2    O2  338   4.455   3.314  13.790 -0.6310  1.0375  0.7255
   21TMC2    O5  339   4.293   3.205  13.921  1.1711 -0.5419 -0.1565
   21TMC2    H5  340   4.202   3.228  13.949  0.8783 -0.6072 -1.0642
   22MPD2     C  341   4.522   3.856  14.250 -0.3830 -0.0399  0.1916
   22MPD2    C1  342   4.517   3.748  14.164  0.0325 -0.4916 -0.3200
   22MPD2    C2  343   4.479   3.760  14.038  0.1497  0.8042 -0.0445
   22MPD2    C3  344   4.414   3.874  13.997 -0.1279  0.3030 -0.2588
   22MPD2    C4  345   4.418   3.982  14.072  0.0193 -0.7514  0.3362
   22MPD2    C5  346   4.482   3.978  14.194  0.2877 -0.0698 -0.3403
   22MPD2     H  347   4.488   3.677  13.968  0.5674 -0.4060  1.4405
   22MPD2    H1  348   4.394   4.082  14.037 -0.6889 -0.2945  2.1396
   22MPD2    H2  349   4.565   3.860  14.349  0.3864 -2.2157 -0.0618
   22MPD2    H3  350   4.495   4.068  14.253 -2.2178 -0.5549  0.9505
   22MPD2     N  351   4.358   3.882  13.868  0.1480 -0.0265  0.1046
   22MPD2    H5  352   4.384   3.972  13.829  2.1465 -0.5087  0.3324
   22MPD2    N1  353   4.584   3.628  14.194  0.8110  0.0685 -0.3388
   22MPD2    H7  354   4.593   3.565  14.115 -0.4735  0.1127 -0.5184
   23TMC2    C1  355   0.574   4.327  14.747 -0.4364 -0.7002  0.1476
   23TMC2    C2  356   0.574   4.367  14.619 -0.1731 -0.5415  0.2045
   23TMC2    C3  357   0.465   4.350  14.542 -0.5733 -0.4853  0.1613
   23TMC2    C4  358   0.459   4.290  14.808  1.1224  0.7768 -0.3958
   23TMC2    C5  359   0.348   4.285  14.729 -0.5985 -0.0978  0.2295
   23TMC2    C6  360   0.349   4.302  14.595 -0.0106 -0.3829 -0.7533
   23TMC2     C  361   0.681   4.365  14.832 -0.4093  0.1438 -0.2142
   23TMC2     O  362   0.684   4.314  14.939 -0.1232 -0.0751  0.3874
   23TMC2     H  363   0.672   4.370  14.572  0.1660 -1.1326  0.8929
   23TMC2    H1  364   0.455   4.268  14.914 -0.0881  0.0818 -0.5850
   23TMC2    H2  365   0.270   4.261  14.534 -0.7839 -0.2608  0.1548
   23TMC2    C7  366   0.220   4.273  14.797 -0.2710 -0.6884  0.5570
   23TMC2    C8  367   0.482   4.353  14.399  0.4123  0.6033  0.6227
   23TMC2    O1  368   0.225   4.221  14.907  0.0052  0.5915  0.3960
   23TMC2    O2  369   0.590   4.344  14.344 -0.3126 -0.4573  0.1940
   23TMC2    O5  370   0.372   4.402  14.336  0.1878  0.3433 -0.2499
   23TMC2    H5  371   0.302   4.434  14.398 -1.0815 -1.0280 -0.9885
   24MPD2     C  372   1.122   4.623  14.970  0.2768 -0.3558 -0.6893
   24MPD2    C1  373   1.049   4.524  15.037 -0.0181 -0.2884 -0.1501
   24MPD2    C2  374   0.936   4.463  14.973 -0.0301  0.2170  0.4453
   24MPD2    C3  375   0.888   4.511  14.853 -0.4019 -0.1297  0.2208
   24MPD2    C4  376   0.967   4.605  14.783 -0.0351  0.0917 -0.1413
   24MPD2    C5  377   1.083   4.654  14.841  0.8079 -0.2125 -0.3290
   24MPD2     H  378   0.884   4.384  15.025  1.9306 -0.7866  0.9017
   24MPD2    H1  379   0.941   4.633  14.681 -2.0941 -2.4103 -0.3170
   24MPD2    H2  380   1.211   4.670  15.011 -0.4166  1.5034 -1.3142
   24MPD2    H3  381   1.148   4.720  14.785  0.4645  0.8604  0.5347
   24MPD2     N  382   0.774   4.459  14.782  0.1341  0.9815  0.3436
   24MPD2    H5  383   0.742   4.510  14.700 -0.6182  0.9296  0.6109
   24MPD2    N1  384   1.074   4.484  15.167 -0.2535  0.3854 -0.2761
   24MPD2    H7  385   1.033   4.404  15.214 -0.3096 -0.4676 -1.7828
   25TMC2    C1  386   4.070   2.431  11.660 -0.4170  0.1589 -0.8439
   25TMC2    C2  387   4.169   2.526  11.657  0.7223 -0.2691 -0.7607
   25TMC2    C3  388   4.139   2.652  11.705 -0.1214  0.1471  0.4933
   25TMC2    C4  389   3.939   2.455  11.697 -0.0846 -0.4987  0.1007
   25TMC2    C5  390   3.909   2.581  11.736  0.1619  0.4384 -0.0359
   25TMC2    C6  391   4.007   2.678  11.739  0.8410  0.5178 -0.1941
   25TMC2     C  392   4.116   2.299  11.615  1.1226 -0.1831  0.5062
   25TMC2     O  393   4.235   2.263  11.614  0.1419  0.5701 -0.0773
   25TMC2     H  394   4.274   2.504  11.636  0.5356 -2.9420  1.1203
   25TMC2    H1  395   3.878   2.366  11.689  1.3427 -1.3614 -1.1102
   25TMC2    H2  396   3.965   2.776  11.755  0.6924  0.0560  2.2053
   25TMC2    C7  397   3.818   2.575  11.849  0.3667 -0.0963 -0.3317
   25TMC2    C8  398   4.242   2.750  11.692 -0.4259  0.7043 -0.9266
   25TMC2    O1  399   3.837   2.471  11.908  0.0949  0.3070  0.2588
   25TMC2    O2  400   4.339   2.721  11.618 -0.5382 -0.5573  0.5438
   25TMC2    O5  401   4.218   2.875  11.756  0.5607  0.3514  0.3249
   25TMC2    H5  402   4.129   2.891  11.795  0.9549 -0.8806  1.7153
   26MPD2     C  403   3.983   1.828  11.417 -0.2844  0.6443 -0.6490
   26MPD2    C1  404   3.879   1.918  11.392 -0.0391  0.7360  0.3340
   26MPD2    C2  405   3.903   2.049  11.437 -0.0526  0.3016  0.4165
   26MPD2    C3  406   4.017   2.094  11.507 -0.4555  0.3059 -0.1853
   26MPD2    C4  407   4.111   1.994  11.528 -0.9684 -0.5124  0.3648
   26MPD2    C5  408   4.093   1.871  11.471  0.0691 -0.1581 -0.1790
   26MPD2     H  409   3.824   2.123  11.434  0.4618  0.8731  0.8076
   26MPD2    H1  410   4.196   2.018  11.589 -1.2021  1.4346 -0.0801
   26MPD2    H2  411   3.975   1.727  11.379  1.0848  0.6525 -0.9677
   26MPD2    H3  412   4.171   1.796  11.482  1.0267  0.9337  0.4331
   26MPD2     N  413   4.011   2.224  11.566  0.4115  0.0385  0.9330
   26MPD2    H5  414   3.929   2.283  11.568  0.1690 -0.1881 -2.2148
   26MPD2    N1  415   3.764   1.873  11.330  0.4214 -0.0834 -0.1797
   26MPD2    H7  416   3.762   1.775  11.302 -1.7316  0.4126 -1.7331
   27TMC2    C1  417   3.205   4.321  12.011  0.1793  0.0203 -0.3741
   27TMC2    C2  418   3.257   4.417  11.934  0.2606  0.2768 -0.3614
   27TMC2    C3  419   3.339   4.515  11.983  0.3277 -0.0085 -0.2318
   27TMC2    C4  420   3.239   4.321  12.145 -0.0494  0.5048 -0.1709
   27TMC2    C5  421   3.328   4.411  12.189 -0.2838  0.1071 -0.1370
   27TMC2    C6  422   3.376   4.516  12.113  0.0827  0.1131  0.1750
   27TMC2     C  423   3.084   4.256  11.964  1.1295  0.6147 -0.2729
   27TMC2     O  424   3.048   4.272  11.847  0.1313  0.7181  0.5957
   27TMC2     H  425   3.222   4.419  11.831  0.1046 -1.3001 -0.3396
   27TMC2    H1  426   3.203   4.251  12.219 -0.7715  0.1939 -0.8104
   27TMC2    H2  427   3.451   4.583  12.153 -0.3939 -0.4465  1.9920
   27TMC2    C7  428   3.344   4.406  12.332  0.1161 -0.2623 -0.0111
   27TMC2    C8  429   3.346   4.634  11.906 -0.0104 -0.0391 -0.7331
   27TMC2    O1  430   3.325   4.304  12.397  0.2502  0.0070 -0.4393
   27TMC2    O2  431   3.330   4.633  11.784  0.2218 -0.0216 -0.2254
   27TMC2    O5  432   3.339   4.734  11.990  0.2125  0.0188 -0.7568
   27TMC2    H5  433   3.322   4.708  12.083  2.3028 -0.4396 -0.4918
   28MPD2     C  434   2.613   4.064  12.030 -0.5588  0.1462 -0.8779
   28MPD2    C1  435   2.650   4.109  12.151 -0.7796 -0.2103 -0.3024
   28MPD2    C2  436   2.779   4.154  12.159  0.1445  0.3250 -0.4424
   28MPD2    C3  437   2.864   4.174  12.053 -0.1383  0.0143 -0.5974
   28MPD2    C4  438   2.811   4.149  11.928  0.0585 -0.4866  0.0112
   28MPD2    C5  439   2.688   4.085  11.918  0.2358  0.9311  0.7557
   28MPD2     H  440   2.821   4.175  12.257 -1.2873 -0.1208  0.2681
   28MPD2    H1  441   2.863   4.157  11.833  0.4375  1.4899  0.3801
   28MPD2    H2  442   2.517   4.016  12.011 -0.2162 -1.2349  0.9583
   28MPD2    H3  443   2.648   4.050  11.823 -0.2558 -0.3619  1.4490
   28MPD2     N  444   3.002   4.216  12.068 -0.3738  0.1861 -0.4501
   28MPD2    H5  445   3.037   4.224  12.163 -3.1440 -0.3409  0.6164
   28MPD2    N1  446   2.564   4.106  12.267  0.0641  0.1336  0.2241
   28MPD2    H7  447   2.482   4.046  12.258 -0.7306  1.5133 -2.0332
   29TMC2    C1  448   2.437   2.142  14.419 -0.0387  0.4711 -1.1977
   29TMC2    C2  449   2.469   2.112  14.550  0.5302 -0.0589  1.3117
   29TMC2    C3  450   2.513   2.223  14.619  0.3696 -0.3378 -0.1957
   29TMC2    C4  451   2.442   2.272  14.368  0.2072  0.5058 -0.1164
   29TMC2    C5  452   2.487   2.371  14.441  0.4750  0.6237  0.4652
   29TMC2    C6  453   2.524   2.347  14.573 -1.2103 -0.2259 -0.3589
   29TMC2     C  454   2.428   2.026  14.332 -0.6330 -0.1802 -0.4578
   29TMC2     O  455   2.454   1.917  14.379 -0.5564 -0.2006  0.0968
   29TMC2     H  456   2.472   2.012  14.593  1.6870 -0.7850 -0.4517
   29TMC2    H1  457   2.421   2.287  14.263 -0.1244 -0.0519 -0.1314
   29TMC2    H2  458   2.548   2.432  14.636  3.7057 -0.8333 -1.4707
   29TMC2    C7  459   2.519   2.497  14.380  0.3352 -0.2920 -0.1707
   29TMC2    C8  460   2.550   2.178  14.755 -0.4634 -0.2171  0.4747
   29TMC2    O1  461   2.477   2.517  14.266 -0.1213  0.7473  0.0153
   29TMC2    O2  462   2.499   2.086  14.817  0.1648  0.0896  0.8382
   29TMC2    O5  463   2.615   2.281  14.808 -0.2429  0.4265 -0.3020
   29TMC2    H5  464   2.647   2.336  14.734  1.1009  0.0294 -0.0119
   30MPD2     C  465   2.300   1.771  13.916 -0.1909  0.1773 -0.0650
   30MPD2    C1  466   2.372   1.727  14.026  0.0613  0.0666  0.2356
   30MPD2    C2  467   2.399   1.819  14.119 -0.5512 -0.7304 -0.1884
   30MPD2    C3  468   2.379   1.958  14.102  1.2664  0.7413 -0.0644
   30MPD2    C4  469   2.314   1.999  13.997  0.4254  0.1664 -0.5455
   30MPD2    C5  470   2.281   1.905  13.899 -0.7649 -0.0665 -0.6367
   30MPD2     H  471   2.442   1.778  14.210  0.3126  0.4731 -0.0373
   30MPD2    H1  472   2.292   2.105  13.984 -0.8102  0.1727  1.6627
   30MPD2    H2  473   2.273   1.704  13.836  2.5132 -1.4487  0.4128
   30MPD2    H3  474   2.241   1.938  13.803  0.8607 -1.4859 -1.8024
   30MPD2     N  475   2.381   2.047  14.209  0.5930  0.6385  0.2979
   30MPD2    H5  476   2.359   2.145  14.195  2.2957  1.0788  0.6948
   30MPD2    N1  477   2.418   1.597  14.053 -0.3115  0.0854 -0.1512
   30MPD2    H7  478   2.463   1.584  14.143  3.1279 -1.3823 -2.0946
   31TMC2    C1  479   0.245   0.485  15.436  0.4861 -0.0444 -0.2454
   31TMC2    C2  480   0.109   0.512  15.420 -0.4421 -0.3372  0.4438
   31TMC2    C3  481   0.018   0.468  15.516  0.4291 -1.3458 -0.3420
   31TMC2    C4  482   0.289   0.402  15.537  0.7162  0.6251 -0.3334
   31TMC2    C5  483   0.194   0.349  15.617  0.7593  0.8827  0.3729
   31TMC2    C6  484   0.060   0.376  15.608  0.3052 -0.1201 -0.1146
   31TMC2     C  485   0.339   0.531  15.333 -0.2615  0.1176  0.2544
   31TMC2     O  486   0.284   0.590  15.245 -0.0534  0.0002 -0.4683
   31TMC2     H  487   0.082   0.567  15.331  2.5672 -2.2962 -1.6895
   31TMC2    H1  488   0.393   0.373  15.546  0.1449 -1.0833  0.8055
   31TMC2    H2  489   4.738   0.337  15.688 -2.4654  0.1413 -2.1016
   31TMC2    C7  490   0.230   0.290  15.747 -1.0603  0.5295 -0.4399
   31TMC2    C8  491   4.612   0.489  15.491  0.4738  0.0282  0.1463
   31TMC2    O1  492   0.175   0.183  15.772 -0.0452  0.0341  0.7520
   31TMC2    O2  493   4.532   0.409  15.537  0.3366  0.3213  0.5469
   31TMC2    O5  494   4.603   0.609  15.434  0.6464  0.9616 -0.6489
   31TMC2    H5  495   4.691   0.652  15.433  1.0849  0.0946  0.3644
   32MPD2     C  496   0.786   0.555  15.089 -0.5389 -0.0488 -0.4862
   32MPD2    C1  497   0.667   0.614  15.055  0.0223 -0.2837  0.0467
   32MPD2    C2  498   0.556   0.597  15.136 -0.8439 -0.1365  0.2621
   32MPD2    C3  499   0.570   0.521  15.255 -0.0658 -0.2217 -0.4074
   32MPD2    C4  500   0.691   0.466  15.279 -0.5168  0.3862  0.2166
   32MPD2    C5  501   0.796   0.479  15.201  1.1653 -0.0142 -0.5621
   32MPD2     H  502   0.464   0.652  15.118  0.4910  1.3025 -2.1359
   32MPD2    H1  503   0.703   0.403  15.367  0.4069  1.1942  0.6716
   32MPD2    H2  504   0.870   0.571  15.023  0.6107 -3.4417  0.1577
   32MPD2    H3  505   0.887   0.422  15.219  0.7887 -1.0192 -1.8541
   32MPD2     N  506   0.466   0.496  15.355 -0.4546  0.9750  1.1185
   32MPD2    H5  507   0.509   0.445  15.431 -1.1342 -1.3591 -0.0665
   32MPD2    N1  508   0.669   0.695  14.939  0.4623  0.8077  0.4131
   32MPD2    H7  509   0.757   0.702  14.890  0.3963  0.5641  0.2609
   33TMC2    C1  510   0.300   3.377  10.202  0.4436  0.1011 -0.1750
   33TMC2    C2  511   0.166   3.402  10.190  0.1661 -0.0351 -0.3621
   33TMC2    C3  512   0.127   3.500  10.103  0.2738  0.0760  0.1112
   33TMC2    C4  513   0.397   3.446  10.138 -0.2283 -0.1316 -0.1087
   33TMC2    C5  514   0.351   3.549  10.052  1.2658 -0.0603  0.0520
   33TMC2    C6  515   0.219   3.585  10.039  0.2152 -0.0486 -0.0767
   33TMC2     C  516   0.337   3.275  10.295  0.0098  0.8723 -0.7604
   33TMC2     O  517   0.269   3.177  10.292  0.0633 -0.3322  0.1138
   33TMC2     H  518   0.094   3.344  10.246  0.4683 -1.4876 -1.4629
   33TMC2    H1  519   0.494   3.397  10.137 -0.4492 -0.6241  1.5125
   33TMC2    H2  520   0.183   3.667   9.977  0.3868  0.8684  1.0294
   33TMC2    C7  521   0.444   3.590   9.955 -0.8772 -0.8052 -0.0078
   33TMC2    C8  522   4.722   3.516  10.074  0.0898 -0.2707  0.0254
   33TMC2    O1  523   0.556   3.576   9.984 -0.2120  0.1083 -0.2410
   33TMC2    O2  524   4.640   3.546  10.161 -0.2107 -0.1437  0.0082
   33TMC2    O5  525   4.718   3.538   9.940  0.4100  0.0476  0.1103
   33TMC2    H5  526   0.057   3.499   9.896  1.5228  1.5495  0.7538
   34MPD2     C  527   0.646   3.045  10.648  0.3673  0.1471 -0.5606
   34MPD2    C1  528   0.548   3.004  10.563 -0.0154  0.2065 -0.7947
   34MPD2    C2  529   0.485   3.079  10.464  0.2422  0.0823 -0.3928
   34MPD2    C3  530   0.524   3.208  10.445 -0.0892  0.1374  0.3799
   34MPD2    C4  531   0.630   3.253  10.521  0.2467  0.6914  0.3549
   34MPD2    C5  532   0.694   3.167  10.611 -0.3110 -0.4990  0.1772
   34MPD2     H  533   0.399   3.034  10.414  0.1919 -2.4888  1.9663
   34MPD2    H1  534   0.657   3.358  10.517  0.1767  0.6843 -0.2958
   34MPD2    H2  535   0.695   2.985  10.724 -0.5829 -0.5337 -0.4936
   34MPD2    H3  536   0.778   3.204  10.668 -1.1356 -1.4297  1.9799
   34MPD2     N  537   0.452   3.299  10.367 -0.4611 -0.9967  0.2358
   34MPD2    H5  538   0.494   3.390  10.351  0.7632 -1.8846 -1.5665
   34MPD2    N1  539   0.516   2.863  10.581 -0.1034 -0.2631 -0.0733
   34MPD2    H7  540   0.542   2.819  10.669  1.8807 -2.6701 -1.8869
   35TMC2    C1  541   1.616   4.416  11.087 -0.0229  0.7554 -0.5248
   35TMC2    C2  542   1.571   4.358  10.973  0.2258 -0.5852 -0.1871
   35TMC2    C3  543   1.467   4.278  10.980 -0.7495 -0.0823  0.1953
   35TMC2    C4  544   1.555   4.394  11.207 -0.5523  0.1598  0.1098
   35TMC2    C5  545   1.438   4.319  11.210  0.1831  1.2136 -0.3122
   35TMC2    C6  546   1.391   4.254  11.095  0.1082  0.1239 -0.2534
   35TMC2     C  547   1.763   4.417  11.076  0.6985  0.6619  0.3324
   35TMC2     O  548   1.814   4.455  10.968 -0.4182  0.0084  0.3986
   35TMC2     H  549   1.626   4.374  10.881  0.6383 -1.5757 -0.1184
   35TMC2    H1  550   1.564   4.462  11.291  1.3008 -2.1621  1.7866
   35TMC2    H2  551   1.316   4.175  11.101 -0.5664  0.7874 -0.0390
   35TMC2    C7  552   1.362   4.308  11.335  0.8255  0.7724  0.1385
   35TMC2    C8  553   1.414   4.222  10.857  0.0029 -0.6358  0.0942
   35TMC2    O1  554   1.426   4.340  11.436 -0.0450 -0.0631 -0.1062
   35TMC2    O2  555   1.475   4.223  10.746  0.1184  0.1279  0.3075
   35TMC2    O5  556   1.276   4.225  10.864 -0.7325  0.0439 -0.3826
   35TMC2    H5  557   1.239   4.262  10.946 -0.8803  0.7275 -0.7544
   36MPD2     C  558   2.221   4.435  11.303  0.1051 -0.2577 -0.1214
   36MPD2    C1  559   2.142   4.353  11.384  0.2617 -0.0149  0.7209
   36MPD2    C2  560   2.011   4.334  11.343  0.7068 -0.0053 -0.0595
   36MPD2    C3  561   1.960   4.387  11.220  0.2535  0.1906 -0.0812
   36MPD2    C4  562   2.053   4.454  11.142 -0.5303 -0.2126  0.7944
   36MPD2    C5  563   2.179   4.479  11.184 -0.8877 -0.2700 -0.0954
   36MPD2     H  564   1.944   4.279  11.408 -0.4859 -1.2952 -2.3467
   36MPD2    H1  565   2.031   4.503  11.048  0.5379 -0.1056  0.5962
   36MPD2    H2  566   2.321   4.460  11.337  1.0629 -2.1136 -1.5764
   36MPD2    H3  567   2.246   4.530  11.115  0.1862 -0.2644  0.9505
   36MPD2     N  568   1.820   4.377  11.190 -0.6221 -0.2833 -0.2311
   36MPD2    H5  569   1.756   4.340  11.259 -1.7338 -1.3478 -1.8046
   36MPD2    N1  570   2.197   4.313  11.512  0.1705  0.3250  0.0731
   36MPD2    H7  571   2.285   4.349  11.545  0.2536 -1.6055  1.9420
   37TMC2    C1  572   3.734   0.114  11.872 -0.0467  0.1462 -0.4974
   37TMC2    C2  573   3.687   4.734  11.834 -0.1685  0.4114 -1.0540
   37TMC2    C3  574   3.724   4.686  11.711 -0.2838 -0.4005 -0.2165
   37TMC2    C4  575   3.839   0.174  11.801 -0.7686 -0.6307 -0.4505
   37TMC2    C5  576   3.876   0.119  11.680  0.1182 -0.0413  0.5014
   37TMC2    C6  577   3.819   0.002  11.634 -0.2261 -0.3146 -0.0207
   37TMC2     C  578   3.765   0.110  12.008 -0.1374 -0.4606  0.0610
   37TMC2     O  579   3.689   0.066  12.089  0.1307 -0.1929 -0.2256
   37TMC2     H  580   3.617   4.676  11.892  1.1057 -0.2528 -0.1970
   37TMC2    H1  581   3.879   0.271  11.827  0.5791 -1.5277  0.7586
   37TMC2    H2  582   3.854   4.696  11.542 -2.8911  0.7945 -1.5794
   37TMC2    C7  583   4.007   0.151  11.629  0.3580 -0.4856  0.1910
   37TMC2    C8  584   3.678   4.551  11.683 -0.2351  0.1524  0.4013
   37TMC2    O1  585   4.080   0.203  11.710 -0.0486 -0.4334  0.2841
   37TMC2    O2  586   3.646   4.469  11.770 -0.7009 -0.6915 -0.7584
   37TMC2    O5  587   3.658   4.557  11.545  0.1361  0.2415 -0.4511
   37TMC2    H5  588   3.653   4.646  11.505  1.1656  0.6586  0.3490
   38MPD2     C  589   4.166   4.692  12.308  0.1480  0.0226 -0.4194
   38MPD2    C1  590   4.206   4.708  12.177  0.2479 -0.2921  0.3813
   38MPD2    C2  591   4.115   0.016  12.085  0.7626  0.0137 -0.2539
   38MPD2    C3  592   3.981   0.049  12.113  0.3515 -0.0349 -0.3536
   38MPD2    C4  593   3.945   0.040  12.244  0.6003 -0.0677  0.4240
   38MPD2    C5  594   4.037   4.724  12.333  0.3218 -0.8177  0.4596
   38MPD2     H  595   4.156   0.019  11.985  0.6632 -0.8038 -0.3183
   38MPD2    H1  596   3.844   0.062  12.277  0.3602  1.0537 -1.0416
   38MPD2    H2  597   4.234   4.649  12.381  0.8171  1.5013 -0.1641
   38MPD2    H3  598   4.000   4.704  12.432  0.6925 -1.3678  0.4895
   38MPD2     N  599   3.902   0.095  12.005 -0.3856  0.0962  0.0062
   38MPD2    H5  600   3.948   0.108  11.916 -0.6138 -0.7499 -0.2333
   38MPD2    N1  601   4.325   4.675  12.120  0.7626 -0.0381 -0.6386
   38MPD2    H7  602   4.348   4.707  12.026  1.7080 -0.8689 -0.6910
   39TMC2    C1  603   2.298   1.119   1.309  0.3885 -0.6717  0.0067
   39TMC2    C2  604   2.209   1.158   1.404 -0.2314 -0.6418  0.2206
   39TMC2    C3  605   2.249   1.249   1.498 -0.4998 -1.2195 -1.0599
   39TMC2    C4  606   2.429   1.162   1.311 -0.8612 -0.5634 -0.1442
   39TMC2    C5  607   2.466   1.252   1.409  0.5736  0.4922 -0.0491
   39TMC2    C6  608   2.378   1.296   1.502  0.8973  0.3063  0.1598
   39TMC2     C  609   2.237   1.045   1.197 -0.3249  0.1359 -0.4008
   39TMC2     O  610   2.117   1.049   1.185 -0.1047  0.7561  0.0629
   39TMC2     H  611   2.104   1.134   1.393  0.0499 -0.4071 -2.8900
   39TMC2    H1  612   2.499   1.127   1.236  0.8219 -1.7062  1.9945
   39TMC2    H2  613   2.407   1.358   1.586  1.5861  0.4936 -0.2196
   39TMC2    C7  614   2.607   1.296   1.411  0.3157 -0.7255  0.7260
   39TMC2    C8  615   2.159   1.288   1.605 -0.2443  0.2375  0.1034
   39TMC2    O1  616   2.695   1.228   1.355  0.0764  0.4398  0.4984
   39TMC2    O2  617   2.179   1.392   1.664  0.5578  0.1232  0.1514
   39TMC2    O5  618   2.114   1.181   1.675  0.1907 -0.2695  0.1451
   39TMC2    H5  619   2.124   1.098   1.623 -2.7128  0.9294 -2.3349
   40MPD2     C  620   2.368   0.853   0.911  0.5199 -0.0641  0.3322
   40MPD2    C1  621   2.286   0.937   0.983  0.0229 -0.4616  0.8289
   40MPD2    C2  622   2.157   0.956   0.923 -0.1946  0.1698  0.0130
   40MPD2    C3  623   2.128   0.908   0.797 -1.3642  0.1172 -0.9369
   40MPD2    C4  624   2.217   0.822   0.733 -0.4713  0.4872 -0.1018
   40MPD2    C5  625   2.338   0.804   0.791  0.1222  0.3215 -0.6317
   40MPD2     H  626   2.084   1.015   0.977 -0.1331  1.4320 -1.2864
   40MPD2    H1  627   2.198   0.800   0.629  2.4818  1.9018 -0.9563
   40MPD2    H2  628   2.468   0.844   0.951  0.0408 -0.6661  1.3754
   40MPD2    H3  629   2.416   0.753   0.737  1.1845  0.7351  0.5257
   40MPD2     N  630   2.007   0.943   0.729  0.5805  0.5918  0.3571
   40MPD2    H5  631   1.979   0.898   0.643  0.0040 -0.4294  1.0848
   40MPD2    N1  632   2.319   0.984   1.116 -0.1351 -0.1469  0.4354
   40MPD2    H7  633   2.414   0.955   1.138  0.1641 -0.3287 -1.1121
   41TMC2    C1  634   1.870   4.362  13.877 -0.4672  0.4142 -0.4691
   41TMC2    C2  635   1.894   4.495  13.903 -0.0871  0.5962  0.2107
   41TMC2    C3  636   1.829   4.591  13.823  0.1362  0.3490  0.3377
   41TMC2    C4  637   1.786   4.323  13.777 -0.5135 -0.6700  0.3312
   41TMC2    C5  638   1.716   4.417  13.706 -0.3712  0.9065  0.8789
   41TMC2    C6  639   1.731   4.551  13.729  0.1725 -0.3128  0.3089
   41TMC2     C  640   1.900   4.259  13.973  0.8399 -0.6124  0.4814
   41TMC2     O  641   1.893   4.145  13.933 -0.1790  0.3736  0.4522
   41TMC2     H  642   1.966   4.530  13.976  1.1662 -0.5659 -0.4705
   41TMC2    H1  643   1.771   4.217  13.757  0.7629 -1.3650  3.0306
   41TMC2    H2  644   1.678   4.627  13.673 -2.9396 -2.4153  0.4111
   41TMC2    C7  645   1.596   4.383  13.637 -0.1916  0.4256 -0.5246
   41TMC2    C8  646   1.851   4.733  13.867  0.2214  0.7608  0.3386
   41TMC2    O1  647   1.510   4.472  13.628  0.2134 -0.2060 -0.3854
   41TMC2    O2  648   1.886   0.016  13.980 -0.0054  0.2315 -0.1313
   41TMC2    O5  649   1.782   0.077  13.788  0.4295 -0.3735 -0.1947
   41TMC2    H5  650   1.739   0.036  13.710 -1.9007  0.5574  0.5928
   42MPD2     C  651   1.921   4.086  14.213  0.2959  1.2882 -0.0012
   42MPD2    C1  652   1.935   4.222  14.215  0.1409  0.0991  0.4932
   42MPD2    C2  653   1.958   4.274  14.338  0.0486 -0.4457  0.2870
   42MPD2    C3  654   1.954   4.201  14.455  0.5828 -0.4880 -0.0865
   42MPD2    C4  655   1.937   4.067  14.452 -0.4649  0.0792 -0.2629
   42MPD2    C5  656   1.923   4.011  14.328  0.6754  0.5714  0.3556
   42MPD2     H  657   1.956   4.382  14.343 -1.9292 -0.3740 -1.6675
   42MPD2    H1  658   1.928   4.001  14.537  1.3197  2.1310  1.5276
   42MPD2    H2  659   1.909   4.026  14.123 -0.0887  0.0272  0.8855
   42MPD2    H3  660   1.912   3.903  14.334  1.0337  0.5773  1.1364
   42MPD2     N  661   1.967   4.261  14.578  0.5214 -0.5803  0.6930
   42MPD2    H5  662   1.945   4.203  14.658 -1.2176 -0.2395  0.4628
   42MPD2    N1  663   1.918   4.302  14.103  0.1882  0.8441  0.1031
   42MPD2    H7  664   1.923   4.402  14.123 -0.3723  1.2260 -1.6126
   43TMC2    C1  665   2.499   2.327   0.641  0.5644  0.2881 -1.3680
   43TMC2    C2  666   2.388   2.404   0.617  0.0969  0.1241  0.7856
   43TMC2    C3  667   2.307   2.422   0.732 -0.1598 -0.9719 -0.4695
   43TMC2    C4  668   2.529   2.264   0.761 -0.5749 -0.2220 -0.7851
   43TMC2    C5  669   2.430   2.267   0.855 -0.4105 -1.4404  0.0712
   43TMC2    C6  670   2.323   2.353   0.848  0.2563  0.3738 -0.3840
   43TMC2     C  671   2.584   2.291   0.524  0.2003 -0.4376 -0.3164
   43TMC2     O  672   2.696   2.254   0.547 -0.5971 -0.2383  0.3301
   43TMC2     H  673   2.364   2.454   0.524  0.3267 -0.3355  0.4809
   43TMC2    H1  674   2.613   2.197   0.769 -0.5007 -0.1566 -1.0143
   43TMC2    H2  675   2.244   2.378   0.918  0.8762  2.1115 -0.3031
   43TMC2    C7  676   2.446   2.189   0.977 -0.5681 -0.1322 -0.7476
   43TMC2    C8  677   2.174   2.466   0.704  0.3592 -0.1194 -0.3332
   43TMC2    O1  678   2.515   2.088   0.976  0.0981 -0.1560  0.1699
   43TMC2    O2  679   2.126   2.572   0.741  0.0598  0.1026 -0.4139
   43TMC2    O5  680   2.124   2.390   0.601 -0.4815  0.1629 -0.1214
   43TMC2    H5  681   2.178   2.313   0.571 -0.6375  0.1186 -0.2866
   44MPD2     C  682   2.678   2.190   0.035  0.4577 -0.4408  0.2622
   44MPD2    C1  683   2.766   2.186   0.148  0.1253  0.2813 -0.0117
   44MPD2    C2  684   2.717   2.222   0.277  0.0662  0.2583 -0.4058
   44MPD2    C3  685   2.585   2.264   0.286 -0.0307  0.1991  0.1217
   44MPD2    C4  686   2.505   2.266   0.169 -0.1241  0.2553  0.2456
   44MPD2    C5  687   2.551   2.225   0.044  0.7649  0.2398  0.6828
   44MPD2     H  688   2.794   2.216   0.353  0.0369  0.3559 -0.3686
   44MPD2    H1  689   2.406   2.308   0.181 -0.4869 -0.2032 -1.2109
   44MPD2    H2  690   2.711   2.144  17.699 -0.3094 -1.0114  0.2717
   44MPD2    H3  691   2.489   2.231  17.711  1.2794 -1.0690  0.2487
   44MPD2     N  692   2.518   2.297   0.404 -0.1509  0.1185 -0.1932
   44MPD2    H5  693   2.419   2.317   0.403  0.0946  1.4157  2.0824
   44MPD2    N1  694   2.902   2.156   0.125 -0.2459 -0.4848  0.1684
   44MPD2    H7  695   2.957   2.122   0.203 -3.0450 -2.6423  1.1854
   45TMC2    C1  696   3.499   0.040   9.850 -1.0201  0.5143 -0.4587
   45TMC2    C2  697   3.610   4.713   9.893 -0.4467  0.2352  0.1674
   45TMC2    C3  698   3.692   0.037   9.985  0.9510 -0.0831  0.2334
   45TMC2    C4  699   3.478   0.170   9.888  0.0124 -0.4170  0.3007
   45TMC2    C5  700   3.560   0.228   9.980  0.1743 -0.2214 -0.9978
   45TMC2    C6  701   3.671   0.166  10.028 -0.2814 -0.3687  0.3932
   45TMC2     C  702   3.395   4.719   9.770 -0.5020  0.4359  0.4458
   45TMC2     O  703   3.309   0.058   9.726  0.4243  0.3514 -0.1208
   45TMC2     H  704   3.634   4.611   9.866  0.9213  0.3686  0.8851
   45TMC2    H1  705   3.380   0.212   9.865 -0.6689 -2.0357  0.2882
   45TMC2    H2  706   3.738   0.218  10.096 -0.6256 -1.0389  1.2533
   45TMC2    C7  707   3.545   0.374   9.997  0.2094  0.2629  0.5533
   45TMC2    C8  708   3.829   4.725  10.018  0.3751  0.4400  0.4725
   45TMC2    O1  709   3.642   0.427  10.050 -0.6626  0.1983  0.3614
   45TMC2    O2  710   3.887   0.026  10.116  0.1821 -0.3068 -0.3132
   45TMC2    O5  711   3.878   4.683   9.901 -0.1895  0.1848  0.4426
   45TMC2    H5  712   3.816   4.697   9.826  0.3031 -2.0175 -0.3896
   46MPD2     C  713   3.338   4.369   9.655  1.0229 -0.4882  0.0325
   46MPD2    C1  714   3.311   4.499   9.683  0.1003  0.0757  0.0730
   46MPD2    C2  715   3.193   4.550   9.627 -0.1121  0.0501 -0.2386
   46MPD2    C3  716   3.099   4.473   9.564 -0.2491  0.5531 -0.0183
   46MPD2    C4  717   3.128   4.338   9.553 -0.5543 -0.1841 -0.0072
   46MPD2    C5  718   3.247   4.284   9.587 -0.1483  0.3045  0.1678
   46MPD2     H  719   3.163   4.654   9.634  0.0523 -0.2515  5.1131
   46MPD2    H1  720   3.056   4.280   9.497 -0.3322 -1.8750  1.4801
   46MPD2    H2  721   3.438   4.333   9.677  2.4198  2.3159 -1.5974
   46MPD2    H3  722   3.273   4.180   9.573  0.5516  0.6540 -1.1256
   46MPD2     N  723   2.981   4.535   9.522 -0.3628  0.0226  0.1560
   46MPD2    H5  724   2.969   4.635   9.526  0.6209  0.2890 -3.6704
   46MPD2    N1  725   3.401   4.581   9.749 -0.3472 -0.1425 -0.5284
   46MPD2    H7  726   3.487   4.533   9.776 -1.1964 -0.8071  1.0122
   47TMC2    C1  727   0.425   1.004   9.517  0.1059  0.2695 -0.3245
   47TMC2    C2  728   0.441   0.891   9.441  0.8146  0.4063  0.3647
   47TMC2    C3  729   0.333   0.850   9.367  0.0386  0.4286  0.3315
   47TMC2    C4  730   0.306   1.062   9.541 -0.1616 -0.1216 -0.9839
   47TMC2    C5  731   0.199   1.011   9.471 -0.2968  0.2484  0.0192
   47TMC2    C6  732   0.212   0.904   9.386 -0.6484  0.5214 -0.3449
   47TMC2     C  733   0.542   1.051   9.596 -0.3575 -0.0699 -0.4421
   47TMC2     O  734   0.538   1.159   9.656  0.0427 -0.1637  0.1028
   47TMC2     H  735   0.536   0.844   9.417 -0.5233 -2.3404  0.5211
   47TMC2    H1  736   0.295   1.151   9.602 -0.3555 -0.8967  0.1230
   47TMC2    H2  737   0.122   0.864   9.341 -0.4682 -1.5324  1.1148
   47TMC2    C7  738   0.070   1.056   9.523 -0.0567  0.1795  0.2270
   47TMC2    C8  739   0.338   0.714   9.313  0.3543  1.0760  0.1215
   47TMC2    O1  740   0.066   1.108   9.632 -0.3108  0.3257  0.0597
   47TMC2    O2  741   0.433   0.686   9.239  0.2033  0.1660  0.1023
   47TMC2    O5  742   0.272   0.633   9.396  0.5248 -0.3088  0.5076
   47TMC2    H5  743   0.204   0.686   9.442 -1.8019 -1.7616 -1.2808
   48MPD2     C  744   0.826   1.094   9.703  0.1495 -0.9495  0.0088
   48MPD2    C1  745   0.779   0.986   9.630 -0.3058 -0.0714  0.0495
   48MPD2    C2  746   0.869   0.887   9.607 -0.3459 -0.1989 -0.4031
   48MPD2    C3  747   1.000   0.900   9.649 -1.0238  0.2568 -0.9496
   48MPD2    C4  748   1.039   1.002   9.725 -0.2485 -0.9307  0.0147
   48MPD2    C5  749   0.952   1.108   9.744 -0.0285  0.1168 -0.0595
   48MPD2     H  750   0.843   0.797   9.552 -0.3562 -0.5766  0.2119
   48MPD2    H1  751   1.140   1.002   9.766 -0.6762  1.0603  1.0689
   48MPD2    H2  752   0.753   1.169   9.732  0.1926 -1.1052  0.5146
   48MPD2    H3  753   0.988   1.187   9.809  2.3228 -1.9642  1.1603
   48MPD2     N  754   1.089   0.787   9.630 -0.0147  0.3046 -0.2185
   48MPD2    H5  755   1.064   0.724   9.554 -0.5702  1.9598 -1.4201
   48MPD2    N1  756   0.648   0.967   9.585  0.2619 -0.3546 -0.0246
   48MPD2    H7  757   0.636   0.881   9.533  0.9055 -1.8501  2.2795
   49TMC2    C1  758   4.639   2.719  10.220 -0.1628 -0.8438  0.7022
   49TMC2    C2  759   4.706   2.689  10.104  0.5572  0.3791 -0.4204
   49TMC2    C3  760   4.642   2.651   9.990 -0.2661 -0.8726 -0.1060
   49TMC2    C4  761   4.504   2.713  10.219  0.2543 -0.0339 -0.5760
   49TMC2    C5  762   4.446   2.680  10.102  1.4912 -0.2098  0.0368
   49TMC2    C6  763   4.507   2.649   9.983 -0.6285 -0.2361  0.3235
   49TMC2     C  764   4.712   2.783  10.329  0.2577 -0.4058  0.1793
   49TMC2     O  765   0.090   2.800  10.300 -0.5629  0.4082  0.2594
   49TMC2     H  766   0.075   2.692  10.098  0.6217 -0.8255  0.1520
   49TMC2    H1  767   4.444   2.709  10.309  0.1167 -1.1342 -0.7166
   49TMC2    H2  768   4.449   2.601   9.906 -0.3021 -1.1743  0.6623
   49TMC2    C7  769   4.296   2.682  10.105 -0.1455  0.5255 -0.5719
   49TMC2    C8  770   4.710   2.662   9.865  0.2594  0.4929 -0.3301
   49TMC2    O1  771   4.249   2.647  10.209 -0.1250 -0.0924  0.3301
   49TMC2    O2  772   0.090   2.631   9.855  0.5713  0.0351 -0.3383
   49TMC2    O5  773   4.626   2.732   9.784  0.3199  0.8118  0.0894
   49TMC2    H5  774   4.531   2.741   9.806 -0.2053  1.3606 -2.3076
   50MPD2     C  775   0.110   2.910  10.562 -0.2021  0.3153 -0.2904
   50MPD2    C1  776   4.722   2.854  10.565 -0.2682  0.6149  0.5281
   50MPD2    C2  777   4.659   2.845  10.690  0.4028  0.8816 -0.2691
   50MPD2    C3  778   4.726   2.884  10.809 -0.6378 -1.1172 -0.0718
   50MPD2    C4  779   0.106   2.944  10.796  0.0124  0.1365  0.1596
   50MPD2    C5  780   0.171   2.954  10.679 -0.2856  0.3503  0.0632
   50MPD2     H  781   4.560   2.801  10.687  0.9801 -0.3331 -1.5648
   50MPD2    H1  782   0.162   2.986  10.879  1.5813 -1.6329 -0.0117
   50MPD2    H2  783   0.160   2.938  10.470  1.0813 -0.2804  0.2165
   50MPD2    H3  784   0.263   3.011  10.666  1.8099 -2.8495  0.7010
   50MPD2     N  785   4.660   2.875  10.940  0.3812  0.2627 -0.4338
   50MPD2    H5  786   4.726   2.887  11.017 -0.8810 -0.3690  0.7296
   50MPD2    N1  787   4.650   2.810  10.450 -0.1099  0.4014  0.3736
   50MPD2    H7  788   4.559   2.775  10.477 -0.1485 -2.0072 -2.8955
   51TMC2    C1  789   3.552   1.142   1.126  0.2020  0.5133  0.1198
   51TMC2    C2  790   3.463   1.208   1.208 -0.3255 -0.1531 -1.3672
   51TMC2    C3  791   3.477   1.340   1.239 -0.6748 -0.5758  0.1651
   51TMC2    C4  792   3.654   1.222   1.070 -0.8920 -0.0338  0.2386
   51TMC2    C5  793   3.675   1.348   1.115 -0.2988 -0.3795 -0.1727
   51TMC2    C6  794   3.589   1.411   1.196  0.0528  0.3671  0.6721
   51TMC2     C  795   3.557   1.001   1.096  0.4816 -0.0072  0.0399
   51TMC2     O  796   3.661   0.955   1.051  0.4154  0.2941 -0.4777
   51TMC2     H  797   3.379   1.153   1.249  0.4572  0.4068  0.9705
   51TMC2    H1  798   3.723   1.182   0.997 -1.8638  2.3015 -1.9474
   51TMC2    H2  799   3.599   1.509   1.240  2.1089  0.1332  0.7374
   51TMC2    C7  800   3.776   1.423   1.056  0.7927  0.3372 -0.1515
   51TMC2    C8  801   3.372   1.405   1.315 -0.1406 -0.5600  0.5564
   51TMC2    O1  802   3.806   1.403   0.939 -1.0476  0.1720 -0.1849
   51TMC2    O2  803   3.395   1.485   1.407  0.1244  0.6255  0.0384
   51TMC2    O5  804   3.262   1.404   1.242 -0.4115  0.3813  0.0478
   51TMC2    H5  805   3.266   1.348   1.162  1.6619 -0.0992  0.4916
   52MPD2     C  806   3.416   0.512   1.117  0.2572  0.6714  0.5338
   52MPD2    C1  807   3.524   0.564   1.061 -0.8174 -0.9970  0.8023
   52MPD2    C2  808   3.532   0.703   1.061  0.8359  0.0647 -0.9330
   52MPD2    C3  809   3.435   0.791   1.121 -0.0631  0.1233  0.5791
   52MPD2    C4  810   3.329   0.729   1.179  0.9420 -0.5335  0.3107
   52MPD2    C5  811   3.318   0.590   1.173  0.3874 -0.0359  0.7073
   52MPD2     H  812   3.608   0.749   0.998  0.4899  2.1845  0.1913
   52MPD2    H1  813   3.246   0.789   1.217  1.6790 -0.3597  1.6621
   52MPD2    H2  814   3.389   0.407   1.119 -1.3231  1.0656 -0.6702
   52MPD2    H3  815   3.232   0.545   1.220  0.7306 -3.3562 -1.8942
   52MPD2     N  816   3.442   0.934   1.124  0.1937 -0.7819  0.0558
   52MPD2    H5  817   3.361   0.985   1.154  0.4934 -0.2244 -0.0892
   52MPD2    N1  818   3.635   0.489   1.008  0.0957 -0.2390  0.6575
   52MPD2    H7  819   3.719   0.545   1.000  0.8377 -1.1872  1.8486
   53TMC2    C1  820   4.670   0.428  11.448 -0.4622 -0.5607 -0.0405
   53TMC2    C2  821   4.708   0.559  11.450 -0.1141  0.5307 -0.1998
   53TMC2    C3  822   0.034   0.612  11.562  0.5684 -0.6015 -0.3047
   53TMC2    C4  823   4.691   0.351  11.560  0.1717 -0.1546 -0.0450
   53TMC2    C5  824   0.014   0.411  11.672  0.6185  0.1421 -0.3120
   53TMC2    C6  825   0.046   0.541  11.675  0.7217 -0.2084  0.3400
   53TMC2     C  826   4.558   0.393  11.355 -0.1294  0.0948 -0.0209
   53TMC2     O  827   4.552   0.432  11.242 -0.0200  0.2485  0.3663
   53TMC2     H  828   4.706   0.608  11.353  1.9347  1.5102  0.2673
   53TMC2    H1  829   4.648   0.251  11.566 -2.3686  0.7342 -4.0406
   53TMC2    H2  830   0.086   0.592  11.762 -0.8967  0.3123  0.7671
   53TMC2    C7  831   4.725   0.350  11.796  0.3778  0.2137  0.1372
   53TMC2    C8  832   0.049   0.754  11.557  0.4202 -0.0334  0.5488
   53TMC2    O1  833   4.698   0.428  11.888 -0.0447  0.2300 -0.2107
   53TMC2    O2  834   4.710   0.832  11.510  0.7983  0.1689  0.1064
   53TMC2    O5  835   0.165   0.776  11.621  0.0977  0.4660 -0.4248
   53TMC2    H5  836   0.226   0.700  11.611  0.5100  0.9592 -1.6351
   54MPD2     C  837   4.309   0.276  11.231  0.0010 -0.2127  0.0708
   54MPD2    C1  838   4.344   0.266  11.369  0.3283 -0.0819 -0.3458
   54MPD2    C2  839   4.251   0.215  11.464 -0.0639  0.6646  0.6746
   54MPD2    C3  840   4.124   0.187  11.415  0.1739  0.4530 -0.3177
   54MPD2    C4  841   4.097   0.196  11.278  0.3396  0.0902 -0.1927
   54MPD2    C5  842   4.189   0.247  11.191  0.4221  0.1004  0.1245
   54MPD2     H  843   4.273   0.212  11.570 -2.6006 -0.3032  1.1574
   54MPD2    H1  844   4.001   0.172  11.234  0.7079 -3.3155  0.8427
   54MPD2    H2  845   4.374   0.322  11.157 -1.6793  2.1882  0.1307
   54MPD2    H3  846   4.167   0.272  11.088  0.9215 -2.0997 -0.5254
   54MPD2     N  847   4.016   0.138  11.489 -0.0130  0.1681  0.3902
   54MPD2    H5  848   3.930   0.123  11.437  0.2393 -0.4418  0.1546
   54MPD2    N1  849   4.463   0.320  11.421 -0.2423 -0.1901 -0.5799
   54MPD2    H7  850   4.477   0.316  11.522  0.8279 -0.8117 -0.7632
   55TMC2    C1  851   0.879   2.754  17.477 -0.4270 -1.0190  0.2286
   55TMC2    C2  852   0.923   2.783  17.353  0.2184 -0.0984  0.2786
   55TMC2    C3  853   0.981   2.682  17.290 -1.0424 -0.5713 -0.6337
   55TMC2    C4  854   0.882   2.629  17.532 -0.3425 -0.2589  0.0896
   55TMC2    C5  855   0.928   2.520  17.451 -0.3578 -0.2412  0.0984
   55TMC2    C6  856   0.970   2.550  17.320 -0.6142  0.0218 -0.4162
   55TMC2     C  857   0.798   2.857  17.554 -0.8247 -0.1165 -0.2479
   55TMC2     O  858   0.751   2.829  17.663  0.7524 -0.5340  0.8932
   55TMC2     H  859   0.912   2.884  17.313 -0.2846  0.6237  2.2264
   55TMC2    H1  860   0.857   2.616  17.636 -0.7631  1.6080  0.2169
   55TMC2    H2  861   1.010   2.469  17.260  1.7190  0.1815  0.9296
   55TMC2    C7  862   0.943   2.380  17.489 -0.4685 -0.1083  0.1757
   55TMC2    C8  863   1.033   2.711  17.155 -0.0004 -0.3937 -1.0058
   55TMC2    O1  864   0.951   2.295  17.403 -0.1793 -0.6508  0.6871
   55TMC2    O2  865   0.990   2.798  17.078  0.1019  0.4854 -0.4352
   55TMC2    O5  866   1.149   2.644  17.137 -0.5928 -0.5738  0.0711
   55TMC2    H5  867   1.174   2.587  17.212 -3.4073 -1.4757  0.2996
   56MPD2     C  868   0.636   3.156  17.434  0.1008 -0.8700  0.2291
   56MPD2    C1  869   0.669   3.059  17.527  0.3753 -0.7697 -0.0429
   56MPD2    C2  870   0.600   3.057  17.648  0.6567  0.6172  0.4375
   56MPD2    C3  871   0.500   3.153  17.675 -0.4857 -0.3046  0.4214
   56MPD2    C4  872   0.463   3.237  17.579 -0.6226 -0.2626  0.1924
   56MPD2    C5  873   0.533   3.241  17.461 -0.5646  0.5319 -1.1134
   56MPD2     H  874   0.614   2.984  17.727  0.5220  0.1027 -0.0161
   56MPD2    H1  875   0.389   3.315  17.589 -0.3187  0.2779 -1.7930
   56MPD2    H2  876   0.692   3.164  17.341 -0.7117 -4.7520 -0.6052
   56MPD2    H3  877   0.515   3.318  17.386  0.9056  0.3499 -1.6675
   56MPD2     N  878   0.427   3.135   0.040 -0.0066  0.6163 -0.3061
   56MPD2    H5  879   0.457   3.059   0.100  1.6891  1.0341 -0.6177
   56MPD2    N1  880   0.764   2.970  17.486 -0.3829  0.8609  0.4889
   56MPD2    H7  881   0.795   2.977  17.389 -1.0486 -2.6171  0.0181
   57TMC2    C1  882   0.090   3.523  13.537 -0.0483  0.1470  0.6892
   57TMC2    C2  883   0.000   3.423  13.494 -0.6303 -0.5009  0.2489
   57TMC2    C3  884   0.041   3.334  13.406 -0.2631  0.8264 -0.1953
   57TMC2    C4  885   0.222   3.515  13.503 -0.0348 -0.2133 -0.5659
   57TMC2    C5  886   0.264   3.406  13.423  0.3019 -0.5171 -0.1843
   57TMC2    C6  887   0.170   3.320  13.373 -0.1188  0.1288  0.0892
   57TMC2     C  888   0.020   3.638  13.606  0.1559 -0.0734  0.1666
   57TMC2     O  889   4.639   3.625  13.614 -0.1566 -0.7030 -0.2540
   57TMC2     H  890   4.639   3.419  13.535 -1.7135 -1.8722 -2.4935
   57TMC2    H1  891   0.285   3.560  13.578  0.1910  0.9580 -1.4533
   57TMC2    H2  892   0.188   3.234  13.310 -1.3420 -1.1415  1.4814
   57TMC2    C7  893   0.406   3.400  13.381  0.7357  0.0996  0.5945
   57TMC2    C8  894   4.687   3.230  13.368 -0.0203  0.4778  0.2680
   57TMC2    O1  895   0.461   3.509  13.392 -0.2219  0.6439  0.2258
   57TMC2    O2  896   4.732   3.121  13.328  0.0414  0.4564  0.0982
   57TMC2    O5  897   4.600   3.298  13.293 -0.5518  0.0275 -0.9318
   57TMC2    H5  898   4.610   3.394  13.313  0.5746  0.1704 -2.1525
   58MPD2     C  899   0.015   4.121  13.767  0.5382  0.0287 -0.0898
   58MPD2    C1  900   4.647   4.049  13.712 -0.7256  0.0694  0.2023
   58MPD2    C2  901   4.674   3.921  13.682 -0.1112 -0.5342  0.2361
   58MPD2    C3  902   0.066   3.867  13.690  0.0914  0.8522 -0.3800
   58MPD2    C4  903   0.165   3.946  13.733  0.1106  0.1822  0.0276
   58MPD2    C5  904   0.139   4.070  13.780  0.1102  0.3801 -0.0914
   58MPD2     H  905   4.591   3.859  13.649  0.0969  0.1143 -1.5245
   58MPD2    H1  906   0.267   3.910  13.741 -1.2818 -3.8676 -0.2211
   58MPD2    H2  907   4.739   4.224  13.797 -0.6417  0.2544 -1.4405
   58MPD2    H3  908   0.217   4.132  13.823  0.3539  0.5149 -0.7206
   58MPD2     N  909   0.106   3.739  13.648 -0.2624 -0.0941  0.2795
   58MPD2    H5  910   0.205   3.717  13.638  0.0494  0.5421  1.9769
   58MPD2    N1  911   4.521   4.099  13.692  0.0694  0.4775  0.4319
   58MPD2    H7  912   4.460   4.039  13.638 -0.3512  0.5952  0.7783
   59TMC2    C1  913   2.451   3.612  12.694 -0.5620 -0.7934 -0.4515
   59TMC2    C2  914   2.461   3.497  12.766 -0.3174 -0.0465 -0.9101
   59TMC2    C3  915   2.397   3.388  12.719 -0.4970  0.3394 -0.0776
   59TMC2    C4  916   2.392   3.609  12.570 -0.0621  0.2105 -0.4437
   59TMC2    C5  917   2.355   3.491  12.512  0.2711  1.2082  0.1724
   59TMC2    C6  918   2.344   3.381  12.591 -0.5389 -0.3042  0.3289
   59TMC2     C  919   2.504   3.735  12.745  0.3520  0.3810  0.5123
   59TMC2     O  920   2.493   3.840  12.682 -0.2247 -0.1470  0.2173
   59TMC2     H  921   2.498   3.490  12.867  1.3226 -1.3608 -1.5861
   59TMC2    H1  922   2.397   3.702  12.514  1.2126 -0.4515 -1.4402
   59TMC2    H2  923   2.308   3.285  12.555  3.5475 -1.8948  0.5410
   59TMC2    C7  924   2.291   3.486  12.383 -0.4191  0.1813 -0.1183
   59TMC2    C8  925   2.402   3.270  12.805 -0.6204  0.1674  0.0299
   59TMC2    O1  926   2.239   3.385  12.344 -0.7637  0.1298  0.1392
   59TMC2    O2  927   2.484   3.264  12.896  0.0525 -0.1711 -0.3069
   59TMC2    O5  928   2.276   3.222  12.811  0.0858  0.0450 -1.1796
   59TMC2    H5  929   2.219   3.233  12.732  0.2530 -1.3296 -1.5066
   60MPD2     C  930   2.559   3.948  12.945 -0.2135 -0.0083  0.2601
   60MPD2    C1  931   2.601   3.817  12.950 -0.3683  0.1634  0.9854
   60MPD2    C2  932   2.659   3.777  13.070 -0.9095 -0.1431 -0.4491
   60MPD2    C3  933   2.698   3.871  13.164  0.3019 -0.0296 -0.1552
   60MPD2    C4  934   2.663   4.002  13.149  0.0914 -0.0408  0.1400
   60MPD2    C5  935   2.587   4.042  13.042  0.0118  0.3629  0.4159
   60MPD2     H  936   2.672   3.671  13.088  1.3967  0.4866  1.6079
   60MPD2    H1  937   2.696   4.081  13.216  1.1124 -1.7918  1.6771
   60MPD2    H2  938   2.496   3.985  12.865 -1.5077  0.9920  1.7276
   60MPD2    H3  939   2.561   4.147  13.032  2.7325  1.3077  2.9893
   60MPD2     N  940   2.784   3.839  13.270 -0.3674  0.2667 -0.1354
   60MPD2    H5  941   2.824   3.910  13.329 -1.1794 -0.0539  0.8080
   60MPD2    N1  942   2.578   3.715  12.859  0.5096 -0.3539  0.0239
   60MPD2    H7  943   2.600   3.624  12.897 -0.9837 -0.5747  0.3575
   61TMC2    C1  944   2.217   4.739  15.098 -0.1055 -0.2429  0.1670
   61TMC2    C2  945   2.321   4.697  15.168  0.7225  0.1762  0.1753
   61TMC2    C3  946   2.345   0.013  15.296  0.9786 -0.2155 -0.1122
   61TMC2    C4  947   2.118   0.075  15.158 -0.6638 -0.6199  0.0407
   61TMC2    C5  948   2.131   0.120  15.287  0.8073 -0.1260  0.5145
   61TMC2    C6  949   2.246   0.091  15.354  0.4555 -0.0413  0.6940
   61TMC2     C  950   2.216   4.705  14.958 -0.5099  0.3848  0.0229
   61TMC2     O  951   2.268   4.605  14.920  0.6536 -0.2958 -0.2653
   61TMC2     H  952   2.405   4.653  15.116  0.5799  0.6239 -0.4421
   61TMC2    H1  953   2.023   0.090  15.108 -0.0071  1.3059 -0.6187
   61TMC2    H2  954   2.252   0.129  15.455 -0.5427  3.0115 -0.3871
   61TMC2    C7  955   2.036   0.220  15.331  0.5587  0.3818  0.5052
   61TMC2    C8  956   2.450   4.687  15.366  0.4106 -0.2511  0.7431
   61TMC2    O1  957   2.079   0.293  15.417 -0.4745  0.5810 -0.4907
   61TMC2    O2  958   2.498   4.580  15.325  0.0958  0.3418 -0.1746
   61TMC2    O5  959   2.496   0.032  15.465  0.8558 -0.6853 -0.5167
   61TMC2    H5  960   2.425   0.096  15.483  0.7284 -1.7321  2.8165
   62MPD2     C  961   2.221   4.722  14.662  0.4241  0.0064  0.6223
   62MPD2    C1  962   2.220   0.093  14.751 -0.4616  0.6533  0.2566
   62MPD2    C2  963   2.220   0.214  14.689 -0.0831  0.0509  0.2491
   62MPD2    C3  964   2.229   0.224  14.555 -0.1735  1.0789  0.7623
   62MPD2    C4  965   2.242   0.112  14.475  1.4504  0.0164  0.3277
   62MPD2    C5  966   2.235   4.727  14.531 -0.5763 -0.4403  0.2484
   62MPD2     H  967   2.201   0.302  14.750 -1.8034  1.0107 -1.6874
   62MPD2    H1  968   2.243   0.120  14.367  0.0155  1.4227  0.4064
   62MPD2    H2  969   2.209   4.620  14.698 -2.6030  0.3574  0.5909
   62MPD2    H3  970   2.235   4.629  14.484 -1.9538 -2.0060  3.5251
   62MPD2     N  971   2.205   0.345  14.488  0.1807 -0.0424 -0.7065
   62MPD2    H5  972   2.183   0.344  14.389 -1.0361  1.8046 -0.4624
   62MPD2    N1  973   2.210   0.085  14.887  0.2829 -0.1551 -1.4144
   62MPD2    H7  974   2.217   0.172  14.939  0.5527 -1.1855  0.2678
   63TMC2    C1  975   1.135   0.180  10.973  0.2579  0.3477  0.4545
   63TMC2    C2  976   1.185   0.258  11.082 -0.5928  1.6454 -0.0178
   63TMC2    C3  977   1.269   0.362  11.051 -0.6787  0.1998 -1.0535
   63TMC2    C4  978   1.183   0.193  10.846  0.6018 -0.4016  0.5995
   63TMC2    C5  979   1.274   0.294  10.831  0.8072  0.0101 -0.3424
   63TMC2    C6  980   1.326   0.377  10.931  0.7229  0.3141 -0.2943
   63TMC2     C  981   1.042   0.069  11.012 -0.1091 -0.8610 -0.5298
   63TMC2     O  982   0.988   0.087  11.119 -0.0908 -0.1252 -0.2708
   63TMC2     H  983   1.155   0.239  11.184 -2.5092  0.0507 -0.8717
   63TMC2    H1  984   1.146   0.139  10.760  1.5178 -2.3735  1.4542
   63TMC2    H2  985   1.382   0.470  10.920 -1.5582  1.6242 -0.7728
   63TMC2    C7  986   1.298   0.328  10.694 -0.0618  0.7391  0.2171
   63TMC2    C8  987   1.297   0.454  11.149 -0.0732 -0.3139 -0.0673
   63TMC2    O1  988   1.230   0.288  10.601 -0.3854  0.1075  0.0895
   63TMC2    O2  989   1.410   0.503  11.159 -0.2978  0.3420 -0.0280
   63TMC2    O5  990   1.196   0.541  11.142  0.4479  0.4665 -0.5764
   63TMC2    H5  991   1.113   0.490  11.133  1.1105 -0.5188 -1.1225
   64MPD2     C  992   0.786   4.373  10.963 -0.7757  0.2826 -0.0384
   64MPD2    C1  993   0.845   4.401  10.837 -0.5224  0.3846  0.6227
   64MPD2    C2  994   0.927   4.512  10.831  0.1375 -0.1414 -0.5261
   64MPD2    C3  995   0.951   4.587  10.942  0.5983 -0.7432 -0.0950
   64MPD2    C4  996   0.885   4.563  11.061 -0.3295  0.4947  0.1002
   64MPD2    C5  997   0.807   4.451  11.073 -0.3361  0.1669  0.3004
   64MPD2     H  998   0.969   4.536  10.733 -0.9284 -0.3639 -1.0402
   64MPD2    H1  999   0.906   4.626  11.146  0.4186  0.5777 -0.1409
   64MPD2    H2 1000   0.709   4.298  10.976 -0.5447  0.5566  2.8503
   64MPD2    H3 1001   0.767   4.427  11.170  1.9987  2.8971  1.9518
   64MPD2     N 1002   1.025   4.705  10.922  0.3321  0.6597 -0.3042
   64MPD2    H5 1003   1.084   4.706  10.839 -0.0762 -2.4111 -0.6479
   64MPD2    N1 1004   0.825   4.327  10.723  0.1475  0.3494  0.5170
   64MPD2    H7 1005   0.846   4.376  10.637 -0.3481 -1.3665 -0.5833
   65TMC2    C1 1006   2.778   0.237  14.921  0.5346 -0.1958  0.3050
   65TMC2    C2 1007   2.747   0.182  14.801  0.4414  0.4696 -0.0821
   65TMC2    C3 1008   2.637   0.229  14.737  0.4441 -0.2517 -0.4395
   65TMC2    C4 1009   2.696   0.327  14.985  0.4620  0.2325 -0.5863
   65TMC2    C5 1010   2.588   0.376  14.910 -0.4504  1.1771  0.8833
   65TMC2    C6 1011   2.552   0.323  14.792 -0.4137 -0.6169 -0.0497
   65TMC2     C 1012   2.870   0.173  15.019 -0.4015  0.0753  0.2393
   65TMC2     O 1013   2.942   0.245  15.082  0.3283 -0.2801  0.5238
   65TMC2     H 1014   2.804   0.098  14.763 -1.6030 -0.4117 -1.1959
   65TMC2    H1 1015   2.725   0.380  15.075 -0.0848 -0.0816 -0.2244
   65TMC2    H2 1016   2.459   0.346  14.740  0.0119  0.4049 -0.3542
   65TMC2    C7 1017   2.496   0.468  14.978  0.5361  0.2311 -0.3199
   65TMC2    C8 1018   2.625   0.165  14.603  0.2210  0.2859  0.4131
   65TMC2    O1 1019   2.421   0.538  14.911  0.2946 -0.5551  0.1278
   65TMC2    O2 1020   2.690   0.066  14.574 -0.0303  0.0594 -0.6791
   65TMC2    O5 1021   2.604   0.274  14.528 -0.0328  0.6491 -0.0518
   65TMC2    H5 1022   2.580   0.361  14.566  0.3828  1.4746 -1.6867
   66MPD2     C 1023   2.990   4.731  15.222 -0.1811  0.0620  0.3252
   66MPD2    C1 1024   2.883   4.701  15.144  0.5136 -0.6390 -0.3108
   66MPD2    C2 1025   2.815   4.581  15.162 -0.7887  0.4892  0.2709
   66MPD2    C3 1026   2.848   4.497  15.268  0.0931 -0.4253 -0.7559
   66MPD2    C4 1027   2.950   4.534  15.353  1.2402 -0.6360  0.0607
   66MPD2    C5 1028   3.021   4.652  15.330 -0.0141 -0.6851  0.2900
   66MPD2     H 1029   2.726   4.560  15.104 -0.9640  2.8991 -0.3127
   66MPD2    H1 1030   2.988   4.463  15.425  0.7936  0.7431  1.6382
   66MPD2    H2 1031   3.052   0.080  15.211  1.8488 -1.4124 -0.0696
   66MPD2    H3 1032   3.113   4.672  15.384  0.8697 -0.2910 -1.3382
   66MPD2     N 1033   2.779   4.376  15.302 -0.5410  0.0993  0.0413
   66MPD2    H5 1034   2.809   4.317  15.378 -1.2412 -0.4261 -0.0943
   66MPD2    N1 1035   2.832   0.043  15.041  0.1960  0.5019 -0.1480
   66MPD2    H7 1036   2.746   0.013  14.996  0.7778  3.2463 -3.1216
   67TMC2    C1 1037   2.894   3.833  14.019  0.4729 -0.3290 -0.1838
   67TMC2    C2 1038   2.846   3.959  14.049  0.2486 -0.0246  0.4586
   67TMC2    C3 1039   2.880   4.018  14.168  0.6870 -0.6292 -0.4142
   67TMC2    C4 1040   2.987   3.773  14.103  0.0289  0.0398 -0.3602
   67TMC2    C5 1041   3.025   3.834  14.219  0.6346 -0.7482 -0.3901
   67TMC2    C6 1042   2.974   3.960  14.244  0.2101  0.5418  0.0992
   67TMC2     C 1043   2.864   3.790  13.887 -0.1831  0.1801 -1.0209
   67TMC2     O 1044   2.762   3.830  13.834 -0.3741 -0.1052  0.1885
   67TMC2     H 1045   2.782   4.011  13.979  0.4568  0.3657  0.5616
   67TMC2    H1 1046   3.017   3.671  14.084 -0.8227  0.2223 -2.7006
   67TMC2    H2 1047   3.010   4.012  14.332 -1.9665 -0.0392  1.3205
   67TMC2    C7 1048   3.130   3.781  14.302  0.2201  0.1538  0.3561
   67TMC2    C8 1049   2.835   4.152  14.195 -0.1269  0.2235  0.5844
   67TMC2    O1 1050   3.190   3.689  14.249  0.3640  0.1123 -0.0483
   67TMC2    O2 1051   2.910   4.237  14.228  0.0250 -0.5838  0.0682
   67TMC2    O5 1052   2.709   4.166  14.149 -0.5724 -0.3853 -0.0479
   67TMC2    H5 1053   2.669   4.078  14.131 -2.2248  0.4338 -0.3479
   68MPD2     C 1054   3.043   3.519  13.717 -0.2103  0.2001 -0.4727
   68MPD2    C1 1055   2.935   3.602  13.744 -0.0498  0.6338  0.2521
   68MPD2    C2 1056   2.810   3.576  13.689 -0.5847 -0.8283  0.0293
   68MPD2    C3 1057   2.801   3.459  13.608  0.3059 -1.4350  0.6090
   68MPD2    C4 1058   2.905   3.383  13.569  0.3727 -0.2092  0.4995
   68MPD2    C5 1059   3.025   3.412  13.629  0.2065 -0.3733  0.3923
   68MPD2     H 1060   2.724   3.638  13.707  0.0974 -0.2905  1.4450
   68MPD2    H1 1061   2.895   3.288  13.517 -0.5180 -0.7438  1.6499
   68MPD2    H2 1062   3.137   3.531  13.770  0.1391  3.3346 -1.8123
   68MPD2    H3 1063   3.104   3.338  13.618 -0.6076 -1.2242  0.2830
   68MPD2     N 1064   2.673   3.416  13.566 -0.2493 -0.2868 -0.3575
   68MPD2    H5 1065   2.661   3.315  13.564 -1.2295 -0.1638 -0.7165
   68MPD2    N1 1066   2.958   3.697  13.850  0.4588 -0.0940  0.3690
   68MPD2    H7 1067   3.050   3.674  13.887  1.0874 -1.5345 -2.0260
   69TMC2    C1 1068   0.084   0.303  12.753 -0.1672  0.3263 -0.7198
   69TMC2    C2 1069   0.077   0.425  12.817 -0.6189  0.5251 -0.1516
   69TMC2    C3 1070   0.113   0.544  12.753  0.2091 -0.4906  1.0771
   69TMC2    C4 1071   0.132   0.297  12.628 -0.2624 -0.0017 -0.0536
   69TMC2    C5 1072   0.169   0.412  12.564 -0.4124  0.4875  0.3242
   69TMC2    C6 1073   0.168   0.539  12.621 -0.0944 -0.6475  0.0375
   69TMC2     C 1074   0.050   0.184  12.825  0.0501 -0.0016 -0.2696
   69TMC2     O 1075   4.690   0.202  12.896  0.1643 -0.3769 -0.5462
   69TMC2     H 1076   0.032   0.433  12.916  1.3972 -1.0234  0.8997
   69TMC2    H1 1077   0.136   0.201  12.577  1.5639  0.2782 -0.4188
   69TMC2    H2 1078   0.227   0.621  12.581  0.7484 -2.3119 -2.1802
   69TMC2    C7 1079   0.192   0.405  12.419 -0.6197 -0.5925  0.7065
   69TMC2    C8 1080   0.123   0.661  12.830 -0.2202  0.0288 -0.2302
   69TMC2    O1 1081   0.215   0.291  12.377  0.5862 -0.0489 -0.1476
   69TMC2    O2 1082   0.098   0.663  12.950 -0.2108 -0.2299  0.1064
   69TMC2    O5 1083   0.120   0.766  12.750  0.0430  0.2913 -0.5312
   69TMC2    H5 1084   0.090   0.750  12.658  0.1287 -1.0770 -0.3200
   70MPD2     C 1085   0.196   4.597  12.758 -0.2953  0.3635  0.3542
   70MPD2    C1 1086   0.103   4.680  12.802 -0.5409  0.4718 -0.0887
   70MPD2    C2 1087   4.715   4.640  12.842  0.0432  0.9366  0.2673
   70MPD2    C3 1088   4.686   4.508  12.823  0.6249  0.5697 -0.2051
   70MPD2    C4 1089   0.043   4.424  12.769  0.1647  0.1767  1.5968
   70MPD2    C5 1090   0.170   4.467  12.741  0.4685  1.0893  0.0325
   70MPD2     H 1091   4.653   4.714  12.892 -1.8747 -0.6832  0.2920
   70MPD2    H1 1092   0.019   4.320  12.749  0.9858  0.2858  0.1048
   70MPD2    H2 1093   0.297   4.630  12.739 -0.9130  1.9037 -0.2670
   70MPD2    H3 1094   0.244   4.394  12.710  0.0520  0.2040  1.1035
   70MPD2     N 1095   4.557   4.450  12.851 -0.0435 -0.1468  1.1605
   70MPD2    H5 1096   4.539   4.356  12.818 -0.9465 -0.1765  1.7256
   70MPD2    N1 1097   0.136   0.080  12.794  0.0736  0.4185  0.6966
   70MPD2    H7 1098   0.220   0.108  12.743 -1.8354  2.0038 -1.5531
   71TMC2    C1 1099   1.161   4.648   0.944  0.3316 -1.1595  0.0824
   71TMC2    C2 1100   1.172   4.557   1.051  0.4054 -0.3870 -0.2129
   71TMC2    C3 1101   1.066   4.473   1.067  0.5020 -0.7701 -1.1172
   71TMC2    C4 1102   1.035   4.671   0.885  0.4260 -0.0644 -0.6710
   71TMC2    C5 1103   0.933   4.589   0.925  0.4095  0.3627 -0.2413
   71TMC2    C6 1104   0.947   4.492   1.015  0.3572  0.3520  0.4258
   71TMC2     C 1105   1.269   4.726   0.908  0.1122  0.4991 -0.4393
   71TMC2     O 1106   1.384   4.683   0.931  0.7148 -0.8917  0.0757
   71TMC2     H 1107   1.266   4.566   1.105  0.0131  0.2763  0.3539
   71TMC2    H1 1108   1.015   0.007   0.810  0.1003  0.8771  0.3581
   71TMC2    H2 1109   0.862   4.441   1.059 -1.6051  2.5782 -0.7888
   71TMC2    C7 1110   0.797   4.619   0.891  0.5164 -0.0190 -0.2733
   71TMC2    C8 1111   1.080   4.389   1.188 -0.1088 -0.1436 -0.0653
   71TMC2    O1 1112   0.723   4.524   0.892 -0.3151 -0.0609  0.3777
   71TMC2    O2 1113   1.123   4.430   1.293  1.4380 -0.1432 -0.6064
   71TMC2    O5 1114   1.000   4.275   1.184  0.2858  0.2835 -0.1641
   71TMC2    H5 1115   0.971   4.259   1.092 -0.4816  0.7090  0.0009
   72MPD2     C 1116   1.488   0.426   0.729  0.8331 -0.7192 -0.7678
   72MPD2    C1 1117   1.541   0.300   0.737 -0.1226  1.1841  0.6990
   72MPD2    C2 1118   1.462   0.195   0.783  0.2203  0.5066 -0.6530
   72MPD2    C3 1119   1.324   0.219   0.812  0.4253 -0.2112 -0.2038
   72MPD2    C4 1120   1.276   0.345   0.800 -0.4521 -0.2383  0.6637
   72MPD2    C5 1121   1.358   0.447   0.763  0.1548  0.0363  0.1246
   72MPD2     H 1122   1.503   0.095   0.785  0.2752  0.5582  0.9998
   72MPD2    H1 1123   1.171   0.352   0.827 -0.6403 -1.3623  0.2466
   72MPD2    H2 1124   1.548   0.512   0.702 -1.0567  0.3086 -1.6870
   72MPD2    H3 1125   1.310   0.544   0.755 -1.7243 -0.9238 -0.2947
   72MPD2     N 1126   1.236   0.110   0.853 -0.3818  0.0150 -0.3349
   72MPD2    H5 1127   1.137   0.135   0.856  0.0020  1.6811 -1.3482
   72MPD2    N1 1128   1.674   0.275   0.695 -0.2773 -0.2842  0.0509
   72MPD2    H7 1129   1.708   0.183   0.718 -0.5239 -0.3296  0.2276
   73TMC2    C1 1130   1.962   2.926  14.057  0.0992 -0.2231 -0.2746
   73TMC2    C2 1131   1.959   2.802  14.109  0.1211  0.1655  0.9138
   73TMC2    C3 1132   2.081   2.755  14.149  0.7015 -0.3451 -0.0531
   73TMC2    C4 1133   2.073   3.005  14.061 -0.3333 -0.7305 -0.3635
   73TMC2    C5 1134   2.194   2.952  14.093 -0.3459  0.1769  0.4614
   73TMC2    C6 1135   2.200   2.823  14.137  0.3723  0.1482 -0.0187
   73TMC2     C 1136   1.870   2.969  13.945  0.1682  0.0167  0.3727
   73TMC2     O 1137   1.915   3.062  13.879 -0.1608  0.4135 -0.1391
   73TMC2     H 1138   1.872   2.740  14.094  1.7926 -1.9152 -0.3189
   73TMC2    H1 1139   2.079   3.103  14.015  3.6783 -1.4237 -1.2848
   73TMC2    H2 1140   2.294   2.772  14.155 -0.5957 -0.5161  3.0903
   73TMC2    C7 1141   2.304   2.974  13.998  0.1350  0.1695 -0.1512
   73TMC2    C8 1142   2.098   2.617  14.186  0.2950 -0.2355 -0.1973
   73TMC2    O1 1143   2.410   2.913  14.013 -0.1592  0.4861 -0.7892
   73TMC2    O2 1144   2.137   2.582  14.296 -0.2796  0.2050  0.1878
   73TMC2    O5 1145   2.153   2.559  14.073 -0.1791  0.4010  0.2471
   73TMC2    H5 1146   2.116   2.596  13.990  1.4490  3.4540  0.9062
   74MPD2     C 1147   1.566   2.890  13.541  0.4585  1.2431  0.0266
   74MPD2    C1 1148   1.691   2.950  13.541  0.5888 -0.1083  0.5228
   74MPD2    C2 1149   1.748   2.959  13.668 -0.2203 -0.3286  0.1900
   74MPD2    C3 1150   1.701   2.890  13.782 -0.7166 -0.8483 -0.5991
   74MPD2    C4 1151   1.585   2.819  13.769  0.0405  0.7969  0.5777
   74MPD2    C5 1152   1.516   2.828  13.655  0.2723  0.3003  0.0505
   74MPD2     H 1153   1.847   3.004  13.673 -0.2147 -0.4655  1.2149
   74MPD2    H1 1154   1.535   2.770  13.852 -0.7575  0.3153 -0.1987
   74MPD2    H2 1155   1.499   2.886  13.455 -0.7315 -3.5149  1.1656
   74MPD2    H3 1156   1.421   2.776  13.647 -0.0209  0.6027  1.6506
   74MPD2     N 1157   1.773   2.878  13.902  1.2508  0.0652  0.0054
   74MPD2    H5 1158   1.751   2.800  13.963 -1.3741  1.0425  0.3282
   74MPD2    N1 1159   1.745   3.011  13.423  0.1498 -0.6444 -0.2822
   74MPD2    H7 1160   1.699   3.013  13.332 -0.8061  0.0582  0.2220
   75TMC2    C1 1161   2.448   3.435  13.604  0.4663 -0.6542  0.2480
   75TMC2    C2 1162   2.458   3.403  13.734  0.1393  0.7107 -0.2334
   75TMC2    C3 1163   2.340   3.412  13.808  0.3860 -0.3837  0.6458
   75TMC2    C4 1164   2.331   3.472  13.543 -0.1445  0.0045  0.5963
   75TMC2    C5 1165   2.220   3.490  13.620  0.2626  0.3024  0.6694
   75TMC2    C6 1166   2.223   3.462  13.754  0.6902  0.2684 -0.2543
   75TMC2     C 1167   2.568   3.501  13.565  0.2625  0.0188  0.0082
   75TMC2     O 1168   2.567   3.621  13.539  0.3592  0.2554  0.5485
   75TMC2     H 1169   2.543   3.350  13.776  0.7282 -0.0625 -2.4024
   75TMC2    H1 1170   2.323   3.509  13.441  2.0799  1.0663  0.8117
   75TMC2    H2 1171   2.136   3.495  13.810  1.8301  2.3214  0.2927
   75TMC2    C7 1172   2.107   3.566  13.561  0.5847 -0.4889 -0.0752
   75TMC2    C8 1173   2.347   3.375  13.948  0.1358 -0.0533 -0.2672
   75TMC2    O1 1174   2.092   3.541  13.439 -0.0850  0.2898  0.0969
   75TMC2    O2 1175   2.446   3.341  14.011 -0.0779  0.0139  0.4086
   75TMC2    O5 1176   2.225   3.324  13.968 -0.3898  0.1695 -0.1270
   75TMC2    H5 1177   2.160   3.343  13.898 -0.7687 -1.1848 -0.1560
   76TMC2    C1 1178   0.614   4.167  12.283  0.8298 -0.0843 -0.0328
   76TMC2    C2 1179   0.521   4.173  12.383 -0.1457 -0.7618  0.3778
   76TMC2    C3 1180   0.565   4.136  12.507 -0.4596  0.3026  0.1633
   76TMC2    C4 1181   0.747   4.131  12.307 -0.3656  0.1291 -0.5534
   76TMC2    C5 1182   0.789   4.105  12.436  0.1044  0.0352  0.0243
   76TMC2    C6 1183   0.698   4.097  12.536  0.3507 -0.3827  0.2714
   76TMC2     C 1184   0.584   4.217  12.150  0.4111  0.0283  0.2635
   76TMC2     O 1185   0.674   4.262  12.080 -0.5894  0.4553 -0.0449
   76TMC2     H 1186   0.415   4.188  12.373 -0.2422 -2.9749 -2.0491
   76TMC2    H1 1187   0.821   4.138  12.229  1.5912  0.2992  1.3229
   76TMC2    H2 1188   0.731   4.069  12.636  0.2334 -0.8830  0.1727
   76TMC2    C7 1189   0.926   4.066  12.466 -0.2482 -0.2107  0.3027
   76TMC2    C8 1190   0.475   4.100  12.607  0.7144  0.2073 -0.2176
   76TMC2    O1 1191   0.968   4.082  12.581  0.6537 -0.2460 -0.2622
   76TMC2    O2 1192   0.499   4.012  12.694  0.1452 -0.0990 -0.0833
   76TMC2    O5 1193   0.372   4.181  12.608 -0.1502 -0.1317 -0.4628
   76TMC2    H5 1194   0.364   4.239  12.529 -0.2689 -1.9887 -1.8168
   77MPD2     C 1195   0.253   4.333  11.790  0.2985  0.8531 -1.0442
   77MPD2    C1 1196   0.361   4.408  11.831 -0.2135 -0.0099 -0.1610
   77MPD2    C2 1197   0.430   4.360  11.935  0.2116  0.4421 -0.4459
   77MPD2    C3 1198   0.391   4.238  12.001  0.0981 -0.0352  0.9813
   77MPD2    C4 1199   0.287   4.164  11.964  0.2243 -0.6637 -1.0577
   77MPD2    C5 1200   0.213   4.217  11.854 -0.2232  0.2822  0.0234
   77MPD2     H 1201   0.521   4.410  11.963  2.2942 -1.8245 -3.1155
   77MPD2    H1 1202   0.259   4.073  12.015  0.3719 -0.4686 -0.6346
   77MPD2    H2 1203   0.196   4.359  11.701 -0.8988 -0.2934 -0.6145
   77MPD2    H3 1204   0.125   4.156  11.834 -0.1744 -0.5165  2.1861
   77MPD2     N 1205   0.456   4.182  12.113  0.4168 -0.0599  0.0529
   77MPD2    H5 1206   0.403   4.108  12.159 -0.8759  1.3415  0.7959
   77MPD2    N1 1207   0.406   4.525  11.769 -0.4249  0.2536  0.2625
   77MPD2    H7 1208   0.488   4.564  11.815  0.3532  0.3278 -1.1956
   78TMC2    C1 1209   1.494   0.584   1.180  0.3373  0.0418  0.7351
   78TMC2    C2 1210   1.381   0.513   1.198 -0.2510 -0.2065 -0.3353
   78TMC2    C3 1211   1.378   0.382   1.164  0.8112 -0.5943  0.2957
   78TMC2    C4 1212   1.603   0.528   1.132 -0.0289 -0.1387 -0.1279
   78TMC2    C5 1213   1.603   0.394   1.106  0.7644 -0.7633  0.5483
   78TMC2    C6 1214   1.492   0.319   1.115 -0.0538  0.1950 -0.1803
   78TMC2     C 1215   1.472   0.731   1.183 -0.0968 -0.0225  0.3110
   78TMC2     O 1216   1.370   0.767   1.239 -0.0330 -0.5470  0.4757
   78TMC2     H 1217   1.288   0.568   1.212  0.1680  0.9106 -1.9713
   78TMC2    H1 1218   1.696   0.584   1.128  0.0275 -0.1851  0.6090
   78TMC2    H2 1219   1.485   0.213   1.094  0.1868 -0.0223  0.8658
   78TMC2    C7 1220   1.722   0.334   1.050  0.0836  0.5043  0.1647
   78TMC2    C8 1221   1.246   0.323   1.160  0.5282 -0.9041 -0.0060
   78TMC2    O1 1222   1.728   0.214   1.053 -0.1259  0.2501 -0.3150
   78TMC2    O2 1223   1.158   0.375   1.094  0.3057 -0.6335 -0.2127
   78TMC2    O5 1224   1.252   0.196   1.211 -0.0056 -0.4994 -0.3584
   78TMC2    H5 1225   1.346   0.190   1.240  0.3359 -1.0026 -1.5530
   79MPD1     C 1226   1.642   1.216   1.193  0.0093  0.3237  0.8329
   79MPD1    C1 1227   1.540   1.156   1.259  0.3959  0.5643 -0.8186
   79MPD1    C2 1228   1.513   1.020   1.235  0.4940 -0.4887  0.4793
   79MPD1    C3 1229   1.590   0.941   1.149  0.3747 -0.1849  0.6026
   79MPD1    C4 1230   1.690   1.005   1.081  0.3648  0.3897  0.3095
   79MPD1    C5 1231   1.713   1.139   1.102  1.2070  0.6833  0.4155
   79MPD1     H 1232   1.427   0.977   1.285  0.3891  1.1514  1.6913
   79MPD1    H1 1233   1.755   0.959   1.007 -1.0839  0.3764 -0.9563
   79MPD1    H2 1234   1.681   1.316   1.212  1.8350 -0.0756 -0.7637
   79MPD1    H3 1235   1.798   1.183   1.052  0.8721  0.6788 -0.1559
   79MPD1     N 1236   1.577   0.801   1.134 -0.2148 -0.0027 -0.2877
   79MPD1    H5 1237   1.654   0.757   1.084 -1.5381 -2.6566 -0.0108
   79MPD1    N1 1238   1.479   1.227   1.363  0.0771 -0.2623  0.4922
   79MPD1    H6 1239   1.382   1.204   1.386  0.4094 -3.0619 -0.9143
   79MPD1    H7 1240   1.490   1.326   1.341  1.1411 -0.5002 -0.0305
   80TMC2    C1 1241   3.826   4.007  11.731 -0.1638 -1.1090 -0.1846
   80TMC2    C2 1242   3.745   4.000  11.617  0.4717  0.3179 -0.4543
   80TMC2    C3 1243   3.646   3.908  11.628 -0.2741  0.1593 -0.2215
   80TMC2    C4 1244   3.810   3.935  11.851 -0.1452 -0.0829 -0.6827
   80TMC2    C5 1245   3.701   3.848  11.855  0.8865  0.5828 -0.1011
   80TMC2    C6 1246   3.619   3.839  11.739  0.3575  0.2098 -1.2450
   80TMC2     C 1247   3.933   4.107  11.718  0.4221 -0.2931 -0.0931
   80TMC2     O 1248   4.018   4.081  11.797  0.3807 -0.0180  0.2069
   80TMC2     H 1249   3.765   4.050  11.523 -0.1075  0.1827 -0.6493
   80TMC2    H1 1250   3.891   3.938  11.924 -0.1649  1.6666 -0.7228
   80TMC2    H2 1251   3.525   3.786  11.742 -0.0637  1.0280 -0.3082
   80TMC2    C7 1252   3.702   3.724  11.934  0.8053  0.4627  1.1026
   80TMC2    C8 1253   3.552   3.889  11.517 -0.2057 -0.0562  0.5904
   80TMC2    O1 1254   3.636   3.636  11.883  0.5931  0.7395  0.0746
   80TMC2    O2 1255   3.501   3.781  11.482 -0.4078 -0.4928 -0.5192
   80TMC2    O5 1256   3.503   4.011  11.489 -0.5227 -0.3117 -0.2314
   80TMC2    H5 1257   3.542   4.065  11.561 -2.1434 -1.1689  1.3086
   81MPD2     C 1258   3.980   4.409  11.520 -0.0941 -0.1430 -0.7287
   81MPD2    C1 1259   4.023   4.304  11.602 -0.2385 -1.1655  0.7223
   81MPD2    C2 1260   4.146   4.318  11.663 -0.1835  0.0811 -0.4500
   81MPD2    C3 1261   4.229   4.422  11.633  0.1686  0.1686  0.3944
   81MPD2    C4 1262   4.188   4.511  11.535  0.1319  0.4003  0.1840
   81MPD2    C5 1263   4.062   4.508  11.484  0.1451 -0.1948  1.2683
   81MPD2     H 1264   4.167   4.247  11.742 -0.4997 -0.0028 -0.4389
   81MPD2    H1 1265   4.251   4.596  11.514 -0.9960  0.8184 -1.5923
   81MPD2    H2 1266   3.882   4.407  11.473 -0.4037  3.9341 -0.2825
   81MPD2    H3 1267   4.029   4.591  11.424  0.9999 -1.1758 -0.5611
   81MPD2     N 1268   4.350   4.445  11.700 -0.2283  0.3597 -0.1552
   81MPD2    H5 1269   4.386   4.535  11.671 -0.4197  0.6932  0.6310
   81MPD2    N1 1270   3.921   4.209  11.621 -0.4573 -0.1448  0.4891
   81MPD2    H7 1271   3.830   4.223  11.579 -1.5529 -2.1925  2.2260
   82TMC2    C1 1272   3.034   3.230  11.092 -0.3844 -0.0124 -0.3099
   82TMC2    C2 1273   3.115   3.144  11.027  0.0333  0.0585 -0.3065
   82TMC2    C3 1274   3.117   3.021  11.084  0.0202 -0.3986 -0.5682
   82TMC2    C4 1275   2.965   3.199  11.207 -0.0147  0.5796  0.1404
   82TMC2    C5 1276   2.975   3.080  11.263  0.2359 -0.1920  0.1577
   82TMC2    C6 1277   3.048   2.983  11.199 -0.0422  0.4418  0.0762
   82TMC2     C 1278   2.989   3.359  11.036  0.5651 -0.5880 -0.0604
   82TMC2     O 1279   2.888   3.411  11.082  0.3880 -0.0006 -0.3623
   82TMC2     H 1280   3.158   3.159  10.928  0.3357  0.6228 -0.0869
   82TMC2    H1 1281   2.897   3.272  11.251 -0.6995  1.2649 -2.0751
   82TMC2    H2 1282   3.064   2.885  11.242 -1.2072  0.7521  1.1927
   82TMC2    C7 1283   2.878   3.034  11.348 -0.9093  0.3228 -0.3327
   82TMC2    C8 1284   3.217   2.934  11.019  0.0961 -0.6093 -0.4369
   82TMC2    O1 1285   2.765   3.054  11.315  0.3995 -0.1135 -0.1987
   82TMC2    O2 1286   3.276   2.860  11.094 -0.2488 -0.0060 -0.5189
   82TMC2    O5 1287   3.160   2.900  10.907 -0.0383 -0.2138 -0.0388
   82TMC2    H5 1288   3.086   2.959  10.882 -0.5163 -0.1427  1.5144
   83MPD2     C 1289   2.926   3.642  10.612 -0.0997 -0.1315 -0.0608
   83MPD2    C1 1290   2.843   3.614  10.719  0.8164  0.8795 -0.1958
   83MPD2    C2 1291   2.886   3.536  10.827 -0.5789  0.4953  0.1499
   83MPD2    C3 1292   3.015   3.484  10.829  0.2283 -0.0231 -0.1029
   83MPD2    C4 1293   3.103   3.513  10.722  0.1778  0.3602  0.2847
   83MPD2    C5 1294   3.050   3.587  10.619 -0.5145  0.5799  0.0757
   83MPD2     H 1295   2.815   3.519  10.908 -0.9945 -0.3908 -0.3974
   83MPD2    H1 1296   3.205   3.478  10.723  0.0629  0.0869  1.7142
   83MPD2    H2 1297   2.892   3.701  10.528  2.1487  0.7173 -0.3776
   83MPD2    H3 1298   3.114   3.602  10.533 -1.1384 -1.5786 -0.7536
   83MPD2     N 1299   3.055   3.390  10.920 -0.0020  0.7744  0.5783
   83MPD2    H5 1300   3.145   3.346  10.900 -0.2256  1.0076 -0.9898
   83MPD2    N1 1301   2.710   3.665  10.710  0.1452  0.8185  0.8282
   83MPD2    H7 1302   2.691   3.720  10.626  0.6518 -0.5253 -0.1661
   84TMC2    C1 1303   4.308   2.828  11.238  0.2725  0.5219 -0.3133
   84TMC2    C2 1304   4.346   2.929  11.322 -0.2190  0.6559  0.3256
   84TMC2    C3 1305   4.455   3.001  11.292  0.0866  0.5802 -0.5098
   84TMC2    C4 1306   4.384   2.785  11.131  0.1560 -0.1976 -0.5074
   84TMC2    C5 1307   4.503   2.850  11.107 -0.3325  0.1486 -0.1982
   84TMC2    C6 1308   4.538   2.957  11.186  0.1907 -0.6010 -0.1053
   84TMC2     C 1309   4.196   2.749  11.283 -0.2862  0.0965 -0.2703
   84TMC2     O 1310   4.113   2.812  11.347 -0.2059  0.0292 -0.4965
   84TMC2     H 1311   4.288   2.958  11.409 -0.0962  0.4208  0.4882
   84TMC2    H1 1312   4.341   2.712  11.063  0.4560 -2.2656  1.5104
   84TMC2    H2 1313   4.628   3.015  11.167 -0.5221  0.3663 -0.5148
   84TMC2    C7 1314   4.530   2.847  10.968 -0.3500 -0.2126  0.0880
   84TMC2    C8 1315   4.490   3.113  11.370  0.4971  0.0541 -0.1585
   84TMC2    O1 1316   4.443   2.807  10.893 -0.1655  0.3464  0.5289
   84TMC2    O2 1317   4.475   3.129  11.489 -0.3030 -0.3679  0.3319
   84TMC2    O5 1318   4.516   3.222  11.289  0.2587 -0.2134 -0.3341
   84TMC2    H5 1319   4.518   3.200  11.194 -4.0286  2.2630 -1.0053
   85TMC2    C1 1320   0.153   1.043  15.763 -0.2937  0.5621  0.5356
   85TMC2    C2 1321   0.047   1.111  15.810  0.7744  0.0093  0.3134
   85TMC2    C3 1322   0.038   1.241  15.788  0.1823  0.1979  0.4215
   85TMC2    C4 1323   0.258   1.097  15.695 -0.1289  0.4096 -0.0169
   85TMC2    C5 1324   0.253   1.228  15.676  0.2682  0.1571 -0.6019
   85TMC2    C6 1325   0.148   1.300  15.728 -0.4360 -0.2251 -0.4503
   85TMC2     C 1326   0.172   0.907  15.799 -0.0257  0.1486 -0.2778
   85TMC2     O 1327   0.287   0.862  15.808 -0.6283 -0.0457 -0.7211
   85TMC2     H 1328   4.712   1.059  15.869  0.7547  0.4780  0.6994
   85TMC2    H1 1329   0.340   1.036  15.659 -0.0733  1.4678 -1.7273
   85TMC2    H2 1330   0.142   1.408  15.714 -0.6136  0.1448  2.4888
   85TMC2    C7 1331   0.311   1.266  15.549 -0.0917 -0.2978  0.5840
   85TMC2    C8 1332   4.688   1.314  15.876 -0.0001  0.1156  0.0692
   85TMC2    O1 1333   0.397   1.187  15.503 -0.8056 -0.3878  0.0569
   85TMC2    O2 1334   4.645   1.272  15.984  0.1243  0.3579  0.2919
   85TMC2    O5 1335   4.670   1.439  15.830 -0.1814  0.3916  1.0642
   85TMC2    H5 1336   4.672   1.443  15.732 -0.7714 -1.9083  0.9687
   86MPD2     C 1337   4.729   0.491  16.015  0.5720 -0.2501  0.1618
   86MPD2    C1 1338   4.648   0.523  15.912 -0.2667  0.1363 -0.3418
   86MPD2    C2 1339   4.676   0.634  15.842 -0.0637  0.3013 -0.1434
   86MPD2    C3 1340   0.045   0.711  15.871  0.3217 -0.2655  0.7156
   86MPD2    C4 1341   0.133   0.670  15.971  0.4503 -0.0325 -0.7381
   86MPD2    C5 1342   0.102   0.566  16.047 -0.5504 -0.1685 -0.6384
   86MPD2     H 1343   4.614   0.672  15.762  0.4996  0.0930 -0.6790
   86MPD2    H1 1344   0.220   0.725  16.003 -0.5643 -0.3415  2.4905
   86MPD2    H2 1345   4.719   0.404  16.079  0.7363 -1.0052 -0.8455
   86MPD2    H3 1346   0.166   0.529  16.127 -1.4946 -1.2951 -0.4185
   86MPD2     N 1347   0.055   0.829  15.799 -0.3298 -0.3157 -0.4742
   86MPD2    H5 1348   4.712   0.863  15.750  0.1180  1.4412 -0.0111
   86MPD2    N1 1349   4.532   0.449  15.882 -0.2117  0.5595 -0.3004
   86MPD2    H7 1350   4.486   0.467  15.793 -0.8063  0.1805 -0.0689
   87TMC2    C1 1351   2.046   3.518   0.538  0.5031  0.9130 -0.3152
   87TMC2    C2 1352   2.112   3.640   0.555  0.0022  0.7494  0.0662
   87TMC2    C3 1353   2.047   3.758   0.583  0.5149  0.0226 -0.2310
   87TMC2    C4 1354   1.910   3.511   0.552 -0.0481 -0.5091 -0.8571
   87TMC2    C5 1355   1.849   3.631   0.572  0.4464  0.0991 -0.6175
   87TMC2    C6 1356   1.913   3.754   0.595  0.4234  0.9927  0.7927
   87TMC2     C 1357   2.121   3.395   0.514  0.4337  0.1830  0.1436
   87TMC2     O 1358   2.237   3.404   0.539  0.1876  0.5183 -0.5300
   87TMC2     H 1359   2.221   3.633   0.560  0.0394  0.8022 -0.7595
   87TMC2    H1 1360   1.865   3.413   0.539 -1.7194 -0.1819  2.6323
   87TMC2    H2 1361   1.859   3.845   0.618 -2.2653 -0.7077  1.2353
   87TMC2    C7 1362   1.708   3.640   0.537 -0.2060  0.4039 -0.0651
   87TMC2    C8 1363   2.113   3.860   0.652  0.4162  0.1711  0.2992
   87TMC2    O1 1364   1.645   3.535   0.549  0.3257  0.0306 -0.0906
   87TMC2    O2 1365   2.227   3.833   0.693 -0.1616  1.2321 -0.3953
   87TMC2    O5 1366   2.080   3.974   0.591 -0.2865  0.2843 -0.1599
   87TMC2    H5 1367   1.992   3.981   0.549 -0.7295  0.3310  0.7778
   88MPD2     C 1368   1.434   3.725   0.445 -0.3844  0.9726 -0.1853
   88MPD2    C1 1369   1.547   3.802   0.433 -0.6364 -0.5490  0.2033
   88MPD2    C2 1370   1.535   3.929   0.368  0.2803  0.1616 -1.0928
   88MPD2    C3 1371   1.413   3.972   0.314 -0.3234 -0.4190 -0.2847
   88MPD2    C4 1372   1.303   3.890   0.331 -1.2678  0.2368 -0.4422
   88MPD2    C5 1373   1.316   3.770   0.394 -0.1865  0.4826 -0.0043
   88MPD2     H 1374   1.624   3.987   0.345 -0.7542  1.4836 -1.7081
   88MPD2    H1 1375   1.205   3.919   0.294 -1.5367  1.3077  1.0980
   88MPD2    H2 1376   1.425   3.627   0.491 -0.2040  0.8645 -0.3823
   88MPD2    H3 1377   1.224   3.713   0.404 -0.0322  0.2842  0.3005
   88MPD2     N 1378   1.397   4.090   0.236  0.8377  0.1940  0.4059
   88MPD2    H5 1379   1.315   4.089   0.175  2.0807  0.6121 -1.2748
   88MPD2    N1 1380   1.672   3.764   0.487 -0.1514 -0.3429 -0.3592
   88MPD2    H7 1381   1.749   3.830   0.488  0.8420 -1.5146  1.1184
   89TMC2    C1 1382   2.789   2.073   1.574 -0.0586 -0.5585 -0.0558
   89TMC2    C2 1383   2.718   2.085   1.689  0.0563  0.3160  1.0682
   89TMC2    C3 1384   2.653   2.205   1.717  0.0225  0.1579  0.0646
   89TMC2    C4 1385   2.788   2.171   1.482 -0.2851  0.3008 -0.2259
   89TMC2    C5 1386   2.725   2.291   1.507 -0.1124  0.2814  0.3027
   89TMC2    C6 1387   2.657   2.307   1.632  0.2412  0.8234  0.5381
   89TMC2     C 1388   2.864   1.957   1.542  0.0980 -0.2987 -0.0962
   89TMC2     O 1389   2.955   1.970   1.462 -0.4328  0.4495  0.6263
   89TMC2     H 1390   2.739   2.016   1.770 -0.4572 -1.9960 -0.7659
   89TMC2    H1 1391   2.835   2.156   1.386 -1.5849  0.8031 -0.9431
   89TMC2    H2 1392   2.609   2.400   1.661 -1.2308  0.0173  0.6867
   89TMC2    C7 1393   2.690   2.386   1.396  0.2859  0.2040 -0.7705
   89TMC2    C8 1394   2.579   2.221   1.842  0.5030  0.5254  0.4761
   89TMC2    O1 1395   2.592   2.456   1.407  0.1559  0.5573  0.2375
   89TMC2    O2 1396   2.548   2.332   1.887 -0.2513 -0.0792  0.2062
   89TMC2    O5 1397   2.525   2.104   1.866 -0.1326 -0.0284 -0.3670
   89TMC2    H5 1398   2.534   2.026   1.807  3.3319 -1.1468  1.6074
   90MPD2     C 1399   2.853   1.472   1.392 -0.4147  0.1842  0.0866
   90MPD2    C1 1400   2.733   1.506   1.458 -0.3735 -0.6722  0.1115
   90MPD2    C2 1401   2.719   1.627   1.508  0.1990  0.1041 -0.2129
   90MPD2    C3 1402   2.814   1.727   1.501  0.6663 -0.0483  0.1286
   90MPD2    C4 1403   2.933   1.696   1.437 -0.6591 -0.1389  0.2013
   90MPD2    C5 1404   2.945   1.566   1.385 -0.3134 -0.4726 -0.1847
   90MPD2     H 1405   2.623   1.664   1.541  1.3220  0.8248  2.2683
   90MPD2    H1 1406   3.019   1.762   1.442 -1.0293  0.3021  0.7506
   90MPD2    H2 1407   2.871   1.372   1.354 -0.2902 -0.1017  0.9068
   90MPD2    H3 1408   3.044   1.545   1.346  0.3036  1.0552  0.5650
   90MPD2     N 1409   2.783   1.850   1.560 -1.1669  0.6907  0.3134
   90MPD2    H5 1410   2.692   1.867   1.601 -1.5247  1.5952 -0.8667
   90MPD2    N1 1411   2.624   1.418   1.466  0.4271 -0.2044  0.1851
   90MPD2    H7 1412   2.545   1.458   1.516  0.6674  1.8495 -1.0813
   91TMC2    C1 1413   3.986   1.209  16.028 -0.8692 -0.8402 -0.1261
   91TMC2    C2 1414   4.011   1.112  16.113 -0.7149  0.1913 -0.3951
   91TMC2    C3 1415   3.946   0.991  16.102  0.5844  0.6573  0.0855
   91TMC2    C4 1416   3.893   1.191  15.932  0.0691  1.0555  0.3664
   91TMC2    C5 1417   3.829   1.072  15.922  0.0792 -0.4118 -0.0615
   91TMC2    C6 1418   3.848   0.967  16.004 -0.5227 -0.1569 -0.6798
   91TMC2     C 1419   4.042   1.339  16.042  0.3769  0.1799  0.9385
   91TMC2     O 1420   3.980   1.435  15.996 -0.6010  0.5128 -0.5898
   91TMC2     H 1421   4.094   1.116  16.183  0.8906 -2.1159 -2.1577
   91TMC2    H1 1422   3.855   1.277  15.878  1.1601  0.2026 -1.7759
   91TMC2    H2 1423   3.790   0.878  15.985  1.1461 -1.5216  0.5832
   91TMC2    C7 1424   3.706   1.061  15.837 -1.9970  0.5053  0.3493
   91TMC2    C8 1425   4.003   0.860  16.146  0.0366  0.1604 -0.5036
   91TMC2    O1 1426   3.614   0.995  15.877  0.2762 -0.2200 -0.7059
   91TMC2    O2 1427   3.978   0.752  16.090  0.2988  0.2341 -0.3473
   91TMC2    O5 1428   4.096   0.882  16.250  0.2887  0.4613  0.2732
   91TMC2    H5 1429   4.108   0.979  16.258  1.7493  0.0877  2.4409
   92MPD2     C 1430   4.191   1.574  16.140 -0.2071 -0.1852  0.5777
   92MPD2    C1 1431   4.255   1.457  16.102  0.7704  0.3036 -0.7834
   92MPD2    C2 1432   4.392   1.448  16.103 -0.1942 -0.2977  0.3636
   92MPD2    C3 1433   4.469   1.554  16.136  0.3805 -0.1675  0.0063
   92MPD2    C4 1434   4.408   1.673  16.153  0.6127 -0.5347  0.4822
   92MPD2    C5 1435   4.272   1.680  16.169 -0.7547 -0.2525 -0.0909
   92MPD2     H 1436   4.441   1.357  16.070  1.5072  0.4078  0.9326
   92MPD2    H1 1437   4.454   1.768  16.180  2.4605 -1.2329 -0.2037
   92MPD2    H2 1438   4.085   1.581  16.163 -0.5816 -0.0990 -1.1636
   92MPD2    H3 1439   4.224   1.773  16.197 -2.0424 -1.0472  0.3242
   92MPD2     N 1440   4.608   1.540  16.146 -0.1509  0.0654 -0.0846
   92MPD2    H5 1441   4.639   1.445  16.128  0.9271 -0.2237  3.3471
   92MPD2    N1 1442   4.176   1.338  16.073  0.3683  0.2836  0.2689
   92MPD2    H7 1443   4.223   1.248  16.081  2.5088  1.1531 -2.5743
   93TMC2    C1 1444   1.494   2.143  14.011  0.2708 -0.4774 -0.6387
   93TMC2    C2 1445   1.539   2.099  14.127 -0.4371 -0.5268  0.4052
   93TMC2    C3 1446   1.660   2.152  14.177  0.5163 -0.8177  0.0236
   93TMC2    C4 1447   1.571   2.222  13.932  0.2630  0.1773 -0.2513
   93TMC2    C5 1448   1.695   2.266  13.982 -0.2828  0.5070  0.4552
   93TMC2    C6 1449   1.747   2.227  14.107  0.6295  0.7071 -0.0632
   93TMC2     C 1450   1.357   2.171  13.993 -0.3454  0.2801 -0.1453
   93TMC2     O 1451   1.320   2.286  13.966  0.2255  0.0011  0.2970
   93TMC2     H 1452   1.480   2.039  14.195  0.1373 -0.5384  0.8981
   93TMC2    H1 1453   1.519   2.258  13.844 -0.0883  2.1007  0.7466
   93TMC2    H2 1454   1.836   2.281  14.136  1.7767  0.0730 -2.3470
   93TMC2    C7 1455   1.777   2.339  13.894 -0.3299 -0.0127 -0.3076
   93TMC2    C8 1456   1.689   2.133  14.320 -0.4516  0.6729 -0.7428
   93TMC2    O1 1457   1.898   2.323  13.903 -0.4783 -0.0285 -0.5777
   93TMC2    O2 1458   1.606   2.104  14.402  0.1039 -0.5118 -0.3200
   93TMC2    O5 1459   1.822   2.145  14.344  0.2218  0.0683 -0.3867
   93TMC2    H5 1460   1.881   2.143  14.266  0.7464  0.7385  0.0019
   94MPD2     C 1461   1.054   2.147  13.976  0.1454 -0.1013  0.2324
   94MPD2    C1 1462   1.147   2.043  13.997 -0.6721 -0.3794  0.1370
   94MPD2    C2 1463   1.108   1.915  14.003  0.7548  0.0332 -0.4982
   94MPD2    C3 1464   0.984   1.877  13.952 -0.0937 -0.3549  0.7232
   94MPD2    C4 1465   0.894   1.981  13.918  0.4250  0.3024  0.0795
   94MPD2    C5 1466   0.929   2.110  13.944  0.2416 -0.1925 -0.2395
   94MPD2     H 1467   1.184   1.843  14.033  0.5803 -0.5175 -1.3613
   94MPD2    H1 1468   0.792   1.966  13.884  1.4004 -1.9652 -1.8463
   94MPD2    H2 1469   1.088   2.249  13.966  3.1226 -0.9425  1.8455
   94MPD2    H3 1470   0.859   2.189  13.917  2.0804  2.1096  1.7112
   94MPD2     N 1471   0.937   1.748  13.956  0.5457 -0.5025 -0.6092
   94MPD2    H5 1472   0.847   1.733  13.913 -0.1520  0.9920  0.3154
   94MPD2    N1 1473   1.287   2.061  14.024 -0.1521  0.4266 -0.6346
   94MPD2    H7 1474   1.348   1.982  14.040 -2.0361 -1.3935 -2.3867
   95TMC2    C1 1475   2.295   3.852  16.201 -0.4599  0.0691 -0.3500
   95TMC2    C2 1476   2.355   3.858  16.320  0.2650  0.7709 -0.5200
   95TMC2    C3 1477   2.277   3.810  16.429 -0.2205  0.2629 -0.4947
   95TMC2    C4 1478   2.174   3.789  16.189  0.1830  0.1610  0.2187
   95TMC2    C5 1479   2.104   3.749  16.297  0.0217  0.0138 -0.0957
   95TMC2    C6 1480   2.153   3.760  16.425  0.3226 -0.2295 -0.0361
   95TMC2     C 1481   2.337   3.928  16.083  0.6394 -1.1098  0.1853
   95TMC2     O 1482   2.289   3.891  15.975  0.0530 -0.1460  0.0983
   95TMC2     H 1483   2.456   3.895  16.318  0.3691  0.4635 -0.9294
   95TMC2    H1 1484   2.126   3.787  16.092 -0.6228  0.1444  0.6234
   95TMC2    H2 1485   2.105   3.729  16.517 -2.2238 -2.0986 -2.0204
   95TMC2    C7 1486   1.966   3.709  16.273  0.3587 -0.4649  0.2069
   95TMC2    C8 1487   2.328   3.807  16.563  0.0045  1.0194  0.0502
   95TMC2    O1 1488   1.933   3.699  16.157 -0.8676  0.6960  0.5974
   95TMC2    O2 1489   2.271   3.758  16.659  0.0033 -0.5692  0.2118
   95TMC2    O5 1490   2.441   3.885  16.560  0.1858 -0.3855 -0.0996
   95TMC2    H5 1491   2.454   3.913  16.467 -0.3722  0.8030  0.1739
   96MPD2     C 1492   2.664   4.231  15.849  0.9592 -0.5411 -0.4708
   96MPD2    C1 1493   2.580   4.138  15.794 -0.2829 -0.6520  0.3023
   96MPD2    C2 1494   2.513   4.053  15.882 -0.4842  0.5459  0.0055
   96MPD2    C3 1495   2.519   4.083  16.017 -0.0909  0.2161  0.1842
   96MPD2    C4 1496   2.590   4.185  16.065  0.7588 -0.5056 -0.6146
   96MPD2    C5 1497   2.667   4.258  15.980  0.4159 -0.1367  0.4857
   96MPD2     H 1498   2.454   3.970  15.844  0.1958  0.3966 -0.7175
   96MPD2    H1 1499   2.587   4.211  16.170 -0.6941  0.5885 -0.9308
   96MPD2    H2 1500   2.732   4.284  15.782  0.7620  1.0123  0.5534
   96MPD2    H3 1501   2.743   4.327  16.013  1.9076 -0.9080 -1.3242
   96MPD2     N 1502   2.435   4.022  16.113  0.1264 -0.1359 -0.6969
   96MPD2    H5 1503   2.447   4.064  16.205  0.4191  0.2757 -0.9255
   96MPD2    N1 1504   2.579   4.132  15.654 -0.3994  0.2973  0.5949
   96MPD2    H7 1505   2.626   4.213  15.615 -1.1898  0.3210 -0.3085
   97TMC2    C1 1506   4.617   0.931  17.723 -0.2160  0.0188  0.8209
   97TMC2    C2 1507   0.010   0.894  17.728 -0.5932  0.5759 -0.1733
   97TMC2    C3 1508   0.096   0.997  17.690  0.5464 -0.5567  0.2347
   97TMC2    C4 1509   4.568   1.054  17.700  0.0154  0.3800 -0.4058
   97TMC2    C5 1510   4.660   1.140  17.657  0.5429 -0.2137 -0.1636
   97TMC2    C6 1511   0.056   1.118  17.658 -0.0045  0.0581 -0.1286
   97TMC2     C 1512   4.520   0.823  17.755  0.6835 -0.3307 -0.4739
   97TMC2     O 1513   4.413   0.852   0.049 -0.2157  0.1561 -0.3345
   97TMC2     H 1514   0.057   0.798  17.744  0.5412  1.2673  0.6872
   97TMC2    H1 1515   4.462   1.071  17.713  0.3952 -0.8962  4.3642
   97TMC2    H2 1516   0.133   1.191  17.634  0.4661 -0.3494  0.1592
   97TMC2    C7 1517   4.624   1.279  17.662 -0.2745  0.0508 -0.0785
   97TMC2    C8 1518   0.229   0.984  17.742 -0.0684  0.5346 -0.1469
   97TMC2    O1 1519   4.701   1.355  17.720  0.1379  0.1927  0.1853
   97TMC2    O2 1520   0.255   0.903   0.072 -0.7358 -0.4486 -0.4781
   97TMC2    O5 1521   0.309   1.011  17.637  0.2621  0.1573  0.1587
   97TMC2    H5 1522   0.272   1.066  17.564 -1.0337 -1.4634 -0.4053
   98MPD2     C 1523   4.478   0.337   0.149 -1.2211 -0.0386 -0.3673
   98MPD2    C1 1524   4.390   0.441   0.175 -0.1735  0.6039 -0.6204
   98MPD2    C2 1525   4.424   0.563   0.118 -0.3471  0.5660 -0.7602
   98MPD2    C3 1526   4.540   0.582   0.050  0.2486 -0.5110  0.2524
   98MPD2    C4 1527   4.625   0.478   0.033 -0.6707 -0.2361 -0.8240
   98MPD2    C5 1528   4.599   0.359   0.085 -0.4739  0.0639  0.5469
   98MPD2     H 1529   4.359   0.647   0.138 -0.5388  0.7518 -2.1515
   98MPD2    H1 1530   4.720   0.500  17.741 -0.9725  0.1955 -1.2362
   98MPD2    H2 1531   4.456   0.237   0.187 -2.6213 -0.1591 -1.5164
   98MPD2    H3 1532   4.665   0.274   0.070  0.7142  1.0821 -0.0063
   98MPD2     N 1533   4.573   0.704  17.734  0.4588  0.4527  0.3205
   98MPD2    H5 1534   4.663   0.716  17.689 -0.2066  1.0472 -0.8558
   98MPD2    N1 1535   4.267   0.403   0.239 -0.0817 -0.4626 -0.3665
   98MPD2    H7 1536   4.255   0.304   0.257 -1.8090 -0.1045  0.5286
   99TMC2    C1 1537   2.208   2.418   1.752  0.1280  0.5505  0.9344
   99TMC2    C2 1538   2.225   2.390   1.887  0.4232  0.3436 -0.6909
   99TMC2    C3 1539   2.247   2.505   1.960 -0.1383  0.0537 -0.5875
   99TMC2    C4 1540   2.216   2.541   1.689  0.1229 -0.3211 -0.1305
   99TMC2    C5 1541   2.239   2.645   1.769 -0.4222 -0.2356 -0.0760
   99TMC2    C6 1542   2.251   2.634   1.903 -0.5263  0.2541  0.4375
   99TMC2     C 1543   2.230   2.296   1.674  0.5139 -0.0401 -0.0398
   99TMC2     O 1544   2.206   2.188   1.726 -0.0898 -0.5765 -0.4642
   99TMC2     H 1545   2.222   2.296   1.941 -2.5929 -0.3497 -2.0404
   99TMC2    H1 1546   2.212   2.554   1.581  0.4328 -0.9627 -0.2185
   99TMC2    H2 1547   2.272   2.721   1.964 -0.8780  0.7581 -0.1709
   99TMC2    C7 1548   2.204   2.778   1.723 -0.2444 -0.0049 -0.7357
   99TMC2    C8 1549   2.259   2.491   2.105 -0.1527  0.2288  1.2946
   99TMC2    O1 1550   2.245   2.874   1.785 -0.3339  0.8519  0.2167
   99TMC2    O2 1551   2.181   2.421   2.168  0.2002  0.0779 -0.3309
   99TMC2    O5 1552   2.387   2.512   2.138 -0.3241  0.0479  0.0583
   99TMC2    H5 1553   2.441   2.543   2.062 -0.1303  0.5973  0.4240
  100MPD2     C 1554   2.371   2.106   1.482 -0.3003 -0.2172  0.4193
  100MPD2    C1 1555   2.329   2.234   1.450  1.1122 -0.8048 -0.3747
  100MPD2    C2 1556   2.342   2.276   1.322  0.4003 -0.1813  0.3173
  100MPD2    C3 1557   2.392   2.200   1.221 -0.0544 -0.1379 -0.5160
  100MPD2    C4 1558   2.426   2.060   1.254  0.0391 -0.1025 -0.8983
  100MPD2    C5 1559   2.414   2.019   1.386 -0.3315 -0.4990 -0.7644
  100MPD2     H 1560   2.304   2.374   1.294  0.6782 -0.0571  0.3698
  100MPD2    H1 1561   2.457   1.985   1.182  1.5165  0.8522 -1.2570
  100MPD2    H2 1562   2.363   2.060   1.579 -0.3766 -0.2751  0.3857
  100MPD2    H3 1563   2.437   1.917   1.412 -1.4150 -0.8216 -1.0756
  100MPD2     N 1564   2.394   2.251   1.090 -0.2624 -0.9575  0.0849
  100MPD2    H5 1565   2.356   2.345   1.082  3.4628  0.5351  0.1758
  100MPD2    N1 1566   2.268   2.323   1.547  0.5563 -0.5902 -0.1719
  100MPD2    H7 1567   2.250   2.417   1.512 -2.2758 -2.2517 -3.2156
  101TMC2    C1 1568   3.562   4.417  13.107 -0.5396  0.7939 -0.3319
  101TMC2    C2 1569   3.492   4.523  13.152  0.2356  0.1972  0.4312
  101TMC2    C3 1570   3.521   4.648  13.104  0.0822 -0.1364 -0.6462
  101TMC2    C4 1571   3.668   4.430  13.018 -0.6031 -0.0897 -0.1344
  101TMC2    C5 1572   3.699   4.560  12.981  0.3067 -0.2079 -0.2143
  101TMC2    C6 1573   3.620   4.669  13.015  0.1093  0.2835  0.4040
  101TMC2     C 1574   3.496   4.290  13.126 -0.7035  0.0513  0.4033
  101TMC2     O 1575   3.399   4.291  13.200 -0.0354 -0.4700  0.6929
  101TMC2     H 1576   3.434   4.520  13.244 -1.0665 -0.2200 -0.4082
  101TMC2    H1 1577   3.741   4.351  13.013 -0.8975 -0.3409 -0.4685
  101TMC2    H2 1578   3.649   0.026  12.975  0.2939  0.8289  1.8593
  101TMC2    C7 1579   3.819   4.592  12.910  0.4401  0.2692 -0.3661
  101TMC2    C8 1580   3.478   0.024  13.188 -0.6123 -0.4809 -0.3782
  101TMC2    O1 1581   3.838   4.709  12.878  0.0834  0.1348  0.4833
  101TMC2    O2 1582   3.550   0.122  13.185 -0.2739  0.6266  0.5086
  101TMC2    O5 1583   3.346   0.012  13.186  0.4282  0.3001 -0.1027
  101TMC2    H5 1584   3.302   4.673  13.148  1.9584 -0.4641 -0.3029
  102MPD2     C 1585   3.633   3.972  13.028 -0.1475 -0.2866 -0.1882
  102MPD2    C1 1586   3.532   4.048  13.075 -0.0441  0.3329  0.0103
  102MPD2    C2 1587   3.429   4.000  13.148 -0.5643 -0.0460 -0.7236
  102MPD2    C3 1588   3.419   3.866  13.175 -0.5697  0.2551  0.7058
  102MPD2    C4 1589   3.508   3.782  13.111 -0.2155  0.2027 -0.6300
  102MPD2    C5 1590   3.617   3.835  13.043 -0.7559 -0.1794 -0.1529
  102MPD2     H 1591   3.355   4.068  13.187  1.8407  1.4930  1.1451
  102MPD2    H1 1592   3.493   3.675  13.124 -0.9898  0.4285  0.3591
  102MPD2    H2 1593   3.708   4.023  12.969  0.1421  0.2758  0.6520
  102MPD2    H3 1594   3.688   3.765  13.002 -0.3581  1.4311 -2.2064
  102MPD2     N 1595   3.316   3.824  13.253 -0.0600  0.2056 -0.2108
  102MPD2    H5 1596   3.262   3.899  13.296 -0.3735  0.3012 -0.7809
  102MPD2    N1 1597   3.563   4.188  13.061 -0.2444 -0.1376 -0.1390
  102MPD2    H7 1598   3.638   4.214  12.998 -0.5957 -1.3858 -1.0812
  103TMC2    C1 1599   1.559   4.011  12.730 -0.2595  0.1485 -0.0165
  103TMC2    C2 1600   1.658   4.060  12.657  0.0707  0.1656  0.4434
  103TMC2    C3 1601   1.769   4.098  12.728  0.3839 -0.2377  0.1017
  103TMC2    C4 1602   1.552   4.013  12.869 -0.3518 -0.4291  0.4282
  103TMC2    C5 1603   1.663   4.055  12.941 -0.7681 -0.2800 -0.9632
  103TMC2    C6 1604   1.770   4.101  12.870  0.0850  0.2768 -0.3868
  103TMC2     C 1605   1.436   3.982  12.657  0.3397 -0.6070  0.0678
  103TMC2     O 1606   1.334   3.982  12.722 -0.3450 -0.0353  0.1508
  103TMC2     H 1607   1.657   4.036  12.551  0.2161 -1.5374  0.8174
  103TMC2    H1 1608   1.485   3.946  12.921  1.6357 -1.9855  1.0062
  103TMC2    H2 1609   1.862   4.132  12.918 -1.0937  1.2705  1.2226
  103TMC2    C7 1610   1.646   4.095  13.085 -0.2266 -0.2190  0.5178
  103TMC2    C8 1611   1.888   4.139  12.657 -0.4189 -1.0691  0.3036
  103TMC2    O1 1612   1.743   4.145  13.141 -0.5868  0.5000  0.0417
  103TMC2    O2 1613   1.995   4.150  12.708  0.3284 -0.6442 -0.1556
  103TMC2    O5 1614   1.855   4.203  12.539  0.1716  0.1848 -0.4580
  103TMC2    H5 1615   1.762   4.214  12.511 -0.1876 -1.7963 -0.0752
  104MPD2     C 1616   1.372   3.860  12.323 -0.1419  0.3216 -0.2204
  104MPD2    C1 1617   1.344   3.924  12.436 -0.4854  0.5991  0.3280
  104MPD2    C2 1618   1.215   3.969  12.454  0.2208 -0.1574  0.4990
  104MPD2    C3 1619   1.119   3.948  12.355  0.0042 -0.4746  0.1084
  104MPD2    C4 1620   1.153   3.882  12.234  0.3887  0.3694  0.1009
  104MPD2    C5 1621   1.280   3.841  12.220  0.4593 -0.3432 -0.2870
  104MPD2     H 1622   1.193   4.023  12.546  0.8870 -0.7485  1.0096
  104MPD2    H1 1623   1.077   3.871  12.157  0.3364 -0.3752  0.2548
  104MPD2    H2 1624   1.473   3.835  12.293 -0.0377  1.3741 -0.7438
  104MPD2    H3 1625   1.307   3.787  12.130 -1.2161 -1.9684  0.1787
  104MPD2     N 1626   0.985   3.996  12.356  0.2626 -0.0412  0.6902
  104MPD2    H5 1627   0.921   3.967  12.283  1.2770  0.1081 -0.2528
  104MPD2    N1 1628   1.452   3.946  12.528  0.1246  0.0848 -0.3659
  104MPD2    H7 1629   1.548   3.924  12.501 -0.4020 -0.4436 -1.8560
  105TMC2    C1 1630   2.865   3.092   0.014 -0.6556  0.1498 -0.0382
  105TMC2    C2 1631   2.914   3.206   0.063 -0.1036 -0.7666  0.0042
  105TMC2    C3 1632   2.827   3.271   0.144 -0.3967 -0.7847 -0.2573
  105TMC2    C4 1633   2.754   3.029   0.061 -0.9185 -0.2192  0.1790
  105TMC2    C5 1634   2.676   3.104   0.144 -0.3922 -0.8480 -0.3901
  105TMC2    C6 1635   2.709   3.222   0.190  0.7317  0.0559 -0.0623
  105TMC2     C 1636   2.922   3.036  17.648  0.2576  0.2156  0.1657
  105TMC2     O 1637   2.891   2.920  17.626 -0.0977  0.2093 -0.4776
  105TMC2     H 1638   3.007   3.258   0.044 -0.4924 -0.2702 -0.5603
  105TMC2    H1 1639   2.720   2.936   0.018 -1.8036  1.1742 -2.1478
  105TMC2    H2 1640   2.653   3.289   0.254 -1.3686  0.8341 -2.6864
  105TMC2    C7 1641   2.537   3.062   0.146  0.9203 -0.6017 -0.4821
  105TMC2    C8 1642   2.867   3.378   0.224  0.1648 -0.4244  0.4296
  105TMC2    O1 1643   2.499   2.968   0.078  0.0371 -0.6194 -0.7783
  105TMC2    O2 1644   2.838   3.392   0.344  0.5840  0.4210  0.3514
  105TMC2    O5 1645   2.948   3.459   0.152  0.2960 -0.3890  0.0370
  105TMC2    H5 1646   2.950   3.435   0.057 -0.8431  1.7071 -0.5133
  106MPD2     C 1647   3.226   3.072  17.247 -0.2772 -0.7744 -0.6319
  106MPD2    C1 1648   3.234   3.191  17.309 -0.1035 -0.0403 -0.3388
  106MPD2    C2 1649   3.161   3.207  17.424  0.1469  0.0418 -0.1458
  106MPD2    C3 1650   3.080   3.106  17.462  0.0931 -0.0143 -0.3190
  106MPD2    C4 1651   3.073   2.987  17.393  0.0329 -0.4637 -0.6831
  106MPD2    C5 1652   3.148   2.970  17.278 -0.1021 -0.4798  0.1579
  106MPD2     H 1653   3.160   3.308  17.465  2.5153  0.0922 -0.2163
  106MPD2    H1 1654   3.007   2.904  17.420 -0.8961  0.2196 -0.8407
  106MPD2    H2 1655   3.289   3.053  17.161 -0.0304  0.5922 -0.7640
  106MPD2    H3 1656   3.146   2.875  17.226  0.5583 -0.2703 -0.2523
  106MPD2     N 1657   3.003   3.125  17.578  0.3703 -0.2162 -0.2543
  106MPD2    H5 1658   2.999   3.221  17.611  0.8241 -0.6026  0.9127
  106MPD2    N1 1659   3.310   3.297  17.265 -0.1958  0.7493  0.3190
  106MPD2    H7 1660   3.291   3.384  17.314  2.1002  0.9234  0.8819
  107TMC2    C1 1661   3.347   2.806  11.404 -0.1766  0.3956 -0.4434
  107TMC2    C2 1662   3.261   2.704  11.429  0.2079 -0.1391 -0.2687
  107TMC2    C3 1663   3.316   2.579  11.424  0.1068 -0.3398  0.7370
  107TMC2    C4 1664   3.478   2.783  11.394  0.4199 -0.3456 -0.4909
  107TMC2    C5 1665   3.531   2.658  11.395  1.0189  0.0185  0.5015
  107TMC2    C6 1666   3.447   2.550  11.407 -0.5930  0.2113 -0.4778
  107TMC2     C 1667   3.300   2.946  11.419  0.6546  0.3756  0.3929
  107TMC2     O 1668   3.193   2.950  11.482 -0.1657 -0.1140  0.0392
  107TMC2     H 1669   3.155   2.722  11.441  0.2682 -0.2952  0.4808
  107TMC2    H1 1670   3.551   2.863  11.393  1.0360 -0.9086 -0.3505
  107TMC2    H2 1671   3.466   2.443  11.408 -2.0476 -0.0343  2.0227
  107TMC2    C7 1672   3.676   2.639  11.392 -0.4263 -0.4447  0.0436
  107TMC2    C8 1673   3.217   2.474  11.447 -0.1165  0.7181 -0.0251
  107TMC2    O1 1674   3.742   2.740  11.423 -0.1407 -0.0627  0.0975
  107TMC2    O2 1675   3.253   2.377  11.510  0.6881 -0.2156  0.2367
  107TMC2    O5 1676   3.120   2.469  11.354  0.0385 -0.5534  0.0595
  107TMC2    H5 1677   3.125   2.536  11.283  0.0430  0.4553  1.0061
  108MPD2     C 1678   3.430   3.253  11.279  0.1615 -0.5215  0.0099
  108MPD2    C1 1679   3.347   3.174  11.352 -0.3234  0.2797  0.5631
  108MPD2    C2 1680   3.252   3.240  11.426 -0.6717  0.6012  0.7062
  108MPD2    C3 1681   3.221   3.370  11.416 -0.5895  0.6819  0.2475
  108MPD2    C4 1682   3.296   3.443  11.329  0.1732  0.1564  0.0396
  108MPD2    C5 1683   3.398   3.385  11.255 -0.0446  0.0906 -0.5814
  108MPD2     H 1684   3.197   3.179  11.497 -1.4828 -0.3774 -0.7537
  108MPD2    H1 1685   3.283   3.550  11.314  2.4370 -0.0419 -3.3938
  108MPD2    H2 1686   3.513   3.212  11.223 -0.1729 -1.6479  0.3354
  108MPD2    H3 1687   3.463   3.445  11.194  2.6381 -0.9746  1.2340
  108MPD2     N 1688   3.125   3.436  11.495 -0.5402 -0.1847  0.0085
  108MPD2    H5 1689   3.106   3.532  11.468  0.0304 -0.0842 -0.0440
  108MPD2    N1 1690   3.380   3.038  11.364 -1.0257 -0.1791 -0.8092
  108MPD2    H7 1691   3.467   3.014  11.318  0.4029 -0.4819  2.0139
  109TMC2    C1 1692   2.852   0.002   0.092 -1.1394 -0.0106  0.3156
  109TMC2    C2 1693   2.771   0.112   0.100  0.0991  0.0762  0.3114
  109TMC2    C3 1694   2.833   0.231   0.123 -0.5401 -0.0095  1.0657
  109TMC2    C4 1695   2.984   4.738   0.107  0.1651 -0.0186 -0.7351
  109TMC2    C5 1696   3.041   0.127   0.113 -0.3269 -0.4155 -0.1873
  109TMC2    C6 1697   2.971   0.242   0.120 -0.0470  0.8864 -0.0909
  109TMC2     C 1698   2.797   4.616   0.110  0.2395 -0.6529  0.2368
  109TMC2     O 1699   2.800   4.539   0.013  0.5693 -0.2799  0.0962
  109TMC2     H 1700   2.665   0.096   0.088 -0.3827  2.6607  1.0703
  109TMC2    H1 1701   3.042   4.647   0.109  0.0226 -0.1859 -3.9680
  109TMC2    H2 1702   3.022   0.337   0.130 -0.9001  1.3169  0.2110
  109TMC2    C7 1703   3.187   0.135   0.119  0.4017  0.6095 -0.0825
  109TMC2    C8 1704   2.749   0.337   0.143 -0.1876 -0.7858 -0.1528
  109TMC2    O1 1705   3.235   0.241   0.166  0.0329 -0.1545  0.1959
  109TMC2    O2 1706   2.643   0.324   0.201 -0.7175  0.0803  0.3529
  109TMC2    O5 1707   2.763   0.412   0.037 -0.3362 -0.0168 -0.3999
  109TMC2    H5 1708   2.855   0.403   0.005 -0.3834  0.0625 -0.5556
  110MPD2     C 1709   2.510   4.305   0.396 -0.4847  0.5426 -0.6347
  110MPD2    C1 1710   2.506   4.435   0.450 -0.5350 -0.0840 -0.2094
  110MPD2    C2 1711   2.573   4.538   0.382  1.1038  0.2334 -0.1164
  110MPD2    C3 1712   2.648   4.509   0.268 -0.6308 -0.1425 -0.0481
  110MPD2    C4 1713   2.648   4.382   0.213  0.0992 -0.4158  0.1607
  110MPD2    C5 1714   2.582   4.282   0.282 -0.2681 -0.2093 -0.4980
  110MPD2     H 1715   2.566   4.638   0.421  0.6036  0.4555 -0.7611
  110MPD2    H1 1716   2.700   4.362   0.120  0.2697 -1.4575  0.4831
  110MPD2    H2 1717   2.467   4.224   0.454 -1.6242  0.1644 -2.0044
  110MPD2    H3 1718   2.591   4.181   0.243  1.1451 -0.6552  1.0130
  110MPD2     N 1719   2.725   4.616   0.220  1.0055 -0.3499 -0.3453
  110MPD2    H5 1720   2.724   4.699   0.278  1.9231 -1.5772  1.4626
  110MPD2    N1 1721   2.455   4.457   0.581  0.1196  0.3856  0.0947
  110MPD2    H7 1722   2.402   4.387   0.632  2.7039 -0.4444  1.6567
  111TMC2    C1 1723   3.419   0.770  12.135 -0.9389  0.9229 -0.8527
  111TMC2    C2 1724   3.344   0.758  12.243 -0.2334  0.0321  0.5176
  111TMC2    C3 1725   3.395   0.726  12.369  0.4653  0.7628 -0.7453
  111TMC2    C4 1726   3.560   0.766  12.145 -0.1531  0.0156  0.4405
  111TMC2    C5 1727   3.611   0.724  12.266 -0.0172  0.4444  0.0780
  111TMC2    C6 1728   3.536   0.711  12.375 -0.4995  0.4666 -0.1547
  111TMC2     C 1729   3.376   0.720  12.007  0.0407 -0.3516 -0.3247
  111TMC2     O 1730   3.452   0.729  11.911 -0.8064  0.2929 -0.4434
  111TMC2     H 1731   3.237   0.771  12.233 -0.6156 -3.0055  0.8911
  111TMC2    H1 1732   3.612   0.759  12.051 -0.9044  0.1363  0.0128
  111TMC2    H2 1733   3.588   0.700  12.469  0.0994 -2.7209 -0.8636
  111TMC2    C7 1734   3.754   0.700  12.285  0.3819  0.1799 -0.4315
  111TMC2    C8 1735   3.303   0.727  12.480 -0.2099 -0.2872 -0.9566
  111TMC2    O1 1736   3.779   0.637  12.386  0.3025 -0.0209 -0.1683
  111TMC2    O2 1737   3.200   0.797  12.497  0.2031 -0.4475  0.3168
  111TMC2    O5 1738   3.352   0.644  12.574  0.0647  0.4293 -0.5821
  111TMC2    H5 1739   3.418   0.584  12.535  0.1934  0.1461  0.0677
  112MPD2     C 1740   3.030   0.500  11.685 -0.1832 -0.3388 -0.4421
  112MPD2    C1 1741   3.137   0.589  11.655  0.4966 -0.2674  0.1522
  112MPD2    C2 1742   3.209   0.639  11.765  0.1590  0.6539  0.0433
  112MPD2    C3 1743   3.180   0.610  11.901  0.5616  0.4012 -0.2489
  112MPD2    C4 1744   3.068   0.532  11.919  0.3537  0.2818  0.3693
  112MPD2    C5 1745   2.992   0.484  11.817 -0.8532 -0.2563 -0.3111
  112MPD2     H 1746   3.296   0.702  11.747 -0.1606  0.2830 -2.7643
  112MPD2    H1 1747   3.049   0.512  12.023  0.4543  1.6432  0.6530
  112MPD2    H2 1748   2.976   0.444  11.610 -2.0356  1.8092 -0.7202
  112MPD2    H3 1749   2.911   0.415  11.838  0.9731 -2.4235 -0.4167
  112MPD2     N 1750   3.259   0.651  12.014  0.2671 -0.0644 -0.2701
  112MPD2    H5 1751   3.236   0.616  12.107  2.6717 -2.4011 -0.5303
  112MPD2    N1 1752   3.179   0.621  11.525 -0.0173 -0.5817 -0.3032
  112MPD2    H7 1753   3.267   0.669  11.515 -0.7351  0.4632 -1.5633
  113TMC2    C1 1754   1.214   2.640   0.286  0.1337 -0.5594  1.0795
  113TMC2    C2 1755   1.083   2.670   0.268 -0.8089  0.0009  0.4270
  113TMC2    C3 1756   1.000   2.561   0.265  0.3365  0.6082  0.7811
  113TMC2    C4 1757   1.260   2.512   0.299  0.4487 -0.7203  0.1064
  113TMC2    C5 1758   1.171   2.408   0.301 -0.0654 -0.7440  0.4452
  113TMC2    C6 1759   1.041   2.428   0.281 -0.5229 -0.3322  0.4200
  113TMC2     C 1760   1.304   2.742   0.349  0.3863 -0.1666 -0.4579
  113TMC2     O 1761   1.239   2.832   0.401  0.0080 -0.0994 -0.5375
  113TMC2     H 1762   1.055   2.770   0.239  0.3342  0.2609  0.2042
  113TMC2    H1 1763   1.364   2.486   0.311  1.4780  2.0331 -2.7147
  113TMC2    H2 1764   0.975   2.347   0.253  0.7931 -1.3253  0.1776
  113TMC2    C7 1765   1.220   2.272   0.279  0.4267  0.4235 -0.6865
  113TMC2    C8 1766   0.884   2.585   0.174 -0.5027 -0.1187 -0.2681
  113TMC2    O1 1767   1.327   2.264   0.224 -0.0453  0.2408  0.2778
  113TMC2    O2 1768   0.863   2.520   0.073 -0.0215 -0.2715  0.0465
  113TMC2    O5 1769   0.783   2.643   0.250  0.4987 -0.0845  0.1047
  113TMC2    H5 1770   0.809   2.661   0.343  0.1489  0.6294  0.0622
  114MPD2     C 1771   1.690   2.914   0.639  1.0708  0.8435  0.2441
  114MPD2    C1 1772   1.565   2.964   0.606  0.0155  0.1691  0.4288
  114MPD2    C2 1773   1.489   2.902   0.508 -0.5455  0.1798  0.2455
  114MPD2    C3 1774   1.532   2.785   0.451  0.7603 -0.4836  0.0009
  114MPD2    C4 1775   1.656   2.734   0.482 -0.6740 -0.1339 -0.3142
  114MPD2    C5 1776   1.729   2.796   0.577  0.1938  0.8451  0.0518
  114MPD2     H 1777   1.401   2.952   0.469  1.0771  0.7817 -2.6468
  114MPD2    H1 1778   1.682   2.636   0.443 -2.9519  0.0176 -2.1912
  114MPD2    H2 1779   1.748   2.968   0.714 -0.4965 -0.7841  2.6437
  114MPD2    H3 1780   1.826   2.755   0.603  0.6080  1.1250 -1.0819
  114MPD2     N 1781   1.437   2.706   0.372  0.2994 -0.6024  0.1138
  114MPD2    H5 1782   1.468   2.614   0.343  0.0525 -0.2284 -1.3297
  114MPD2    N1 1783   1.499   3.083   0.659 -0.4645 -0.4560 -0.0779
  114MPD2    H7 1784   1.411   3.104   0.613 -0.0384  0.1762 -0.6100
  115TMC2    C1 1785   3.008   0.834  17.635  0.4813 -0.3173  0.1323
  115TMC2    C2 1786   3.129   0.780  17.673  0.0511  0.4513 -0.0553
  115TMC2    C3 1787   3.226   0.859  17.719  0.2694  0.8419  0.6523
  115TMC2    C4 1788   2.994   0.970  17.638 -0.0922 -0.0454  0.9634
  115TMC2    C5 1789   3.093   1.041  17.696 -0.0681 -0.6952  0.1028
  115TMC2    C6 1790   3.210   0.989  17.731  0.1331  0.1351 -0.0829
  115TMC2     C 1791   2.929   0.749  17.549 -0.0813 -0.2472  0.1506
  115TMC2     O 1792   2.984   0.657  17.488 -0.3468 -0.4422 -0.1163
  115TMC2     H 1793   3.147   0.674  17.667  1.9614  0.7554  0.0975
  115TMC2    H1 1794   2.904   1.020  17.604  0.3706  0.8516  1.0547
  115TMC2    H2 1795   3.278   1.050   0.033 -0.5310 -1.1622  2.0647
  115TMC2    C7 1796   3.073   1.185  17.709  0.4772  0.1539 -1.1791
  115TMC2    C8 1797   3.361   0.814  17.745 -0.1892 -0.0563 -0.2321
  115TMC2    O1 1798   3.128   1.223   0.055  0.5692 -0.5535  0.0579
  115TMC2    O2 1799   3.383   0.698   0.004 -0.0075  0.2675 -1.0885
  115TMC2    O5 1800   3.453   0.907  17.708 -0.7035  0.0518 -0.5540
  115TMC2    H5 1801   3.411   0.995  17.698  0.7154  0.8923  0.8455
  116MPD2     C 1802   2.465   0.617  17.393 -0.5950  0.3854 -0.5694
  116MPD2    C1 1803   2.585   0.570  17.352  0.3303  0.4391  0.9202
  116MPD2    C2 1804   2.704   0.617  17.409 -0.0377 -0.4147 -0.9054
  116MPD2    C3 1805   2.696   0.712  17.507 -0.3299 -0.3208 -0.1611
  116MPD2    C4 1806   2.570   0.763  17.530  0.5578 -0.5747 -0.6501
  116MPD2    C5 1807   2.452   0.719  17.488 -0.0185 -1.0850  0.0013
  116MPD2     H 1808   2.802   0.576  17.386  0.9222  0.7792  0.9962
  116MPD2    H1 1809   2.568   0.852  17.592  3.1172 -0.4574 -0.7321
  116MPD2    H2 1810   2.371   0.583  17.350 -1.1084  0.1122  0.7637
  116MPD2    H3 1811   2.360   0.765  17.520  0.7930  0.8308 -0.4350
  116MPD2     N 1812   2.802   0.779  17.573 -0.1175 -0.3449  0.5500
  116MPD2    H5 1813   2.773   0.857  17.632 -0.1281 -0.3899  0.6041
  116MPD2    N1 1814   2.581   0.470  17.254  0.1297 -0.0492  0.4587
  116MPD2    H7 1815   2.490   0.447  17.217  0.6850 -0.1803 -0.8284
  117TMC2    C1 1816   1.142   1.937  14.368  0.4793 -0.7261 -0.1338
  117TMC2    C2 1817   1.229   1.917  14.468 -0.0144 -0.0844 -0.4795
  117TMC2    C3 1818   1.302   2.018  14.509 -0.0453  0.3823  0.4739
  117TMC2    C4 1819   1.107   2.063  14.332  1.1250  0.1681 -0.3619
  117TMC2    C5 1820   1.176   2.172  14.393 -0.5717 -0.6436 -0.4202
  117TMC2    C6 1821   1.274   2.151  14.485  0.2459 -0.8277 -0.5383
  117TMC2     C 1822   1.033   1.833  14.365 -0.4090 -0.6419 -0.1063
  117TMC2     O 1823   1.041   1.743  14.446 -0.3184  0.4902  0.0884
  117TMC2     H 1824   1.254   1.813  14.486 -0.7360 -0.4389 -1.4937
  117TMC2    H1 1825   1.023   2.085  14.267  0.5114 -0.7281  0.1295
  117TMC2    H2 1826   1.326   2.228  14.540 -0.1321 -0.0062 -1.3371
  117TMC2    C7 1827   1.172   2.305  14.338 -0.1976  0.3299  0.1380
  117TMC2    C8 1828   1.350   1.998  14.645  1.1599  0.1935 -0.2698
  117TMC2    O1 1829   1.272   2.370  14.368 -0.5507  0.3382  0.5495
  117TMC2    O2 1830   1.295   1.922  14.729 -0.0342  0.1211  0.3676
  117TMC2    O5 1831   1.480   2.021  14.642 -0.1676 -0.2530  0.1822
  117TMC2    H5 1832   1.509   2.068  14.561  2.1649 -0.2667  1.0056
  118MPD2     C 1833   0.890   2.469  14.175 -0.1978  0.1804  0.0609
  118MPD2    C1 1834   1.017   2.463  14.217 -0.1328 -1.4714 -1.1346
  118MPD2    C2 1835   1.097   2.571  14.191 -0.7040  0.8335  0.0944
  118MPD2    C3 1836   1.055   2.680  14.126 -0.0774  0.7726  0.7567
  118MPD2    C4 1837   0.925   2.687  14.088 -0.6382  0.3848 -0.4110
  118MPD2    C5 1838   0.842   2.582  14.118 -0.6458  0.1303  0.2329
  118MPD2     H 1839   1.193   2.576  14.240  0.3861 -1.5620 -1.7944
  118MPD2    H1 1840   0.882   2.777  14.047 -0.6095 -0.3437 -2.0387
  118MPD2    H2 1841   0.826   2.382  14.179  0.7253 -0.4008  1.9287
  118MPD2    H3 1842   0.737   2.587  14.092 -1.0814 -0.6329  1.8209
  118MPD2     N 1843   1.147   2.786  14.092 -0.4672 -0.4289  0.4016
  118MPD2    H5 1844   1.102   2.866  14.048  0.8130  0.7713  1.2716
  118MPD2    N1 1845   1.058   2.336  14.282  0.2080  0.2730  1.3731
  118MPD2    H7 1846   0.994   2.257  14.278  0.7532 -0.0532 -0.8403
  119TMC2    C1 1847   4.563   4.007  13.344 -0.2194  0.2498  0.3987
  119TMC2    C2 1848   4.695   4.008  13.323 -0.7689 -0.0461  0.3487
  119TMC2    C3 1849   0.020   3.890  13.298 -0.0661 -0.0819  1.1772
  119TMC2    C4 1850   4.488   3.891  13.357  0.2216  0.9047  0.0441
  119TMC2    C5 1851   4.561   3.774  13.349 -0.3324  0.2418  0.1312
  119TMC2    C6 1852   4.692   3.773  13.320 -1.1421 -0.6834 -0.9378
  119TMC2     C 1853   4.479   4.134  13.352  0.0922  0.4106 -0.6092
  119TMC2     O 1854   4.359   4.123  13.376  0.0267 -0.7593  0.2348
  119TMC2     H 1855   0.011   4.100  13.306 -1.0714  0.1728  0.5609
  119TMC2    H1 1856   4.386   3.881  13.393 -0.1479  0.1574 -1.2057
  119TMC2    H2 1857   0.008   3.680  13.321 -1.5639 -0.9090  0.5907
  119TMC2    C7 1858   4.500   3.648  13.326 -1.5094 -0.0498 -0.0189
  119TMC2    C8 1859   0.162   3.901  13.311 -0.0501 -0.2109  0.2087
  119TMC2    O1 1860   4.557   3.560  13.259 -0.5018  0.5131  0.2009
  119TMC2    O2 1861   0.214   3.997  13.365 -0.1805  0.2066  0.2120
  119TMC2    O5 1862   0.230   3.789  13.302  0.1076  0.4415  0.3210
  119TMC2    H5 1863   0.197   3.724  13.237 -1.2837  1.8570 -0.3740
  120MPD2     C 1864   4.422   4.655  13.371 -0.1391  0.4629  0.4251
  120MPD2    C1 1865   4.338   4.557  13.427  1.3980  0.5763  0.6911
  120MPD2    C2 1866   4.372   4.425  13.414 -0.1282 -0.4284  0.0160
  120MPD2    C3 1867   4.497   4.390  13.355 -0.3125 -0.3333  0.0564
  120MPD2    C4 1868   4.584   4.489  13.304 -0.3840  0.4033 -0.5174
  120MPD2    C5 1869   4.539   4.622  13.304  0.1126 -0.6172  0.0813
  120MPD2     H 1870   4.304   4.344  13.437  0.5525 -0.1421  2.9574
  120MPD2    H1 1871   4.673   4.462  13.248  0.4465  0.9489  0.5525
  120MPD2    H2 1872   4.395   0.020  13.383  0.9129  0.6061  1.5071
  120MPD2    H3 1873   4.607   4.696  13.265 -0.4968 -0.3134 -0.4002
  120MPD2     N 1874   4.548   4.255  13.355 -0.2765  0.5138  0.2193
  120MPD2    H5 1875   4.648   4.247  13.337 -0.1449 -0.5004  1.4218
  120MPD2    N1 1876   4.227   4.605  13.498  0.1674  1.0693  0.7297
  120MPD2    H7 1877   4.199   4.701  13.482 -0.5624  0.4988 -1.3891
  121TMC2    C1 1878   0.722   0.379  14.171 -0.9087 -0.3888  0.8073
  121TMC2    C2 1879   0.820   0.284  14.190  0.3933 -0.7113  0.2602
  121TMC2    C3 1880   0.789   0.172  14.264 -0.3958  0.5180  0.1665
  121TMC2    C4 1881   0.599   0.362  14.226  0.8066  0.2643 -0.1050
  121TMC2    C5 1882   0.571   0.249  14.300  0.8414  0.3001 -0.2773
  121TMC2    C6 1883   0.665   0.151  14.321 -0.0201 -0.3128 -0.7937
  121TMC2     C 1884   0.757   0.518  14.156  0.1185  0.0109 -0.0721
  121TMC2     O 1885   0.689   0.606  14.212 -0.1349  0.3119 -0.2776
  121TMC2     H 1886   0.921   0.291  14.152  0.0613 -1.4542 -0.7276
  121TMC2    H1 1887   0.530   0.444  14.211 -0.7603 -0.7082  1.7275
  121TMC2    H2 1888   0.639   0.059  14.371 -0.6051 -0.4665 -1.3919
  121TMC2    C7 1889   0.431   0.211  14.313  0.0969  0.0829  0.2535
  121TMC2    C8 1890   0.905   0.100  14.313 -0.0564  0.3818  0.6347
  121TMC2    O1 1891   0.404   0.096  14.336 -0.5320 -0.2022 -0.4203
  121TMC2    O2 1892   1.022   0.143  14.308 -0.0588 -0.5565  0.6345
  121TMC2    O5 1893   0.872   4.709  14.289  0.1553 -0.2947  0.4292
  121TMC2    H5 1894   0.775   4.703  14.277  0.3140 -1.1932 -0.3655
  122MPD2     C 1895   0.888   0.776  14.099 -0.0124  0.6616  0.3942
  122MPD2    C1 1896   0.894   0.666  14.017  0.2019  0.9571 -0.0048
  122MPD2    C2 1897   0.948   0.668  13.892  0.4539 -0.3226 -0.6426
  122MPD2    C3 1898   0.984   0.792  13.839 -0.4894 -0.4401 -0.2422
  122MPD2    C4 1899   0.985   0.909  13.920  0.1761 -0.3035  0.1819
  122MPD2    C5 1900   0.936   0.892  14.050  0.3932  0.2962 -0.0339
  122MPD2     H 1901   0.938   0.590  13.818  0.2880 -0.6328 -0.2971
  122MPD2    H1 1902   1.018   1.008  13.893  0.6655 -0.8293 -1.1536
  122MPD2    H2 1903   0.843   0.773  14.197  0.6221 -1.2556  0.6240
  122MPD2    H3 1904   0.915   0.985  14.103  2.1905 -1.3891  3.6506
  122MPD2     N 1905   1.023   0.813  13.705 -0.3510 -0.0579  0.1119
  122MPD2    H5 1906   1.043   0.912  13.689 -0.4549 -0.4834 -2.5739
  122MPD2    N1 1907   0.862   0.537  14.065  0.1011 -0.2077  0.0668
  122MPD2    H7 1908   0.891   0.464  14.001  0.3096 -1.3327  1.4373
  123TMC2    C1 1909   4.182   3.096  10.173  0.6562 -0.1587  0.2085
  123TMC2    C2 1910   4.302   3.083  10.115  0.0546  0.0262 -0.0824
  123TMC2    C3 1911   4.323   3.139   9.992 -0.2449  0.5596  0.1941
  123TMC2    C4 1912   4.092   3.181  10.124 -0.2371 -0.1542  0.7025
  123TMC2    C5 1913   4.117   3.247  10.012  0.5211 -0.2234 -0.1887
  123TMC2    C6 1914   4.230   3.221   9.941 -0.0665 -0.2073  0.1436
  123TMC2     C 1915   4.146   3.007  10.278 -0.1052  0.0521  0.0931
  123TMC2     O 1916   4.240   2.966  10.350 -0.2648  0.2504 -0.3400
  123TMC2     H 1917   4.374   3.011  10.153  2.1869  1.1025 -2.0639
  123TMC2    H1 1918   4.003   3.202  10.181 -0.5196  0.5136  0.0202
  123TMC2    H2 1919   4.239   3.266   9.843  1.3802  2.0677  1.3225
  123TMC2    C7 1920   3.993   3.285   9.935 -0.0466 -0.1286  0.8222
  123TMC2    C8 1921   4.431   3.079   9.914  0.1662  0.1284  0.0205
  123TMC2    O1 1922   3.885   3.268   9.991 -0.6043 -0.4577 -0.7813
  123TMC2    O2 1923   4.473   2.966   9.929  0.7044  0.6059  0.2401
  123TMC2    O5 1924   4.456   3.156   9.813 -0.3453  0.1374  0.1564
  123TMC2    H5 1925   4.432   3.251   9.822 -0.9216  0.3195 -3.1610
  124MPD2     C 1926   3.764   2.721  10.498 -0.6509  0.4159 -1.3956
  124MPD2    C1 1927   3.709   2.815  10.415 -0.5531  0.0142  0.1857
  124MPD2    C2 1928   3.794   2.893  10.339  0.0971 -0.2160  0.0700
  124MPD2    C3 1929   3.930   2.898  10.359  0.3385 -0.5296 -0.2327
  124MPD2    C4 1930   3.983   2.808  10.446  0.0291  0.6266  0.2191
  124MPD2    C5 1931   3.898   2.718  10.511  0.1412 -0.3183  0.4524
  124MPD2     H 1932   3.758   2.956  10.259  1.7158 -0.4245 -0.8401
  124MPD2    H1 1933   4.090   2.798  10.450  0.2126  2.6770  0.0587
  124MPD2    H2 1934   3.697   2.659  10.557  0.4714  1.7637  1.2781
  124MPD2    H3 1935   3.944   2.638  10.568 -0.9179 -0.4974  1.0493
  124MPD2     N 1936   4.012   2.986  10.283  0.1061 -0.3447 -0.0371
  124MPD2    H5 1937   3.960   3.028  10.207  0.6662  0.1011 -0.1748
  124MPD2    N1 1938   3.566   2.816  10.396 -0.2115  0.0268 -0.2046
  124MPD2    H7 1939   3.509   2.753  10.451  0.2340 -0.7495 -0.6397
  125TMC2    C1 1940   4.188   1.290  10.060  0.3501 -0.4683 -0.5860
  125TMC2    C2 1941   4.054   1.293  10.074 -0.2162 -1.0479 -0.1350
  125TMC2    C3 1942   3.989   1.315   9.962  0.5270 -0.0006 -0.4814
  125TMC2    C4 1943   4.259   1.320   9.950  0.4021  0.4770  0.8979
  125TMC2    C5 1944   4.183   1.337   9.837 -0.6228 -0.3030 -0.3655
  125TMC2    C6 1945   4.043   1.345   9.841 -0.2487  0.3838  0.4179
  125TMC2     C 1946   4.270   1.271  10.181  0.7838  0.7882  0.0238
  125TMC2     O 1947   4.214   1.288  10.289 -0.7451 -0.5580  0.5302
  125TMC2     H 1948   4.008   1.285  10.173  0.1415 -0.4083  0.0784
  125TMC2    H1 1949   4.366   1.329   9.958  0.5702  0.0450 -0.9572
  125TMC2    H2 1950   3.976   1.376   9.762  0.0786 -0.9678 -0.3878
  125TMC2    C7 1951   4.236   1.352   9.698  0.4219  0.8046 -0.3810
  125TMC2    C8 1952   3.849   1.370   9.972  0.2122  0.7637 -0.0649
  125TMC2    O1 1953   4.164   1.395   9.612 -0.0431  0.6941  0.6312
  125TMC2    O2 1954   3.796   1.453   9.903 -0.5592  0.2456 -0.3155
  125TMC2    O5 1955   3.793   1.315  10.085 -0.1929 -0.4629 -0.8510
  125TMC2    H5 1956   3.841   1.240  10.126 -0.0012  0.6267  0.9399
  126MPD1     C 1957   4.661   1.056  10.417  0.4788  0.0606 -0.2923
  126MPD1    C1 1958   4.678   1.040  10.280 -0.5263 -0.9852  0.3041
  126MPD1    C2 1959   4.588   1.104  10.200 -0.5304 -0.3179 -0.7033
  126MPD1    C3 1960   4.477   1.176  10.253  0.2883 -0.3030  0.8757
  126MPD1    C4 1961   4.477   1.207  10.385 -0.8861  0.9311 -0.0828
  126MPD1    C5 1962   4.571   1.144  10.470  0.4970  0.6508  0.0313
  126MPD1     H 1963   4.583   1.076  10.095 -1.9272  2.5323 -1.4221
  126MPD1    H1 1964   4.407   1.279  10.425  0.6990  2.1387  0.5070
  126MPD1    H2 1965   4.730   1.008  10.486 -0.1869  1.4155  1.3259
  126MPD1    H3 1966   4.571   1.160  10.578  3.6624  2.0449 -0.1888
  126MPD1     N 1967   4.381   1.207  10.156 -0.2870 -0.0172  0.0060
  126MPD1    H5 1968   4.405   1.182  10.061 -0.8805 -0.1195 -0.1195
  126MPD1    N1 1969   0.023   0.941  10.221  0.0398  0.2095 -0.4036
  126MPD1    H6 1970   0.051   0.953  10.124 -0.4715  0.4823 -0.5181
  126MPD1    H7 1971   0.105   0.919  10.277  0.5150  3.5405  0.2384
  127TMC2    C1 1972   1.017   4.296   9.721 -0.4036  0.0107  0.9283
  127TMC2    C2 1973   1.125   4.209   9.735 -0.4376 -0.2119 -0.0353
  127TMC2    C3 1974   1.105   4.079   9.704  0.3411 -0.3444  0.2623
  127TMC2    C4 1975   0.899   4.238   9.692  0.2755 -0.3150  0.0318
  127TMC2    C5 1976   0.880   4.103   9.691 -0.5385 -0.1599 -0.2753
  127TMC2    C6 1977   0.989   4.016   9.686 -0.0844 -0.2744 -0.3983
  127TMC2     C 1978   1.047   4.430   9.679  0.6085 -0.0303 -0.7880
  127TMC2     O 1979   1.147   4.476   9.730  0.9293 -0.7920 -0.3383
  127TMC2     H 1980   1.228   4.244   9.731  0.1282 -2.1533 -2.6747
  127TMC2    H1 1981   0.806   4.293   9.689 -0.0822 -0.8668  1.0663
  127TMC2    H2 1982   0.972   3.909   9.686 -0.2527 -0.2481  2.6490
  127TMC2    C7 1983   0.762   4.049   9.632  0.4769 -0.1936 -0.0119
  127TMC2    C8 1984   1.222   4.011   9.763  0.0545  0.5093 -0.4335
  127TMC2    O1 1985   0.703   4.124   9.559  0.0032 -0.3231  0.2512
  127TMC2    O2 1986   1.336   4.051   9.736 -0.1463  0.5312  0.1101
  127TMC2    O5 1987   1.183   3.965   9.889  0.1428 -0.5288 -0.1978
  127TMC2    H5 1988   1.085   3.954   9.894  0.0869 -0.1559 -0.4510
  128MPD2     C 1989   0.921   4.615   9.391 -0.6790  0.0624 -0.5789
  128MPD2    C1 1990   0.995   4.600   9.506  0.5013  0.8249  0.4208
  128MPD2    C2 1991   1.074   4.704   9.548 -0.0856  0.4132 -0.6405
  128MPD2    C3 1992   1.076   0.084   9.481 -0.2496 -0.0925 -0.1373
  128MPD2    C4 1993   0.996   0.099   9.365 -0.1561 -0.9430 -0.2133
  128MPD2    C5 1994   0.920   4.735   9.330 -0.0521  0.4278 -0.0001
  128MPD2     H 1995   1.133   4.688   9.638 -1.0683 -0.2662 -0.1137
  128MPD2    H1 1996   0.985   0.188   9.303 -0.3062  1.5627  3.4156
  128MPD2    H2 1997   0.860   4.533   9.355 -0.0449  0.3750 -2.3846
  128MPD2    H3 1998   0.862   0.003   9.238  0.2825 -0.6940 -0.3008
  128MPD2     N 1999   1.157   0.184   9.534 -0.7294 -0.2921  0.5085
  128MPD2    H5 2000   1.223   0.163   9.608  1.3237  1.5118 -0.7994
  128MPD2    N1 2001   0.967   4.481   9.578 -0.1892  0.0411  0.3835
  128MPD2    H7 2002   0.898   4.423   9.533  0.9692 -0.3759 -0.8615
  129TMC2    C1 2003   3.625   4.027   1.208 -0.3502 -0.0597  0.3183
  129TMC2    C2 2004   3.511   4.101   1.214  0.8965 -0.1826  0.3814
  129TMC2    C3 2005   3.409   4.047   1.288  0.1385  0.8355  0.1305
  129TMC2    C4 2006   3.639   3.895   1.251  0.3150 -0.3333 -0.3284
  129TMC2    C5 2007   3.527   3.847   1.317 -0.0089  0.4524  0.6611
  129TMC2    C6 2008   3.422   3.926   1.349  0.1895 -0.5184  0.4259
  129TMC2     C 2009   3.753   4.081   1.146 -0.7709 -0.8680  0.4876
  129TMC2     O 2010   3.855   4.010   1.152 -0.5978  0.3769 -0.6289
  129TMC2     H 2011   3.502   4.199   1.169  1.6157  0.6227  1.9727
  129TMC2    H1 2012   3.728   3.837   1.231  1.2333  1.5046 -1.5987
  129TMC2    H2 2013   3.324   3.889   1.379  0.7334 -1.1718  1.3669
  129TMC2    C7 2014   3.509   3.703   1.320 -0.7547  0.4875  0.1856
  129TMC2    C8 2015   3.286   4.121   1.311 -0.4040 -0.2135 -0.0206
  129TMC2    O1 2016   3.394   3.666   1.339  0.0374  0.3131  0.2272
  129TMC2    O2 2017   3.257   4.203   1.225 -0.3389 -0.1162  0.0955
  129TMC2    O5 2018   3.226   4.092   1.432  0.0720  0.6730 -0.1878
  129TMC2    H5 2019   3.277   4.029   1.488 -2.2325 -0.1060  1.0574
  130MPD2     C 2020   3.955   4.227   0.980 -0.1384 -0.3082  0.5727
  130MPD2    C1 2021   3.843   4.291   1.039 -0.3088  0.8622  0.0659
  130MPD2    C2 2022   3.844   4.429   1.062 -0.1051 -0.0756 -0.8785
  130MPD2    C3 2023   3.938   4.509   0.997 -0.0797  0.0700  0.4083
  130MPD2    C4 2024   4.044   4.448   0.937  0.3788  0.2447  0.3919
  130MPD2    C5 2025   4.048   4.308   0.929  0.0704 -0.4971 -0.0208
  130MPD2     H 2026   3.774   4.474   1.131  1.8756 -0.1988  1.2073
  130MPD2    H1 2027   4.122   4.502   0.886  0.4565  0.0123  0.2641
  130MPD2    H2 2028   3.956   4.119   0.967 -0.3579 -0.2082 -0.2811
  130MPD2    H3 2029   4.138   4.261   0.893  0.6559  1.0100 -0.5535
  130MPD2     N 2030   3.913   4.647   1.009 -0.2992 -0.0236 -0.4390
  130MPD2    H5 2031   3.842   4.678   1.074 -0.9658 -0.4584 -0.9605
  130MPD2    N1 2032   3.742   4.213   1.109 -0.4788  0.1369 -0.7039
  130MPD2    H7 2033   3.679   4.272   1.162  1.3014  2.1221 -0.7549
  131TMC2    C1 2034   3.497   3.704   9.821  0.3316  0.0865 -0.4505
  131TMC2    C2 2035   3.443   3.755   9.705 -0.2345  0.2728 -0.3138
  131TMC2    C3 2036   3.467   3.888   9.682 -0.0217 -0.1398  0.2920
  131TMC2    C4 2037   3.584   3.772   9.904 -0.4527 -0.1139 -0.5777
  131TMC2    C5 2038   3.599   3.903   9.873 -0.1006 -0.1246 -0.8396
  131TMC2    C6 2039   3.549   3.964   9.763  0.3945 -0.0003  0.3860
  131TMC2     C 2040   3.435   3.582   9.870 -0.1200  0.9867 -0.3344
  131TMC2     O 2041   3.486   3.527   9.964 -0.2054  0.2247 -0.6195
  131TMC2     H 2042   3.370   3.703   9.643  0.1990 -1.7131  0.8527
  131TMC2    H1 2043   3.623   3.729   9.996  0.9733  0.6058 -0.8603
  131TMC2    H2 2044   3.580   4.062   9.730 -0.7524  0.2363  0.0159
  131TMC2    C7 2045   3.637   3.993   9.980  0.1461 -0.2569  0.2294
  131TMC2    C8 2046   3.399   3.953   9.576  0.3708  0.2736 -0.2114
  131TMC2    O1 2047   3.730   3.966  10.056  0.4451 -0.6270  0.1806
  131TMC2    O2 2048   3.289   3.932   9.532  0.1970 -0.3941  0.4395
  131TMC2    O5 2049   3.496   3.987   9.490  0.2480 -0.2752 -0.1179
  131TMC2    H5 2050   3.586   3.976   9.528  0.6096 -1.2822 -1.2515
  132MPD2     C 2051   3.093   3.470   9.806  0.7565 -0.5837 -0.1423
  132MPD2    C1 2052   3.219   3.448   9.847 -0.9732  0.0829  0.1545
  132MPD2    C2 2053   3.250   3.347   9.936 -0.1788  0.2139 -0.8224
  132MPD2    C3 2054   3.149   3.254   9.965 -0.2460  0.4487  0.1341
  132MPD2    C4 2055   3.020   3.277   9.919 -0.2278  0.1402  0.1572
  132MPD2    C5 2056   2.997   3.381   9.831 -0.4427 -0.1203 -0.6293
  132MPD2     H 2057   3.350   3.355   9.978 -0.2362  2.8374 -1.1777
  132MPD2    H1 2058   2.933   3.225   9.956 -0.6805  0.3617 -0.6024
  132MPD2    H2 2059   3.066   3.556   9.745  3.4291  0.7510  0.5551
  132MPD2    H3 2060   2.895   3.409   9.810 -0.0324  1.9062  0.0551
  132MPD2     N 2061   3.186   3.157  10.063 -0.2640  0.8122 -0.2620
  132MPD2    H5 2062   3.275   3.170  10.111  0.0292 -1.8219 -0.1337
  132MPD2    N1 2063   3.310   3.554   9.808 -0.4346 -0.0172  0.3901
  132MPD2    H7 2064   3.274   3.611   9.731 -0.2427  1.0898  1.1235
  133TMC2    C1 2065   2.383   0.795   9.633 -0.4214  0.0454 -0.0484
  133TMC2    C2 2066   2.283   0.779   9.730 -0.4076 -0.0418 -0.5026
  133TMC2    C3 2067   2.264   0.867   9.835  0.7202 -0.1378 -0.1777
  133TMC2    C4 2068   2.469   0.896   9.649  0.0126 -0.1219 -0.7234
  133TMC2    C5 2069   2.437   0.989   9.746  0.1201 -1.0588  0.2215
  133TMC2    C6 2070   2.343   0.977   9.840 -0.1208 -0.0341 -0.0240
  133TMC2     C 2071   2.435   0.687   9.559 -0.5487 -0.0725 -0.7324
  133TMC2     O 2072   2.400   0.574   9.596 -0.5977  0.2502  0.4712
  133TMC2     H 2073   2.207   0.703   9.716  1.7868 -1.7642 -3.0879
  133TMC2    H1 2074   2.560   0.900   9.591 -0.2448  1.3959 -1.0322
  133TMC2    H2 2075   2.333   1.061   9.908 -0.1694  0.2540 -0.3850
  133TMC2    C7 2076   2.537   1.094   9.763  0.5349 -0.3749  0.2090
  133TMC2    C8 2077   2.145   0.861   9.919 -0.9148  0.0017 -0.0202
  133TMC2    O1 2078   2.651   1.049   9.756  0.3224 -0.4231 -0.0889
  133TMC2    O2 2079   2.041   0.824   9.867 -0.0994 -0.6880 -0.2293
  133TMC2    O5 2080   2.186   0.827  10.043  0.2378  0.8375  0.0276
  133TMC2    H5 2081   2.279   0.852  10.060  0.3245  0.3738  0.2479
  134MPD2     C 2082   2.678   0.665   9.289 -0.0816  0.5924 -0.7188
  134MPD2    C1 2083   2.605   0.621   9.396  0.1481  0.1120 -0.9573
  134MPD2    C2 2084   2.614   0.486   9.428 -0.4904  0.1449  0.5866
  134MPD2    C3 2085   2.705   0.401   9.361 -0.2031  0.4191 -0.4587
  134MPD2    C4 2086   2.770   0.453   9.251 -0.2665 -0.1748 -0.5405
  134MPD2    C5 2087   2.760   0.584   9.208 -0.1155  0.1792  0.5481
  134MPD2     H 2088   2.556   0.448   9.511  1.9571  0.5796  2.4698
  134MPD2    H1 2089   2.843   0.401   9.189 -1.2767 -1.9347 -0.2535
  134MPD2    H2 2090   2.668   0.771   9.269  1.5778  0.8255 -0.3610
  134MPD2    H3 2091   2.822   0.611   9.123 -1.4866 -0.3667 -0.6215
  134MPD2     N 2092   2.702   0.261   9.388 -0.2350  0.4552  0.3721
  134MPD2    H5 2093   2.635   0.241   9.462 -0.4039 -1.9685 -0.4238
  134MPD2    N1 2094   2.528   0.717   9.468 -0.1075 -0.2310  0.1775
  134MPD2    H7 2095   2.544   0.815   9.443  1.3903 -0.4044  0.4463
  135TMC2    C1 2096   4.074   1.606  10.152 -0.1126 -0.1160 -0.3882
  135TMC2    C2 2097   3.956   1.656  10.110  0.3886  0.1951  0.5206
  135TMC2    C3 2098   3.860   1.676  10.200 -0.2905 -0.2803 -0.6118
  135TMC2    C4 2099   4.100   1.576  10.282  1.3541 -0.0436  0.0771
  135TMC2    C5 2100   3.999   1.601  10.371 -0.7058 -0.3051 -0.6876
  135TMC2    C6 2101   3.882   1.653  10.335  0.4939  0.3440  0.6630
  135TMC2     C 2102   4.185   1.621  10.058  0.3920 -0.2956  0.1004
  135TMC2     O 2103   4.150   1.657   9.940 -0.3049  0.0151 -1.1729
  135TMC2     H 2104   3.936   1.688  10.008  0.2972 -0.1350  0.4338
  135TMC2    H1 2105   4.190   1.536  10.326  1.3564  0.4745  0.5417
  135TMC2    H2 2106   3.806   1.669  10.411  0.5173  1.8211  0.3752
  135TMC2    C7 2107   4.011   1.546  10.510 -0.2972  0.2261 -0.3594
  135TMC2    C8 2108   3.729   1.729  10.158 -0.0567 -0.5214  0.0422
  135TMC2    O1 2109   3.944   1.605  10.589 -0.0565 -0.4820 -0.0278
  135TMC2    O2 2110   3.685   1.722  10.045 -0.1015 -0.5022 -0.5874
  135TMC2    O5 2111   3.691   1.829  10.253 -0.4408  0.4738  0.5712
  135TMC2    H5 2112   3.736   1.828  10.341 -0.5914  1.4654  0.6580
  136MPD2     C 2113   4.543   1.611  10.127 -0.8006 -0.3409 -1.3000
  136MPD2    C1 2114   4.432   1.620  10.053  0.3341  0.0102  0.2583
  136MPD2    C2 2115   4.442   1.619   9.912  0.7000  0.9030  0.4374
  136MPD2    C3 2116   4.567   1.605   9.851  0.1045  0.2638 -0.4391
  136MPD2    C4 2117   4.677   1.597   9.937  0.7381  0.3837 -0.0569
  136MPD2    C5 2118   4.663   1.603  10.071 -0.3951  0.4836 -0.8161
  136MPD2     H 2119   4.355   1.625   9.848 -0.1153  2.6353  1.6925
  136MPD2    H1 2120   0.040   1.590   9.902  0.5580 -0.0845 -0.4845
  136MPD2    H2 2121   4.559   1.613  10.234  0.4506  1.0743 -1.5008
  136MPD2    H3 2122   0.013   1.611  10.130  0.5126  1.3903 -2.2974
  136MPD2     N 2123   4.592   1.594   9.712 -0.4637  0.4751 -0.3412
  136MPD2    H5 2124   4.687   1.591   9.676  0.3148 -1.2647  1.8484
  136MPD2    N1 2125   4.308   1.613  10.117 -0.5370 -0.2704  0.3276
  136MPD2    H7 2126   4.312   1.607  10.219  2.3018  0.4734  0.2554
  137TMC2    C1 2127   0.461   4.235  10.336  0.6706 -0.6083 -0.0923
  137TMC2    C2 2128   0.576   4.221  10.252  0.8956  0.5876 -0.3294
  137TMC2    C3 2129   0.553   4.148  10.139  0.6742 -0.0102 -0.7946
  137TMC2    C4 2130   0.346   4.165  10.317  0.7366 -0.2557 -0.5921
  137TMC2    C5 2131   0.332   4.102  10.202  0.2862  1.0116  0.6937
  137TMC2    C6 2132   0.433   4.088  10.113  0.4141 -0.6031  0.5431
  137TMC2     C 2133   0.478   4.324  10.450  0.0212 -0.7473 -0.5267
  137TMC2     O 2134   0.581   4.391  10.436  0.2662 -0.7575  0.3169
  137TMC2     H 2135   0.674   4.257  10.282  0.1410  2.3613  0.0617
  137TMC2    H1 2136   0.278   4.149  10.400 -0.6814  2.4690 -1.2498
  137TMC2    H2 2137   0.426   4.027  10.024  1.5035 -0.8905  0.6562
  137TMC2    C7 2138   0.207   4.031  10.169 -0.3739 -0.3681 -0.2630
  137TMC2    C8 2139   0.652   4.172  10.031  0.3102  0.0863  0.0911
  137TMC2    O1 2140   0.210   3.943  10.086 -0.0362 -0.7571 -0.5025
  137TMC2    O2 2141   0.717   4.273  10.025  0.4280  0.0546 -0.1387
  137TMC2    O5 2142   0.674   4.060   9.964  0.0063 -0.0299 -0.1382
  137TMC2    H5 2143   0.656   3.983  10.022  1.9698 -1.1533 -1.0173
  138MPD2     C 2144   0.301   4.348  10.773 -0.5695 -0.1800 -0.0906
  138MPD2    C1 2145   0.394   4.382  10.679 -0.1877 -0.1416  0.3251
  138MPD2    C2 2146   0.484   4.480  10.705 -0.6421 -0.3576  1.0794
  138MPD2    C3 2147   0.487   4.539  10.830 -0.1733  0.0040 -0.6571
  138MPD2    C4 2148   0.400   4.497  10.927 -0.3155 -0.8067 -0.5527
  138MPD2    C5 2149   0.305   4.404  10.893 -0.0669 -0.0600  0.5689
  138MPD2     H 2150   0.546   4.491  10.617 -0.7003 -0.9347  0.9655
  138MPD2    H1 2151   0.406   4.527  11.031 -1.6154 -0.1759 -0.6542
  138MPD2    H2 2152   0.232   4.269  10.745  0.2555 -0.0137 -2.5725
  138MPD2    H3 2153   0.244   4.365  10.975 -0.3510 -0.7978  0.0041
  138MPD2     N 2154   0.586   4.641  10.850 -0.0618 -0.1769 -0.5351
  138MPD2    H5 2155   0.621   4.658  10.756 -1.6920 -0.7293 -1.2512
  138MPD2    N1 2156   0.391   4.308  10.557  0.1650  0.0184  0.3780
  138MPD2    H7 2157   0.313   4.244  10.545  0.2437  0.0199 -0.1576
  139TMC2    C1 2158   1.012   3.035  13.475  0.2452  0.2362 -0.6070
  139TMC2    C2 2159   1.101   3.124  13.412 -0.2852  0.3558  0.0973
  139TMC2    C3 2160   1.098   3.250  13.445  0.8323  0.3838  0.2940
  139TMC2    C4 2161   0.915   3.080  13.560 -0.3703 -0.0595 -0.3194
  139TMC2    C5 2162   0.907   3.216  13.569  1.0574 -0.5231 -0.5344
  139TMC2    C6 2163   1.002   3.303  13.525  0.0076  0.7588  0.3152
  139TMC2     C 2164   1.063   2.892  13.480  0.5387 -0.0881  0.4540
  139TMC2     O 2165   1.131   2.856  13.384 -0.7312 -0.5116  0.0319
  139TMC2     H 2166   1.192   3.081  13.371 -1.1671 -0.9629 -0.4718
  139TMC2    H1 2167   0.836   3.015  13.595  1.8559 -2.0203  1.0594
  139TMC2    H2 2168   0.985   3.410  13.535  2.2821  0.9409  2.0164
  139TMC2    C7 2169   0.800   3.277  13.646  0.4460 -0.1006  0.5646
  139TMC2    C8 2170   1.161   3.334  13.344  0.1934 -0.3978  0.1086
  139TMC2    O1 2171   0.827   3.378  13.715  0.7061 -0.0501 -0.6095
  139TMC2    O2 2172   1.218   3.279  13.253  0.2622  0.4536 -0.1859
  139TMC2    O5 2173   1.185   3.467  13.375 -0.5552  0.2140  0.5889
  139TMC2    H5 2174   1.145   3.504  13.456  0.1361 -0.9923  1.4923
  140MPD2     C 2175   1.073   2.649  13.763 -0.1045 -0.5450  0.2935
  140MPD2    C1 2176   1.112   2.708  13.644  0.2315 -0.2159  0.7651
  140MPD2    C2 2177   1.193   2.632  13.560  0.0651  0.3961  0.1220
  140MPD2    C3 2178   1.227   2.504  13.596  0.1428 -0.0870 -0.1627
  140MPD2    C4 2179   1.194   2.456  13.719 -0.1191  0.8690 -0.3461
  140MPD2    C5 2180   1.132   2.538  13.805  0.6909 -0.4920 -0.0686
  140MPD2     H 2181   1.223   2.676  13.465  0.3037 -0.2069 -0.0798
  140MPD2    H1 2182   1.215   2.353  13.748 -1.0210  1.5838  2.8569
  140MPD2    H2 2183   0.998   2.703  13.820  1.1613  0.5266  0.9614
  140MPD2    H3 2184   1.095   2.493  13.896 -0.2688 -0.2186 -0.3249
  140MPD2     N 2185   1.301   2.430  13.493  0.2103  0.7136  0.5227
  140MPD2    H5 2186   1.302   2.472  13.401  0.9315 -1.4230 -0.4435
  140MPD2    N1 2187   1.047   2.829  13.604  0.5005  0.3929 -0.6827
  140MPD2    H7 2188   0.983   2.873  13.669  1.2034 -0.8877  0.8539
  141TMC2    C1 2189   1.966   4.437  14.737 -0.2652 -0.1789  0.1770
  141TMC2    C2 2190   2.013   4.352  14.831  0.3073  0.5924 -0.2018
  141TMC2    C3 2191   2.010   4.391  14.958  0.2353  0.3125  0.2178
  141TMC2    C4 2192   1.924   4.564  14.766  0.0343 -0.0055 -0.7650
  141TMC2    C5 2193   1.914   4.600  14.896  0.5604 -0.1443 -0.3507
  141TMC2    C6 2194   1.956   4.514  14.992 -0.0756 -0.1788  0.4855
  141TMC2     C 2195   1.977   4.397  14.596  0.1223 -0.3802 -0.0011
  141TMC2     O 2196   2.000   4.493  14.528 -0.4857 -0.2984  0.2697
  141TMC2     H 2197   2.088   4.276  14.812 -0.5673 -0.5689  0.9557
  141TMC2    H1 2198   1.889   4.626  14.684 -1.0214  1.1359  0.5588
  141TMC2    H2 2199   1.936   4.543  15.095  0.3503  2.7776 -0.2838
  141TMC2    C7 2200   1.853   4.724  14.933 -0.0279 -0.5043 -0.3717
  141TMC2    C8 2201   2.041   4.307  15.070 -0.2163 -0.6140 -0.6011
  141TMC2    O1 2202   1.821   0.004  15.045 -0.1084  0.0652  0.5413
  141TMC2    O2 2203   2.068   4.340  15.184 -0.3421 -0.0300 -0.5532
  141TMC2    O5 2204   2.044   4.180  15.026 -0.2067  0.1152 -0.2276
  141TMC2    H5 2205   2.016   4.169  14.933 -1.9902 -0.9485  0.4337
  142TMC2    C1 2206   3.278   2.977   9.730 -0.2571 -0.4133 -0.1361
  142TMC2    C2 2207   3.174   3.063   9.698 -0.0193 -0.5562 -0.2029
  142TMC2    C3 2208   3.197   3.162   9.608 -0.1522 -0.2928  0.0921
  142TMC2    C4 2209   3.397   2.994   9.666  0.1673 -0.4756  0.2414
  142TMC2    C5 2210   3.423   3.113   9.600 -0.6327  0.2727 -1.1859
  142TMC2    C6 2211   3.323   3.198   9.564 -0.2999 -0.3941 -0.0173
  142TMC2     C 2212   3.252   2.861   9.814  0.1307  0.2446 -0.7052
  142TMC2     O 2213   3.134   2.819   9.823  0.2639 -0.2228  0.2469
  142TMC2     H 2214   3.077   3.036   9.739 -0.7856  0.7687 -1.1290
  142TMC2    H1 2215   3.482   2.931   9.691  0.3882  0.2520  1.3037
  142TMC2    H2 2216   3.345   3.294   9.519  0.2192 -0.1552  0.7430
  142TMC2    C7 2217   3.542   3.177   9.651 -0.4744  0.3563  0.6010
  142TMC2    C8 2218   3.090   3.232   9.546 -0.0499 -0.5072 -0.7578
  142TMC2    O1 2219   3.604   3.108   9.731 -0.1189  0.4766  0.5431
  142TMC2    O2 2220   3.109   3.324   9.471  0.1344  0.4982  0.5798
  142TMC2    O5 2221   2.994   3.139   9.534  0.2673  0.0328  0.0516
  142TMC2    H5 2222   3.012   3.045   9.555 -2.3358 -0.4335  0.2780
  143MPD2     C 2223   3.411   2.487  10.116 -0.0260  0.4263  0.4738
  143MPD2    C1 2224   3.292   2.492  10.045 -0.2283  0.0116  0.1461
  143MPD2    C2 2225   3.282   2.602   9.962 -0.3974 -0.4144  0.0008
  143MPD2    C3 2226   3.371   2.712   9.972  0.5296 -0.1590 -0.2816
  143MPD2    C4 2227   3.478   2.708  10.056  0.4642  0.0184 -0.0669
  143MPD2    C5 2228   3.495   2.595  10.132  0.3958  0.1699  0.2871
  143MPD2     H 2229   3.193   2.610   9.901 -1.4703 -0.5979  1.5383
  143MPD2    H1 2230   3.520   2.804  10.083  1.0213  0.0553 -1.0627
  143MPD2    H2 2231   3.431   2.405  10.183 -0.5139 -0.4934 -0.5050
  143MPD2    H3 2232   3.571   2.585  10.209  1.0307  1.1068 -0.2172
  143MPD2     N 2233   3.361   2.828   9.896  0.0476  0.0525 -0.3020
  143MPD2    H5 2234   3.437   2.895   9.899  2.0138 -2.2233  2.0555
  143MPD2    N1 2235   3.200   2.385  10.057  0.5507  0.4315  0.3608
  143MPD2    H7 2236   3.218   2.320  10.132  0.4216 -0.0539 -0.0250
  144TMC2    C1 2237   2.033   1.747   0.421  0.4824  0.5551  0.5160
  144TMC2    C2 2238   2.148   1.678   0.404  0.3333  0.4488  0.3169
  144TMC2    C3 2239   2.244   1.701   0.499  0.3986 -0.3169  0.6050
  144TMC2    C4 2240   2.013   1.836   0.518  0.2819  0.0225 -0.2448
  144TMC2    C5 2241   2.120   1.851   0.607  0.1727  0.1824  0.2047
  144TMC2    C6 2242   2.234   1.782   0.605 -0.2385 -0.3355 -0.0939
  144TMC2     C 2243   1.930   1.725   0.317  0.3789  0.1980  0.2548
  144TMC2     O 2244   1.965   1.635   0.235  0.8812 -0.6605 -0.1906
  144TMC2     H 2245   2.169   1.621   0.314  0.3994  1.9281 -0.6083
  144TMC2    H1 2246   1.920   1.881   0.548  0.9301  2.4040 -1.8216
  144TMC2    H2 2247   2.332   1.807   0.645 -1.0305 -1.4200  2.5415
  144TMC2    C7 2248   2.114   1.910   0.736 -0.4978 -0.2141 -0.3128
  144TMC2    C8 2249   2.367   1.623   0.488 -0.2930 -0.8278 -0.2235
  144TMC2    O1 2250   2.204   1.892   0.815 -0.4360 -0.2176  0.2398
  144TMC2    O2 2251   2.394   1.564   0.386  0.4158  0.4309  0.4925
  144TMC2    O5 2252   2.405   1.578   0.610 -0.1896 -0.0401  0.0366
  144TMC2    H5 2253   2.350   1.616   0.682 -2.3513 -0.1379 -1.5717
  145MPD2     C 2254   1.597   1.903  17.731 -0.2419 -0.3078 -0.2422
  145MPD2    C1 2255   1.671   1.783  17.732 -0.4723 -0.2005 -0.5693
  145MPD2    C2 2256   1.751   1.759   0.085  0.1926  0.1894 -0.0216
  145MPD2    C3 2257   1.747   1.841   0.197  0.1851 -0.5085  0.0994
  145MPD2    C4 2258   1.658   1.946   0.207 -0.1450 -0.6428  0.0645
  145MPD2    C5 2259   1.592   1.983   0.090  0.0897  0.0879 -0.2488
  145MPD2     H 2260   1.800   1.662   0.086  0.0280  0.1114  0.3049
  145MPD2    H1 2261   1.651   2.011   0.294  1.8055 -0.0941 -0.1946
  145MPD2    H2 2262   1.548   1.942  17.642 -0.5654 -1.0452 -0.3988
  145MPD2    H3 2263   1.542   2.080   0.087 -0.2064  0.0280  2.4497
  145MPD2     N 2264   1.831   1.816   0.305 -0.1647  0.3461  1.1037
  145MPD2    H5 2265   1.816   1.889   0.374 -1.3274 -1.0633  2.3432
  145MPD2    N1 2266   1.676   1.698  17.622 -0.1876 -0.1078 -0.3465
  145MPD2    H7 2267   1.750   1.628  17.622 -0.9808 -0.9453 -0.3598
  146TMC2    C1 2268   3.002   1.189  12.703 -0.1733 -0.2467 -0.3534
  146TMC2    C2 2269   2.930   1.275  12.625  0.2170  0.3777 -0.4744
  146TMC2    C3 2270   2.966   1.287  12.494 -0.5967  0.7110 -0.8855
  146TMC2    C4 2271   3.116   1.135  12.664  0.4098 -0.0772 -0.7069
  146TMC2    C5 2272   3.153   1.158  12.535 -0.0941 -0.5082  0.5027
  146TMC2    C6 2273   3.069   1.222  12.447  0.2983  0.7813 -0.5863
  146TMC2     C 2274   2.941   1.162  12.838  0.3545 -0.0406 -0.5905
  146TMC2     O 2275   2.819   1.183  12.841  0.2238 -0.1689  0.2060
  146TMC2     H 2276   2.834   1.308  12.662  0.5185  1.3069 -0.5381
  146TMC2    H1 2277   3.172   1.063  12.721  2.9087  1.5894 -1.0522
  146TMC2    H2 2278   3.098   1.244  12.345  0.8482 -0.7567 -0.7561
  146TMC2    C7 2279   3.291   1.125  12.495 -0.0992  0.6713  0.3366
  146TMC2    C8 2280   2.886   1.365  12.404 -0.1654 -0.5024  0.3483
  146TMC2    O1 2281   3.313   1.162  12.375  0.0202 -0.4482 -0.1700
  146TMC2    O2 2282   2.892   1.363  12.282  0.2510  0.1758  0.2046
  146TMC2    O5 2283   2.817   1.457  12.474  0.1845  0.5669 -0.3981
  146TMC2    H5 2284   2.848   1.472  12.566  1.0379 -1.8108 -0.2727
  147MPD2     C 2285   3.786   0.953  12.558  0.2521  0.4768 -0.1041
  147MPD2    C1 2286   3.711   0.931  12.679 -0.4924 -0.2474  0.8768
  147MPD2    C2 2287   3.572   0.961  12.681  0.1036 -0.1043  0.0139
  147MPD2    C3 2288   3.506   1.019  12.571 -0.0373 -0.6826 -0.1681
  147MPD2    C4 2289   3.587   1.045  12.462  0.6741  0.0614  0.8975
  147MPD2    C5 2290   3.720   1.014  12.450 -0.1565  0.6308  0.6623
  147MPD2     H 2291   3.519   0.950  12.775 -0.2644  0.6843 -0.1022
  147MPD2    H1 2292   3.539   1.104  12.385 -1.7263 -0.2970  2.0860
  147MPD2    H2 2293   3.889   0.922  12.548 -0.4515 -1.5524 -1.1358
  147MPD2    H3 2294   3.770   1.051  12.362 -0.9182  0.1462  0.0174
  147MPD2     N 2295   3.371   1.057  12.587 -0.0695 -0.5914  0.2568
  147MPD2    H5 2296   3.334   1.038  12.679 -0.5323  1.9811  0.6053
  147MPD2    N1 2297   3.778   0.868  12.787 -0.9550 -0.3224  0.1584
  147MPD2    H7 2298   3.878   0.852  12.786 -0.4719  2.5810  0.7940
  148TMC2    C1 2299   3.048   4.700  10.430 -0.0336  0.0326  0.0616
  148TMC2    C2 2300   3.114   0.046  10.511  0.0752 -0.6599  0.7470
  148TMC2    C3 2301   3.236   4.739  10.562 -0.0223  0.5410 -0.2800
  148TMC2    C4 2302   3.112   4.590  10.372  0.5578 -0.7057  0.2784
  148TMC2    C5 2303   3.235   4.559  10.419  0.3502 -0.5825  0.7311
  148TMC2    C6 2304   3.295   4.624  10.522 -0.2687 -0.3927 -0.9998
  148TMC2     C 2305   2.927   4.739  10.369 -0.0137  0.1122 -0.9758
  148TMC2     O 2306   2.906   0.116  10.340 -0.3859 -0.3012  0.7479
  148TMC2     H 2307   3.070   0.142  10.537 -2.4202 -0.9581 -2.4763
  148TMC2    H1 2308   3.063   4.521  10.304 -0.2128  1.6769 -1.5546
  148TMC2    H2 2309   3.391   4.590  10.561 -0.5172  3.4393  3.0017
  148TMC2    C7 2310   3.288   4.426  10.367 -0.9178  0.3679 -0.1933
  148TMC2    C8 2311   3.314   0.092  10.642 -0.4222 -0.3838 -0.2471
  148TMC2    O1 2312   3.210   4.365  10.302  0.1522 -0.4736  0.2115
  148TMC2    O2 2313   3.284   0.213  10.651  0.2089  0.2482 -0.4755
  148TMC2    O5 2314   3.357   0.020  10.755  0.1849  0.1448 -0.5018
  148TMC2    H5 2315   3.326   4.666  10.747  0.8260 -0.0855 -0.2834
  149MPD2     C 2316   2.673   4.737  10.196 -0.5923 -0.3499  0.5216
  149MPD2    C1 2317   2.734   4.627  10.254  0.0368  0.9209  0.1829
  149MPD2    C2 2318   2.678   4.503  10.230  0.4463  0.1311  0.7539
  149MPD2    C3 2319   2.570   4.486  10.145  0.4248 -0.7651  0.1637
  149MPD2    C4 2320   2.503   4.593  10.091  0.2426  0.4856  0.3114
  149MPD2    C5 2321   2.562   4.715  10.117 -0.1460 -1.1319 -0.6961
  149MPD2     H 2322   2.717   4.419  10.285  0.3016  0.8490  1.9536
  149MPD2    H1 2323   2.415   4.576  10.030 -0.4418 -2.0664  2.0089
  149MPD2    H2 2324   2.696   0.101  10.218 -0.7853 -0.4744  1.2915
  149MPD2    H3 2325   2.520   0.069  10.082  0.1324 -0.6797  0.1725
  149MPD2     N 2326   2.519   4.355  10.112  0.0447 -0.1609  0.2693
  149MPD2    H5 2327   2.446   4.352  10.043  0.3274  0.6750 -0.0658
  149MPD2    N1 2328   2.850   4.630  10.336 -0.5814  0.2747 -0.5297
  149MPD2    H7 2329   2.881   4.540  10.370  0.1574 -0.1268 -2.2730
  150TMC2    C1 2330   0.346   3.587  12.494  0.4835 -0.4358 -0.1014
  150TMC2    C2 2331   0.277   3.688  12.430 -0.4670 -0.0830  0.2467
  150TMC2    C3 2332   0.347   3.789  12.377  0.3497  0.6105  0.2052
  150TMC2    C4 2333   0.477   3.598  12.529  0.2572  0.5214 -0.2493
  150TMC2    C5 2334   0.540   3.705  12.473  0.5150 -0.7796 -0.1961
  150TMC2    C6 2335   0.480   3.789  12.384  0.1182  0.0773 -0.0076
  150TMC2     C 2336   0.268   3.496  12.569  0.2135  0.3620  0.1001
  150TMC2     O 2337   0.302   3.452  12.678  0.0182 -0.3871 -0.0214
  150TMC2     H 2338   0.169   3.693  12.436 -0.3704  1.4996  0.7734
  150TMC2    H1 2339   0.530   3.517  12.578 -2.4734  0.1769  2.1690
  150TMC2    H2 2340   0.534   3.875  12.345  2.5375 -0.2617  2.5091
  150TMC2    C7 2341   0.685   3.719  12.479 -0.1795 -0.2781 -1.3623
  150TMC2    C8 2342   0.277   3.883  12.295  0.9184  0.0258 -0.2294
  150TMC2    O1 2343   0.733   3.799  12.400 -0.1696 -0.0134 -0.1129
  150TMC2    O2 2344   0.324   3.993  12.268  0.2804 -0.2992 -0.3942
  150TMC2    O5 2345   0.225   3.808  12.203  0.2716 -0.5002  0.0976
  150TMC2    H5 2346   0.217   3.718  12.240  0.6060  0.6188  2.9049
  151MPD2     C 2347   4.584   3.203  12.583 -0.3028  0.6749 -0.2213
  151MPD2    C1 2348   4.575   3.290  12.478 -0.1536  0.7311 -0.0913
  151MPD2    C2 2349   4.676   3.378  12.448 -0.2277  0.6654  0.6873
  151MPD2    C3 2350   0.053   3.382  12.528  0.2200  0.2723  0.0951
  151MPD2    C4 2351   0.059   3.295  12.638  0.1789 -0.1197  0.0410
  151MPD2    C5 2352   4.696   3.205  12.662  0.2860 -0.3854 -0.1424
  151MPD2     H 2353   4.671   3.449  12.366  2.0784 -2.0690 -1.8411
  151MPD2    H1 2354   0.145   3.287  12.704 -3.0600  1.0377  4.4510
  151MPD2    H2 2355   4.509   3.127  12.603 -0.3807  0.7443 -0.2533
  151MPD2    H3 2356   4.708   3.143  12.750 -1.4431  1.7523  1.5539
  151MPD2     N 2357   0.160   3.465  12.495  0.6270 -0.0007  0.0257
  151MPD2    H5 2358   0.149   3.510  12.405  0.7534  1.6600  0.8338
  151MPD2    N1 2359   4.452   3.284  12.399 -0.0597 -0.6654  0.8213
  151MPD2    H7 2360   4.384   3.216  12.430  0.3898 -0.8274  1.4494
  152TMC2    C1 2361   0.294   3.225  13.019  0.3396  0.1435 -0.2976
  152TMC2    C2 2362   0.353   3.109  12.979  0.0806 -0.4301  0.0618
  152TMC2    C3 2363   0.479   3.116  12.922  0.0557 -0.1044 -0.3202
  152TMC2    C4 2364   0.370   3.345  13.002 -0.4601  0.1112 -0.1913
  152TMC2    C5 2365   0.491   3.341  12.947  0.3081 -0.4131  0.0555
  152TMC2    C6 2366   0.556   3.227  12.922  0.4222 -0.9772  0.2059
  152TMC2     C 2367   0.148   3.246  13.046  0.9708  0.0166  0.2823
  152TMC2     O 2368   0.110   3.362  13.056 -0.2448  0.0979  0.1944
  152TMC2     H 2369   0.309   3.014  13.007  0.2515 -0.3694  0.5287
  152TMC2    H1 2370   0.327   3.441  13.030 -0.1256  0.6019 -1.3351
  152TMC2    H2 2371   0.654   3.225  12.877  1.2858 -1.2677  2.1048
  152TMC2    C7 2372   0.550   3.470  12.926  1.0011 -0.0849  0.1260
  152TMC2    C8 2373   0.543   2.992  12.892  0.5334  0.6368 -0.0020
  152TMC2    O1 2374   0.477   3.566  12.913  0.4466 -0.1303 -0.4135
  152TMC2    O2 2375   0.665   2.988  12.890 -0.1257 -1.0143  0.1506
  152TMC2    O5 2376   0.455   2.885  12.891  0.2290  0.0683 -0.2071
  152TMC2    H5 2377   0.361   2.909  12.875  0.2105 -0.8541 -1.4470
  153MPD2     C 2378   4.607   3.006  13.004  0.0305 -0.1886 -1.0165
  153MPD2    C1 2379   4.665   3.134  13.011  0.9626 -0.1270 -0.4377
  153MPD2    C2 2380   4.594   3.246  12.976  0.1821 -0.6185 -0.0926
  153MPD2    C3 2381   4.461   3.244  12.937  0.5212 -0.1661  0.2445
  153MPD2    C4 2382   4.397   3.123  12.936  0.3573  0.5101 -0.1144
  153MPD2    C5 2383   4.475   3.009  12.960  0.4320 -0.8828 -0.0302
  153MPD2     H 2384   4.636   3.346  12.974  1.1997 -1.0830 -1.5707
  153MPD2    H1 2385   4.293   3.105  12.912  0.2904  1.7644 -0.7321
  153MPD2    H2 2386   4.658   2.912  13.021  0.0638 -0.1377 -0.8285
  153MPD2    H3 2387   4.428   2.911  12.953 -0.8419 -0.0915 -2.6346
  153MPD2     N 2388   4.412   3.365  12.880 -0.6734 -0.2389 -0.7688
  153MPD2    H5 2389   4.486   3.434  12.872  0.5048 -1.4422 -0.1412
  153MPD2    N1 2390   0.073   3.135  13.037 -0.0132  0.4677  1.1366
  153MPD2    H7 2391   0.122   3.048  13.056 -1.7603 -0.3380  1.9967
  154TMC2    C1 2392   1.929   2.696   0.225 -0.4824  0.7790  0.0253
  154TMC2    C2 2393   2.001   2.577   0.188 -0.3411 -0.0570 -0.5795
  154TMC2    C3 2394   2.108   2.541   0.264 -0.4132  0.4433 -0.1069
  154TMC2    C4 2395   1.972   2.776   0.331  0.8411  0.2173 -0.2374
  154TMC2    C5 2396   2.093   2.745   0.392 -0.5801  0.2047 -0.1029
  154TMC2    C6 2397   2.159   2.622   0.362 -0.0731 -0.1203  0.2248
  154TMC2     C 2398   1.850   2.762   0.122  0.0820 -0.3715 -0.4274
  154TMC2     O 2399   1.826   2.876   0.145 -0.2836  0.5157  0.1993
  154TMC2     H 2400   1.974   2.511   0.106 -2.2337 -2.2602  1.7873
  154TMC2    H1 2401   1.914   2.865   0.353 -0.5905 -0.5732 -0.8369
  154TMC2    H2 2402   2.245   2.596   0.423  0.1529  0.1924  0.0405
  154TMC2    C7 2403   2.154   2.823   0.500 -0.0518 -0.5497  0.3431
  154TMC2    C8 2404   2.172   2.414   0.249  0.3608 -0.3079 -0.6940
  154TMC2    O1 2405   2.267   2.796   0.537  0.5560  0.2575  0.5962
  154TMC2    O2 2406   2.241   2.359   0.335  0.0957  0.0810  0.3822
  154TMC2    O5 2407   2.187   2.394   0.118 -0.8228  0.5109  0.0227
  154TMC2    H5 2408   2.136   2.458   0.064 -2.3816  1.1972  2.3400
  155MPD2     C 2409   1.721   2.626  17.568 -0.3493  0.5957  0.5851
  155MPD2    C1 2410   1.737   2.721  17.667  0.2890 -0.7802  0.1883
  155MPD2    C2 2411   1.683   2.849  17.658  0.6410 -1.0044 -0.0557
  155MPD2    C3 2412   1.614   2.882  17.545 -0.6480 -0.2680 -0.0921
  155MPD2    C4 2413   1.601   2.787  17.445 -0.6758 -0.1366  0.6324
  155MPD2    C5 2414   1.652   2.665  17.457  0.0884 -0.0426 -0.8887
  155MPD2     H 2415   1.689   2.921  17.740  0.5044  0.2753 -1.1766
  155MPD2    H1 2416   1.554   2.798  17.348  2.3379  0.9740 -0.6730
  155MPD2    H2 2417   1.770   2.529  17.572 -1.5631 -0.0716 -0.5247
  155MPD2    H3 2418   1.659   2.608  17.365 -0.3874 -0.1866 -0.8320
  155MPD2     N 2419   1.554   3.009  17.547  0.6147  0.4123  0.1739
  155MPD2    H5 2420   1.577   3.068  17.625 -0.3772  1.0985 -0.0530
  155MPD2    N1 2421   1.812   2.681   0.019 -0.1946 -0.2202 -0.2901
  155MPD2    H7 2422   1.850   2.586   0.019 -0.1876 -0.2143  0.3396
  156TMC2    C1 2423   0.363   1.029  11.599 -0.4159  0.2585 -0.7718
  156TMC2    C2 2424   0.417   0.953  11.496 -0.3780  0.3527 -0.4552
  156TMC2    C3 2425   0.408   1.002  11.374 -0.1352  0.4841  1.0324
  156TMC2    C4 2426   0.293   1.140  11.578  0.2862  0.7524 -0.1541
  156TMC2    C5 2427   0.270   1.178  11.447  0.1929  0.0603  0.1397
  156TMC2    C6 2428   0.328   1.112  11.340  0.0904 -0.1447  0.3170
  156TMC2     C 2429   0.396   1.004  11.739  0.9909  0.2312  0.0948
  156TMC2     O 2430   0.337   1.067  11.827 -0.3303  0.1415  0.2697
  156TMC2     H 2431   0.481   0.868  11.517 -0.7969  0.0287 -0.4785
  156TMC2    H1 2432   0.242   1.192  11.658  0.9291  2.2569 -0.7238
  156TMC2    H2 2433   0.342   1.157  11.243 -0.5627 -0.5685  0.0276
  156TMC2    C7 2434   0.220   1.315  11.427  0.2950  0.4315 -0.2234
  156TMC2    C8 2435   0.485   0.941  11.264 -0.1766 -0.3728  0.0986
  156TMC2    O1 2436   0.288   1.390  11.358  0.0736  0.0249 -0.3130
  156TMC2    O2 2437   0.449   0.951  11.149  0.2726  0.1014  0.0570
  156TMC2    O5 2438   0.604   0.900  11.317  0.0773 -0.0161 -0.2888
  156TMC2    H5 2439   0.621   0.893  11.414 -0.7046 -1.3645 -0.2392
  157MPD2     C 2440   0.607   0.750  11.890  0.0381 -0.3973 -0.3661
  157MPD2    C1 2441   0.547   0.871  11.879  0.1936 -0.3856  0.0572
  157MPD2    C2 2442   0.544   0.949  11.985  0.7911  0.0233  0.1640
  157MPD2    C3 2443   0.608   0.915  12.105  0.7106  0.4616 -0.3540
  157MPD2    C4 2444   0.668   0.788  12.112  1.0499 -0.3009 -0.2208
  157MPD2    C5 2445   0.672   0.709  12.001 -0.4391 -0.2863 -0.6357
  157MPD2     H 2446   0.505   1.050  11.986  2.5559  0.6954  0.1104
  157MPD2    H1 2447   0.709   0.753  12.206 -0.7352  0.9841  1.0247
  157MPD2    H2 2448   0.626   0.676  11.813  1.9265  0.0629 -0.3310
  157MPD2    H3 2449   0.708   0.608  12.013  1.9153  0.4617 -1.4223
  157MPD2     N 2450   0.607   1.004  12.204  0.6942  0.0401 -0.3637
  157MPD2    H5 2451   0.577   1.099  12.182 -2.5843 -0.4085  2.1727
  157MPD2    N1 2452   0.493   0.904  11.753 -0.1099 -0.9298 -0.9171
  157MPD2    H7 2453   0.512   0.840  11.677  0.8975 -0.4715 -1.0544
  158TMC2    C1 2454   0.278   0.227  13.926  0.1012  0.3197 -0.0238
  158TMC2    C2 2455   0.200   0.323  13.867  0.1846  1.0467 -0.2754
  158TMC2    C3 2456   0.065   0.298  13.872  1.5029  1.0027  0.3538
  158TMC2    C4 2457   0.227   0.113  13.989 -0.6763 -0.7377 -0.2886
  158TMC2    C5 2458   0.097   0.093  13.983 -0.0428  0.3740  0.2998
  158TMC2    C6 2459   0.014   0.189  13.932 -0.2938  0.0797  0.7335
  158TMC2     C 2460   0.414   0.266  13.934  0.3882  0.1315  0.7971
  158TMC2     O 2461   0.426   0.386  13.910 -0.5208  0.2124  0.2089
  158TMC2     H 2462   0.234   0.404  13.803 -0.1836 -0.0854 -1.9010
  158TMC2    H1 2463   0.288   0.041  14.042 -1.1423 -0.4569  0.6312
  158TMC2    H2 2464   4.648   0.165  13.928 -0.1775 -0.3381  0.2139
  158TMC2    C7 2465   0.040   4.716  14.049  0.0038 -0.6438  0.0248
  158TMC2    C8 2466   4.736   0.350  13.765  0.3553 -0.0595 -0.0588
  158TMC2    O1 2467   4.665   4.725  14.083 -0.4022 -0.4684  0.2488
  158TMC2    O2 2468   0.050   0.385  13.658  0.0346 -0.3848 -0.6525
  158TMC2    O5 2469   4.605   0.354  13.792  0.1417  0.3348 -0.2104
  158TMC2    H5 2470   4.587   0.320  13.882 -2.5258 -1.6784 -1.4860
  159MPD2     C 2471   0.912   0.200  13.835  0.6094 -0.4735  0.1393
  159MPD2    C1 2472   0.866   0.088  13.902  0.1489  0.2534  0.3740
  159MPD2    C2 2473   0.725   0.074  13.923 -0.1910 -0.1604 -0.9050
  159MPD2    C3 2474   0.641   0.177  13.897 -0.5735 -0.6451  0.7171
  159MPD2    C4 2475   0.693   0.287  13.826  0.4973  0.0195 -0.7212
  159MPD2    C5 2476   0.824   0.298  13.802 -0.3022 -0.1548  0.5847
  159MPD2     H 2477   0.679   4.731  13.976 -2.6075  0.9052 -1.3526
  159MPD2    H1 2478   0.628   0.370  13.800 -0.3107 -0.2608  0.4077
  159MPD2    H2 2479   1.014   0.208  13.801 -0.0495 -0.1567 -1.7590
  159MPD2    H3 2480   0.858   0.389  13.753 -0.3729 -0.8359 -0.7193
  159MPD2     N 2481   0.503   0.160  13.932 -0.7902  0.2499  0.4274
  159MPD2    H5 2482   0.469   0.067  13.955 -1.4446  0.4518  0.2886
  159MPD2    N1 2483   0.965   4.732  13.943  0.3116 -0.0888  0.0974
  159MPD2    H7 2484   1.062   0.017  13.929 -0.0127 -0.0286 -2.1600
  160TMC2    C1 2485   0.747   2.034   1.310 -0.5324 -0.4286 -0.9133
  160TMC2    C2 2486   0.828   1.933   1.363  0.6777 -0.1249  0.5618
  160TMC2    C3 2487   0.920   1.882   1.277  0.1746  0.1277 -0.5251
  160TMC2    C4 2488   0.766   2.086   1.187  0.2257 -0.1525 -0.0851
  160TMC2    C5 2489   0.863   2.021   1.107 -0.3566 -0.8651 -0.0029
  160TMC2    C6 2490   0.940   1.919   1.147 -0.6081 -0.3105  0.0290
  160TMC2     C 2491   0.625   2.072   1.386 -0.4191  0.0805  0.8477
  160TMC2     O 2492   0.624   2.031   1.501 -0.2643 -0.1883 -0.6149
  160TMC2     H 2493   0.807   1.894   1.462 -2.6313  0.3608  0.0668
  160TMC2    H1 2494   0.716   2.178   1.158 -1.2802 -0.5721  1.1559
  160TMC2    H2 2495   1.027   1.892   1.089 -0.8567  1.5334 -1.2208
  160TMC2    C7 2496   0.894   2.065   0.974 -0.4806 -0.5402 -0.2364
  160TMC2    C8 2497   1.030   1.812   1.336  0.0337 -0.6031 -0.0600
  160TMC2    O1 2498   0.949   1.993   0.899 -0.3605 -0.0474  0.3525
  160TMC2    O2 2499   1.079   1.848   1.443  0.1732 -0.1040 -0.0779
  160TMC2    O5 2500   1.035   1.688   1.277 -0.3651 -0.3122  0.7531
  160TMC2    H5 2501   0.991   1.691   1.190  1.9737 -0.5071 -0.4592
  161MPD2     C 2502   0.367   2.166   1.502 -0.2495 -0.5480 -0.6531
  161MPD2    C1 2503   0.395   2.168   1.369 -0.1626 -0.0079 -0.3871
  161MPD2    C2 2504   0.297   2.200   1.277  0.0805  0.2547  1.0434
  161MPD2    C3 2505   0.171   2.246   1.326  0.6863 -0.8767  0.4478
  161MPD2    C4 2506   0.153   2.260   1.461 -0.7088  0.5624  0.1347
  161MPD2    C5 2507   0.248   2.218   1.549  0.0389 -0.4859  0.5812
  161MPD2     H 2508   0.307   2.182   1.170 -0.9191  1.8066  0.6898
  161MPD2    H1 2509   0.059   2.294   1.502  0.2570  0.9917  2.0033
  161MPD2    H2 2510   0.446   2.140   1.571 -0.7996  2.4433  1.1144
  161MPD2    H3 2511   0.228   2.240   1.653  0.0589 -0.5964  0.6081
  161MPD2     N 2512   0.060   2.286   1.251  0.0591  0.0662 -0.5585
  161MPD2    H5 2513   4.719   2.313   1.306 -1.0030  0.3860 -2.2535
  161MPD2    N1 2514   0.521   2.119   1.312  0.2006  0.1390  0.0102
  161MPD2    H7 2515   0.524   2.110   1.211 -1.6758  0.7426 -0.0938
  162TMC2    C1 2516   2.956   3.860   0.686  0.0851 -0.4129 -0.7801
  162TMC2    C2 2517   2.909   3.983   0.642  0.1908 -0.1898  0.5695
  162TMC2    C3 2518   2.803   4.038   0.702  0.6145 -0.4086  0.1507
  162TMC2    C4 2519   2.890   3.791   0.791 -0.0788  0.1183 -1.0226
  162TMC2    C5 2520   2.777   3.853   0.840  0.1750 -1.1113  0.3790
  162TMC2    C6 2521   2.734   3.976   0.804 -0.0969 -0.0614  0.5062
  162TMC2     C 2522   3.082   3.810   0.630 -0.5793  0.2101  0.2330
  162TMC2     O 2523   3.148   3.888   0.560  0.8236  0.4854  0.1919
  162TMC2     H 2524   2.968   4.039   0.570 -0.2512 -1.3679 -0.7201
  162TMC2    H1 2525   2.931   3.696   0.822  0.0675  1.4172  2.6807
  162TMC2    H2 2526   2.653   4.030   0.853 -0.4744  0.0823 -0.2648
  162TMC2    C7 2527   2.684   3.780   0.923 -0.1420  0.0784 -0.2008
  162TMC2    C8 2528   2.767   4.169   0.652  0.4522  0.6241 -0.2251
  162TMC2    O1 2529   2.568   3.820   0.933  0.1448  0.6864 -0.4673
  162TMC2    O2 2530   2.850   4.247   0.607 -0.1921  0.6225  0.6972
  162TMC2    O5 2531   2.650   4.211   0.713 -0.5087 -0.1124 -0.1380
  162TMC2    H5 2532   2.577   4.155   0.747 -0.4276  0.3871  0.8608
  163MPD2     C 2533   3.486   3.501   0.679  0.3129 -0.6356 -0.3998
  163MPD2    C1 2534   3.473   3.624   0.614 -0.2774  0.7342  0.0900
  163MPD2    C2 2535   3.346   3.672   0.602 -0.1927 -0.5283  0.1836
  163MPD2    C3 2536   3.236   3.618   0.660 -0.2172  0.1948  0.3342
  163MPD2    C4 2537   3.255   3.502   0.727  0.1781  0.3789  0.3574
  163MPD2    C5 2538   3.378   3.442   0.744 -0.3911  0.0208  0.0213
  163MPD2     H 2539   3.330   3.763   0.545 -2.2733 -0.9535  0.0910
  163MPD2    H1 2540   3.173   3.456   0.782 -0.9356 -0.1812 -1.7971
  163MPD2    H2 2541   3.587   3.464   0.684  0.2056 -0.5917  2.0563
  163MPD2    H3 2542   3.392   3.354   0.806  0.1155 -0.5245 -0.8799
  163MPD2     N 2543   3.106   3.676   0.662  0.2685  0.0953  0.0988
  163MPD2    H5 2544   3.035   3.622   0.711 -1.3600 -0.4875 -2.8858
  163MPD2    N1 2545   3.582   3.673   0.538  0.3059 -0.5896  0.5578
  163MPD2    H7 2546   3.659   3.608   0.537  1.9181  1.3014  0.1697
  164TMC2    C1 2547   3.560   0.485  11.789 -0.3952  0.8572  0.8947
  164TMC2    C2 2548   3.572   0.476  11.924  0.0754  1.1954 -0.3434
  164TMC2    C3 2549   3.479   0.404  11.986  0.1737 -0.2126  0.2549
  164TMC2    C4 2550   3.460   0.429  11.719  0.6096 -0.2304 -0.0408
  164TMC2    C5 2551   3.374   0.345  11.787  1.3246 -0.8209  0.3058
  164TMC2    C6 2552   3.386   0.331  11.924 -0.4145 -0.5816 -0.7732
  164TMC2     C 2553   3.689   0.517  11.719  0.5922  0.1523  0.4902
  164TMC2     O 2554   3.789   0.509  11.790  0.2682  0.3044  0.1972
  164TMC2     H 2555   3.645   0.534  11.979 -2.1373  0.8744  2.9645
  164TMC2    H1 2556   3.460   0.439  11.611  1.5369  4.1047  0.3353
  164TMC2    H2 2557   3.327   0.268  11.989 -0.2287 -1.6003 -1.5891
  164TMC2    C7 2558   3.274   0.264  11.715 -0.1826  0.3973  0.2425
  164TMC2    C8 2559   3.482   0.398  12.130 -0.1800 -0.1557 -0.3606
  164TMC2    O1 2560   3.279   0.275  11.594 -0.0819 -0.5152  0.1268
  164TMC2    O2 2561   3.382   0.372  12.194  0.2284  0.4071 -0.0113
  164TMC2    O5 2562   3.599   0.349  12.158 -0.4844 -0.3037 -0.1391
  164TMC2    H5 2563   3.673   0.369  12.097  1.5934  1.5882  2.9815
  165TMC2    C1 2564   4.369   1.452   0.734  0.1606 -0.3438  0.1380
  165TMC2    C2 2565   4.382   1.328   0.675  0.3141  0.6554  0.3166
  165TMC2    C3 2566   4.472   1.327   0.575  0.4435  0.7130 -1.1044
  165TMC2    C4 2567   4.452   1.556   0.704  0.5052 -1.1933  0.3113
  165TMC2    C5 2568   4.546   1.536   0.605 -0.4280  0.7718  0.5595
  165TMC2    C6 2569   4.558   1.420   0.537 -0.0077 -0.3716  0.4711
  165TMC2     C 2570   4.257   1.482   0.812  0.1895  0.7857  0.7589
  165TMC2     O 2571   4.152   1.427   0.780 -0.6742 -0.4865 -0.3146
  165TMC2     H 2572   4.306   1.254   0.695  1.8354 -1.3582 -1.4174
  165TMC2    H1 2573   4.436   1.655   0.746 -1.0387 -0.6488 -1.5626
  165TMC2    H2 2574   4.629   1.401   0.458  0.2370 -0.9338  0.8286
  165TMC2    C7 2575   4.681   1.587   0.642  0.5002 -0.4346  0.6502
  165TMC2    C8 2576   4.461   1.199   0.504 -0.1390  0.7316  0.3486
  165TMC2    O1 2577   0.031   1.510   0.617 -0.1583  0.0635 -0.2487
  165TMC2    O2 2578   4.436   1.098   0.566 -0.9811 -0.1250 -0.0155
  165TMC2    O5 2579   4.386   1.239   0.400 -0.4306  0.6924  0.3958
  165TMC2    H5 2580   4.433   1.316   0.361  0.2642  0.1152  0.1034
  166MPD2     C 2581   4.017   1.637   1.230 -0.6429  0.3590 -0.7501
  166MPD2    C1 2582   3.972   1.562   1.127  0.2410  0.7478  0.5036
  166MPD2    C2 2583   4.062   1.531   1.027  0.3243 -0.5437  0.0457
  166MPD2    C3 2584   4.192   1.578   1.024  0.2170 -0.7679  0.8245
  166MPD2    C4 2585   4.230   1.660   1.131  0.7741  0.0451  0.2821
  166MPD2    C5 2586   4.143   1.686   1.232  0.1387 -0.3054 -0.3295
  166MPD2     H 2587   4.017   1.477   0.945 -0.2016  1.7874 -1.2105
  166MPD2    H1 2588   4.328   1.705   1.145  0.4504  0.6049  0.7674
  166MPD2    H2 2589   3.956   1.660   1.316 -0.8879 -1.2198 -0.5015
  166MPD2    H3 2590   4.177   1.747   1.315 -1.7583 -1.4294  1.2914
  166MPD2     N 2591   4.287   1.558   0.921 -0.1005  0.4304  0.0191
  166MPD2    H5 2592   4.381   1.597   0.927 -0.1998  0.3714  1.7951
  166MPD2    N1 2593   3.841   1.512   1.144  0.0427 -0.0838  0.3113
  166MPD2    H7 2594   3.787   1.537   1.226 -1.5707  0.0960 -0.7989
  167TMC2    C1 2595   3.109   4.370  13.036  0.2959  0.2235  0.8087
  167TMC2    C2 2596   3.032   4.415  13.138 -0.3080 -0.5293 -0.0286
  167TMC2    C3 2597   2.995   4.323  13.228  0.0549 -0.3664 -0.1761
  167TMC2    C4 2598   3.126   4.232  13.007  0.5952 -0.1122  0.0734
  167TMC2    C5 2599   3.080   4.145  13.100 -0.2699  0.4257  0.3457
  167TMC2    C6 2600   3.011   4.196  13.213 -0.1298  0.1533 -0.5008
  167TMC2     C 2601   3.189   4.473  12.973 -0.4241 -0.0106 -0.6999
  167TMC2     O 2602   3.195   4.577  13.037 -0.0399 -0.7441 -0.3699
  167TMC2     H 2603   3.015   4.521  13.151  0.7066 -0.1244 -1.9168
  167TMC2    H1 2604   3.184   4.195  12.924  0.9533 -1.2670  0.8374
  167TMC2    H2 2605   2.957   4.130  13.280  0.4699 -0.6340 -0.7878
  167TMC2    C7 2606   3.069   4.004  13.072 -0.5037  0.0302  0.2092
  167TMC2    C8 2607   2.894   4.361  13.322 -0.7915  0.8658  0.4351
  167TMC2    O1 2608   3.039   3.937  13.167  0.2196  0.0758  0.1292
  167TMC2    O2 2609   2.788   4.302  13.322 -0.3260 -0.7542  0.2905
  167TMC2    O5 2610   2.971   4.413  13.424 -0.2606  0.1179 -0.4119
  167TMC2    H5 2611   3.064   4.420  13.394 -0.3976 -0.6831 -1.0331
  168MPD2     C 2612   3.306   4.659  12.780  0.8459  0.2405  0.4065
  168MPD2    C1 2613   3.276   4.526  12.755  0.1556  0.4393  0.0234
  168MPD2    C2 2614   3.301   4.480  12.622 -0.2050  0.0057  0.4379
  168MPD2    C3 2615   3.336   4.571  12.522 -0.0762 -0.4710 -0.1492
  168MPD2    C4 2616   3.341   4.704  12.547  0.0817 -0.3231 -0.9093
  168MPD2    C5 2617   3.336   0.010  12.677  0.5703 -0.2740 -0.2817
  168MPD2     H 2618   3.277   4.376  12.602  1.0690 -0.4784  1.3783
  168MPD2    H1 2619   3.365   0.039  12.472  1.6986  1.5545  1.4769
  168MPD2    H2 2620   3.289   4.697  12.880 -0.4563 -1.0807  0.6879
  168MPD2    H3 2621   3.358   0.115  12.696 -1.7081  0.0046  0.8489
  168MPD2     N 2622   3.357   4.536  12.393  0.2651 -0.1241  0.2158
  168MPD2    H5 2623   3.361   4.622  12.339  1.8203  0.4009  1.1884
  168MPD2    N1 2624   3.225   4.435  12.849  0.4032  0.4544 -0.3394
  168MPD2    H7 2625   3.198   4.342  12.818 -0.4475  1.0100 -1.2795
  169MPD1     C 2626   0.218   3.886   8.974 -0.0480  0.2866  0.2539
  169MPD1    C1 2627   0.351   3.861   8.952  0.6111  0.3339 -0.1522
  169MPD1    C2 2628   0.420   3.793   9.046  0.6165 -0.2961  0.5960
  169MPD1    C3 2629   0.360   3.761   9.169 -0.0670  0.5701  0.4561
  169MPD1    C4 2630   0.232   3.802   9.190 -0.1510 -0.0871 -0.1333
  169MPD1    C5 2631   0.155   3.859   9.088  0.7301 -0.1044  0.4923
  169MPD1     H 2632   0.522   3.765   9.023  0.5716 -0.8681  1.1151
  169MPD1    H1 2633   0.181   3.783   9.284 -1.5591  3.0340 -0.2654
  169MPD1    H2 2634   0.162   3.940   8.899  2.1384  3.0907  0.6688
  169MPD1    H3 2635   0.057   3.903   9.107  0.1652 -1.4645  0.7215
  169MPD1     N 2636   0.434   3.686   9.263  0.4635  0.6889  0.2710
  169MPD1    H5 2637   0.532   3.673   9.241 -0.2915 -0.3003 -2.4279
  169MPD1    N1 2638   0.411   3.874   8.830  0.1716  0.0949 -0.4682
  169MPD1    H6 2639   0.372   3.946   8.770  0.2911  0.8100  0.3007
  169MPD1    H7 2640   0.509   3.899   8.821  0.7225 -2.2665 -0.9243
  170MPD1     C 2641   4.011   1.290  13.325 -0.0324  0.5828 -0.2696
  170MPD1    C1 2642   3.901   1.367  13.330  0.2427  0.7874 -0.2527
  170MPD1    C2 2643   3.898   1.459  13.441  0.3892  0.5831  0.1467
  170MPD1    C3 2644   3.988   1.458  13.549 -0.1424  0.2747 -0.5825
  170MPD1    C4 2645   4.087   1.368  13.546 -0.4298  0.6142  0.0644
  170MPD1    C5 2646   4.098   1.286  13.436  0.3037 -0.5478 -0.2070
  170MPD1     H 2647   3.823   1.537  13.439 -1.3275 -1.0916 -0.8221
  170MPD1    H1 2648   4.149   1.359  13.634 -0.0883  0.0541 -0.2292
  170MPD1    H2 2649   4.039   1.225  13.242 -0.0408 -0.6848  0.7220
  170MPD1    H3 2650   4.180   1.216  13.423  0.9647  0.5209 -1.7415
  170MPD1     N 2651   3.956   1.540  13.660 -0.3475 -0.5117  0.2567
  170MPD1    H5 2652   3.866   1.585  13.648  0.4126  1.2305  1.1239
  170MPD1    N1 2653   3.813   1.382  13.225  0.5450 -0.7287 -0.1212
  170MPD1    H6 2654   3.805   1.289  13.183 -4.2060 -1.2620  1.9932
  170MPD1    H7 2655   3.720   1.404  13.258  1.1070  1.2016  0.1470
  171MPD1     C 2656   2.973   2.937  15.155 -0.1401 -0.4531  0.0551
  171MPD1    C1 2657   2.876   2.837  15.148  0.6702 -0.3693  0.6439
  171MPD1    C2 2658   2.899   2.729  15.238  1.0544  0.0978  0.0886
  171MPD1    C3 2659   3.022   2.723  15.308 -0.0908 -0.7088 -0.3194
  171MPD1    C4 2660   3.114   2.824  15.298 -0.4332 -0.2105 -0.7150
  171MPD1    C5 2661   3.084   2.930  15.225  0.5906  0.0248 -0.3831
  171MPD1     H 2662   2.822   2.653  15.248 -0.1833  1.2853 -0.4151
  171MPD1    H1 2663   3.195   2.832  15.370  0.3314 -0.2202 -1.5683
  171MPD1    H2 2664   2.946   3.025  15.098 -1.8933 -1.5618 -0.8048
  171MPD1    H3 2665   3.152   3.014  15.222  2.3479 -1.4121 -0.7675
  171MPD1     N 2666   3.049   2.618  15.403  0.4732  0.4595  0.0148
  171MPD1    H5 2667   3.133   2.622  15.461 -0.0108 -1.5694  0.8624
  171MPD1    N1 2668   2.753   2.865  15.090  0.0607  0.0473  0.2154
  171MPD1    H6 2669   2.691   2.786  15.079  2.2502 -1.1101 -3.6330
  171MPD1    H7 2670   2.763   2.913  15.001 -1.7243 -0.7602 -0.4034
  172MPD1     C 2671   2.166   1.218  17.407  0.4290 -0.4896  0.7035
  172MPD1    C1 2672   2.090   1.336  17.384 -0.2222  0.3083  0.0212
  172MPD1    C2 2673   2.118   1.439  17.466 -0.7127 -0.4532 -0.3004
  172MPD1    C3 2674   2.217   1.434  17.567 -0.5857 -0.7217 -0.2253
  172MPD1    C4 2675   2.293   1.326  17.580 -0.5046 -0.1674 -0.0911
  172MPD1    C5 2676   2.268   1.216  17.499 -0.1943  0.4628  0.1410
  172MPD1     H 2677   2.062   1.530  17.452 -1.8139 -0.9491  0.8804
  172MPD1    H1 2678   2.373   1.321  17.653 -1.3755  0.9362  0.9466
  172MPD1    H2 2679   2.146   1.130  17.346 -0.0639  1.0004 -1.2695
  172MPD1    H3 2680   2.335   1.132  17.513  0.4435  1.2899  1.9416
  172MPD1     N 2681   2.247   1.536  17.661 -0.1672  0.2999 -0.8962
  172MPD1    H5 2682   2.298   1.503  17.742 -2.5526 -1.6243 -0.1713
  172MPD1    N1 2683   2.003   1.345  17.275 -0.4511 -0.6886 -0.0100
  172MPD1    H6 2684   1.966   1.251  17.260 -1.3377 -0.0068 -2.2005
  172MPD1    H7 2685   1.917   1.398  17.286  0.1016 -0.2938  2.2693
  173MPD1     C 2686   2.133   2.736  13.675 -0.9278 -0.0774  0.2310
  173MPD1    C1 2687   2.125   2.623  13.753 -0.0908 -0.3013 -0.0472
  173MPD1    C2 2688   2.241   2.540  13.769  0.0738 -0.7773 -0.0391
  173MPD1    C3 2689   2.361   2.581  13.719  0.2287  0.4598  0.1893
  173MPD1    C4 2690   2.358   2.693  13.648 -0.4039 -0.1559  0.3894
  173MPD1    C5 2691   2.250   2.767  13.608  0.4005  0.5323  0.1160
  173MPD1     H 2692   2.231   2.455  13.835  0.3042 -0.8250 -0.0664
  173MPD1    H1 2693   2.451   2.737  13.614 -0.2957 -0.6815  0.0007
  173MPD1    H2 2694   2.034   2.779  13.662 -0.9967 -0.3094 -0.0115
  173MPD1    H3 2695   2.262   2.849  13.538 -0.6222  0.1358 -0.5329
  173MPD1     N 2696   2.483   2.520  13.742  0.1695 -0.6173 -0.6357
  173MPD1    H5 2697   2.563   2.575  13.712 -0.6336  0.3189 -1.0538
  173MPD1    N1 2698   2.015   2.602  13.834 -0.0740 -0.4094  0.4541
  173MPD1    H6 2699   1.928   2.649  13.806 -1.3507 -2.1697  1.4745
  173MPD1    H7 2700   1.991   2.503  13.826  0.6776 -0.5267 -0.2953
  174MPD1     C 2701   3.059   2.307  13.166  0.1555  0.4948  0.5854
  174MPD1    C1 2702   3.098   2.249  13.281  0.5451  0.0048  0.6796
  174MPD1    C2 2703   3.055   2.300  13.401  0.6201  0.1062 -0.5161
  174MPD1    C3 2704   2.962   2.403  13.412 -0.3394 -0.0505  0.7084
  174MPD1    C4 2705   2.920   2.458  13.291 -0.2503 -0.4681 -0.6970
  174MPD1    C5 2706   2.969   2.411  13.175 -0.5380 -0.2440 -0.1881
  174MPD1     H 2707   3.099   2.252  13.488  3.3449  1.3357 -1.2204
  174MPD1    H1 2708   2.839   2.531  13.290 -0.5695 -0.8211 -0.6174
  174MPD1    H2 2709   3.087   2.276  13.065 -0.7139 -1.9379  1.1015
  174MPD1    H3 2710   2.933   2.465  13.089  1.6532 -0.1778 -1.0649
  174MPD1     N 2711   2.912   2.447  13.535 -0.1182 -0.0848 -0.1767
  174MPD1    H5 2712   2.829   2.506  13.533  0.3067  0.4881 -1.0089
  174MPD1    N1 2713   3.205   2.155  13.280  0.7055 -0.0524  0.0243
  174MPD1    H6 2714   3.206   2.082  13.351 -1.1144  1.8731  2.0377
  174MPD1    H7 2715   3.213   2.109  13.190  1.0605  0.8597 -0.4168
  175MPD1     C 2716   1.804   3.826  15.525 -0.4027  0.0031 -0.3788
  175MPD1    C1 2717   1.678   3.805  15.568  0.5300  0.0330 -0.5144
  175MPD1    C2 2718   1.665   3.728  15.686 -0.4056 -0.0583 -0.0141
  175MPD1    C3 2719   1.778   3.669  15.751 -0.6637 -0.4340 -0.7287
  175MPD1    C4 2720   1.895   3.681  15.687  1.0076  0.9214  0.6385
  175MPD1    C5 2721   1.915   3.763  15.580 -0.2946  0.1869 -0.1089
  175MPD1     H 2722   1.561   3.718  15.714 -0.3857 -3.7908 -1.2739
  175MPD1    H1 2723   1.985   3.635  15.725  1.0018  1.2771  1.0835
  175MPD1    H2 2724   1.832   3.886  15.439  0.2634  0.2071 -0.0212
  175MPD1    H3 2725   2.015   3.780  15.543  0.1878 -0.5209  0.8762
  175MPD1     N 2726   1.777   3.582  15.864 -0.3724  0.2850  0.8513
  175MPD1    H5 2727   1.869   3.549  15.894 -0.4835 -1.1039 -0.3026
  175MPD1    N1 2728   1.571   3.882  15.526  0.0376 -0.1689  0.1405
  175MPD1    H6 2729   1.578   3.906  15.427  0.4597 -0.2895  0.1402
  175MPD1    H7 2730   1.480   3.838  15.538 -1.2273  2.5875  0.6392
  176MPD1     C 2731   2.882   0.024  17.511 -0.6104  0.3805 -0.3070
  176MPD1    C1 2732   2.884   0.147  17.447 -0.1647 -0.5580 -0.0715
  176MPD1    C2 2733   3.004   0.198  17.397  0.6101  0.2369  0.6802
  176MPD1    C3 2734   3.122   0.130  17.403  0.1693  0.4644  0.4843
  176MPD1    C4 2735   3.120   0.005  17.468  0.0748  0.1234 -0.0401
  176MPD1    C5 2736   2.999   4.695  17.520 -0.3229 -0.0846  0.3930
  176MPD1     H 2737   2.997   0.292  17.344  1.4760  0.6887  1.3857
  176MPD1    H1 2738   3.207   4.680  17.462 -0.8825 -1.2731  0.9404
  176MPD1    H2 2739   2.797   4.714  17.557  1.1196  1.3625  3.9431
  176MPD1    H3 2740   2.995   4.601  17.573  0.4212  0.2264  0.9941
  176MPD1     N 2741   3.238   0.195  17.343  0.5610  0.2887 -0.0421
  176MPD1    H5 2742   3.222   0.284  17.299 -2.1155 -0.0474  0.2255
  176MPD1    N1 2743   2.764   0.209  17.420  0.3640  0.7639  0.1005
  176MPD1    H6 2744   2.703   0.208  17.501 -0.6196  0.7155 -0.6421
  176MPD1    H7 2745   2.776   0.302  17.380  0.0407  0.3251 -1.0109
  177MPD1     C 2746   1.868   0.127   9.984  1.1815  0.5942  0.3186
  177MPD1    C1 2747   1.770   0.052   9.931 -0.2656 -0.0166 -0.1676
  177MPD1    C2 2748   1.679   0.121   9.854 -0.7122 -0.3364 -0.2454
  177MPD1    C3 2749   1.681   0.259   9.829  0.0712 -0.2282  0.3159
  177MPD1    C4 2750   1.780   0.331   9.894 -0.6594 -0.8444 -0.3948
  177MPD1    C5 2751   1.873   0.268   9.970 -0.0452  0.1910 -0.8115
  177MPD1     H 2752   1.598   0.065   9.808 -1.2055  1.0855 -1.1233
  177MPD1    H1 2753   1.787   0.439   9.897  0.8876 -0.9504  0.2139
  177MPD1    H2 2754   1.954   0.079  10.029 -0.1234 -1.2639  0.8500
  177MPD1    H3 2755   1.951   0.330  10.011 -0.6731  1.2100 -1.1588
  177MPD1     N 2756   1.581   0.313   9.750 -0.6193 -0.2956 -0.3923
  177MPD1    H5 2757   1.504   0.253   9.720 -0.4207 -1.3994  1.3221
  177MPD1    N1 2758   1.784   4.648   9.930 -0.4522 -0.6769 -0.1536
  177MPD1    H6 2759   1.849   4.614  10.001 -0.3143  1.5997  0.8214
  177MPD1    H7 2760   1.695   4.603   9.950  0.9416 -2.6307  1.5590
  178MPD1     C 2761   4.249   1.123  16.423  0.2070 -0.0468 -0.1945
  178MPD1    C1 2762   4.144   1.133  16.517  0.4464  0.1694  0.3969
  178MPD1    C2 2763   4.144   1.045  16.621  0.0613 -0.1013 -0.7547
  178MPD1    C3 2764   4.245   0.958  16.648 -0.3742  0.3392 -0.1714
  178MPD1    C4 2765   4.353   0.952  16.562 -0.8239 -0.5057  0.3119
  178MPD1    C5 2766   4.351   1.031  16.449  0.1509  0.3746 -0.3591
  178MPD1     H 2767   4.060   1.056  16.689 -1.5618 -0.3182 -2.7512
  178MPD1    H1 2768   4.444   0.900  16.590  0.4320  0.9003 -1.1689
  178MPD1    H2 2769   4.257   1.192  16.340 -0.3837 -0.2529 -0.4259
  178MPD1    H3 2770   4.441   1.054  16.393  1.3593 -0.6730  1.1681
  178MPD1     N 2771   4.258   0.882  16.764  0.3496 -0.3726 -0.0774
  178MPD1    H5 2772   4.339   0.823  16.773  0.7629  0.3945  1.1439
  178MPD1    N1 2773   4.043   1.232  16.501 -0.1882 -0.0286 -0.0265
  178MPD1    H6 2774   4.085   1.323  16.484  1.0126  0.5508  6.1447
  178MPD1    H7 2775   3.980   1.238  16.581 -1.1392  1.3892 -0.8847
  179MPD1     C 2776   3.748   4.157  15.158  0.1205  0.3959 -0.3480
  179MPD1    C1 2777   3.700   4.152  15.289  0.2844 -0.0689  0.0410
  179MPD1    C2 2778   3.750   4.052  15.372 -0.3692 -0.1337 -0.6756
  179MPD1    C3 2779   3.850   3.965  15.327 -0.6330 -0.5977  0.4561
  179MPD1    C4 2780   3.915   3.995  15.209 -0.0483  0.4546  0.1543
  179MPD1    C5 2781   3.865   4.094  15.124  0.0874  0.0441  0.4543
  179MPD1     H 2782   3.714   4.032  15.472  2.2623  0.4744  0.3816
  179MPD1    H1 2783   4.005   3.942  15.179  0.6961  1.5883  0.3530
  179MPD1    H2 2784   3.711   4.239  15.097  0.0485 -0.0706 -0.9301
  179MPD1    H3 2785   3.913   4.109  15.028 -0.3300  0.0222  0.2426
  179MPD1     N 2786   3.897   3.857  15.399 -0.2970 -0.1312 -0.0612
  179MPD1    H5 2787   3.944   3.787  15.342 -0.6179  0.5916 -1.2122
  179MPD1    N1 2788   3.585   4.220  15.313 -0.2841  0.0800 -0.0691
  179MPD1    H6 2789   3.565   4.252  15.408 -1.1851  1.2993 -0.6742
  179MPD1    H7 2790   3.575   4.305  15.259 -2.6146  0.6464  1.2397
  180MPD1     C 2791   3.760   0.636  15.050 -0.5774 -0.2409  0.3917
  180MPD1    C1 2792   3.819   0.714  14.957  0.3869  0.2609 -0.5570
  180MPD1    C2 2793   3.764   0.711  14.827  0.0299  0.4074 -0.8839
  180MPD1    C3 2794   3.640   0.654  14.800  0.4504 -0.0753 -0.5562
  180MPD1    C4 2795   3.579   0.580  14.894  0.6280 -0.1479  0.2481
  180MPD1    C5 2796   3.642   0.570  15.016 -0.1610  0.3408 -0.0863
  180MPD1     H 2797   3.801   0.775  14.748  3.3656  0.0973  0.3880
  180MPD1    H1 2798   3.494   0.517  14.871  1.2961 -1.7716  2.2700
  180MPD1    H2 2799   3.801   0.624  15.150  0.2478 -0.5756  0.0046
  180MPD1    H3 2800   3.597   0.498  15.083  1.9864 -0.0174  0.9765
  180MPD1     N 2801   3.585   0.673  14.671  0.0164 -0.4183 -0.6070
  180MPD1    H5 2802   3.619   0.756  14.624 -0.7048 -0.2804 -0.8831
  180MPD1    N1 2803   3.952   0.760  14.976 -0.1115  0.4715  0.8074
  180MPD1    H6 2804   3.994   0.835  14.921 -1.2526  0.2515 -0.3719
  180MPD1    H7 2805   3.972   0.773  15.075 -0.7826 -1.3183  1.1675
  181MPD1     C 2806   0.048   3.198   9.884  0.1081  1.0647  0.6767
  181MPD1    C1 2807   0.168   3.257   9.861 -0.2076  0.3112  0.4259
  181MPD1    C2 2808   0.279   3.194   9.913 -0.3001  0.0155  0.0418
  181MPD1    C3 2809   0.280   3.072   9.978 -0.5591  0.1185 -0.3712
  181MPD1    C4 2810   0.155   3.015   9.986  0.0342 -0.4169 -0.1467
  181MPD1    C5 2811   0.046   3.084   9.949  0.6218  0.4743  0.5153
  181MPD1     H 2812   0.372   3.249   9.907 -0.5017  0.3319 -0.2275
  181MPD1    H1 2813   0.153   2.927  10.049 -0.1192  0.7492  1.4811
  181MPD1    H2 2814   4.699   3.253   9.856 -1.8176 -2.3755 -0.0384
  181MPD1    H3 2815   4.694   3.037   9.985 -0.1824  2.4046  1.0256
  181MPD1     N 2816   0.395   3.011  10.041  0.1198  0.4126 -0.1488
  181MPD1    H5 2817   0.383   2.925  10.093 -2.0873  0.6303 -0.2900
  181MPD1    N1 2818   0.176   3.385   9.807 -0.3090  0.1674  0.0651
  181MPD1    H6 2819   0.263   3.390   9.753 -0.3001  0.4175  0.1011
  181MPD1    H7 2820   0.111   3.392   9.729 -0.4447 -0.8285  0.0961
  182MPD1     C 2821   1.140   0.414   1.521 -0.0503 -0.0904 -0.5279
  182MPD1    C1 2822   1.028   0.440   1.447 -0.0215  0.1113 -0.1969
  182MPD1    C2 2823   1.010   0.574   1.411  0.9727 -0.3751  0.5831
  182MPD1    C3 2824   1.115   0.667   1.408 -0.0151  0.0438  0.0313
  182MPD1    C4 2825   1.230   0.633   1.473 -0.5551 -0.1686 -0.1259
  182MPD1    C5 2826   1.239   0.509   1.532  0.4117 -0.2381 -0.0434
  182MPD1     H 2827   0.914   0.609   1.374  2.0609  1.3447 -0.6274
  182MPD1    H1 2828   1.321   0.692   1.467 -0.9916  0.3500 -1.6767
  182MPD1    H2 2829   1.159   0.323   1.577  0.4560 -0.8604 -1.9639
  182MPD1    H3 2830   1.326   0.473   1.586  0.5522  0.9171  0.4835
  182MPD1     N 2831   1.102   0.798   1.345 -0.9698 -0.1740 -0.0861
  182MPD1    H5 2832   1.183   0.858   1.355 -2.2891  1.8046 -1.1236
  182MPD1    N1 2833   0.930   0.341   1.450  0.1398  0.4662  0.0985
  182MPD1    H6 2834   0.966   0.245   1.447  0.0939  0.4236  0.9474
  182MPD1    H7 2835   0.860   0.344   1.375 -1.8525 -0.6531  1.9067
  183MPD1     C 2836   0.978   1.553   9.145  0.1560 -0.0312  0.3934
  183MPD1    C1 2837   0.905   1.624   9.235 -0.2239  0.5203  0.2602
  183MPD1    C2 2838   0.978   1.713   9.304  0.1327 -0.0472 -0.0707
  183MPD1    C3 2839   1.115   1.724   9.309  0.2521 -0.0390  0.0516
  183MPD1    C4 2840   1.182   1.624   9.250  0.0932  0.4035  0.3098
  183MPD1    C5 2841   1.114   1.550   9.155  0.2552 -0.1915 -0.6598
  183MPD1     H 2842   0.926   1.792   9.357  0.8326  0.5022 -0.2111
  183MPD1    H1 2843   1.289   1.618   9.238  0.1332  0.9233  0.4028
  183MPD1    H2 2844   0.929   1.486   9.075  1.4608 -0.7714  0.1886
  183MPD1    H3 2845   1.173   1.482   9.095  2.5353  0.0554  1.3112
  183MPD1     N 2846   1.179   1.828   9.376 -0.1096  0.1861  0.0389
  183MPD1    H5 2847   1.117   1.886   9.431  0.3388  1.0919 -0.4041
  183MPD1    N1 2848   0.768   1.620   9.237 -0.5335  0.1371 -0.3245
  183MPD1    H6 2849   0.726   1.639   9.328 -0.3891 -1.6990  0.1270
  183MPD1    H7 2850   0.732   1.533   9.200  2.8944 -1.9826  1.2496
  184MPD1     C 2851   0.234   4.414  10.125  0.9093  0.3655 -0.5358
  184MPD1    C1 2852   0.286   4.518  10.201  1.1090  0.6762  0.8949
  184MPD1    C2 2853   0.382   4.599  10.144  0.1585 -0.3965 -0.4939
  184MPD1    C3 2854   0.422   4.574  10.014 -1.3397  0.4326 -0.6627
  184MPD1    C4 2855   0.375   4.463   9.940  0.2951 -0.0827  0.3231
  184MPD1    C5 2856   0.279   4.386  10.000 -0.2512  0.5453 -0.5544
  184MPD1     H 2857   0.418   4.684  10.201  0.1695 -1.0771  0.5082
  184MPD1    H1 2858   0.408   4.441   9.839 -0.3697 -1.7381  0.4672
  184MPD1    H2 2859   0.167   4.347  10.177  0.3021 -0.2525 -2.1124
  184MPD1    H3 2860   0.246   4.294   9.953  1.8326  0.9326 -2.8009
  184MPD1     N 2861   0.518   4.652   9.949  0.3159 -0.2174  0.3218
  184MPD1    H5 2862   0.534   4.614   9.856 -0.7755 -0.3203  0.1702
  184MPD1    N1 2863   0.221   4.566  10.319  0.0109 -0.1481  0.4750
  184MPD1    H6 2864   0.273   4.624  10.385 -0.8838 -0.4669  1.4674
  184MPD1    H7 2865   0.179   4.490  10.372 -1.0707 -0.3263 -0.6267
  185MPD1     C 2866   0.300   0.100   9.199  0.1172 -0.2201 -0.0962
  185MPD1    C1 2867   0.380   0.210   9.211 -0.3209 -0.0465 -0.1229
  185MPD1    C2 2868   0.474   0.205   9.314  0.0873  0.9664 -0.4181
  185MPD1    C3 2869   0.481   0.100   9.410  1.2682  0.2533 -0.2281
  185MPD1    C4 2870   0.384   4.739   9.404  0.5357  0.4958 -0.2880
  185MPD1    C5 2871   0.296   0.003   9.297  0.2247 -0.9512  0.1262
  185MPD1     H 2872   0.538   0.293   9.319 -2.0590  2.5372 -0.2660
  185MPD1    H1 2873   0.392   4.665   9.483  1.6744  0.1392 -0.7298
  185MPD1    H2 2874   0.218   0.075   9.132  1.0616  2.5391 -2.2452
  185MPD1    H3 2875   0.222   4.664   9.297  0.5117 -1.2182 -0.5132
  185MPD1     N 2876   0.560   0.103   9.528 -0.3644 -0.2146 -0.6429
  185MPD1    H5 2877   0.559   0.029   9.596  2.3602  0.9032  0.5984
  185MPD1    N1 2878   0.384   0.312   9.116 -0.2725 -0.1146  0.2413
  185MPD1    H6 2879   0.428   0.396   9.152  2.0628 -0.9702 -0.5803
  185MPD1    H7 2880   0.302   0.325   9.058 -0.0162  1.2280  0.1711
  186MPD1     C 2881   4.664   3.560  15.666  0.2912  0.4844 -0.1030
  186MPD1    C1 2882   4.650   3.691  15.616 -0.0052  0.8107 -0.4893
  186MPD1    C2 2883   4.580   3.788  15.685 -0.0642 -0.0614  0.7961
  186MPD1    C3 2884   4.510   3.761  15.805 -0.4788 -0.3490  0.8884
  186MPD1    C4 2885   4.521   3.630  15.856 -0.0295 -0.4366  0.9173
  186MPD1    C5 2886   4.607   3.542  15.791  0.6108  0.2019  0.2079
  186MPD1     H 2887   4.581   3.883  15.633 -0.5976  0.6177  2.0044
  186MPD1    H1 2888   4.460   3.595  15.939 -0.7411  0.2390  0.6781
  186MPD1    H2 2889   4.717   3.479  15.618  1.6944  0.8804  0.7937
  186MPD1    H3 2890   4.620   3.442  15.830 -2.9737  0.4149  1.8949
  186MPD1     N 2891   4.433   3.854  15.883  0.3456  0.2067  0.0815
  186MPD1    H5 2892   4.395   3.827  15.973  1.8644 -3.6142 -0.4118
  186MPD1    N1 2893   4.699   3.726  15.489  0.3000 -0.4973  0.4286
  186MPD1    H6 2894   4.693   3.642  15.432  1.6159 -1.3351  1.5181
  186MPD1    H7 2895   4.646   3.801  15.446  0.6252 -0.8752 -0.6488
  187MPD1     C 2896   3.744   0.752  17.496 -0.4353  0.3390  0.1945
  187MPD1    C1 2897   3.828   0.842  17.423 -0.1128  0.2182  0.5644
  187MPD1    C2 2898   3.769   0.901  17.310 -0.0978  0.3057 -0.4041
  187MPD1    C3 2899   3.635   0.884  17.274 -0.2941  0.2017 -0.5353
  187MPD1    C4 2900   3.553   0.812  17.354  0.2410 -0.6312  0.0647
  187MPD1    C5 2901   3.613   0.731  17.450 -0.8818 -0.5732  0.2375
  187MPD1     H 2902   3.826   0.982  17.265 -1.1930  0.9345 -0.6388
  187MPD1    H1 2903   3.447   0.800  17.333  0.2997 -1.5944  0.2959
  187MPD1    H2 2904   3.777   0.705  17.587 -0.2960  1.2356  0.6064
  187MPD1    H3 2905   3.543   0.665  17.500 -2.2592 -0.1640 -1.1513
  187MPD1     N 2906   3.579   0.961  17.172 -0.4837  0.1881 -0.5930
  187MPD1    H5 2907   3.480   0.938  17.166 -0.3341 -1.2108  1.8985
  187MPD1    N1 2908   3.959   0.874  17.463  0.2010 -0.3951  0.2751
  187MPD1    H6 2909   3.990   0.964  17.429  0.1543 -0.3203  0.4279
  187MPD1    H7 2910   3.959   0.886  17.565 -0.1766 -2.7448  0.5500
  188MPD1     C 2911   3.141   1.504  10.555  0.5270 -0.3302 -0.0530
  188MPD1    C1 2912   3.215   1.407  10.610  0.1967  0.2973  0.2870
  188MPD1    C2 2913   3.198   1.278  10.564 -0.1221  0.0505 -0.3800
  188MPD1    C3 2914   3.143   1.251  10.441 -0.0242  0.1602 -0.1192
  188MPD1    C4 2915   3.064   1.349  10.391  0.6649 -0.5307 -0.2077
  188MPD1    C5 2916   3.069   1.474  10.442 -0.5009 -0.6083  0.4899
  188MPD1     H 2917   3.248   1.198  10.617  2.5433  1.4869 -0.7021
  188MPD1    H1 2918   3.009   1.342  10.298  2.2445  0.6336 -1.2313
  188MPD1    H2 2919   3.144   1.607  10.589 -0.6353 -0.3543  0.1287
  188MPD1    H3 2920   3.023   1.551  10.382 -0.6519  0.6448  2.1936
  188MPD1     N 2921   3.149   1.132  10.367 -0.5105  0.0653 -0.3173
  188MPD1    H5 2922   3.108   1.136  10.275  2.1030  0.8821 -1.4565
  188MPD1    N1 2923   3.302   1.435  10.718  0.2987  0.3783 -0.1153
  188MPD1    H6 2924   3.347   1.525  10.704 -0.1537  0.3279 -1.9622
  188MPD1    H7 2925   3.362   1.354  10.734  1.8109  0.8474 -3.5295
  189MPD1     C 2926   0.587   2.348  17.676  0.0476  0.8939 -0.3664
  189MPD1    C1 2927   0.579   2.221  17.613 -0.2157 -0.7254 -0.7288
  189MPD1    C2 2928   0.467   2.151  17.656 -0.9239  0.7710  0.0700
  189MPD1    C3 2929   0.399   2.185   0.008 -0.3603  0.0661  0.1198
  189MPD1    C4 2930   0.432   2.296   0.081 -0.4127  0.3254 -0.0344
  189MPD1    C5 2931   0.524   2.382   0.037  0.7740 -0.0050 -0.5523
  189MPD1     H 2932   0.442   2.062  17.599  2.4508 -1.1087  1.5041
  189MPD1    H1 2933   0.378   2.333   0.167  0.8241 -0.3563  1.0255
  189MPD1    H2 2934   0.639   2.432  17.629 -0.5529  2.1968  1.3137
  189MPD1    H3 2935   0.540   2.478   0.085  0.2482 -0.7304  1.0837
  189MPD1     N 2936   0.290   2.104   0.048  0.4465  0.2880 -0.4441
  189MPD1    H5 2937   0.265   2.035  17.734  2.5365 -0.3696 -0.5660
  189MPD1    N1 2938   0.648   2.193  17.488  0.4448 -0.3709 -0.0888
  189MPD1    H6 2939   0.653   2.092  17.481  1.1715 -0.0804 -3.8274
  189MPD1    H7 2940   0.744   2.224  17.477 -0.0810  0.5382 -2.1254
  190MPD1     C 2941   3.910   0.970  15.342  0.0068  0.0757 -0.9975
  190MPD1    C1 2942   3.838   0.857  15.365  0.1738  0.8184  0.2072
  190MPD1    C2 2943   3.895   0.730  15.377  0.1003 -0.1676  0.2340
  190MPD1    C3 2944   4.022   0.720  15.329 -0.2994  0.0730  0.4378
  190MPD1    C4 2945   4.089   0.835  15.290 -0.1300  0.3757  0.2734
  190MPD1    C5 2946   4.037   0.954  15.297 -0.3217 -0.1543 -0.0723
  190MPD1     H 2947   3.832   0.648  15.408 -1.0127  0.9455  0.9291
  190MPD1    H1 2948   4.188   0.834  15.246 -0.4595 -0.8050 -0.4436
  190MPD1    H2 2949   3.862   1.067  15.348 -2.5507 -1.2519  0.3662
  190MPD1    H3 2950   4.087   1.043  15.260  1.6219 -1.5507 -0.7848
  190MPD1     N 2951   4.075   0.591  15.310 -0.2525 -0.1989 -0.5963
  190MPD1    H5 2952   4.015   0.515  15.340  1.3152 -0.7770  1.0950
  190MPD1    N1 2953   3.708   0.879  15.416 -0.0266  0.7587 -0.8712
  190MPD1    H6 2954   3.645   0.800  15.408  1.9918 -1.1391  2.0322
  190MPD1    H7 2955   3.659   0.951  15.362 -2.9159 -1.5199 -1.2811
  191MPD1     C 2956   2.988   1.872  13.648 -0.0500 -0.3502 -0.4050
  191MPD1    C1 2957   2.968   1.992  13.587 -0.9061  0.4165 -1.0622
  191MPD1    C2 2958   2.888   1.989  13.471 -0.4273  0.0329  0.3108
  191MPD1    C3 2959   2.854   1.871  13.400  0.6826 -0.4706  0.8967
  191MPD1    C4 2960   2.882   1.752  13.469 -0.4136  0.6638  0.7525
  191MPD1    C5 2961   2.944   1.754  13.592 -0.5314  0.5301  0.5755
  191MPD1     H 2962   2.861   2.078  13.416  0.2784 -0.1952 -0.4084
  191MPD1    H1 2963   2.848   1.657  13.427  0.2714  0.6174  0.3133
  191MPD1    H2 2964   3.021   1.864  13.751 -0.8193  1.3616 -0.0233
  191MPD1    H3 2965   2.958   1.663  13.650  1.3578 -0.6939 -1.8304
  191MPD1     N 2966   2.772   1.881  13.284 -0.1661 -1.0335  0.2154
  191MPD1    H5 2967   2.761   1.975  13.248 -1.9950  0.2171  4.0917
  191MPD1    N1 2968   2.985   2.112  13.660 -0.2909  0.8650  0.2272
  191MPD1    H6 2969   3.057   2.120  13.732 -0.9539 -1.9452  1.1923
  191MPD1    H7 2970   2.989   2.193  13.597  0.8695 -0.8132 -1.8515
  192MPD1     C 2971   1.859   2.008  12.862  0.9917 -0.0463 -0.1896
  192MPD1    C1 2972   1.939   2.115  12.899 -0.1915  0.5510 -0.8082
  192MPD1    C2 2973   2.074   2.087  12.930  0.4493  0.3557 -0.2358
  192MPD1    C3 2974   2.123   1.958  12.932 -0.2880 -0.1224  0.5008
  192MPD1    C4 2975   2.031   1.851  12.905 -0.6023 -0.3577  0.1150
  192MPD1    C5 2976   1.905   1.880  12.874  0.1823 -0.9096  0.7326
  192MPD1     H 2977   2.147   2.164  12.953  0.6399 -0.0740  0.6052
  192MPD1    H1 2978   2.047   1.745  12.894 -1.0338 -0.4018 -0.0919
  192MPD1    H2 2979   1.757   2.018  12.827  0.1188 -0.1771  2.3006
  192MPD1    H3 2980   1.843   1.804  12.827  0.3564 -0.6655  0.1047
  192MPD1     N 2981   2.258   1.931  12.949  0.6711 -0.1086 -0.1373
  192MPD1    H5 2982   2.322   2.010  12.940  0.1317  0.2882 -0.5315
  192MPD1    N1 2983   1.884   2.240  12.886 -0.5413 -0.5886  0.0838
  192MPD1    H6 2984   1.792   2.241  12.930 -0.4144 -0.2754  0.3437
  192MPD1    H7 2985   1.940   2.299  12.947 -2.4749  1.3607  0.0023
  193MPD1     C 2986   2.812   2.251  16.022 -0.3095  0.6403 -0.2030
  193MPD1    C1 2987   2.793   2.376  16.066 -0.3269  0.1753 -0.7832
  193MPD1    C2 2988   2.868   2.429  16.168 -0.2248  0.1164 -0.5149
  193MPD1    C3 2989   2.971   2.360  16.216 -0.5822  0.5661 -0.0760
  193MPD1    C4 2990   3.000   2.240  16.162 -0.1100  0.1336 -0.1970
  193MPD1    C5 2991   2.917   2.177  16.074  0.6898 -0.2711 -0.1030
  193MPD1     H 2992   2.849   2.531  16.198 -0.7350 -0.4685  1.0980
  193MPD1    H1 2993   3.080   2.179  16.202 -2.1508 -0.9310  2.2566
  193MPD1    H2 2994   2.750   2.192  15.956 -0.6572  1.6725 -0.7936
  193MPD1    H3 2995   2.937   2.083  16.024  0.7052  0.6089 -1.7641
  193MPD1     N 2996   3.057   2.404  16.318  0.2202  0.1845 -0.0050
  193MPD1    H5 2997   3.134   2.341  16.339 -0.4569 -0.5207  0.3546
  193MPD1    N1 2998   2.685   2.458  16.016 -0.4796  0.5839  0.0984
  193MPD1    H6 2999   2.701   2.553  16.048  1.2911  0.1939  0.3709
  193MPD1    H7 3000   2.671   2.457  15.915  0.2526 -3.5184  0.0257
  194MPD1     C 3001   1.538   0.348  17.606 -0.7042  0.3862 -0.4059
  194MPD1    C1 3002   1.489   0.302  17.490 -0.8094  0.6699  0.1658
  194MPD1    C2 3003   1.430   0.171  17.490  0.0124 -0.3016  0.2897
  194MPD1    C3 3004   1.423   0.095  17.603  0.2240  0.3429  0.4854
  194MPD1    C4 3005   1.453   0.166  17.718  0.9351 -0.0813 -0.2311
  194MPD1    C5 3006   1.514   0.287  17.723 -0.2204 -0.1599 -0.5203
  194MPD1     H 3007   1.387   0.129  17.399  0.3040 -2.0198  0.9461
  194MPD1    H1 3008   1.438   0.119   0.059 -2.4424 -2.7795 -2.0712
  194MPD1    H2 3009   1.582   0.447  17.611 -1.5123  0.7621 -0.7052
  194MPD1    H3 3010   1.530   0.333   0.063  1.3689  0.8759 -1.2783
  194MPD1     N 3011   1.361   4.710  17.619  0.4837 -0.7502 -0.3836
  194MPD1    H5 3012   1.324   4.680  17.709  1.6265 -0.6203  0.1229
  194MPD1    N1 3013   1.511   0.373  17.366 -0.2961 -0.4050 -0.1886
  194MPD1    H6 3014   1.533   0.472  17.370  0.5467 -0.7074  2.3477
  194MPD1    H7 3015   1.434   0.354  17.302  1.1560 -1.4811 -1.5993
  195MPD1     C 3016   3.545   1.391   0.199  0.5877  0.1597  0.0273
  195MPD1    C1 3017   3.426   1.333   0.165 -0.6718  0.1735  0.4132
  195MPD1    C2 3018   3.399   1.213   0.221  0.6793  0.3440 -0.6748
  195MPD1    C3 3019   3.488   1.143   0.302  0.4416 -0.6329  0.3640
  195MPD1    C4 3020   3.612   1.200   0.320  0.1516  0.0791 -0.3508
  195MPD1    C5 3021   3.640   1.329   0.280  1.0112 -0.4657 -0.5031
  195MPD1     H 3022   3.304   1.162   0.208  0.0783  0.9174  1.4185
  195MPD1    H1 3023   3.668   1.150   0.398  0.9402  1.5457  0.0089
  195MPD1    H2 3024   3.567   1.488   0.157 -2.4031  0.6493 -0.4483
  195MPD1    H3 3025   3.735   1.377   0.301  0.5527 -0.7798  2.2741
  195MPD1     N 3026   3.468   1.015   0.359 -0.2407 -0.6412 -0.8051
  195MPD1    H5 3027   3.546   0.976   0.410 -0.3075 -0.6807 -0.7345
  195MPD1    N1 3028   3.326   1.406   0.100 -0.5651 -0.3298  0.2155
  195MPD1    H6 3029   3.254   1.347   0.059 -0.5880 -0.7355  0.8473
  195MPD1    H7 3030   3.284   1.461   0.175 -2.1738 -1.4339  0.1171
  196MPD1     C 3031   2.063   4.278   0.757  0.0096 -0.0671 -0.0701
  196MPD1    C1 3032   2.124   4.331   0.644  0.2972 -0.3214  0.9480
  196MPD1    C2 3033   2.113   4.467   0.606  0.0828 -1.2586  0.5182
  196MPD1    C3 3034   2.030   4.554   0.678  0.6736 -0.2556 -0.3042
  196MPD1    C4 3035   1.955   4.494   0.781  0.2365 -0.0430  0.0685
  196MPD1    C5 3036   1.976   4.359   0.831 -0.2238 -0.5882 -0.2393
  196MPD1     H 3037   2.160   4.494   0.512 -0.7725  1.5241  0.8922
  196MPD1    H1 3038   1.885   4.560   0.832  1.9190  2.7804 -1.2724
  196MPD1    H2 3039   2.078   4.176   0.788  2.3503  0.2970 -0.0096
  196MPD1    H3 3040   1.907   4.322   0.906 -1.3020 -0.0058 -0.9334
  196MPD1     N 3041   2.005   4.691   0.637  0.1110  0.7405  0.2894
  196MPD1    H5 3042   1.933   0.005   0.684 -3.5016 -1.6835 -2.5101
  196MPD1    N1 3043   2.227   4.256   0.577  0.0385 -0.5950  0.5906
  196MPD1    H6 3044   2.193   4.160   0.573  0.0002 -0.4922 -1.3861
  196MPD1    H7 3045   2.235   4.285   0.480  1.5245 -2.0516  0.2967
  197MPD1     C 3046   1.883   3.095  17.256 -0.3143  0.0708 -0.2968
  197MPD1    C1 3047   1.983   3.160  17.312  0.7187 -0.4855  0.0055
  197MPD1    C2 3048   2.090   3.212  17.241 -0.3579  0.0533  0.0287
  197MPD1    C3 3049   2.091   3.189  17.104 -0.5047 -0.1366 -0.1419
  197MPD1    C4 3050   1.991   3.119  17.041 -0.0312 -0.1237  0.6907
  197MPD1    C5 3051   1.890   3.070  17.120 -0.0447 -0.3854  0.1309
  197MPD1     H 3052   2.160   3.274  17.297  1.0548  0.9062 -2.6763
  197MPD1    H1 3053   1.989   3.096  16.935 -1.9926  1.0105  0.4807
  197MPD1    H2 3054   1.801   3.054  17.313 -1.8280  3.3826 -0.0966
  197MPD1    H3 3055   1.810   3.005  17.086  0.4016 -1.8246  1.8166
  197MPD1     N 3056   2.199   3.226  17.018 -0.0202  0.1206 -0.0326
  197MPD1    H5 3057   2.198   3.190  16.923 -2.5694  0.0297  0.0435
  197MPD1    N1 3058   1.964   3.190  17.452  0.0358  0.2919  0.0400
  197MPD1    H6 3059   1.907   3.124  17.505  0.3246  0.4882  0.5975
  197MPD1    H7 3060   2.044   3.220  17.507  0.7062 -2.6143  0.6751
  198MPD1     C 3061   3.375   1.577  14.246  0.8365 -0.0456 -0.3349
  198MPD1    C1 3062   3.484   1.644  14.295  0.1503 -0.7703  0.1187
  198MPD1    C2 3063   3.510   1.617  14.432 -0.1878 -0.2695 -0.0407
  198MPD1    C3 3064   3.440   1.532  14.515 -0.0464  0.0097 -0.1784
  198MPD1    C4 3065   3.329   1.468  14.457 -0.8628 -0.1330  0.4660
  198MPD1    C5 3066   3.300   1.485  14.321  0.0012 -0.0537 -0.2711
  198MPD1     H 3067   3.595   1.662  14.480 -1.6549  1.1824  1.1906
  198MPD1    H1 3068   3.260   1.399  14.505 -0.7074  0.4312  1.4821
  198MPD1    H2 3069   3.330   1.605  14.151 -1.5423 -1.4892  0.3620
  198MPD1    H3 3070   3.210   1.437  14.284 -1.1290  1.5272  0.4636
  198MPD1     N 3071   3.477   1.526  14.646 -0.2574 -1.0699  0.2106
  198MPD1    H5 3072   3.571   1.559  14.668 -0.2522 -0.4461 -0.7288
  198MPD1    N1 3073   3.540   1.758  14.230 -0.0083 -0.0421  0.5426
  198MPD1    H6 3074   3.547   1.754  14.128 -1.9536  3.0245  0.2823
  198MPD1    H7 3075   3.627   1.790  14.272 -0.1970  0.7826  0.3203
  199MPD1     C 3076   1.696   2.523  10.047 -0.3609  0.4163  0.0251
  199MPD1    C1 3077   1.662   2.451   9.936  0.2228  0.4025 -0.0168
  199MPD1    C2 3078   1.532   2.438   9.886 -0.3067 -0.0626  0.2474
  199MPD1    C3 3079   1.434   2.490   9.968  0.0023 -0.6919 -0.4117
  199MPD1    C4 3080   1.467   2.552  10.082 -0.0608  0.2768  0.3008
  199MPD1    C5 3081   1.593   2.564  10.126  0.1728  1.0650 -0.0790
  199MPD1     H 3082   1.506   2.392   9.792  3.0212 -0.6518 -0.3646
  199MPD1    H1 3083   1.387   2.592  10.143  0.2773 -0.5520  1.2977
  199MPD1    H2 3084   1.800   2.542  10.070 -0.6589  3.8246 -1.4373
  199MPD1    H3 3085   1.612   2.609  10.222  0.1122  0.0364  0.4227
  199MPD1     N 3086   1.298   2.499   9.931  0.1859 -0.2334 -1.5921
  199MPD1    H5 3087   1.236   2.549   9.995  2.4394 -1.8425  1.8536
  199MPD1    N1 3088   1.770   2.415   9.850 -0.3854  0.5248 -0.5865
  199MPD1    H6 3089   1.859   2.417   9.900 -0.3351 -0.4674 -0.6234
  199MPD1    H7 3090   1.744   2.322   9.818  1.6304  0.7559 -2.8889
  200MPD1     C 3091   4.506   2.337  14.618 -0.2035  0.1361 -0.2177
  200MPD1    C1 3092   4.515   2.362  14.485 -0.1884  0.3205 -1.1599
  200MPD1    C2 3093   4.638   2.400  14.434 -0.2327  0.4912  0.2625
  200MPD1    C3 3094   0.013   2.397  14.510 -0.4648 -0.0241  0.2749
  200MPD1    C4 3095   4.739   2.360  14.640 -0.3136  0.3388  0.4740
  200MPD1    C5 3096   4.616   2.338  14.692 -0.1902  0.6766 -0.1217
  200MPD1     H 3097   4.640   2.420  14.327  2.0511  1.9018  0.5670
  200MPD1    H1 3098   0.080   2.351  14.712 -0.7178  0.9683  1.0020
  200MPD1    H2 3099   4.408   2.315  14.658 -0.4184  0.6445 -0.4627
  200MPD1    H3 3100   4.604   2.307  14.795  2.2163 -1.8545 -0.6151
  200MPD1     N 3101   0.138   2.417  14.450  0.6084 -0.1522  0.6120
  200MPD1    H5 3102   0.134   2.434  14.350 -0.7990 -1.3190  0.4769
  200MPD1    N1 3103   4.400   2.372  14.402 -0.7316  0.4016  0.3450
  200MPD1    H6 3104   4.316   2.323  14.433 -0.1394 -0.3579  0.7601
  200MPD1    H7 3105   4.421   2.384  14.303 -0.5880  0.7222  0.4159
  201MPD1     C 3106   1.495   1.785  12.888 -1.5017  0.9947 -0.7771
  201MPD1    C1 3107   1.514   1.677  12.803  0.0647 -0.0606 -0.9064
  201MPD1    C2 3108   1.612   1.583  12.836 -0.2270 -0.3025  0.0609
  201MPD1    C3 3109   1.690   1.600  12.952 -0.3686  0.2062 -0.1166
  201MPD1    C4 3110   1.664   1.704  13.037  0.3418 -0.5929  0.3699
  201MPD1    C5 3111   1.577   1.803  12.999 -0.0810 -0.2973  0.3779
  201MPD1     H 3112   1.634   1.510  12.759  0.7957 -0.3357  0.3814
  201MPD1    H1 3113   1.726   1.727  13.123  1.1968  0.2985 -0.4792
  201MPD1    H2 3114   1.416   1.859  12.880 -2.8082 -0.0975  1.9997
  201MPD1    H3 3115   1.572   1.898  13.050 -2.8229 -0.4725  0.4543
  201MPD1     N 3116   1.793   1.514  12.971  0.1800 -0.4128  0.0279
  201MPD1    H5 3117   1.793   1.438  12.903 -0.8938  0.3282 -0.7972
  201MPD1    N1 3118   1.406   1.649  12.712  0.3794 -0.2699  0.1760
  201MPD1    H6 3119   1.354   1.727  12.671  0.9160 -0.5580 -1.0525
  201MPD1    H7 3120   1.437   1.588  12.637  1.3198 -0.8266  1.0207
  202MPD1     C 3121   1.412   1.153   9.776 -0.2355  0.2691  0.2292
  202MPD1    C1 3122   1.471   1.072   9.873  0.5663  0.0410 -0.0398
  202MPD1    C2 3123   1.577   1.141   9.945 -0.9421 -0.2845 -0.2319
  202MPD1    C3 3124   1.638   1.253   9.888  0.4791 -0.2684  0.3884
  202MPD1    C4 3125   1.594   1.309   9.774  0.0979 -0.0588 -0.0455
  202MPD1    C5 3126   1.474   1.268   9.722 -0.5810 -0.3191  0.5589
  202MPD1     H 3127   1.615   1.089  10.031  1.7324 -0.1089 -1.3231
  202MPD1    H1 3128   1.637   1.404   9.745  1.2171 -0.8350 -0.9187
  202MPD1    H2 3129   1.317   1.134   9.727  0.3427 -0.8716 -0.4657
  202MPD1    H3 3130   1.424   1.323   9.642 -0.1298 -0.5109  0.1479
  202MPD1     N 3131   1.751   1.320   9.946 -0.0747 -0.1855 -0.0945
  202MPD1    H5 3132   1.780   1.399   9.890 -1.2826  0.8504  0.7294
  202MPD1    N1 3133   1.391   0.984   9.946 -0.4524 -0.3674  0.2332
  202MPD1    H6 3134   1.449   0.919   9.998 -1.7965 -0.0214  2.1533
  202MPD1    H7 3135   1.345   0.921   9.880 -2.2035 -1.2842  2.3166
  203MPD1     C 3136   0.801   1.922  12.796 -0.4774 -0.0688 -0.3392
  203MPD1    C1 3137   0.797   1.810  12.882 -0.2599  0.0403  0.1307
  203MPD1    C2 3138   0.855   1.698  12.836  0.4675 -1.0497 -0.3092
  203MPD1    C3 3139   0.920   1.693  12.713  0.6229  0.5137  0.6193
  203MPD1    C4 3140   0.922   1.807  12.631 -0.5048 -0.1755  0.3592
  203MPD1    C5 3141   0.863   1.917  12.675  0.1953  0.4881  0.6411
  203MPD1     H 3142   0.839   1.616  12.905 -1.3843 -0.4052  0.0399
  203MPD1    H1 3143   0.966   1.811  12.532  0.0302 -4.1387  0.4334
  203MPD1    H2 3144   0.754   2.016  12.822 -0.8777  0.2029 -2.0405
  203MPD1    H3 3145   0.860   2.013  12.623 -0.8848  0.1624  0.0919
  203MPD1     N 3146   0.986   1.570  12.685 -0.1659  0.6614  0.3125
  203MPD1    H5 3147   0.984   1.502  12.760  0.0849  2.2777  1.7886
  203MPD1    N1 3148   0.713   1.817  12.989  0.1214 -0.1983 -0.2968
  203MPD1    H6 3149   0.695   1.910  13.025  0.9667 -0.3524  0.5174
  203MPD1    H7 3150   0.621   1.778  12.971  0.8812 -1.3097 -1.7497
  204MPD1     C 3151   0.119   3.608  16.670 -0.3874 -0.3482 -0.4358
  204MPD1    C1 3152   0.158   3.560  16.549  0.5406  0.8314 -0.2844
  204MPD1    C2 3153   0.234   3.447  16.536  0.2916  0.0947  0.0684
  204MPD1    C3 3154   0.249   3.358  16.643 -0.1336  0.3696  1.0812
  204MPD1    C4 3155   0.195   3.397  16.767 -0.4191  0.3521  0.4441
  204MPD1    C5 3156   0.139   3.521  16.777  0.0578 -0.2182  0.3710
  204MPD1     H 3157   0.269   3.420  16.437  0.4267 -0.4300  0.2595
  204MPD1    H1 3158   0.203   3.334  16.854  1.7033  1.4117  1.0053
  204MPD1    H2 3159   0.083   3.709  16.680 -0.3962 -0.6456  2.5373
  204MPD1    H3 3160   0.105   3.557  16.873  0.3859 -0.7865  0.7044
  204MPD1     N 3161   0.318   3.233  16.624 -0.3311 -1.0720 -0.1909
  204MPD1    H5 3162   0.337   3.200  16.530  0.2679  1.1357 -0.8436
  204MPD1    N1 3163   0.169   3.651  16.440 -0.9940 -0.3263  0.2945
  204MPD1    H6 3164   0.184   3.603  16.352 -1.0587  0.8590 -0.3539
  204MPD1    H7 3165   0.093   3.719  16.436 -0.2933  0.5225  1.5872
  205MPD1     C 3166   1.052   1.698  16.477  0.4693 -0.1013 -0.1275
  205MPD1    C1 3167   1.114   1.660  16.593  0.3811 -0.0282 -0.6370
  205MPD1    C2 3168   1.086   1.728  16.709 -0.0748 -0.1367  0.3768
  205MPD1    C3 3169   1.000   1.835  16.708 -0.1478  0.0791 -0.7294
  205MPD1    C4 3170   0.946   1.871  16.589  0.9910 -0.0495  0.4308
  205MPD1    C5 3171   0.968   1.800  16.473 -0.0876  0.7130 -0.2070
  205MPD1     H 3172   1.129   1.690  16.802  1.1703 -0.4367 -0.3174
  205MPD1    H1 3173   0.874   1.953  16.593  0.0575 -0.8454 -0.1358
  205MPD1    H2 3174   1.075   1.645  16.385  3.7941  0.4605  0.3795
  205MPD1    H3 3175   0.938   1.836  16.376  0.3231  1.6343  0.0010
  205MPD1     N 3176   0.964   1.906  16.823  0.1579 -0.1538  0.1809
  205MPD1    H5 3177   0.899   1.982  16.807 -0.2079 -0.3218  0.8352
  205MPD1    N1 3178   1.200   1.554  16.591 -0.4513 -0.0780 -0.3277
  205MPD1    H6 3179   1.157   1.478  16.538 -1.3794 -0.7860  1.4340
  205MPD1    H7 3180   1.225   1.521  16.685 -0.5940 -1.2240 -0.6898
  206MPD1     C 3181   0.392   4.310  17.172 -0.1334 -0.6896 -0.0885
  206MPD1    C1 3182   0.339   4.431  17.131 -0.0442 -0.5475 -0.4115
  206MPD1    C2 3183   0.346   4.458  16.997 -0.0243 -0.0404 -0.0564
  206MPD1    C3 3184   0.389   4.362  16.905 -0.7456 -0.4817 -0.4215
  206MPD1    C4 3185   0.437   4.243  16.948 -0.6356 -0.0182 -0.3128
  206MPD1    C5 3186   0.442   4.219  17.084  0.6526 -0.3181  0.1574
  206MPD1     H 3187   0.311   4.556  16.967 -1.7197 -0.7650 -0.4704
  206MPD1    H1 3188   0.464   4.167  16.876  1.0330  1.4135 -1.1939
  206MPD1    H2 3189   0.409   4.298  17.278 -0.6028 -1.1877 -0.0688
  206MPD1    H3 3190   0.481   4.122  17.113  2.4325  0.3147 -0.0932
  206MPD1     N 3191   0.402   4.390  16.767  0.5231  0.7877  0.1127
  206MPD1    H5 3192   0.441   4.315  16.711 -1.4948  0.7882 -1.2938
  206MPD1    N1 3193   0.317   4.540  17.219  0.2547  0.7014 -0.1396
  206MPD1    H6 3194   0.248   4.605  17.180  0.4351  0.1293 -1.4013
  206MPD1    H7 3195   0.301   4.513  17.316 -0.1295  3.4576  0.5626
  207MPD1     C 3196   2.325   2.091   9.652 -0.0417  0.0179 -0.5513
  207MPD1    C1 3197   2.330   2.010   9.762 -0.9927 -0.0695 -0.0657
  207MPD1    C2 3198   2.432   2.031   9.854 -0.6284  0.5714  0.4492
  207MPD1    C3 3199   2.513   2.140   9.840 -0.2978  0.2702  0.3593
  207MPD1    C4 3200   2.499   2.228   9.736  0.0353  0.0752 -0.3077
  207MPD1    C5 3201   2.405   2.205   9.636  0.5566 -0.5460 -0.1899
  207MPD1     H 3202   2.452   1.960   9.933  1.8542 -1.7646 -2.2841
  207MPD1    H1 3203   2.560   2.318   9.734 -1.2039  0.9420  0.0952
  207MPD1    H2 3204   2.252   2.076   9.573  0.3881  1.1795 -1.1632
  207MPD1    H3 3205   2.406   2.259   9.542  0.6585  1.1667  0.8137
  207MPD1     N 3206   2.630   2.161   9.917 -0.7237 -0.9339  0.2698
  207MPD1    H5 3207   2.682   2.242   9.884  0.4068 -1.7540  0.0444
  207MPD1    N1 3208   2.259   1.888   9.761 -0.8250  0.9308 -0.8620
  207MPD1    H6 3209   2.161   1.881   9.737 -0.4704 -1.9638 -1.4342
  207MPD1    H7 3210   2.277   1.833   9.845 -1.6833 -0.6767 -1.7351
  208MPD1     C 3211   1.814   1.132  17.497 -0.3356 -0.4014  0.5577
  208MPD1    C1 3212   1.844   1.147  17.636 -0.5081 -0.5624  0.1168
  208MPD1    C2 3213   1.729   1.138  17.715 -0.2155 -0.3952  0.3599
  208MPD1    C3 3214   1.602   1.149  17.665 -0.0774  1.0512 -0.0456
  208MPD1    C4 3215   1.588   1.158  17.519  0.3794  0.1487 -0.1888
  208MPD1    C5 3216   1.694   1.136  17.439 -0.0486  0.4600  0.0477
  208MPD1     H 3217   1.737   1.131   0.067 -2.0665 -0.7143  0.4787
  208MPD1    H1 3218   1.490   1.149  17.474 -1.0767  0.4450  2.9565
  208MPD1    H2 3219   1.897   1.114  17.429  1.0580 -0.7253  2.3557
  208MPD1    H3 3220   1.676   1.124  17.332 -0.6403 -0.1194  0.2175
  208MPD1     N 3221   1.499   1.148   0.001  0.6154 -0.4290  0.0031
  208MPD1    H5 3222   1.531   1.137   0.097 -1.7206 -0.6602  0.7570
  208MPD1    N1 3223   1.969   1.137  17.686 -0.3279  0.1836 -0.2064
  208MPD1    H6 3224   1.994   1.174   0.021  1.6145  1.2665 -1.1709
  208MPD1    H7 3225   2.045   1.182  17.635  1.5650 -1.0167  1.5991
  209MPD1     C 3226   3.337   1.955  11.840  0.0926 -0.0114  1.3057
  209MPD1    C1 3227   3.336   1.871  11.733  0.5178 -0.0635 -0.0746
  209MPD1    C2 3228   3.306   1.912  11.607  0.0530 -0.8465 -0.1968
  209MPD1    C3 3229   3.278   2.042  11.581 -0.7653  0.5194  0.4087
  209MPD1    C4 3230   3.285   2.128  11.689 -0.0214 -0.5549  0.0654
  209MPD1    C5 3231   3.305   2.085  11.812  0.0829 -0.4156 -0.2223
  209MPD1     H 3232   3.318   1.831  11.536  0.6746 -0.4927 -0.4978
  209MPD1    H1 3233   3.273   2.235  11.675  0.7452 -0.4690  0.0584
  209MPD1    H2 3234   3.353   1.923  11.943 -0.6609  0.7613  1.6650
  209MPD1    H3 3235   3.301   2.153  11.897  1.5681  0.0847 -0.5584
  209MPD1     N 3236   3.262   2.095  11.458 -0.2042 -0.1463 -0.2812
  209MPD1    H5 3237   3.262   2.196  11.451  0.9429 -0.1029  0.2897
  209MPD1    N1 3238   3.346   1.731  11.756 -0.2191 -0.8184 -0.5204
  209MPD1    H6 3239   3.369   1.678  11.672  0.0751 -0.8183 -0.4395
  209MPD1    H7 3240   3.404   1.713  11.838 -0.4124  3.6123  0.5971
  210MPD1     C 3241   3.690   2.754  10.858  0.5682  0.6253  0.1018
  210MPD1    C1 3242   3.733   2.660  10.952  0.5141  0.4110  0.8382
  210MPD1    C2 3243   3.645   2.561  10.988 -0.5929  0.1264  0.1345
  210MPD1    C3 3244   3.510   2.558  10.956  0.2387  0.8684 -0.1837
  210MPD1    C4 3245   3.472   2.659  10.870 -0.2355  0.6757  0.7799
  210MPD1    C5 3246   3.565   2.745  10.816 -0.4980  0.1889 -0.0938
  210MPD1     H 3247   3.682   2.486  11.057 -2.0829 -0.5018  0.2714
  210MPD1    H1 3248   3.369   2.672  10.839 -0.0133 -2.5658 -1.3281
  210MPD1    H2 3249   3.756   2.826  10.811  1.3412 -0.2986 -0.2400
  210MPD1    H3 3250   3.534   2.815  10.739 -0.0656  1.8780  1.2635
  210MPD1     N 3251   3.419   2.459  11.004  0.4723  0.1113 -0.1683
  210MPD1    H5 3252   3.326   2.449  10.966  0.4260 -1.7296  0.4240
  210MPD1    N1 3253   3.870   2.634  10.973  0.2042 -0.0331 -0.0211
  210MPD1    H6 3254   3.940   2.708  10.976  2.6912 -2.3475  0.0649
  210MPD1    H7 3255   3.879   2.590  11.065  1.2903 -1.1493 -0.6523
  211MPD1     C 3256   0.618   0.881  16.100  0.1242  0.5224  0.8153
  211MPD1    C1 3257   0.676   0.980  16.183 -0.6047 -0.0030 -0.0296
  211MPD1    C2 3258   0.596   1.086  16.219  0.0195  0.2693  1.1756
  211MPD1    C3 3259   0.471   1.104  16.165  0.6548 -0.1161 -0.1991
  211MPD1    C4 3260   0.425   1.015  16.069 -0.0068  0.1407  0.6579
  211MPD1    C5 3261   0.497   0.902  16.036  0.3281  0.7765  0.1186
  211MPD1     H 3262   0.637   1.159  16.288 -1.9999  2.1950  0.3689
  211MPD1    H1 3263   0.331   1.030  16.017 -0.2873 -1.9261  0.5461
  211MPD1    H2 3264   0.673   0.793  16.069 -0.9533  0.0404  0.2833
  211MPD1    H3 3265   0.452   0.830  15.968  1.0340  1.6568 -1.2635
  211MPD1     N 3266   0.398   1.216  16.209  0.4114  0.4138  0.0666
  211MPD1    H5 3267   0.444   1.270  16.281 -0.7306  0.5046  0.7328
  211MPD1    N1 3268   0.805   0.960  16.246  0.6294 -0.1692 -0.5598
  211MPD1    H6 3269   0.877   0.937  16.177  0.8675  0.1451 -0.4146
  211MPD1    H7 3270   0.838   1.037  16.303  2.3219 -0.4967 -1.0729
  212MPD1     C 3271   4.720   0.254  16.388 -0.0610  0.5237 -0.0959
  212MPD1    C1 3272   4.597   0.229  16.443  0.5594  0.0334  0.4277
  212MPD1    C2 3273   4.610   0.154  16.553  0.2376 -0.3551 -0.2057
  212MPD1    C3 3274   4.725   0.106  16.606  0.2768  0.2368 -0.5018
  212MPD1    C4 3275   0.106   0.135  16.546 -0.5693  0.1004  0.1622
  212MPD1    C5 3276   0.101   0.212  16.431  0.2758 -0.4387  0.5277
  212MPD1     H 3277   4.517   0.152  16.609  1.1060 -3.1190  1.1316
  212MPD1    H1 3278   0.204   0.101  16.574 -0.8043 -1.5115 -0.9897
  212MPD1    H2 3279   4.722   0.326  16.306  0.8719  0.3184 -0.2506
  212MPD1    H3 3280   0.193   0.230  16.376  0.6014 -0.9134  0.9206
  212MPD1     N 3281   0.003   0.042  16.728  1.0077 -0.1798 -0.0205
  212MPD1    H5 3282   0.098   0.018  16.754  1.0138 -1.5774 -1.3092
  212MPD1    N1 3283   4.482   0.294  16.405  0.5757  0.1519 -0.2204
  212MPD1    H6 3284   4.501   0.319  16.308 -1.4873 -0.6319 -0.8493
  212MPD1    H7 3285   4.397   0.237  16.411  1.4391 -1.1258 -0.2361
  213MPD1     C 3286   3.160   0.807  15.246  0.4899  0.2084 -1.1837
  213MPD1    C1 3287   3.160   0.934  15.206  0.4514  0.0658 -0.2097
  213MPD1    C2 3288   3.066   0.948  15.102  0.5251 -0.5131  0.1904
  213MPD1    C3 3289   2.963   0.854  15.073  0.5342  0.0856  0.7783
  213MPD1    C4 3290   2.960   0.737  15.145  0.6004 -0.0120  0.2476
  213MPD1    C5 3291   3.057   0.711  15.237  0.1768 -0.0773 -0.1396
  213MPD1     H 3292   3.062   1.038  15.042 -0.2092 -1.0993 -0.6372
  213MPD1    H1 3293   2.893   0.654  15.123 -0.7664  1.7968 -2.3621
  213MPD1    H2 3294   3.243   0.798  15.315 -0.3612 -1.3957 -0.3812
  213MPD1    H3 3295   3.057   0.611  15.278  0.4879  1.5823  3.8239
  213MPD1     N 3296   2.867   0.880  14.971  0.5253  0.5528  0.4931
  213MPD1    H5 3297   2.870   0.970  14.923  1.1936 -0.4917 -1.4381
  213MPD1    N1 3298   3.283   0.995  15.194 -0.4157 -0.1024  0.6950
  213MPD1    H6 3299   3.339   0.976  15.278 -0.8705  0.3856  1.1098
  213MPD1    H7 3300   3.289   1.095  15.179 -0.1990 -0.3396 -0.7737
  214MPD1     C 3301   1.902   0.710  15.046 -0.1687 -0.3317  0.2094
  214MPD1    C1 3302   1.927   0.840  15.000  0.4599  0.0148 -0.5207
  214MPD1    C2 3303   2.049   0.865  14.951  0.0937  0.0834  0.3719
  214MPD1    C3 3304   2.135   0.766  14.918  0.4851  0.0630  0.3251
  214MPD1    C4 3305   2.094   0.634  14.949 -0.1014 -0.0989  0.2946
  214MPD1    C5 3306   1.976   0.605  15.009 -0.1624  0.1136 -0.6327
  214MPD1     H 3307   2.072   0.967  14.921 -0.5914  0.5159  1.3335
  214MPD1    H1 3308   2.167   0.559  14.918 -0.4078 -0.4778  0.4815
  214MPD1    H2 3309   1.808   0.681  15.091  0.3821  1.1490  2.3521
  214MPD1    H3 3310   1.945   0.502  15.024  2.8025 -0.9411 -1.7936
  214MPD1     N 3311   2.265   0.782  14.862  0.3847  0.4016 -0.7112
  214MPD1    H5 3312   2.325   0.701  14.850 -0.5621 -0.2252 -1.1781
  214MPD1    N1 3313   1.843   0.940  15.041 -0.4552 -0.1863  0.0233
  214MPD1    H6 3314   1.748   0.912  15.014 -0.0363 -0.6964 -0.9237
  214MPD1    H7 3315   1.856   1.031  14.998  1.7579  0.4335  2.0559
  215MPD1     C 3316   2.457   1.868  10.506  0.2346 -0.5739  0.1269
  215MPD1    C1 3317   2.493   1.792  10.613  0.1654  0.5492 -0.4346
  215MPD1    C2 3318   2.552   1.853  10.718 -0.1472  0.0553 -0.4965
  215MPD1    C3 3319   2.570   1.989  10.706 -0.7693 -0.1727 -0.3546
  215MPD1    C4 3320   2.528   2.064  10.604 -0.8587 -0.3114 -0.3990
  215MPD1    C5 3321   2.470   2.003  10.498 -0.1220  0.1304  0.5827
  215MPD1     H 3322   2.606   1.799  10.795  1.3821 -1.6637 -2.7409
  215MPD1    H1 3323   2.539   2.172  10.608  0.4785 -0.4590 -0.1451
  215MPD1    H2 3324   2.387   1.822  10.437 -1.6380 -0.3057  1.8321
  215MPD1    H3 3325   2.435   2.061  10.414  0.2234  3.4026  2.6813
  215MPD1     N 3326   2.652   2.058  10.800  0.4676  0.2443 -0.1474
  215MPD1    H5 3327   2.657   2.157  10.779  1.2643 -0.1654 -1.8794
  215MPD1    N1 3328   2.493   1.651  10.605 -0.2956  0.5418 -0.3067
  215MPD1    H6 3329   2.412   1.615  10.556  0.0070 -0.3152 -0.1864
  215MPD1    H7 3330   2.495   1.603  10.695  3.5033  1.7746  0.2558
  216MPD1     C 3331   3.475   4.498   0.968 -0.2657 -0.3660  0.2535
  216MPD1    C1 3332   3.568   4.569   0.890  0.2275  0.4468 -0.3601
  216MPD1    C2 3333   3.642   4.485   0.810 -0.4433 -0.5378 -0.0709
  216MPD1    C3 3334   3.641   4.345   0.803  0.0772  0.4077 -0.5478
  216MPD1    C4 3335   3.549   4.284   0.882 -0.3039 -0.0603  0.4355
  216MPD1    C5 3336   3.467   4.365   0.960  0.2496  0.0935 -1.0672
  216MPD1     H 3337   3.703   4.528   0.732 -2.1736  0.9105 -0.6148
  216MPD1    H1 3338   3.525   4.179   0.872  0.1747 -0.0092 -1.1970
  216MPD1    H2 3339   3.403   4.552   1.029  0.3284  0.7852 -0.0640
  216MPD1    H3 3340   3.383   4.319   1.011 -0.7061  0.3677 -2.3754
  216MPD1     N 3341   3.726   4.280   0.709 -0.2150 -0.3607  0.5126
  216MPD1    H5 3342   3.789   4.340   0.657 -0.1520 -1.9946 -1.2845
  216MPD1    N1 3343   3.562   4.707   0.861 -0.2905 -0.0383 -0.0781
  216MPD1    H6 3344   3.650   0.001   0.822  0.3260 -1.7600 -0.1618
  216MPD1    H7 3345   3.550   0.027   0.943  1.2723 -2.0627  1.6281
  217MPD1     C 3346   4.231   1.590   8.721 -0.3588  0.8142 -0.3051
  217MPD1    C1 3347   4.249   1.698   8.801  0.4555  0.4416  0.0739
  217MPD1    C2 3348   4.329   1.685   8.914 -0.5840 -0.6352 -0.4146
  217MPD1    C3 3349   4.397   1.567   8.945  0.3436 -1.0074 -0.3639
  217MPD1    C4 3350   4.370   1.455   8.863 -0.1065  0.4418  0.5354
  217MPD1    C5 3351   4.292   1.472   8.754  1.1808 -0.7784 -0.0187
  217MPD1     H 3352   4.340   1.775   8.972 -0.0965 -1.2707  0.4780
  217MPD1    H1 3353   4.410   1.354   8.875 -0.2314  0.5386  1.7640
  217MPD1    H2 3354   4.168   1.598   8.633 -2.0634 -1.6799  0.6894
  217MPD1    H3 3355   4.283   1.389   8.684  0.6092 -1.4866  0.8929
  217MPD1     N 3356   4.490   1.559   9.052 -0.2422  0.0989  0.9795
  217MPD1    H5 3357   4.541   1.471   9.062 -0.9443 -0.1035  2.7388
  217MPD1    N1 3358   4.204   1.828   8.774 -0.3668 -0.0798  0.1562
  217MPD1    H6 3359   4.186   1.884   8.857 -0.1406 -1.9303  1.4447
  217MPD1    H7 3360   4.117   1.819   8.722 -0.4242  1.3560  0.0178
  218MPD1     C 3361   2.244   2.534  12.917 -0.6828 -0.6280  0.4465
  218MPD1    C1 3362   2.368   2.574  12.881 -0.3644 -0.2406  0.0401
  218MPD1    C2 3363   2.430   2.505  12.779  0.1187 -0.4254 -0.7624
  218MPD1    C3 3364   2.366   2.405  12.701 -1.3114  0.1728 -0.6243
  218MPD1    C4 3365   2.245   2.358  12.742 -1.0419  0.3828  0.2550
  218MPD1    C5 3366   2.189   2.425  12.848  0.6429 -0.5890  0.6940
  218MPD1     H 3367   2.530   2.539  12.752  0.0086  0.0371 -0.5891
  218MPD1    H1 3368   2.196   2.279  12.687  0.4365 -0.2257 -0.1875
  218MPD1    H2 3369   2.187   2.576  13.000 -2.5643 -1.9960 -0.1384
  218MPD1    H3 3370   2.091   2.392  12.882 -0.4912  2.0756 -0.0151
  218MPD1     N 3371   2.436   2.348  12.593  0.0315 -0.1609 -0.3659
  218MPD1    H5 3372   2.535   2.371  12.586 -0.0934  0.3507 -0.4403
  218MPD1    N1 3373   2.438   2.656  12.973 -0.6035 -0.4755  0.1111
  218MPD1    H6 3374   2.383   2.736  13.004  0.2506  0.6332 -1.2357
  218MPD1    H7 3375   2.526   2.691  12.936 -0.7060  0.4382  0.7249
  219MPD1     C 3376   3.241   2.503  12.060 -0.2582 -0.2523  0.3462
  219MPD1    C1 3377   3.117   2.557  12.092 -0.2963  0.0782  0.0688
  219MPD1    C2 3378   3.029   2.482  12.169 -0.1895 -0.0911 -0.1547
  219MPD1    C3 3379   3.049   2.345  12.195  0.1137 -0.0157  0.4091
  219MPD1    C4 3380   3.163   2.291  12.143  0.3821 -0.0358  0.5438
  219MPD1    C5 3381   3.269   2.370  12.088 -1.3099  0.9287  0.2239
  219MPD1     H 3382   2.933   2.522  12.200 -1.0406 -1.0814 -1.5278
  219MPD1    H1 3383   3.188   2.187  12.158  1.4400  0.7156  3.8952
  219MPD1    H2 3384   3.312   2.567  12.009  0.3445 -1.7358 -0.7053
  219MPD1    H3 3385   3.358   2.325  12.046 -2.1542 -0.8885  0.3963
  219MPD1     N 3386   2.957   2.263  12.260  0.0679  0.1761 -0.0435
  219MPD1    H5 3387   2.967   2.162  12.253 -2.0905 -0.0613  0.2581
  219MPD1    N1 3388   3.082   2.684  12.042  0.0563  0.2210  0.2774
  219MPD1    H6 3389   3.162   2.746  12.047  0.2222  0.0138  0.1842
  219MPD1    H7 3390   3.005   2.726  12.094  1.6701  1.6120  1.5322
  220MPD1     C 3391   2.787   2.786   9.489  0.7044  0.6422  0.2075
  220MPD1    C1 3392   2.870   2.830   9.589  0.3154  0.5227  0.0077
  220MPD1    C2 3393   2.809   2.867   9.708  0.1568 -0.1720  0.1893
  220MPD1    C3 3394   2.669   2.867   9.729 -0.1165 -0.6183 -0.8060
  220MPD1    C4 3395   2.588   2.837   9.623 -0.3244 -0.1339  0.6491
  220MPD1    C5 3396   2.650   2.789   9.511  0.3178 -0.4232 -0.1333
  220MPD1     H 3397   2.865   2.905   9.793  1.5032  0.1661 -0.8519
  220MPD1    H1 3398   2.480   2.825   9.620 -0.1231 -0.8350 -3.4577
  220MPD1    H2 3399   2.824   2.736   9.400 -0.2869 -0.3251  0.3395
  220MPD1    H3 3400   2.587   2.749   9.432  0.7610 -1.5972  0.1021
  220MPD1     N 3401   2.617   2.872   9.861  0.8053 -0.1823 -0.1421
  220MPD1    H5 3402   2.673   2.893   9.942 -0.1938  0.5336  0.3549
  220MPD1    N1 3403   3.004   2.845   9.561 -0.3774  0.0586 -0.0444
  220MPD1    H6 3404   3.064   2.821   9.639 -1.0153  0.0671  0.4529
  220MPD1    H7 3405   3.031   2.782   9.485  1.1162  0.0840  0.4808
  221MPD1     C 3406   0.037   1.947  15.972 -0.6812  0.1449 -0.4791
  221MPD1    C1 3407   0.032   1.812  15.943 -0.2762  0.2402 -0.0431
  221MPD1    C2 3408   0.152   1.743  15.944  0.3560  0.5870  0.3469
  221MPD1    C3 3409   0.264   1.809  16.007 -0.2989 -0.5463 -0.3769
  221MPD1    C4 3410   0.256   1.943  16.041  0.6653 -0.6117  0.0439
  221MPD1    C5 3411   0.137   2.007  16.029  0.5388 -0.4311 -0.6593
  221MPD1     H 3412   0.161   1.639  15.918 -0.8456  1.0641 -1.8936
  221MPD1    H1 3413   0.336   2.003  16.082 -1.0718 -0.1170  2.6598
  221MPD1    H2 3414   4.686   2.006  15.973 -0.8226 -0.0898  0.7055
  221MPD1    H3 3415   0.123   2.113  16.050 -2.6364 -0.3100 -3.3691
  221MPD1     N 3416   0.395   1.752  16.011  0.6373  0.4193  0.3389
  221MPD1    H5 3417   0.459   1.802  16.072  3.0746 -1.4110 -0.7303
  221MPD1    N1 3418   4.661   1.762  15.875 -0.2859 -0.2263  0.5070
  221MPD1    H6 3419   4.573   1.803  15.905  0.8268  1.6706  1.1795
  221MPD1    H7 3420   4.650   1.662  15.890  1.0690 -0.3125  0.8908
  222MPD1     C 3421   1.287   4.536   0.595  0.0237  0.4908 -0.2019
  222MPD1    C1 3422   1.256   4.661   0.552 -0.0745 -0.0744 -0.0282
  222MPD1    C2 3423   1.122   4.684   0.523  0.1828 -0.2722 -0.9886
  222MPD1    C3 3424   1.029   4.581   0.554  0.0297  0.2326  0.0106
  222MPD1    C4 3425   1.062   4.467   0.617 -0.1517 -0.0121  0.7354
  222MPD1    C5 3426   1.192   4.448   0.637  0.8575 -0.1961 -0.3072
  222MPD1     H 3427   1.101   0.045   0.488 -1.5595  0.2120  1.4534
  222MPD1    H1 3428   0.989   4.397   0.658  1.2607 -2.8965 -1.7244
  222MPD1    H2 3429   1.388   4.500   0.610 -0.2491 -0.6344 -1.0471
  222MPD1    H3 3430   1.220   4.348   0.669  1.2363 -0.1953 -0.6324
  222MPD1     N 3431   0.895   4.590   0.537 -0.1548  0.4062 -0.1751
  222MPD1    H5 3432   0.840   4.506   0.526  1.5915 -0.8060  0.3788
  222MPD1    N1 3433   1.361   4.736   0.489 -0.3092 -0.0213  0.0157
  222MPD1    H6 3434   1.344   0.097   0.492  0.0719 -0.0150  2.1643
  222MPD1    H7 3435   1.455   4.714   0.523 -1.2357 -0.8482  2.0614
  223MPD1     C 3436   0.026   4.259   0.836  0.2407 -0.6781 -0.5591
  223MPD1    C1 3437   4.731   4.385   0.795 -0.0099 -0.2752 -0.2947
  223MPD1    C2 3438   0.088   4.459   0.722 -0.1092  0.7433 -0.3910
  223MPD1    C3 3439   0.209   4.406   0.680 -0.4052 -0.0300  0.5787
  223MPD1    C4 3440   0.247   4.283   0.732  0.5888  0.1649 -0.0038
  223MPD1    C5 3441   0.153   4.214   0.792  0.0677 -0.5069  0.6750
  223MPD1     H 3442   0.060   4.557   0.684 -0.5852  1.3963  1.6734
  223MPD1    H1 3443   0.342   4.233   0.720  0.5431 -0.3105  1.5664
  223MPD1    H2 3444   4.691   4.197   0.886  0.1728  0.8347  1.2027
  223MPD1    H3 3445   0.178   4.109   0.803  0.1771 -0.8572 -2.9444
  223MPD1     N 3446   0.295   4.491   0.602  0.4423  0.0963 -0.4017
  223MPD1    H5 3447   0.255   4.579   0.572 -0.0621 -0.1570 -0.4811
  223MPD1    N1 3448   4.609   4.442   0.839 -0.0904  0.5218 -0.0766
  223MPD1    H6 3449   4.534   4.373   0.832  0.1466  0.3068 -0.4517
  223MPD1    H7 3450   4.582   4.526   0.789  0.3158  0.1263 -0.9584
  224MPD1     C 3451   0.062   1.408  10.340  0.1491  0.2138  0.6889
  224MPD1    C1 3452   0.070   1.537  10.385 -0.2694  0.2289 -0.3723
  224MPD1    C2 3453   0.170   1.612  10.335 -0.1270  0.2084 -0.5059
  224MPD1    C3 3454   0.274   1.556  10.260  0.1131 -0.4302  0.1188
  224MPD1    C4 3455   0.257   1.425  10.216 -0.1610 -0.2012  0.6192
  224MPD1    C5 3456   0.162   1.347  10.269 -0.1383  0.3534  0.0445
  224MPD1     H 3457   0.172   1.720  10.351 -1.9441 -0.1622  2.2881
  224MPD1    H1 3458   0.329   1.373  10.154  2.0145  0.9773  2.1604
  224MPD1    H2 3459   4.713   1.347  10.357  0.9907 -1.1816  0.0332
  224MPD1    H3 3460   0.146   1.247  10.229 -0.5114  0.9024 -1.2001
  224MPD1     N 3461   0.387   1.621  10.205  0.1140 -0.9178  0.5320
  224MPD1    H5 3462   0.448   1.576  10.137  1.3007  1.9139 -0.2960
  224MPD1    N1 3463   4.713   1.601  10.464 -0.3201  0.0554 -0.5714
  224MPD1    H6 3464   0.013   1.677  10.521 -2.5017  0.1458  0.8262
  224MPD1    H7 3465   4.665   1.529  10.517 -1.0618  1.7848  1.1330
  225MPD1     C 3466   2.676   3.276  11.995 -0.2787  0.1909 -0.4285
  225MPD1    C1 3467   2.616   3.152  11.960 -0.1079  0.2189 -0.2388
  225MPD1    C2 3468   2.510   3.099  12.036 -0.2628 -0.3281 -0.1862
  225MPD1    C3 3469   2.456   3.174  12.146 -0.8419 -0.0121 -0.0264
  225MPD1    C4 3470   2.510   3.295  12.166  0.1682 -0.6003  0.3864
  225MPD1    C5 3471   2.618   3.347  12.093 -0.3076  0.0336 -0.9231
  225MPD1     H 3472   2.456   3.013  11.998  0.3928 -0.9873  0.3754
  225MPD1    H1 3473   2.471   3.348  12.252 -1.1320 -1.7170  0.4850
  225MPD1    H2 3474   2.764   3.308  11.942  0.2770 -1.5761 -0.5772
  225MPD1    H3 3475   2.651   3.445  12.124 -0.5167 -0.8682  2.1403
  225MPD1     N 3476   2.332   3.141  12.213 -0.3939  0.0063 -0.5094
  225MPD1    H5 3477   2.290   3.214  12.270  0.6353  0.1408  0.0811
  225MPD1    N1 3478   2.664   3.089  11.846  0.2345 -0.3783  0.1012
  225MPD1    H6 3479   2.646   2.989  11.842 -0.0244 -0.3361  0.2018
  225MPD1    H7 3480   2.764   3.100  11.832 -0.1094  1.0989 -1.1774
  226MPD1     C 3481   0.035   2.204   9.620 -0.1041 -0.8752  0.1743
  226MPD1    C1 3482   4.717   2.335   9.602 -0.7295  0.3621 -0.4232
  226MPD1    C2 3483   0.056   2.442   9.573 -0.3659  0.1393  0.1895
  226MPD1    C3 3484   0.186   2.424   9.534 -0.0227 -0.3074  0.2720
  226MPD1    C4 3485   0.242   2.301   9.548 -0.2040 -0.3290  0.4159
  226MPD1    C5 3486   0.167   2.193   9.585 -0.6316  0.5945 -0.2913
  226MPD1     H 3487   0.021   2.545   9.575 -0.5176  0.1099 -1.2945
  226MPD1    H1 3488   0.349   2.286   9.537  0.2366  2.8367  0.3986
  226MPD1    H2 3489   4.724   2.117   9.661  1.6750 -2.0508 -0.1201
  226MPD1    H3 3490   0.215   2.098   9.603  0.3771  1.2191  0.3183
  226MPD1     N 3491   0.257   2.540   9.500  0.6558  0.2598 -0.3453
  226MPD1    H5 3492   0.203   2.626   9.503  0.2026 -0.0105 -0.9172
  226MPD1    N1 3493   4.588   2.359   9.639 -0.0131 -0.1617  0.0914
  226MPD1    H6 3494   4.531   2.275   9.632  1.7394 -1.4191  0.8462
  226MPD1    H7 3495   4.553   2.431   9.576  2.6081  1.1151  0.0796
  227MPD1     C 3496   0.291   3.417   8.970  0.9435 -0.4111 -0.2791
  227MPD1    C1 3497   0.424   3.386   8.984 -0.2958  0.0421  0.0697
  227MPD1    C2 3498   0.461   3.277   9.060  0.5955  0.1687  0.0859
  227MPD1    C3 3499   0.367   3.194   9.115 -0.5130  0.0140  0.0938
  227MPD1    C4 3500   0.232   3.221   9.093 -0.5520  0.3510 -0.5723
  227MPD1    C5 3501   0.198   3.333   9.026 -0.2104  0.1137 -0.5645
  227MPD1     H 3502   0.565   3.275   9.090  0.1365  0.9702  1.7681
  227MPD1    H1 3503   0.150   3.161   9.131 -0.1071 -0.9533 -1.6518
  227MPD1    H2 3504   0.254   3.505   8.920  2.7547  0.8811  0.6895
  227MPD1    H3 3505   0.092   3.351   9.015 -0.2865 -0.7001 -1.1625
  227MPD1     N 3506   0.415   3.086   9.193  0.3935  0.0607 -0.2023
  227MPD1    H5 3507   0.513   3.060   9.187  0.3665  0.2152 -1.3718
  227MPD1    N1 3508   0.520   3.473   8.923  0.1480  0.3291  0.6957
  227MPD1    H6 3509   0.477   3.526   8.847  0.6422  0.4253  0.4828
  227MPD1    H7 3510   0.593   3.421   8.875 -0.3498  0.1677  0.1097
  228MPD1     C 3511   4.490   0.545  12.618  0.1322 -0.3742  0.3409
  228MPD1    C1 3512   4.421   0.653  12.586  0.1574 -0.0021 -0.0248
  228MPD1    C2 3513   4.308   0.677  12.668 -0.5666 -0.4955 -0.1411
  228MPD1    C3 3514   4.279   0.607  12.782  0.7232  0.0792  0.2063
  228MPD1    C4 3515   4.359   0.500  12.811 -0.2438 -0.6806  0.0868
  228MPD1    C5 3516   4.468   0.474  12.733  0.2205 -0.0090  0.1231
  228MPD1     H 3517   4.239   0.753  12.632 -1.0175 -0.9237 -0.1840
  228MPD1    H1 3518   4.338   0.431  12.892  0.7270 -2.4502 -1.1471
  228MPD1    H2 3519   4.556   0.499  12.546  0.7946  1.0050  0.0619
  228MPD1    H3 3520   4.516   0.378  12.751 -1.4068 -0.1735  3.6339
  228MPD1     N 3521   4.160   0.630  12.856 -0.0967  0.1575  0.2746
  228MPD1    H5 3522   4.107   0.707  12.814 -0.4112 -1.2256 -1.8875
  228MPD1    N1 3523   4.431   0.701  12.455  0.4122 -0.3218  0.1603
  228MPD1    H6 3524   4.516   0.670  12.410  0.6026  1.4586 -0.7089
  228MPD1    H7 3525   4.402   0.798  12.445 -1.0013 -0.7660 -0.0504
  229MPD1     C 3526   4.155   4.204  14.470 -0.9087 -0.2532 -0.1683
  229MPD1    C1 3527   4.083   4.210  14.584  0.1140  0.4976  0.5512
  229MPD1    C2 3528   4.126   4.118  14.687  0.1277  0.2532 -1.1572
  229MPD1    C3 3529   4.233   4.025  14.667 -0.0126  0.9519  0.7654
  229MPD1    C4 3530   4.295   4.018  14.547  0.5166  0.6396  0.6962
  229MPD1    C5 3531   4.259   4.118  14.460  0.2090  0.5642  0.1148
  229MPD1     H 3532   4.072   4.109  14.781  2.3750  2.3251  0.3505
  229MPD1    H1 3533   4.385   3.962  14.521 -0.6103 -0.5858 -0.5289
  229MPD1    H2 3534   4.150   4.271  14.385 -0.6550  1.1623  0.9267
  229MPD1    H3 3535   4.325   4.132  14.376  0.2490  0.7092  0.1700
  229MPD1     N 3536   4.262   3.921  14.760 -0.1502  0.4846 -0.0631
  229MPD1    H5 3537   4.337   3.855  14.742  0.0401  0.4450  0.8901
  229MPD1    N1 3538   3.964   4.294  14.594  0.9525 -0.5121  0.0885
  229MPD1    H6 3539   3.944   4.332  14.686  2.7632 -2.4264  1.2658
  229MPD1    H7 3540   3.971   4.367  14.523 -1.8412  0.7127  1.0812
  230MPD1     C 3541   4.301   3.448  15.705  0.0521  0.2018 -0.2412
  230MPD1    C1 3542   4.360   3.353  15.629 -0.4652 -0.2984 -0.3166
  230MPD1    C2 3543   4.331   3.363  15.494  0.3126  0.2540 -0.4269
  230MPD1    C3 3544   4.246   3.454  15.434  0.0610 -1.0583 -0.2713
  230MPD1    C4 3545   4.190   3.545  15.518  0.5383  0.1711  0.3868
  230MPD1    C5 3546   4.222   3.550  15.653 -0.7714  0.4860  0.8220
  230MPD1     H 3547   4.377   3.290  15.429  1.5355  2.2492 -1.8257
  230MPD1    H1 3548   4.131   3.629  15.483  0.4326  0.2741  0.8141
  230MPD1    H2 3549   4.321   3.443  15.811 -0.6089  1.2210 -0.0701
  230MPD1    H3 3550   4.195   3.636  15.714  1.1922  1.8804 -0.2833
  230MPD1     N 3551   4.233   3.465  15.296  0.0403  0.3363 -0.3835
  230MPD1    H5 3552   4.298   3.408  15.244  0.6181  0.9253 -0.3121
  230MPD1    N1 3553   4.431   3.250  15.693 -0.2111  0.2447  0.6123
  230MPD1    H6 3554   4.470   3.268  15.785  0.6086  1.5244  0.0127
  230MPD1    H7 3555   4.515   3.230  15.638  1.3277 -0.8423  3.3597
  231MPD1     C 3556   2.638   1.063  15.186  0.2733  0.0796  0.2669
  231MPD1    C1 3557   2.514   1.072  15.126 -0.0385  0.3063 -0.3297
  231MPD1    C2 3558   2.498   1.178  15.043  0.3052 -0.1029 -0.2722
  231MPD1    C3 3559   2.605   1.256  15.001  0.0382 -0.2349 -0.5411
  231MPD1    C4 3560   2.723   1.242  15.064 -0.4509  0.0007 -0.4114
  231MPD1    C5 3561   2.741   1.149  15.161  0.2819  0.0153  0.2852
  231MPD1     H 3562   2.409   1.184  14.981 -0.7449 -0.3768  1.2020
  231MPD1    H1 3563   2.811   1.298  15.036 -0.5037  0.4047  0.2329
  231MPD1    H2 3564   2.649   0.987  15.262 -2.5970  0.5078  1.0957
  231MPD1    H3 3565   2.843   1.146  15.198  0.0284  1.9304  1.1404
  231MPD1     N 3566   2.587   1.353  14.891 -0.1717  0.0722 -0.0849
  231MPD1    H5 3567   2.497   1.365  14.845 -0.5616  1.3313  1.0252
  231MPD1    N1 3568   2.404   0.992  15.172  0.4205  0.3386 -0.3990
  231MPD1    H6 3569   2.335   0.986  15.098 -0.1574 -3.3028  0.3997
  231MPD1    H7 3570   2.438   0.900  15.202  1.3790  1.2073  1.1898
  232MPD1     C 3571   4.471   2.731  17.329 -0.3360  0.0139  0.2041
  232MPD1    C1 3572   4.422   2.709  17.456 -0.1384  0.3526  0.4074
  232MPD1    C2 3573   4.290   2.722  17.479 -0.2120 -0.5168  0.5485
  232MPD1    C3 3574   4.202   2.763  17.382 -0.3681 -0.3421 -0.4611
  232MPD1    C4 3575   4.255   2.793  17.256  0.1562 -0.0228  0.1104
  232MPD1    C5 3576   4.388   2.768  17.230  0.1399  0.0285  0.2346
  232MPD1     H 3577   4.246   2.701  17.576 -1.7837  1.3957  0.2539
  232MPD1    H1 3578   4.195   2.831  17.174 -0.4966  0.3337  0.7572
  232MPD1    H2 3579   4.574   2.724  17.296 -0.5505 -0.5794 -0.3688
  232MPD1    H3 3580   4.414   2.769  17.125 -1.1286  0.5422 -0.0717
  232MPD1     N 3581   4.065   2.775  17.416  0.1938 -0.2512  0.6427
  232MPD1    H5 3582   4.035   2.758  17.512  0.4159  0.0094  0.7575
  232MPD1    N1 3583   4.505   2.635  17.542 -0.1534  0.2432  0.3221
  232MPD1    H6 3584   4.606   2.635  17.528 -0.6380 -3.0676 -3.2122
  232MPD1    H7 3585   4.479   2.639  17.640  0.7980 -1.6629  0.6511
  233MPD1     C 3586   4.461   2.093   1.272 -0.0568  0.4747 -0.0367
  233MPD1    C1 3587   4.413   2.027   1.166  0.1597 -0.5561 -0.3070
  233MPD1    C2 3588   4.482   1.923   1.112 -0.0372  0.1540  0.2144
  233MPD1    C3 3589   4.606   1.872   1.168  0.2342  0.0467  0.3749
  233MPD1    C4 3590   4.653   1.946   1.276 -0.0315  0.3102 -0.3835
  233MPD1    C5 3591   4.583   2.058   1.327 -0.0050  0.3161 -0.5219
  233MPD1     H 3592   4.447   1.871   1.023  1.0197 -0.3184  0.0667
  233MPD1    H1 3593   0.004   1.921   1.330 -1.2704  3.0393  2.9488
  233MPD1    H2 3594   4.420   2.184   1.314  2.4601  1.0368  1.2297
  233MPD1    H3 3595   4.634   2.124   1.397  2.2252 -2.9208  0.9116
  233MPD1     N 3596   4.678   1.755   1.133 -0.2784  0.3180  0.9704
  233MPD1    H5 3597   0.018   1.727   1.189 -0.6906 -4.5107 -0.8447
  233MPD1    N1 3598   4.312   2.086   1.095 -0.1114  0.1213  0.0007
  233MPD1    H6 3599   4.267   2.026   1.027  1.1485  0.5874 -1.2516
  233MPD1    H7 3600   4.242   2.128   1.156  0.6188  0.6955  0.4465
  234MPD1     C 3601   1.412   0.584   9.296 -0.0124  0.7317 -0.5138
  234MPD1    C1 3602   1.454   0.708   9.339  0.6529  0.0938  0.2640
  234MPD1    C2 3603   1.367   0.813   9.313  0.6099  0.3759  0.0355
  234MPD1    C3 3604   1.238   0.791   9.282  0.2395  0.5475  0.1590
  234MPD1    C4 3605   1.192   0.662   9.273 -0.4304 -0.0888  0.2062
  234MPD1    C5 3606   1.284   0.557   9.272  0.5066 -0.5207  0.0362
  234MPD1     H 3607   1.411   0.912   9.319  0.1184  0.5899  0.0713
  234MPD1    H1 3608   1.089   0.629   9.259 -0.5069 -1.1535  3.2581
  234MPD1    H2 3609   1.481   0.500   9.303  0.2824  0.9859 -0.3901
  234MPD1    H3 3610   1.244   0.456   9.272  0.5358 -0.5326  0.0261
  234MPD1     N 3611   1.155   0.904   9.262  0.1986 -0.1833  0.0822
  234MPD1    H5 3612   1.199   0.996   9.266 -1.2853  0.5827 -1.0295
  234MPD1    N1 3613   1.585   0.726   9.376 -0.1322  0.3549 -0.0200
  234MPD1    H6 3614   1.597   0.802   9.443  0.3967 -0.1257  0.4332
  234MPD1    H7 3615   1.620   0.641   9.420  1.7466  1.6318  0.9388
  235MPD1     C 3616   2.691   2.343  10.324 -0.2471 -0.6863  0.7812
  235MPD1    C1 3617   2.686   2.420  10.212 -0.0061 -0.7329 -0.3051
  235MPD1    C2 3618   2.786   2.508  10.182  0.2542 -0.9627 -0.7174
  235MPD1    C3 3619   2.901   2.509  10.265  0.3432  0.2688  0.1024
  235MPD1    C4 3620   2.910   2.423  10.373  0.4321 -0.1679 -0.3653
  235MPD1    C5 3621   2.797   2.355  10.411 -0.0225 -0.3004 -0.3204
  235MPD1     H 3622   2.780   2.573  10.096 -0.7768 -0.6938 -0.4356
  235MPD1    H1 3623   2.995   2.416  10.439 -0.4173  0.0318  0.7566
  235MPD1    H2 3624   2.607   2.278  10.347  1.0247 -2.3757  0.6916
  235MPD1    H3 3625   2.811   2.296  10.500  1.5462  1.1136  0.3684
  235MPD1     N 3626   2.986   2.626  10.256 -0.1074 -0.3531 -0.1360
  235MPD1    H5 3627   2.956   2.704  10.198  0.7551 -0.6103 -0.9362
  235MPD1    N1 3628   2.575   2.424  10.128 -0.2355  0.3952  0.7778
  235MPD1    H6 3629   2.530   2.332  10.128  2.8099 -1.1000  1.9481
  235MPD1    H7 3630   2.585   2.473  10.039  0.3423 -0.6630  0.2554
  236MPD1     C 3631   1.661   3.941   9.927  0.3212  0.6818 -0.5580
  236MPD1    C1 3632   1.741   4.041   9.878 -0.2009  0.4034 -0.3556
  236MPD1    C2 3633   1.877   4.031   9.904  0.1207  0.4336  0.2576
  236MPD1    C3 3634   1.932   3.939   9.994  0.2157  0.5124 -0.3444
  236MPD1    C4 3635   1.842   3.853  10.056  0.0902  0.1046  0.2449
  236MPD1    C5 3636   1.710   3.851  10.016 -0.2377 -1.2323 -0.1691
  236MPD1     H 3637   1.942   4.101   9.852  0.3853  0.1025  0.1449
  236MPD1    H1 3638   1.869   3.768  10.117  0.4038  0.0904  0.0863
  236MPD1    H2 3639   1.556   3.929   9.904  0.1109 -1.5696  1.6995
  236MPD1    H3 3640   1.646   3.773  10.056 -0.5434  0.4999  2.7484
  236MPD1     N 3641   2.071   3.935  10.031 -0.0772  0.5450  0.0774
  236MPD1    H5 3642   2.097   3.851  10.081  2.0544  1.4696  0.5281
  236MPD1    N1 3643   1.690   4.138   9.795  0.1684  0.1432  0.4940
  236MPD1    H6 3644   1.597   4.167   9.823  0.6688  3.5080 -1.2552
  236MPD1    H7 3645   1.745   4.223   9.782 -0.2837  0.2977 -0.3925
  237MPD1     C 3646   2.987   2.122  15.036 -0.0503  0.0741 -0.1408
  237MPD1    C1 3647   2.933   2.219  15.107  0.1651 -0.2636 -0.0147
  237MPD1    C2 3648   2.797   2.210  15.148  0.0578  0.8489  0.4741
  237MPD1    C3 3649   2.716   2.098  15.120  0.4045 -0.5165 -0.5098
  237MPD1    C4 3650   2.769   2.007  15.028 -0.2544  0.1318  0.3920
  237MPD1    C5 3651   2.899   2.025  14.992 -0.5598 -1.1166  0.3656
  237MPD1     H 3652   2.746   2.287  15.205  0.6289  1.9869 -0.5300
  237MPD1    H1 3653   2.709   1.930  14.982  0.2451  1.8068 -3.0045
  237MPD1    H2 3654   3.091   2.130  15.005 -0.1416 -1.7026 -0.8962
  237MPD1    H3 3655   2.938   1.955  14.919  2.2852 -0.1459  0.9857
  237MPD1     N 3656   2.577   2.105  15.144 -0.1505  0.4415 -0.0763
  237MPD1    H5 3657   2.514   2.044  15.092 -0.6587 -0.7081  1.9101
  237MPD1    N1 3658   3.000   2.340  15.124  0.3176  0.0911  0.3908
  237MPD1    H6 3659   3.101   2.333  15.126  0.2692  0.1817  2.8940
  237MPD1    H7 3660   2.967   2.386  15.208 -0.5734  0.5947 -0.2298
  238MPD1     C 3661   4.654   1.094  14.639 -0.5451  0.6514  0.9185
  238MPD1    C1 3662   4.568   1.204  14.654  0.0421 -0.4550 -0.5037
  238MPD1    C2 3663   4.447   1.206  14.592  0.9081 -0.0468 -0.0328
  238MPD1    C3 3664   4.397   1.097  14.524  0.0687  0.0525  0.3196
  238MPD1    C4 3665   4.485   0.989  14.505 -0.2178 -0.0825  0.4976
  238MPD1    C5 3666   4.609   0.989  14.570  0.3636 -0.3187 -0.1001
  238MPD1     H 3667   4.372   1.284  14.590  0.9068 -0.0321  0.7765
  238MPD1    H1 3668   4.460   0.898  14.451 -1.2839  0.6400 -0.2341
  238MPD1    H2 3669   0.014   1.093  14.682 -0.5079  0.1562  0.8189
  238MPD1    H3 3670   4.666   0.897  14.569  0.4635 -0.3138  3.7474
  238MPD1     N 3671   4.270   1.108  14.468 -0.7096  0.0158 -0.0344
  238MPD1    H5 3672   4.211   1.189  14.485 -1.1178  0.1340 -2.0523
  238MPD1    N1 3673   4.617   1.324  14.710 -0.3583  0.5926 -0.2097
  238MPD1    H6 3674   4.669   1.305  14.796  0.6439 -0.8124 -1.1210
  238MPD1    H7 3675   4.540   1.385  14.738  0.4375  1.1265  0.8302
  239MPD1     C 3676   4.305   1.963  14.998  0.3311  0.4752 -0.3836
  239MPD1    C1 3677   4.417   1.977  14.917  0.1488  0.2105 -0.1422
  239MPD1    C2 3678   4.390   2.003  14.786  0.5472  0.0525  0.0850
  239MPD1    C3 3679   4.260   2.017  14.738 -0.1015 -0.7617 -0.7423
  239MPD1    C4 3680   4.157   2.019  14.825  0.3782 -0.1020  0.2528
  239MPD1    C5 3681   4.176   1.982  14.955  0.7766  0.1008  0.0667
  239MPD1     H 3682   4.474   2.012  14.718  0.0255  1.0247 -0.4210
  239MPD1    H1 3683   4.056   2.003  14.792  0.5257 -0.2866 -0.1087
  239MPD1    H2 3684   4.311   1.929  15.101  4.4575  0.0072 -0.7757
  239MPD1    H3 3685   4.089   1.971  15.019  0.6120  0.0673 -0.1614
  239MPD1     N 3686   4.230   2.050  14.603 -0.0757  0.2708 -0.1575
  239MPD1    H5 3687   4.135   2.073  14.576  0.0309  0.6809 -0.1932
  239MPD1    N1 3688   4.549   1.937  14.951 -0.7232  0.4156 -0.0880
  239MPD1    H6 3689   4.570   1.974  15.043 -0.6849 -2.1202  0.9321
  239MPD1    H7 3690   4.623   1.967  14.889 -1.2814  2.1261  0.0601
  240MPD1     C 3691   3.409   1.764  13.328  0.2092 -0.3682 -0.3062
  240MPD1    C1 3692   3.297   1.757  13.410 -0.3104 -1.1632  0.0741
  240MPD1    C2 3693   3.314   1.735  13.550  0.4810  0.3436  0.1804
  240MPD1    C3 3694   3.439   1.689  13.590 -0.0772  0.5346 -0.4179
  240MPD1    C4 3695   3.553   1.698  13.504 -0.0506 -0.3261 -0.3571
  240MPD1    C5 3696   3.534   1.728  13.372 -0.2266  0.6343 -0.0970
  240MPD1     H 3697   3.236   1.748  13.624 -1.8654  1.0434 -2.4475
  240MPD1    H1 3698   3.654   1.675  13.533  0.3008  2.1710  0.4253
  240MPD1    H2 3699   3.400   1.799  13.226 -0.3500 -1.2590 -0.5666
  240MPD1    H3 3700   3.625   1.749  13.317 -0.2013  1.4727  0.2630
  240MPD1     N 3701   3.445   1.631  13.719  0.3037 -0.0533  0.4593
  240MPD1    H5 3702   3.358   1.627  13.771  0.8561  3.7456  1.6858
  240MPD1    N1 3703   3.180   1.804  13.356  0.0886  0.3311 -0.0127
  240MPD1    H6 3704   3.092   1.788  13.405  0.0339  1.0952  0.1419
  240MPD1    H7 3705   3.161   1.797  13.257 -0.0118 -0.8489  0.0930
  241MPD1     C 3706   3.979   1.385  14.602  0.0907  0.0616  0.6450
  241MPD1    C1 3707   4.037   1.385  14.480 -0.5561  0.1049  0.8692
  241MPD1    C2 3708   3.953   1.364  14.370  0.2099 -0.2478  0.3242
  241MPD1    C3 3709   3.815   1.358  14.379  0.8171  0.0155  0.0016
  241MPD1    C4 3710   3.761   1.356  14.503  0.4160 -0.2327  0.0701
  241MPD1    C5 3711   3.843   1.365  14.609 -0.2651  0.2528  0.4675
  241MPD1     H 3712   4.005   1.361  14.275  0.7845  1.0616  0.6027
  241MPD1    H1 3713   3.655   1.342  14.520 -0.0324  1.2581 -1.4540
  241MPD1    H2 3714   4.043   1.384  14.689 -2.0577  0.6798  2.2275
  241MPD1    H3 3715   3.806   1.355  14.710 -0.3070  1.1102  0.5368
  241MPD1     N 3716   3.728   1.350  14.268 -0.5997 -0.6599  0.3552
  241MPD1    H5 3717   3.629   1.361  14.289 -0.6429 -0.3535  0.0031
  241MPD1    N1 3718   4.179   1.387  14.477 -0.0256  0.0267 -0.1284
  241MPD1    H6 3719   4.222   1.446  14.548 -1.5906  2.9713 -1.6237
  241MPD1    H7 3720   4.214   1.427  14.390 -1.5704  1.0712 -0.2792
  242MPD1     C 3721   3.425   4.403  15.727 -0.0953 -0.5193 -0.4448
  242MPD1    C1 3722   3.558   4.386  15.760  0.0933 -0.2572 -0.2347
  242MPD1    C2 3723   3.649   4.406  15.663 -0.9003  0.0716  0.4488
  242MPD1    C3 3724   3.622   4.458  15.538 -0.3607 -0.0447  0.2481
  242MPD1    C4 3725   3.487   4.487  15.515 -0.0197 -0.2433 -0.3003
  242MPD1    C5 3726   3.391   4.451  15.606  0.1689 -0.1870  0.5513
  242MPD1     H 3727   3.748   4.370  15.691 -0.0284  1.8463 -0.3413
  242MPD1    H1 3728   3.447   4.538  15.429 -0.4506  1.2057  0.7574
  242MPD1    H2 3729   3.353   4.401  15.809 -0.8243  0.0807 -1.0758
  242MPD1    H3 3730   3.286   4.473  15.591  0.7705  2.0922 -0.3141
  242MPD1     N 3731   3.707   4.469  15.426  0.0493 -0.1829  0.1505
  242MPD1    H5 3732   3.671   4.493  15.334  1.3838 -4.5785 -1.5406
  242MPD1    N1 3733   3.591   4.330  15.880  0.0695  0.2776  0.3927
  242MPD1    H6 3734   3.528   4.355  15.956 -0.8801 -1.9414  0.3456
  242MPD1    H7 3735   3.686   4.344  15.913 -0.2895  1.0416  1.1067
  243MPD1     C 3736   0.108   2.649  17.617  0.1841  0.1555 -0.0486
  243MPD1    C1 3737   0.181   2.534  17.626 -0.1971  0.5508 -0.0187
  243MPD1    C2 3738   0.221   2.480  17.505 -1.0808  0.0800  0.3869
  243MPD1    C3 3739   0.205   2.540  17.385  0.0587  0.0940  0.1801
  243MPD1    C4 3740   0.141   2.666  17.377 -0.4654 -0.1667 -0.4841
  243MPD1    C5 3741   0.086   2.715  17.498  0.5891 -0.0334 -0.6575
  243MPD1     H 3742   0.264   2.381  17.496  0.5319  0.9970 -2.0233
  243MPD1    H1 3743   0.140   2.726  17.287 -1.4795  2.2209  1.1149
  243MPD1    H2 3744   0.070   2.703  17.702 -1.1516 -1.6078  0.4793
  243MPD1    H3 3745   0.034   2.810  17.501  1.5282  0.4850 -0.7154
  243MPD1     N 3746   0.263   2.479  17.268  0.7319  0.2738 -0.1851
  243MPD1    H5 3747   0.324   2.399  17.286  1.3482  1.0898  1.3209
  243MPD1    N1 3748   0.186   2.458  17.738  0.1653 -0.3502  0.1732
  243MPD1    H6 3749   0.247   2.377  17.730 -1.3362 -1.2753 -1.9902
  243MPD1    H7 3750   0.195   2.512   0.068 -0.2691  0.8625 -0.5424
  244MPD1     C 3751   0.543   1.628  16.803 -0.0143  0.3583  0.2231
  244MPD1    C1 3752   0.625   1.709  16.737 -0.3211  0.1371  0.4315
  244MPD1    C2 3753   0.618   1.849  16.758 -0.0363 -0.1876 -0.1821
  244MPD1    C3 3754   0.525   1.895  16.848  0.7886 -0.3257 -0.3274
  244MPD1    C4 3755   0.447   1.807  16.921  0.8260  0.0215  0.2097
  244MPD1    C5 3756   0.450   1.674  16.894 -0.5364 -0.3181  0.2251
  244MPD1     H 3757   0.688   1.919  16.715 -0.1954  1.1573  1.7073
  244MPD1    H1 3758   0.370   1.842  16.988  0.4502  0.0792 -0.2489
  244MPD1    H2 3759   0.542   1.522  16.780  1.0555  0.6745 -1.2160
  244MPD1    H3 3760   0.394   1.604  16.955  1.4130 -0.4632  1.8416
  244MPD1     N 3761   0.513   2.036  16.860 -0.1779  0.0927  0.5725
  244MPD1    H5 3762   0.566   2.092  16.795  0.6334  0.8483  1.8734
  244MPD1    N1 3763   0.729   1.650  16.665  0.1484 -0.3029  0.2163
  244MPD1    H6 3764   0.676   1.575  16.619  0.0293 -0.4683  0.6281
  244MPD1    H7 3765   0.778   1.705  16.594 -0.1542  0.0326  0.2654
  245MPD1     C 3766   2.249   3.489  13.000 -0.0567  1.6936 -0.9054
  245MPD1    C1 3767   2.330   3.530  13.100 -0.8123 -0.2643  0.2088
  245MPD1    C2 3768   2.312   3.660  13.155  0.2583 -0.0471 -0.5087
  245MPD1    C3 3769   2.247   3.759  13.084  0.2635  0.4834  0.4589
  245MPD1    C4 3770   2.181   3.720  12.968 -0.7567  0.1949 -0.8438
  245MPD1    C5 3771   2.177   3.591  12.933  0.3421 -0.7012  0.1293
  245MPD1     H 3772   2.361   3.684  13.249 -1.0474  0.6670 -0.0108
  245MPD1    H1 3773   2.132   3.790  12.901  0.2091 -0.6225 -2.3829
  245MPD1    H2 3774   2.239   3.382  12.987 -1.9433  1.9984 -1.8517
  245MPD1    H3 3775   2.128   3.571  12.838 -1.0120 -0.0363  0.6938
  245MPD1     N 3776   2.252   3.890  13.137 -0.3615  0.5143 -0.2437
  245MPD1    H5 3777   2.290   3.905  13.230 -0.5646  0.3182 -0.1289
  245MPD1    N1 3778   2.391   3.432  13.174 -0.4247 -0.1554 -0.5360
  245MPD1    H6 3779   2.439   3.356  13.125 -0.0079  0.2723 -0.7905
  245MPD1    H7 3780   2.452   3.470  13.246 -0.5032  0.5026 -0.8175
  246MPD1     C 3781   2.695   1.574   9.810  0.0878 -0.2013  0.5232
  246MPD1    C1 3782   2.563   1.567   9.796 -0.0535  0.2741  0.4227
  246MPD1    C2 3783   2.491   1.453   9.781  0.1013 -0.4302 -0.1193
  246MPD1    C3 3784   2.559   1.330   9.774 -0.3964  0.1387 -0.3973
  246MPD1    C4 3785   2.697   1.338   9.775 -1.0418 -0.2729 -1.2285
  246MPD1    C5 3786   2.764   1.456   9.804  0.2334 -0.1340  0.5353
  246MPD1     H 3787   2.383   1.452   9.778  0.0957 -2.7124  1.0521
  246MPD1    H1 3788   2.764   1.253   9.774 -0.6627  0.0374 -1.7894
  246MPD1    H2 3789   2.745   1.667   9.832 -3.1291  1.8405 -0.8129
  246MPD1    H3 3790   2.873   1.452   9.805  0.2468  0.3165  0.7745
  246MPD1     N 3791   2.484   1.218   9.775  0.2696 -0.7819 -0.2934
  246MPD1    H5 3792   2.386   1.231   9.752  0.3620 -2.2440 -1.5058
  246MPD1    N1 3793   2.496   1.689   9.807  0.3494  0.3839 -0.3276
  246MPD1    H6 3794   2.551   1.760   9.759  0.3005 -0.5790 -1.8127
  246MPD1    H7 3795   2.408   1.684   9.756  0.0546  1.3176  0.0892
  247MPD1     C 3796   1.477   3.691  16.387 -0.3692  0.2494 -0.2883
  247MPD1    C1 3797   1.542   3.699  16.262 -0.1919  0.5460 -0.4541
  247MPD1    C2 3798   1.678   3.699  16.256  0.6134 -0.3572  0.6008
  247MPD1    C3 3799   1.748   3.672  16.373  0.2886  1.0434 -0.2325
  247MPD1    C4 3800   1.679   3.647  16.491  0.3545 -0.5433 -0.2607
  247MPD1    C5 3801   1.548   3.657  16.501 -0.1547 -0.7892  0.1200
  247MPD1     H 3802   1.727   3.728  16.164 -0.5355  0.1059  0.1402
  247MPD1    H1 3803   1.737   3.621  16.579 -0.6175  0.0439  0.5561
  247MPD1    H2 3804   1.372   3.714  16.400 -0.3705  0.3555 -0.4802
  247MPD1    H3 3805   1.492   3.629  16.589 -0.4138  0.4630  0.3526
  247MPD1     N 3806   1.886   3.689  16.381  0.3415  0.1409 -0.1859
  247MPD1    H5 3807   1.925   3.680  16.474  5.0703  3.4196 -1.8445
  247MPD1    N1 3808   1.457   3.740  16.153  0.7521  0.1629 -0.0436
  247MPD1    H6 3809   1.487   3.701  16.064  0.0392 -0.2283 -0.1101
  247MPD1    H7 3810   1.366   3.699  16.173  1.6611 -0.7897  2.1545
  248MPD1     C 3811   2.064   3.119   0.910 -0.2197  0.1932  0.5270
  248MPD1    C1 3812   1.995   3.174   0.803  0.2760 -0.2779 -0.6287
  248MPD1    C2 3813   1.994   3.108   0.682 -0.0936  0.8341 -0.6891
  248MPD1    C3 3814   2.070   2.990   0.661  0.5136 -0.1898  0.0077
  248MPD1    C4 3815   2.134   2.935   0.774  0.1897  0.8909 -0.1241
  248MPD1    C5 3816   2.128   2.994   0.903 -0.1912  0.4532 -0.2403
  248MPD1     H 3817   1.931   3.148   0.603  1.5429 -0.1504 -2.4752
  248MPD1    H1 3818   2.189   2.842   0.771  0.2919  0.8804  2.3111
  248MPD1    H2 3819   2.071   3.162   1.009  0.3489  0.9547  0.1525
  248MPD1    H3 3820   2.184   2.954   0.987  1.2156  1.2507 -0.7920
  248MPD1     N 3821   2.071   2.921   0.538 -0.5220 -0.7721  0.2238
  248MPD1    H5 3822   2.010   2.962   0.468 -2.4666 -2.2010  1.0930
  248MPD1    N1 3823   1.914   3.286   0.820 -0.0714 -0.0427  0.9153
  248MPD1    H6 3824   1.923   3.325   0.913 -2.5497  0.7045  0.8435
  248MPD1    H7 3825   1.820   3.282   0.782 -0.1493 -0.0018  1.1043
  249MPD1     C 3826   3.836   2.859   9.930 -0.1576 -0.5216 -0.7235
  249MPD1    C1 3827   3.940   2.903   9.846  0.1235  0.0964  0.1753
  249MPD1    C2 3828   4.071   2.866   9.868 -0.2243 -0.0012 -0.0547
  249MPD1    C3 3829   4.106   2.785   9.981  0.7678 -0.2100  0.4983
  249MPD1    C4 3830   4.000   2.745  10.065 -0.1055  0.0929  0.3329
  249MPD1    C5 3831   3.872   2.790  10.044  0.2232  0.4615 -0.0399
  249MPD1     H 3832   4.150   2.885   9.796 -0.0741  0.7525  0.3065
  249MPD1    H1 3833   4.020   2.679  10.148  1.0545  0.4792  0.3604
  249MPD1    H2 3834   3.730   2.877   9.921  0.0876  0.3731 -1.8278
  249MPD1    H3 3835   3.797   2.754  10.113 -0.4302 -0.2559 -1.1211
  249MPD1     N 3836   4.242   2.754   9.997  0.0829 -0.1332  0.4031
  249MPD1    H5 3837   4.301   2.780   9.918 -1.0603 -0.4912 -0.5563
  249MPD1    N1 3838   3.903   2.968   9.727 -0.0237 -0.5664  1.2008
  249MPD1    H6 3839   3.977   3.029   9.692 -1.2593 -0.5123 -1.2799
  249MPD1    H7 3840   3.810   3.008   9.737 -0.5414 -1.6145  0.4859
  250MPD2     C 3841   0.658   2.182  13.577 -0.6533  0.4277 -0.6876
  250MPD2    C1 3842   0.630   2.220  13.447 -0.0908  0.3893 -0.0449
  250MPD2    C2 3843   0.543   2.139  13.374  0.3961  0.2133  0.2287
  250MPD2    C3 3844   0.503   2.021  13.431  0.1325 -0.2918  0.0934
  250MPD2    C4 3845   0.543   1.977  13.551  0.0185 -0.1808  0.3592
  250MPD2    C5 3846   0.619   2.058  13.625 -0.6467  0.5957  0.0870
  250MPD2     H 3847   0.514   2.176  13.276  1.9899 -1.2363 -0.7862
  250MPD2    H1 3848   0.501   1.886  13.591 -1.8289  0.7713  0.5784
  250MPD2    H2 3849   0.707   2.250  13.645  0.4242 -0.1853 -0.8576
  250MPD2    H3 3850   0.644   2.027  13.726  0.7790 -0.3626 -0.5620
  250MPD2     N 3851   0.422   1.926  13.362  0.2608  0.0961 -0.2214
  250MPD2    H5 3852   0.400   1.831  13.391  0.3784  0.2429  0.3476
  250MPD2    N1 3853   0.695   2.338  13.399  0.0514  0.4507  0.3503
  250MPD2    H7 3854   0.776   2.373  13.450 -1.0587  1.4447  1.4402
  251TMC3    C1 3855   0.736   2.513  13.261 -0.0469 -0.3792 -0.6403
  251TMC3    C2 3856   0.681   2.627  13.206 -0.0458 -0.0649 -0.9606
  251TMC3    C3 3857   0.765   2.730  13.192  0.0223 -0.0795 -0.3394
  251TMC3    C4 3858   0.870   2.500  13.286  0.0799 -0.2670  0.4079
  251TMC3    C5 3859   0.952   2.610  13.264  0.2220  0.1252 -0.0273
  251TMC3    C6 3860   0.900   2.729  13.224 -0.3736  0.0738  0.0658
  251TMC3     C 3861   0.643   2.412  13.303  0.3919 -0.3339  0.0246
  251TMC3     O 3862   0.527   2.410  13.264 -0.2942 -0.2274  0.1418
  251TMC3     H 3863   0.578   2.625  13.174  0.1581  1.8179 -1.7606
  251TMC3    H1 3864   0.906   2.400  13.308 -0.4203 -0.3894  0.6587
  251TMC3    H2 3865   0.971   2.799  13.184  0.4618 -0.0429  1.3583
  251TMC3    C7 3866   1.094   2.573  13.244  0.0203 -0.2851  0.2637
  251TMC3    C8 3867   0.700   2.850  13.196 -0.3610 -0.0972 -0.4789
  251TMC3    O1 3868   1.137   2.462  13.274  0.6812  0.0880  0.1396
  251TMC3    O2 3869   0.591   2.832  13.251 -0.4376  0.9888 -0.3796
  252TMC3    C1 3870   0.478   3.525   9.434  1.2022  0.4356  0.2461
  252TMC3    C2 3871   0.604   3.578   9.438  0.3875  0.0318 -0.8428
  252TMC3    C3 3872   0.694   3.492   9.501 -0.1247 -0.4656  0.7723
  252TMC3    C4 3873   0.433   3.402   9.479  1.0550 -1.2406  0.3482
  252TMC3    C5 3874   0.529   3.330   9.543  0.0684 -0.3674 -0.5277
  252TMC3    C6 3875   0.660   3.368   9.551  0.2203  0.0253  0.3019
  252TMC3     C 3876   0.380   3.599   9.358  0.6549  0.1379  0.2657
  252TMC3     O 3877   0.260   3.594   9.400  0.2110  0.0128  0.0648
  252TMC3     H 3878   0.627   3.678   9.403  2.5746 -0.7320 -1.5473
  252TMC3    H1 3879   0.332   3.373   9.451  0.0660 -0.1702  2.8591
  252TMC3    H2 3880   0.738   3.310   9.601  0.4817 -0.3712 -0.5616
  252TMC3    C7 3881   0.476   3.214   9.606  0.4674  0.8419 -0.0282
  252TMC3    C8 3882   0.819   3.561   9.528 -0.7141  0.3722  1.1541
  252TMC3    O1 3883   0.355   3.208   9.608  0.7049 -0.6353 -0.1522
  252TMC3    O2 3884   0.858   3.627   9.432  0.2898  0.3086 -0.0133
  253MPD2     C 3885   2.046   2.423  15.175 -0.5495  0.3424  0.4107
  253MPD2    C1 3886   1.968   2.502  15.255 -0.1711 -0.4462 -0.1362
  253MPD2    C2 3887   2.036   2.607  15.311 -0.9049  0.3467  0.2594
  253MPD2    C3 3888   2.167   2.633  15.288  0.4076  0.0892  0.6706
  253MPD2    C4 3889   2.247   2.552  15.220 -0.1837 -0.4945 -0.1119
  253MPD2    C5 3890   2.184   2.447  15.160 -0.6923  0.5119  0.5300
  253MPD2     H 3891   1.991   2.685  15.372  1.0394  1.5165  0.1892
  253MPD2    H1 3892   2.355   2.559  15.216 -0.2266  0.5344  0.6909
  253MPD2    H2 3893   2.013   2.338  15.117  2.1537 -1.2507  1.2299
  253MPD2    H3 3894   2.242   2.374  15.107 -1.4811 -0.1998  0.6481
  253MPD2     N 3895   2.226   2.742  15.359  0.2291 -0.0257 -0.2087
  253MPD2    H5 3896   2.327   2.743  15.353  0.3576  1.6154  2.2868
  253MPD2    N1 3897   1.830   2.481  15.258 -0.1102 -0.1936  0.4649
  253MPD2    H7 3898   1.798   2.399  15.207 -1.4303  1.8373 -1.9431
  254TMC3    C1 3899   2.235   2.945  15.461 -0.0125  0.5600  0.4222
  254TMC3    C2 3900   2.172   3.074  15.465 -0.0670 -0.0511  0.4990
  254TMC3    C3 3901   2.177   3.137  15.586 -0.1406  0.0691 -0.2294
  254TMC3    C4 3902   2.299   2.880  15.573 -0.4227  0.1622 -0.2660
  254TMC3    C5 3903   2.292   2.953  15.692 -0.8962  1.0960 -0.2684
  254TMC3    C6 3904   2.247   3.082  15.693  0.3171  0.7810  1.2806
  254TMC3     C 3905   2.159   2.857  15.384 -0.5740 -0.1722 -0.2230
  254TMC3     O 3906   2.056   2.891  15.332 -0.4520  0.4210 -0.1157
  254TMC3     H 3907   2.109   3.105  15.383  2.3010  1.4472 -0.7709
  254TMC3    H1 3908   2.326   2.776  15.583 -2.8761 -0.1916  2.5722
  254TMC3    H2 3909   2.248   3.136  15.787 -0.7303 -0.5406  2.0383
  254TMC3    C7 3910   2.241   2.868  15.794 -0.1153 -0.3793  0.0319
  254TMC3    C8 3911   2.053   3.197  15.636  0.2326  0.3031  0.1453
  254TMC3    O1 3912   2.295   2.759  15.809  0.5731  1.0007 -0.2035
  254TMC3    O2 3913   2.046   3.194  15.756  0.0550 -0.3785  0.7999
  255MPD2     C 3914   0.131   0.701  11.102  0.1549 -0.2874 -0.2574
  255MPD2    C1 3915   0.130   0.662  10.970 -0.2871  0.5741 -0.1798
  255MPD2    C2 3916   0.238   0.582  10.922 -0.2212  0.1352 -0.7380
  255MPD2    C3 3917   0.345   0.547  11.007 -0.6035 -0.5310 -0.0632
  255MPD2    C4 3918   0.333   0.580  11.138 -0.1580 -0.2398  0.1948
  255MPD2    C5 3919   0.228   0.657  11.181  0.5105  0.0937 -0.1186
  255MPD2     H 3920   0.250   0.552  10.818  1.7983 -1.0652 -0.1484
  255MPD2    H1 3921   0.394   0.541  11.219 -1.5998 -1.0754  0.8974
  255MPD2    H2 3922   0.055   0.771  11.136  0.4420  1.0930 -2.4535
  255MPD2    H3 3923   0.228   0.692  11.284 -0.5409 -0.0085 -0.0883
  255MPD2     N 3924   0.438   0.457  10.947 -0.2540 -0.2112 -0.2493
  255MPD2    H5 3925   0.432   0.436  10.848 -2.0491  1.6290 -0.5224
  255MPD2    N1 3926   0.029   0.702  10.881  0.1053 -0.2859  0.2654
  255MPD2    H7 3927   4.685   0.745  10.919  1.3245  1.0683  1.3794
  256TMC3    C1 3928   4.618   0.712  10.694  0.0527  0.1186 -0.6887
  256TMC3    C2 3929   4.545   0.810  10.756 -0.3509  0.0742 -1.0480
  256TMC3    C3 3930   4.417   0.838  10.718 -0.2641 -0.0423 -0.3974
  256TMC3    C4 3931   4.558   0.632  10.602  0.2799  0.1104 -0.1767
  256TMC3    C5 3932   4.424   0.651  10.569  0.3491 -0.7569 -0.6084
  256TMC3    C6 3933   4.353   0.760  10.624  0.1838 -0.1371  0.0193
  256TMC3     C 3934   0.007   0.665  10.744  0.0069  0.2207 -0.5082
  256TMC3     O 3935   0.068   0.583  10.670 -0.2695  0.7995 -0.0356
  256TMC3     H 3936   4.603   0.879  10.816  0.1794 -1.4505  0.1905
  256TMC3    H1 3937   4.600   0.541  10.561 -1.1502 -0.8537  0.5058
  256TMC3    H2 3938   4.259   0.788  10.578 -0.3329  0.7166  1.5936
  256TMC3    C7 3939   4.351   0.534  10.509  0.6248 -0.9082  0.2047
  256TMC3    C8 3940   4.347   0.950  10.780  0.0995  0.1129 -0.0870
  256TMC3    O1 3941   4.421   0.449  10.456 -0.2889 -0.2538  0.1264
  256TMC3    O2 3942   4.386   0.975  10.893 -0.0781  0.4230 -0.3515
  257MPD2     C 3943   3.424   2.170  13.522  0.7752 -0.1970  0.3539
  257MPD2    C1 3944   3.544   2.136  13.462  0.2076 -0.1136 -0.9420
  257MPD2    C2 3945   3.638   2.073  13.549 -1.1319 -0.3067  0.0590
  257MPD2    C3 3946   3.606   2.042  13.683 -0.8112  0.2354 -0.0872
  257MPD2    C4 3947   3.489   2.084  13.737  0.7120  0.0921  0.0359
  257MPD2    C5 3948   3.399   2.149  13.660  0.4760 -0.8251  0.5196
  257MPD2     H 3949   3.736   2.043  13.514 -0.2378  0.7650  1.6561
  257MPD2    H1 3950   3.462   2.068  13.840  2.8840 -0.3236  0.5486
  257MPD2    H2 3951   3.360   2.227  13.456 -0.1013  0.7339  2.0159
  257MPD2    H3 3952   3.301   2.168  13.703 -0.9518 -3.0595 -1.7279
  257MPD2     N 3953   3.700   1.957  13.741  0.4532  0.6264  0.1083
  257MPD2    H5 3954   3.754   1.900  13.676  1.0242 -1.3764  2.3242
  257MPD2    N1 3955   3.560   2.129  13.324  0.6693  0.0486 -0.5551
  257MPD2    H7 3956   3.487   2.168  13.266 -0.2087  1.5931  1.5978
  258TMC3    C1 3957   3.810   1.832  13.909 -0.6734  0.0363 -0.4470
  258TMC3    C2 3958   3.876   1.756  13.814 -0.4508 -0.1775 -0.0932
  258TMC3    C3 3959   3.973   1.670  13.862 -0.0577 -0.1138  0.2805
  258TMC3    C4 3960   3.842   1.832  14.038  0.3792 -0.7981  0.1596
  258TMC3    C5 3961   3.935   1.742  14.078  0.5254 -1.1322 -0.7292
  258TMC3    C6 3962   4.008   1.663  13.997 -0.3921 -0.0870 -0.7299
  258TMC3     C 3963   3.703   1.925  13.878  0.6104 -0.2197 -0.2926
  258TMC3     O 3964   3.640   1.978  13.969  0.3991 -0.1417 -0.1133
  258TMC3     H 3965   3.839   1.750  13.712  3.4759 -3.1865 -1.3381
  258TMC3    H1 3966   3.785   1.887  14.111 -1.4449 -0.8091 -1.2610
  258TMC3    H2 3967   4.072   1.581  14.028 -2.1071 -2.1903 -2.7563
  258TMC3    C7 3968   3.966   1.736  14.217 -0.9420 -0.3678 -0.3346
  258TMC3    C8 3969   4.032   1.572  13.771  0.1402 -0.3036  0.0985
  258TMC3    O1 3970   3.905   1.816  14.283 -0.5141  0.7237  0.7882
  258TMC3    O2 3971   4.136   1.509  13.807 -0.0477 -0.2119 -0.7970
  259MPD2     C 3972   2.549   3.858   0.518 -0.6048 -0.2765 -0.0807
  259MPD2    C1 3973   2.591   3.731   0.555 -1.0257 -0.1833 -0.4402
  259MPD2    C2 3974   2.706   3.681   0.496  1.0002  0.4088 -0.3177
  259MPD2    C3 3975   2.788   3.762   0.413 -0.7784 -0.1434  0.1419
  259MPD2    C4 3976   2.744   3.889   0.384  0.6092  0.2167  0.5411
  259MPD2    C5 3977   2.625   3.933   0.427 -0.5593 -0.4418 -0.2837
  259MPD2     H 3978   2.731   3.576   0.511 -2.0413 -0.3191 -0.3136
  259MPD2    H1 3979   2.804   3.964   0.333 -1.6150  1.7128  0.1258
  259MPD2    H2 3980   2.458   3.900   0.560  0.0353 -1.0831  2.1165
  259MPD2    H3 3981   2.601   4.033   0.392  0.6976  0.0786  0.3714
  259MPD2     N 3982   2.908   3.699   0.369 -0.0789 -0.0229  0.1436
  259MPD2    H5 3983   2.929   3.609   0.410 -0.0593  0.7413  1.8273
  259MPD2    N1 3984   2.511   3.662   0.650 -0.0052 -0.2632  0.2936
  259MPD2    H7 3985   2.424   3.709   0.672 -0.1318  0.3279 -1.5113
  260TMC3    C1 3986   3.127   3.675   0.282 -0.3076 -0.4225  0.5881
  260TMC3    C2 3987   3.229   3.721   0.195  0.4644 -0.3226  0.2759
  260TMC3    C3 3988   3.346   3.651   0.179 -0.8985 -0.0028 -0.1172
  260TMC3    C4 3989   3.151   3.560   0.347 -0.2808  0.2450 -0.8591
  260TMC3    C5 3990   3.273   3.500   0.335 -0.3378  0.4070  0.3683
  260TMC3    C6 3991   3.374   3.538   0.253 -0.2959  0.4616 -0.0967
  260TMC3     C 3992   3.002   3.759   0.287 -0.5944  0.3269 -0.1504
  260TMC3     O 3993   3.000   3.872   0.242 -0.4134 -0.3220  0.3845
  260TMC3     H 3994   3.214   3.803   0.126 -0.4841 -0.3251  0.4722
  260TMC3    H1 3995   3.066   3.520   0.401 -0.9622  3.7371  0.6136
  260TMC3    H2 3996   3.463   3.476   0.252  0.2773  1.2796 -0.4371
  260TMC3    C7 3997   3.253   3.356   0.326 -0.0956 -0.2523 -0.0648
  260TMC3    C8 3998   3.410   3.656   0.045 -0.2119 -0.8187  0.5326
  260TMC3    O1 3999   3.303   3.299   0.228 -0.2829 -0.1195 -0.0477
  260TMC3    O2 4000   3.413   3.764  17.743 -0.3865  0.6258 -0.0124
  261MPD2     C 4001   4.576   1.794  12.750 -0.3492  0.8231  0.4731
  261MPD2    C1 4002   4.687   1.875  12.781 -0.9133  0.3590 -0.5654
  261MPD2    C2 4003   4.702   1.993  12.706  0.3758  0.5535  0.2253
  261MPD2    C3 4004   4.625   2.031  12.598  0.6026 -0.2860  0.3319
  261MPD2    C4 4005   4.512   1.953  12.576 -0.0824  0.2871 -1.3260
  261MPD2    C5 4006   4.495   1.842  12.654  0.0920  0.4632  0.1491
  261MPD2     H 4007   0.043   2.063  12.725 -1.0037  2.6327 -1.5642
  261MPD2    H1 4008   4.445   1.975  12.493 -0.8410 -2.6267 -1.5180
  261MPD2    H2 4009   4.550   1.698  12.794 -1.1824  1.3656  1.1651
  261MPD2    H3 4010   4.404   1.786  12.633  1.0424 -0.5781 -1.1758
  261MPD2     N 4011   4.666   2.131  12.507  0.1788 -0.4944 -0.5345
  261MPD2    H5 4012   4.735   2.193  12.547 -0.4302 -0.1490 -0.0286
  261MPD2    N1 4013   0.032   1.844  12.889  0.1841  0.7373  0.2076
  261MPD2    H7 4014   0.093   1.916  12.926  0.4313 -0.3603  1.9741
  262TMC3    C1 4015   4.648   2.299  12.341 -0.0905 -0.0803  0.4496
  262TMC3    C2 4016   4.544   2.364  12.276 -0.2132  0.3580 -0.4083
  262TMC3    C3 4017   4.573   2.463  12.189 -0.0216 -0.6876 -0.2518
  262TMC3    C4 4018   0.036   2.332  12.320 -0.6103  0.0606  0.4321
  262TMC3    C5 4019   0.061   2.443  12.246  0.0769  0.1299  0.9413
  262TMC3    C6 4020   4.697   2.505  12.177 -0.0906 -0.5614 -0.6504
  262TMC3     C 4021   4.608   2.167  12.386  0.3751 -0.5699 -0.5243
  262TMC3     O 4022   4.513   2.114  12.322  0.1978  0.5343 -0.1510
  262TMC3     H 4023   4.443   2.345  12.310  0.6306 -0.9998  1.3387
  262TMC3    H1 4024   0.117   2.267  12.352 -0.2914  1.2327  1.9582
  262TMC3    H2 4025   4.721   2.602  12.134 -0.6554 -0.9885 -1.9387
  262TMC3    C7 4026   0.194   2.460  12.194 -1.0486  0.3985  0.5758
  262TMC3    C8 4027   4.466   2.560  12.182  0.8822 -0.2395  0.1488
  262TMC3    O1 4028   0.287   2.398  12.248 -0.2873 -0.2131 -0.2540
  262TMC3    O2 4029   4.502   2.679  12.172 -0.3508 -0.0992  0.0755
  263MPD2     C 4030   0.813   1.468  11.303  0.5190  0.3396 -0.1015
  263MPD2    C1 4031   0.951   1.479  11.283  0.1843 -0.2495  0.0437
  263MPD2    C2 4032   0.995   1.598  11.227  0.3220 -0.0025 -0.0239
  263MPD2    C3 4033   0.906   1.697  11.175 -0.4584  0.0168  0.3953
  263MPD2    C4 4034   0.772   1.678  11.200 -0.1542  0.5962 -0.1682
  263MPD2    C5 4035   0.728   1.567  11.265 -0.3219 -0.6752  0.5490
  263MPD2     H 4036   1.102   1.607  11.214 -0.0157 -0.5015 -3.1397
  263MPD2    H1 4037   0.697   1.751  11.171 -2.6180 -1.4782  0.9609
  263MPD2    H2 4038   0.773   1.382  11.357  1.1044  0.2869  0.2539
  263MPD2    H3 4039   0.621   1.556  11.277 -0.5372 -2.0823 -2.5950
  263MPD2     N 4040   0.958   1.809  11.112  0.1457 -0.0057  0.0113
  263MPD2    H5 4041   1.052   1.802  11.075  0.3730  1.0694  0.4088
  263MPD2    N1 4042   1.044   1.386  11.325 -0.8260 -0.0756  0.9218
  263MPD2    H7 4043   1.137   1.398  11.286 -1.4286  0.3059 -0.4056
  264TMC3    C1 4044   0.975   2.024  11.049  0.1933  0.9667  0.2624
  264TMC3    C2 4045   0.957   2.145  11.103 -0.3681 -0.3572 -0.4400
  264TMC3    C3 4046   1.027   2.250  11.052 -0.0679 -0.3780 -0.3156
  264TMC3    C4 4047   1.039   2.000  10.927  0.4019  0.2625  0.0299
  264TMC3    C5 4048   1.092   2.117  10.874  0.4081 -0.0046  0.4038
  264TMC3    C6 4049   1.101   2.236  10.939 -0.2507  0.4325 -0.8423
  264TMC3     C 4050   0.891   1.925  11.099  0.3440  0.1429  0.0579
  264TMC3     O 4051   0.787   1.956  11.160 -0.3569  0.1633  0.3527
  264TMC3     H 4052   0.891   2.160  11.188  0.5092 -0.0782  0.1904
  264TMC3    H1 4053   1.064   1.900  10.893  1.7999  0.4944  0.3798
  264TMC3    H2 4054   1.163   2.316  10.900 -0.3679  0.6137 -0.6561
  264TMC3    C7 4055   1.157   2.114  10.741 -0.1198  0.7114 -0.0881
  264TMC3    C8 4056   1.069   2.364  11.132  0.5869  0.8159  0.4254
  264TMC3    O1 4057   1.221   2.214  10.713 -0.7431 -0.2783 -0.2336
  264TMC3    O2 4058   1.117   2.463  11.074  0.3047 -0.0054  0.1639
  265MPD2     C 4059   3.033   1.799  15.416 -0.6699  0.5178  0.6359
  265MPD2    C1 4060   3.078   1.919  15.364 -0.3324 -0.2685 -0.3232
  265MPD2    C2 4061   3.135   1.906  15.235 -0.0265 -0.5091 -0.4307
  265MPD2    C3 4062   3.136   1.786  15.166  0.1982 -0.1987  0.3744
  265MPD2    C4 4063   3.075   1.672  15.216  0.3233  0.3228 -0.3743
  265MPD2    C5 4064   3.028   1.683  15.343  0.3714 -0.1001  0.3706
  265MPD2     H 4065   3.170   1.993  15.181  0.4644  0.2355  1.1071
  265MPD2    H1 4066   3.078   1.572  15.174 -2.1106  0.6276 -1.3029
  265MPD2    H2 4067   2.990   1.789  15.515 -0.2506 -3.7121  0.3975
  265MPD2    H3 4068   2.983   1.593  15.386  1.1751 -1.8622 -2.4988
  265MPD2     N 4069   3.183   1.785  15.031 -0.1599 -0.8412  0.3879
  265MPD2    H5 4070   3.172   1.701  14.975  1.2339 -0.0939 -1.0028
  265MPD2    N1 4071   3.074   2.043  15.427 -0.2468  0.4100 -0.8380
  265MPD2    H7 4072   3.104   2.128  15.381  1.9548  0.0957  0.0213
  266TMC3    C1 4073   3.005   2.197  15.597  0.1918 -0.0116 -0.1953
  266TMC3    C2 4074   3.055   2.233  15.719 -0.2507 -0.4395  0.1329
  266TMC3    C3 4075   3.074   2.370  15.739  0.3939 -0.6919  0.0063
  266TMC3    C4 4076   2.971   2.283  15.493  0.1145 -0.6920 -0.1914
  266TMC3    C5 4077   3.008   2.416  15.515 -0.0060 -0.6135 -0.3759
  266TMC3    C6 4078   3.050   2.458  15.634 -0.4370  0.2456 -0.2241
  266TMC3     C 4079   3.029   2.057  15.560 -0.0609  0.0764  0.1974
  266TMC3     O 4080   3.005   1.972  15.643 -0.1532 -0.0322  0.2130
  266TMC3     H 4081   3.072   2.165  15.801 -0.7375  0.6258  1.1107
  266TMC3    H1 4082   2.936   2.249  15.397 -0.4003 -1.3918  0.2407
  266TMC3    H2 4083   3.073   2.562  15.653 -1.2856  0.7550 -2.0870
  266TMC3    C7 4084   2.972   2.506  15.416  0.5113  0.3851  0.4361
  266TMC3    C8 4085   3.160   2.410  15.844 -0.2051 -0.4580 -0.2508
  266TMC3    O1 4086   2.879   2.464  15.348 -0.2067 -0.5481  0.2558
  266TMC3    O2 4087   3.217   2.322  15.904 -0.1622 -0.5861  0.0093
  267MPD2     C 4088   4.679   4.412   0.444  1.2417  0.4216 -0.8345
  267MPD2    C1 4089   4.679   4.279   0.431  0.3445  0.0614  0.0128
  267MPD2    C2 4090   4.559   4.214   0.449  0.9123 -0.1238 -0.8646
  267MPD2    C3 4091   4.444   4.282   0.496 -0.2100  0.3617  0.2207
  267MPD2    C4 4092   4.449   4.425   0.507  0.2567 -0.3651 -0.2037
  267MPD2    C5 4093   4.569   4.484   0.480 -0.0247 -0.0983  0.5147
  267MPD2     H 4094   4.547   4.108   0.430 -1.0610 -0.5348  2.7526
  267MPD2    H1 4095   4.361   4.483   0.534  0.7042  0.6911 -0.9699
  267MPD2    H2 4096   0.032   4.465   0.426  2.8658 -2.5959 -1.4808
  267MPD2    H3 4097   4.587   4.590   0.495 -0.3954  0.1761 -0.9852
  267MPD2     N 4098   4.323   4.205   0.523  0.1773 -0.3818 -0.2365
  267MPD2    H5 4099   4.320   4.103   0.522  0.2261 -0.3764 -1.3204
  267MPD2    N1 4100   0.060   4.209   0.418  0.2256  0.1823  0.6800
  267MPD2    H7 4101   0.143   4.266   0.409  0.7625 -0.9825 -1.9303
  268TMC3    C1 4102   0.208   4.016   0.422  0.2280  0.7949  0.5439
  268TMC3    C2 4103   0.317   4.102   0.412  0.4196 -0.1253  0.8735
  268TMC3    C3 4104   0.444   4.055   0.403 -0.0815 -0.0183  0.2590
  268TMC3    C4 4105   0.223   3.883   0.432  0.0845 -0.3185 -0.0682
  268TMC3    C5 4106   0.352   3.839   0.420  0.3031 -0.2633  0.3451
  268TMC3    C6 4107   0.462   3.916   0.401  0.0360  0.0952  0.0219
  268TMC3     C 4108   0.073   4.071   0.416 -0.8946  0.4397  0.5111
  268TMC3     O 4109   4.727   3.982   0.409  0.2524  0.4216  0.0765
  268TMC3     H 4110   0.293   4.205   0.389  0.6376 -0.4792 -0.9346
  268TMC3    H1 4111   0.140   3.815   0.440  0.6531 -0.9689  0.2819
  268TMC3    H2 4112   0.560   3.875   0.382  0.3639  1.5822 -1.4844
  268TMC3    C7 4113   0.368   3.698   0.410 -0.3318  0.0243  0.0461
  268TMC3    C8 4114   0.544   4.140   0.349  0.5245 -0.2099 -0.3176
  268TMC3    O1 4115   0.308   3.636   0.495  0.5116  0.4391  0.4904
  268TMC3    O2 4116   0.516   4.245   0.285 -0.1051 -0.2020  0.1911
  269MPD2     C 4117   0.984   2.705  15.925 -0.7162  0.1729  0.5365
  269MPD2    C1 4118   0.853   2.743  15.900 -0.0757 -0.3048 -0.5438
  269MPD2    C2 4119   0.830   2.852  15.825  0.0179 -0.3613  0.3720
  269MPD2    C3 4120   0.942   2.917  15.758 -0.2459  0.3161 -0.1405
  269MPD2    C4 4121   1.075   2.864  15.777  0.5693  0.7091  0.5312
  269MPD2    C5 4122   1.090   2.756  15.855  0.7567  0.7243 -0.2634
  269MPD2     H 4123   0.734   2.901  15.810 -0.5887 -1.9222 -0.8701
  269MPD2    H1 4124   1.169   2.900  15.737  1.5121 -2.6848 -0.2616
  269MPD2    H2 4125   1.000   2.612  15.979 -0.5397 -1.1811 -1.8056
  269MPD2    H3 4126   1.185   2.707  15.877  0.3985 -1.3683 -3.4607
  269MPD2     N 4127   0.921   3.039  15.687  0.5468 -0.7428  0.3627
  269MPD2    H5 4128   0.828   3.079  15.684  0.5260 -0.8619 -0.7840
  269MPD2    N1 4129   0.753   2.661  15.954  0.0466 -0.3261  0.0717
  269MPD2    H7 4130   0.789   2.595  16.023 -1.1479  1.0516  2.0381
  270TMC3    C1 4131   0.551   2.570  16.015  0.0586 -0.5191 -0.3923
  270TMC3    C2 4132   0.423   2.572  15.985 -0.4114 -0.0944  0.5771
  270TMC3    C3 4133   0.358   2.452  16.006 -0.4327  0.3716 -0.1410
  270TMC3    C4 4134   0.616   2.454  16.050  0.1317  0.7461 -0.6404
  270TMC3    C5 4135   0.552   2.331  16.050  0.7463 -0.4886  0.3919
  270TMC3    C6 4136   0.420   2.331  16.030  0.0654  0.4387  0.7844
  270TMC3     C 4137   0.618   2.673  15.946  0.1605  0.1842 -0.5994
  270TMC3     O 4138   0.551   2.751  15.880  0.1064  0.1742 -0.6628
  270TMC3     H 4139   0.355   2.649  15.948  2.4463  1.6306 -1.0808
  270TMC3    H1 4140   0.720   2.448  16.081  0.4112  1.9844 -1.3240
  270TMC3    H2 4141   0.365   2.237  16.031  1.0611 -0.1468  0.9240
  270TMC3    C7 4142   0.631   2.222  16.001 -0.1548  0.4171 -0.8237
  270TMC3    C8 4143   0.255   2.417  15.914 -0.5024  0.0446  0.4537
  270TMC3    O1 4144   0.751   2.230  16.018 -0.5897  0.3227 -0.1515
  270TMC3    O2 4145   0.141   2.410  15.954 -0.1671 -0.1941 -0.2725
  271MPD2     C 4146   4.739   2.016  14.027 -0.4628  0.3646  0.0703
  271MPD2    C1 4147   4.711   2.114  14.122  0.0041 -0.1464 -0.1102
  271MPD2    C2 4148   4.604   2.198  14.100 -0.2653  0.5382  0.2505
  271MPD2    C3 4149   4.542   2.198  13.977 -0.0122 -0.5328 -0.6502
  271MPD2    C4 4150   4.578   2.101  13.890  0.2679  0.0408 -0.0356
  271MPD2    C5 4151   4.674   2.012  13.908  0.6038 -0.1554 -0.6044
  271MPD2     H 4152   4.582   2.273  14.176  1.3686 -0.6264  1.8504
  271MPD2    H1 4153   4.517   2.104  13.800 -1.3754 -2.0169  1.0094
  271MPD2    H2 4154   0.087   1.952  14.023 -0.9493 -0.3657  1.3277
  271MPD2    H3 4155   4.698   1.946  13.825 -1.9897 -0.4828 -1.0901
  271MPD2     N 4156   4.448   2.289  13.929 -0.4883 -0.8790  0.2696
  271MPD2    H5 4157   4.411   2.276  13.835  0.8159  1.9645 -0.6293
  271MPD2    N1 4158   0.040   2.116  14.246 -0.4598  0.4554  0.5672
  271MPD2    H7 4159   0.013   2.184  14.317  2.2909  3.4594 -1.2846
  272TMC3    C1 4160   0.201   2.046  14.413 -0.2721 -0.2819 -0.2288
  272TMC3    C2 4161   0.340   2.024  14.415  0.0450 -0.0475  0.2238
  272TMC3    C3 4162   0.402   2.027  14.537 -0.8153 -0.3948  0.7061
  272TMC3    C4 4163   0.133   2.062  14.529 -0.1678  0.5122 -0.0145
  272TMC3    C5 4164   0.201   2.066  14.652 -0.3158  0.5054 -0.3929
  272TMC3    C6 4165   0.334   2.032  14.653  0.7643  0.3999  0.1916
  272TMC3     C 4166   0.145   2.034  14.276  0.3833 -0.5245  0.5311
  272TMC3     O 4167   0.215   1.964  14.202  0.0922  0.1273  0.1213
  272TMC3     H 4168   0.393   1.999  14.324 -0.2108 -1.1165  0.3616
  272TMC3    H1 4169   0.027   2.087  14.529 -0.4204 -0.5528 -0.4490
  272TMC3    H2 4170   0.394   2.041  14.743 -1.0223 -0.7547  1.4992
  272TMC3    C7 4171   0.128   2.092  14.774 -0.6841 -0.5789  0.6474
  272TMC3    C8 4172   0.550   2.030  14.541  0.4492 -0.3872  0.2558
  272TMC3    O1 4173   0.022   2.039  14.796  0.0074 -0.0497 -0.6134
  272TMC3    O2 4174   0.601   2.103  14.458 -0.0052 -0.1937  0.2897
  273MPD2     C 4175   1.319   0.651  11.698 -0.0966  0.9394 -0.1823
  273MPD2    C1 4176   1.437   0.719  11.687 -0.5218  0.3859  0.1081
  273MPD2    C2 4177   1.482   0.760  11.559  0.0714 -0.0025 -0.4586
  273MPD2    C3 4178   1.421   0.713  11.444 -0.3508  0.3774 -0.0854
  273MPD2    C4 4179   1.308   0.632  11.461  0.8261 -0.0344 -1.2945
  273MPD2    C5 4180   1.265   0.602  11.585  0.3154  0.2498  0.0485
  273MPD2     H 4181   1.560   0.836  11.554  0.6527 -0.5466  0.1907
  273MPD2    H1 4182   1.253   0.594  11.376 -0.4888 -1.6992  0.2933
  273MPD2    H2 4183   1.267   0.631  11.791 -0.1954  0.2338 -0.3877
  273MPD2    H3 4184   1.172   0.548  11.594 -0.2656  1.4117  1.0822
  273MPD2     N 4185   1.450   0.749  11.317 -0.0938 -0.2037  0.3998
  273MPD2    H5 4186   1.408   0.691  11.244  0.9375  0.9909 -1.1392
  273MPD2    N1 4187   1.497   0.773  11.803  0.5030 -0.5059  0.3109
  273MPD2    H7 4188   1.446   0.760  11.890  0.8439 -1.5917  0.3408
  274TMC3    C1 4189   1.576   0.825  11.132  0.1798 -0.2066 -0.1688
  274TMC3    C2 4190   1.483   0.783  11.043  0.3456 -0.2951 -0.5010
  274TMC3    C3 4191   1.490   0.818  10.905 -0.2301  0.8948 -0.8375
  274TMC3    C4 4192   1.682   0.895  11.087 -0.1660 -0.0977  0.0409
  274TMC3    C5 4193   1.695   0.922  10.954  0.5889  0.1058 -0.6366
  274TMC3    C6 4194   1.596   0.890  10.863 -0.7858 -1.1090  0.0996
  274TMC3     C 4195   1.544   0.838  11.276  0.3953  0.7317  0.1405
  274TMC3     O 4196   1.616   0.905  11.345 -0.0832  0.6192  0.1528
  274TMC3     H 4197   1.391   0.736  11.077  0.1921 -0.6937 -1.4711
  274TMC3    H1 4198   1.755   0.933  11.157  1.3804  2.8644 -3.1159
  274TMC3    H2 4199   1.621   0.882  10.757 -2.2291  2.1559 -0.4854
  274TMC3    C7 4200   1.812   0.983  10.896 -0.0210 -0.5578 -0.4699
  274TMC3    C8 4201   1.369   0.786  10.824 -0.6709 -0.3965 -0.5937
  274TMC3    O1 4202   1.849   0.931  10.794 -0.6396 -0.5695  0.0951
  274TMC3    O2 4203   1.288   0.704  10.866  0.4546  0.0699 -0.5459
  275MPD2     C 4204   1.508   3.323  14.459 -0.1120 -0.2193 -0.3039
  275MPD2    C1 4205   1.577   3.215  14.514  0.0119  0.4291 -0.0303
  275MPD2    C2 4206   1.522   3.090  14.500 -0.6807 -0.2461 -0.6135
  275MPD2    C3 4207   1.397   3.074  14.434 -0.6881  0.4464 -0.2897
  275MPD2    C4 4208   1.339   3.194  14.386  0.7296 -0.4350 -0.5973
  275MPD2    C5 4209   1.393   3.312  14.392 -0.6952  0.4686  0.6019
  275MPD2     H 4210   1.577   3.006  14.542 -0.6129  0.8679  1.5422
  275MPD2    H1 4211   1.249   3.193  14.326  1.1904 -1.9135 -1.2620
  275MPD2    H2 4212   1.538   3.427  14.455 -0.5678 -0.0835 -0.1138
  275MPD2    H3 4213   1.353   3.396  14.337  0.7179  1.5033  1.1411
  275MPD2     N 4214   1.318   2.956  14.428 -0.0608  0.2994 -0.2456
  275MPD2    H5 4215   1.218   2.964  14.411  0.0650 -0.5707 -1.3653
  275MPD2    N1 4216   1.700   3.236  14.579  0.0025  0.1369  0.1990
  275MPD2    H7 4217   1.756   3.155  14.605 -0.5307 -0.4040 -0.3436
  276TMC3    C1 4218   1.852   3.349  14.723  0.7620 -0.0459  0.0806
  276TMC3    C2 4219   1.807   3.271  14.823 -0.0153  0.0422 -0.3035
  276TMC3    C3 4220   1.845   3.305  14.952 -0.2336  0.2299  0.4738
  276TMC3    C4 4221   1.920   3.462  14.749  0.4990  0.0317  0.3024
  276TMC3    C5 4222   1.959   3.489  14.880  0.2170 -0.2056 -0.0607
  276TMC3    C6 4223   1.937   3.402  14.978 -0.6443 -0.0769 -0.0520
  276TMC3     C 4224   1.766   3.353  14.608  0.8708  0.3951 -0.1797
  276TMC3     O 4225   1.748   3.465  14.556 -0.1361  0.2037  0.3482
  276TMC3     H 4226   1.744   3.184  14.810  0.8118 -0.6002 -0.0177
  276TMC3    H1 4227   1.936   3.531  14.668 -0.4106  1.8680  1.7000
  276TMC3    H2 4228   1.952   3.434  15.080 -0.6975 -0.0934 -0.0388
  276TMC3    C7 4229   2.060   3.586  14.907 -0.7316  0.3821 -0.2624
  276TMC3    C8 4230   1.742   3.301  15.050 -0.5148 -0.1437 -0.4286
  276TMC3    O1 4231   2.111   3.577  15.019 -0.1143 -0.3829 -0.3218
  276TMC3    O2 4232   1.718   3.405  15.112 -0.1716  0.3011  0.1315
  277MPD2     C 4233   2.859   2.961  13.204  0.8003 -0.6345  0.9850
  277MPD2    C1 4234   2.777   2.910  13.100  0.6332  0.3011 -0.4448
  277MPD2    C2 4235   2.679   2.824  13.132 -0.0881  0.1898  0.1468
  277MPD2    C3 4236   2.662   2.765  13.256 -0.1096  0.2152 -0.9766
  277MPD2    C4 4237   2.738   2.813  13.356 -0.4952 -0.3412  0.3567
  277MPD2    C5 4238   2.835   2.907  13.334 -0.4302  0.7030  0.7170
  277MPD2     H 4239   2.610   2.781  13.060  1.6499  0.0685 -1.4616
  277MPD2    H1 4240   2.713   2.778  13.456  4.2910 -1.2836  1.2136
  277MPD2    H2 4241   2.933   3.038  13.186 -1.5877  1.4390  0.0297
  277MPD2    H3 4242   2.900   2.936  13.416  1.6092  0.1513 -0.7232
  277MPD2     N 4243   2.563   2.661  13.274 -0.3920  0.4592  0.1870
  277MPD2    H5 4244   2.501   2.644  13.195 -2.5339 -0.0329  1.9665
  277MPD2    N1 4245   2.798   2.961  12.964  0.2304 -0.1660  0.4141
  277MPD2    H7 4246   2.854   3.045  12.956 -1.1700  0.7584  0.4200
  278TMC3    C1 4247   2.453   2.465  13.364  0.1645  1.0740  0.5855
  278TMC3    C2 4248   2.483   2.354  13.437  0.1433 -0.1811 -0.3858
  278TMC3    C3 4249   2.388   2.255  13.426 -0.3828  0.3804 -0.3901
  278TMC3    C4 4250   2.329   2.499  13.307 -0.2697 -0.2968  0.3084
  278TMC3    C5 4251   2.235   2.399  13.309 -0.3627 -0.0016  0.1211
  278TMC3    C6 4252   2.262   2.277  13.375 -0.6555  0.1327 -0.5555
  278TMC3     C 4253   2.564   2.565  13.370 -0.6600  0.0218 -0.5913
  278TMC3     O 4254   2.648   2.550  13.455  0.2279  0.4330  0.5803
  278TMC3     H 4255   2.580   2.334  13.481 -1.1732 -1.4749  1.9275
  278TMC3    H1 4256   2.311   2.594  13.259  0.0575 -0.1267  0.5179
  278TMC3    H2 4257   2.184   2.202  13.381  0.7685 -1.4094 -1.2080
  278TMC3    C7 4258   2.100   2.457  13.328 -0.0186 -0.2275 -0.0415
  278TMC3    C8 4259   2.422   2.126  13.490  0.3948  0.8859 -0.2797
  278TMC3    O1 4260   2.072   2.552  13.258  0.6539 -0.8878 -0.6681
  278TMC3    O2 4261   2.531   2.117  13.540  0.5030  0.3399 -0.3687
  279MPD2     C 4262   2.701   1.784  17.568  0.1993  0.5354  0.6171
  279MPD2    C1 4263   2.608   1.833  17.667 -0.0380  0.8479  0.1273
  279MPD2    C2 4264   2.511   1.926  17.625 -0.8585 -0.3854 -0.2254
  279MPD2    C3 4265   2.508   1.964  17.493 -0.2485 -0.3092 -0.0793
  279MPD2    C4 4266   2.601   1.922  17.408  0.5974 -0.3399 -0.4846
  279MPD2    C5 4267   2.697   1.833  17.444  0.4835  1.1261  0.2464
  279MPD2     H 4268   2.441   1.968  17.696 -0.2136 -0.2466  0.3246
  279MPD2    H1 4269   2.599   1.961  17.307  2.3240  0.7119 -0.1214
  279MPD2    H2 4270   2.780   1.712  17.585  1.8137  2.3655  0.8751
  279MPD2    H3 4271   2.759   1.790  17.367 -1.3917 -0.0289 -0.6000
  279MPD2     N 4272   2.409   2.049  17.438 -0.2366 -0.4464  0.2848
  279MPD2    H5 4273   2.421   2.088  17.345  0.7390 -2.1503 -0.3047
  279MPD2    N1 4274   2.634   1.795   0.046  0.9110  0.1399  0.1368
  279MPD2    H7 4275   2.723   1.747   0.051  1.5489  1.3642  0.3814
  280TMC3    C1 4276   2.416   1.821   0.136 -0.3389 -0.7636 -0.4302
  280TMC3    C2 4277   2.355   1.720   0.064  0.3514 -0.0283  0.5307
  280TMC3    C3 4278   2.223   1.729   0.025 -0.6656  0.0201  0.1728
  280TMC3    C4 4279   2.342   1.928   0.180  0.0879 -0.3572  0.5441
  280TMC3    C5 4280   2.208   1.931   0.140  0.4811 -0.4009 -0.2784
  280TMC3    C6 4281   2.150   1.839   0.064 -0.7766  0.5296  0.1984
  280TMC3     C 4282   2.559   1.831   0.153 -0.3720  0.4793 -0.2043
  280TMC3     O 4283   2.598   1.830   0.267  0.4705 -0.3075 -0.3735
  280TMC3     H 4284   2.422   1.642   0.031 -1.6846 -1.0641 -1.1215
  280TMC3    H1 4285   2.387   2.012   0.232 -2.6691  1.0952  0.5965
  280TMC3    H2 4286   2.047   1.847   0.031 -0.2540 -0.4286 -1.6238
  280TMC3    C7 4287   2.123   2.016   0.218  0.0539 -0.2199 -0.4203
  280TMC3    C8 4288   2.178   1.657  17.665  0.2312  0.1987 -0.1519
  280TMC3    O1 4289   2.181   2.053   0.320 -0.1837 -0.0439  0.0197
  280TMC3    O2 4290   2.073   1.693  17.605 -0.3115  0.0628  0.3117
  281TMC3    C1 4291   1.396   2.238  13.388  0.0747  0.0392 -0.4037
  281TMC3    C2 4292   1.455   2.317  13.290  0.4575 -0.0973 -0.2529
  281TMC3    C3 4293   1.461   2.268  13.163 -0.4608  0.4217  0.0572
  281TMC3    C4 4294   1.360   2.106  13.364  0.2460 -0.1102  0.3512
  281TMC3    C5 4295   1.370   2.061  13.235 -0.0992  0.0552 -0.6134
  281TMC3    C6 4296   1.416   2.145  13.136  0.4965  0.2746  0.3785
  281TMC3     C 4297   1.344   2.296  13.509 -0.8262 -0.1609 -0.2578
  281TMC3     O 4298   1.334   2.218  13.605  0.2603  0.6945 -0.2525
  281TMC3     H 4299   1.491   2.413  13.322  1.2063  0.1185 -1.7123
  281TMC3    H1 4300   1.302   2.053  13.439 -0.7427  1.7019  0.8420
  281TMC3    H2 4301   1.418   2.112  13.033 -1.0961 -0.9200  0.7284
  281TMC3    C7 4302   1.299   1.939  13.199  0.6185  0.4136  0.4179
  281TMC3    C8 4303   1.561   2.324  13.074 -0.4418  0.0822 -0.0115
  281TMC3    O1 4304   1.273   1.917  13.084 -0.5948 -0.1330  0.4428
  281TMC3    O2 4305   1.634   2.237  13.025 -0.1869  0.0552  0.1311
  282MPD2     C 4306   3.476   3.895  14.652  0.4416 -0.5568 -0.0422
  282MPD2    C1 4307   3.358   3.959  14.691 -0.1959 -0.2571 -1.2009
  282MPD2    C2 4308   3.243   3.929  14.610 -0.3880  1.0377 -0.0928
  282MPD2    C3 4309   3.242   3.838  14.509 -0.0127 -0.2842  0.0842
  282MPD2    C4 4310   3.365   3.780  14.474  0.8981  0.3191 -0.4338
  282MPD2    C5 4311   3.479   3.809  14.543 -0.0528  0.5681 -0.1380
  282MPD2     H 4312   3.148   3.973  14.636 -1.4152 -1.7149  0.8474
  282MPD2    H1 4313   3.378   3.713  14.390  0.2000  0.7377 -0.8698
  282MPD2    H2 4314   3.570   3.915  14.703  0.1169  2.4969 -0.5949
  282MPD2    H3 4315   3.565   3.748  14.517  0.1226  1.3231 -1.3246
  282MPD2     N 4316   3.128   3.832  14.428 -0.0859  0.4215 -0.3253
  282MPD2    H5 4317   3.043   3.872  14.466  0.9928  2.7786 -0.3870
  282MPD2    N1 4318   3.339   4.042  14.803  0.6649  0.5310 -0.4786
  282MPD2    H7 4319   3.241   4.059  14.826 -0.0276 -4.3720  0.1746
  283TMC3    C1 4320   3.360   4.177  14.980  0.4034  0.3372  1.2755
  283TMC3    C2 4321   3.417   4.291  15.027 -0.8725  0.7380  0.5539
  283TMC3    C3 4322   3.336   4.374  15.105 -0.2146 -0.4759  0.0361
  283TMC3    C4 4323   3.236   4.133  15.019  0.0693 -0.3026 -0.0732
  283TMC3    C5 4324   3.163   4.219  15.103  0.2907 -0.3176 -0.4177
  283TMC3    C6 4325   3.210   4.344  15.150 -0.3900  0.0886 -0.1120
  283TMC3     C 4326   3.434   4.099  14.883 -0.4528  0.1970  0.6088
  283TMC3     O 4327   3.556   4.099  14.883  0.3792  0.0229  0.7694
  283TMC3     H 4328   3.519   4.312  14.996 -0.9704 -1.4246 -1.2659
  283TMC3    H1 4329   3.205   4.030  15.004  0.5243 -0.2990 -1.0247
  283TMC3    H2 4330   3.151   4.407  15.216 -1.5983  1.0266 -2.1068
  283TMC3    C7 4331   3.058   4.159  15.185  0.3277  0.3556  0.5552
  283TMC3    C8 4332   3.400   4.493  15.152  0.0187 -0.2946  0.7456
  283TMC3    O1 4333   3.055   4.206  15.298 -0.3196  0.2327 -0.0155
  283TMC3    O2 4334   3.519   4.488  15.178 -0.4891  0.2983  0.1708
  284MPD2     C 4335   0.845   3.485  12.151  0.0832  0.4319  0.4282
  284MPD2    C1 4336   0.980   3.473  12.156  1.1187  0.0385  0.7308
  284MPD2    C2 4337   1.037   3.373  12.228  0.6822 -0.4011  0.6320
  284MPD2    C3 4338   0.956   3.290  12.300 -0.7867 -0.9853 -0.3955
  284MPD2    C4 4339   0.820   3.299  12.295  0.1698  0.0491  0.2220
  284MPD2    C5 4340   0.768   3.393  12.216 -0.2951 -0.1720  0.8135
  284MPD2     H 4341   1.144   3.359  12.221  0.3973 -1.6206 -1.4666
  284MPD2    H1 4342   0.750   3.232  12.345  0.5773  1.5374  2.7751
  284MPD2    H2 4343   0.790   3.553  12.088  1.1746  0.3190 -0.6406
  284MPD2    H3 4344   0.661   3.405  12.216 -0.3863 -0.9917  0.8909
  284MPD2     N 4345   1.023   3.193  12.374 -0.3818 -0.7152 -0.2400
  284MPD2    H5 4346   1.124   3.190  12.369 -0.3614 -1.7370  0.8830
  284MPD2    N1 4347   1.068   3.545  12.073  0.3364  0.3802  0.1069
  284MPD2    H7 4348   1.168   3.527  12.071  0.2665  0.0421 -0.6682
  285TMC3    C1 4349   1.139   3.699  11.917 -0.6519 -0.0753  0.0772
  285TMC3    C2 4350   1.243   3.616  11.892  0.3225 -0.9006 -0.4608
  285TMC3    C3 4351   1.357   3.661  11.840  1.0133 -0.2584  0.2307
  285TMC3    C4 4352   1.137   3.837  11.880  0.0343  0.3968  0.2457
  285TMC3    C5 4353   1.264   3.878  11.825 -0.3356  0.2228  0.1364
  285TMC3    C6 4354   1.373   3.796  11.800  0.1040  0.0065 -0.6541
  285TMC3     C 4355   1.033   3.651  12.001 -0.7296 -0.2669 -0.4945
  285TMC3     O 4356   0.926   3.713  11.984  0.7222  0.2041 -0.0847
  285TMC3     H 4357   1.238   3.510  11.912 -1.3687 -1.0090 -1.5003
  285TMC3    H1 4358   1.061   3.906  11.914 -0.5582  0.1435 -0.5495
  285TMC3    H2 4359   1.457   3.844  11.752 -1.3433  2.1055 -1.0536
  285TMC3    C7 4360   1.263   4.004  11.753  0.0468  0.4157  0.1281
  285TMC3    C8 4361   1.442   3.564  11.779  0.0738  0.1465  0.5807
  285TMC3    O1 4362   1.350   4.012  11.668 -0.2328 -0.1323 -0.3044
  285TMC3    O2 4363   1.406   3.443  11.778 -0.1813  0.2444 -0.2807
  286MPD2     C 4364   1.242   1.530   1.029 -0.0535  0.1306 -0.2958
  286MPD2    C1 4365   1.199   1.506   0.903 -0.0463  0.7060 -0.7554
  286MPD2    C2 4366   1.289   1.431   0.825 -0.5349 -0.1600  0.8743
  286MPD2    C3 4367   1.406   1.389   0.879  0.2776 -0.1431  1.2648
  286MPD2    C4 4368   1.446   1.415   1.005  0.2192 -0.6447 -0.0153
  286MPD2    C5 4369   1.356   1.485   1.084 -0.1924 -0.2863 -0.1616
  286MPD2     H 4370   1.249   1.402   0.729 -2.4915 -1.8327  2.1894
  286MPD2    H1 4371   1.546   1.389   1.038 -0.2443  0.0426  1.9332
  286MPD2    H2 4372   1.176   1.584   1.095  1.7154  0.7950  0.9326
  286MPD2    H3 4373   1.369   1.515   1.187 -0.4414  0.8404 -0.4605
  286MPD2     N 4374   1.503   1.317   0.809  0.0241 -0.8779 -0.0248
  286MPD2    H5 4375   1.587   1.291   0.860 -0.2437 -0.3115  0.6916
  286MPD2    N1 4376   1.083   1.559   0.844 -0.3879 -0.0111 -0.2179
  286MPD2    H7 4377   1.066   1.536   0.746  0.9818 -0.2235 -0.4074
  287TMC3    C1 4378   1.620   1.201   0.636  0.6287 -0.7534  0.3339
  287TMC3    C2 4379   1.610   1.145   0.517 -0.2062 -0.0394 -0.9750
  287TMC3    C3 4380   1.707   1.068   0.473 -0.2598  0.3796  1.0195
  287TMC3    C4 4381   1.717   1.161   0.730 -0.8080 -0.9894 -0.1634
  287TMC3    C5 4382   1.818   1.087   0.673  0.6678 -0.3127  0.0532
  287TMC3    C6 4383   1.812   1.035   0.546 -0.1995 -0.1263  0.2324
  287TMC3     C 4384   1.513   1.290   0.674  0.0549 -0.2563  0.1576
  287TMC3     O 4385   1.442   1.346   0.590 -0.5665 -0.3980 -0.1088
  287TMC3     H 4386   1.526   1.167   0.451  1.6135  0.3711 -3.1370
  287TMC3    H1 4387   1.714   1.198   0.831 -1.3239  0.2058 -0.6120
  287TMC3    H2 4388   1.908   1.001   0.507  1.3907  1.3405  2.9068
  287TMC3    C7 4389   1.923   1.048   0.765  0.7743 -0.1049  0.1218
  287TMC3    C8 4390   1.703   1.037   0.329  0.4007  0.8828  0.4189
  287TMC3    O1 4391   1.913   1.108   0.875 -0.5925 -0.1469 -0.3240
  287TMC3    O2 4392   1.620   1.096   0.259  0.0120  0.4716  1.0893
  288TMC3    C1 4393   2.864   2.437  13.766 -0.0230  0.7108 -0.1165
  288TMC3    C2 4394   2.911   2.416  13.894 -0.1162  0.4547  0.4663
  288TMC3    C3 4395   2.822   2.359  13.981  0.1889 -0.5874  0.0050
  288TMC3    C4 4396   2.733   2.403  13.733 -0.1562 -0.0913 -0.4080
  288TMC3    C5 4397   2.642   2.361  13.826 -0.5177 -0.3595  1.0297
  288TMC3    C6 4398   2.689   2.333  13.952 -0.5000 -0.8994  0.1243
  288TMC3     C 4399   2.970   2.438  13.662  0.0746  0.3237 -0.3088
  288TMC3     O 4400   3.083   2.408  13.703 -0.6852 -0.3437 -0.5260
  288TMC3     H 4401   3.001   2.462  13.932  0.6629 -1.4293  0.8856
  288TMC3    H1 4402   2.694   2.409  13.633 -1.0302 -0.0073 -0.0638
  288TMC3    H2 4403   2.619   2.294  14.025 -2.1620 -0.2783 -1.1438
  288TMC3    C7 4404   2.509   2.408  13.821 -0.1195 -1.0851  0.6702
  288TMC3    C8 4405   2.844   2.372  14.120  1.0041  0.7996 -0.4734
  288TMC3    O1 4406   2.424   2.339  13.879  0.1996 -0.6152  0.2913
  288TMC3    O2 4407   2.908   2.474  14.160 -0.0761  0.1144  0.1315
  289MPD2     C 4408   3.197   1.028  14.289  0.9293  0.1229 -0.6177
  289MPD2    C1 4409   3.181   1.128  14.193  0.4106  0.4027 -1.0157
  289MPD2    C2 4410   3.048   1.155  14.150  1.0136 -0.3974 -0.3669
  289MPD2    C3 4411   2.943   1.093  14.214 -0.0582 -0.5855 -0.6686
  289MPD2    C4 4412   2.967   0.997  14.314 -0.3402 -0.4511 -0.0976
  289MPD2    C5 4413   3.090   0.956  14.345 -0.3056 -0.7070 -0.2446
  289MPD2     H 4414   3.039   1.239  14.082  2.0716 -0.0073 -0.0189
  289MPD2    H1 4415   2.885   0.941  14.358 -1.2596  1.1644  0.2642
  289MPD2    H2 4416   3.296   0.999  14.321  0.7763  1.1452  0.7694
  289MPD2    H3 4417   3.101   0.875  14.416 -1.4297 -0.5658  0.0913
  289MPD2     N 4418   2.807   1.118  14.177  0.3061 -0.0605  0.4641
  289MPD2    H5 4419   2.746   1.051  14.223  0.1534 -0.1820  0.0844
  289MPD2    N1 4420   3.295   1.195  14.146  0.1419 -0.6266  0.4670
  289MPD2    H7 4421   3.381   1.181  14.198  0.3521 -0.7212  0.0891
  290TMC3    C1 4422   2.616   1.235  14.092 -0.1765 -0.3465 -0.5183
  290TMC3    C2 4423   2.569   1.359  14.066  0.1820 -0.0172 -0.3146
  290TMC3    C3 4424   2.434   1.364  14.042 -0.1500 -0.3048  0.1463
  290TMC3    C4 4425   2.533   1.124  14.092  0.1928  0.1011 -0.0329
  290TMC3    C5 4426   2.397   1.143  14.085 -0.5266 -0.3537 -0.5930
  290TMC3    C6 4427   2.348   1.264  14.050 -0.0663  0.1101  0.2641
  290TMC3     C 4428   2.766   1.222  14.102  0.0439 -0.3892 -0.1055
  290TMC3     O 4429   2.822   1.317  14.055 -0.2928 -0.3267  0.0550
  290TMC3     H 4430   2.626   1.450  14.078 -0.1980  0.1866 -0.0610
  290TMC3    H1 4431   2.584   1.035  14.127 -0.7810 -0.4623 -0.0490
  290TMC3    H2 4432   2.243   1.276  14.025 -0.4143  0.6914  1.9653
  290TMC3    C7 4433   2.309   1.028  14.075 -0.7257 -0.3372  0.0368
  290TMC3    C8 4434   2.382   1.481  13.977  0.0852  0.8364  0.2818
  290TMC3    O1 4435   2.202   1.053  14.021 -0.5963  0.6005  0.1029
  290TMC3    O2 4436   2.301   1.473  13.888 -0.1832  0.1653 -0.0229
  291MPD2     C 4437   2.655   0.863   0.169 -0.0240  0.4843 -0.4776
  291MPD2    C1 4438   2.684   0.730   0.151  0.5056 -0.0557  0.0808
  291MPD2    C2 4439   2.813   0.690   0.184  0.2225 -0.3351 -0.5854
  291MPD2    C3 4440   2.905   0.784   0.224 -0.1789 -0.4072 -0.5060
  291MPD2    C4 4441   2.877   0.917   0.228  0.2726  0.1944  0.4313
  291MPD2    C5 4442   2.748   0.955   0.204  0.6616 -0.0241 -1.7920
  291MPD2     H 4443   2.843   0.587   0.195 -1.4348 -0.2848  4.2627
  291MPD2    H1 4444   2.964   0.977   0.250  1.0779 -0.4503 -1.0229
  291MPD2    H2 4445   2.553   0.899   0.155 -0.3299 -0.1660  0.1216
  291MPD2    H3 4446   2.714   1.058   0.211  3.4223  0.6025  2.3291
  291MPD2     N 4447   3.026   0.751   0.289 -0.3405 -0.4004  0.2543
  291MPD2    H5 4448   3.083   0.833   0.309 -0.9444  0.8718 -3.4248
  291MPD2    N1 4449   2.590   0.633   0.106  0.6677  0.1587  0.1164
  291MPD2    H7 4450   2.627   0.539   0.096  0.8106  0.2760 -0.4766
  292TMC3    C1 4451   2.385   0.528   0.072 -0.2604 -0.3668 -1.1286
  292TMC3    C2 4452   2.259   0.515   0.134  0.1284 -0.3458  0.7814
  292TMC3    C3 4453   2.199   0.394   0.119  0.0345 -0.6877  0.2024
  292TMC3    C4 4454   2.447   0.425   0.009 -0.4178  0.3989  0.0772
  292TMC3    C5 4455   2.382   0.309  17.746 -0.1934  0.0433  0.3966
  292TMC3    C6 4456   2.252   0.287   0.048  0.2017  0.0286 -0.1392
  292TMC3     C 4457   2.454   0.649   0.103 -0.0933 -0.3605 -0.1449
  292TMC3     O 4458   2.380   0.747   0.126  0.0228 -0.0957  0.5042
  292TMC3     H 4459   2.227   0.591   0.204  0.0217  0.5705 -0.2716
  292TMC3    H1 4460   2.542   0.438  17.715 -0.0223  0.7349  0.9116
  292TMC3    H2 4461   2.210   0.187   0.051  1.3765 -0.4388  0.4841
  292TMC3    C7 4462   2.447   0.200  17.665 -0.3507 -0.4719 -0.3308
  292TMC3    C8 4463   2.071   0.381   0.185 -0.4010 -0.4124 -0.8249
  292TMC3    O1 4464   2.568   0.193  17.643 -0.6188 -0.1627 -0.5118
  292TMC3    O2 4465   2.031   0.479   0.252  0.3040 -0.1379  0.3487
  293MPD2     C 4466   4.065   2.222  12.404 -0.1423 -0.0097 -0.0984
  293MPD2    C1 4467   3.963   2.202  12.495  0.1367  0.3877 -0.4184
  293MPD2    C2 4468   3.992   2.185  12.632 -0.2638  0.4037 -0.0584
  293MPD2    C3 4469   4.124   2.174  12.679  0.8271 -0.0245  0.4132
  293MPD2    C4 4470   4.222   2.170  12.578  0.0120 -0.7661  0.1723
  293MPD2    C5 4471   4.194   2.199  12.446  0.5336  0.8386 -0.1401
  293MPD2     H 4472   3.909   2.191  12.702 -0.5817 -0.1165 -0.3906
  293MPD2    H1 4473   4.327   2.149  12.594  0.6499  1.8299 -0.6151
  293MPD2    H2 4474   4.054   2.252  12.301  1.1592  1.5578  0.2180
  293MPD2    H3 4475   4.271   2.201  12.370  0.2068  0.3489 -0.4910
  293MPD2     N 4476   4.145   2.176  12.815 -0.1811  0.6404 -0.3171
  293MPD2    H5 4477   4.065   2.170  12.876 -1.2264  2.0525 -1.5570
  293MPD2    N1 4478   3.827   2.230  12.460 -1.0669 -0.0112  0.1112
  293MPD2    H7 4479   3.813   2.280  12.373 -0.3817  0.8845  0.5129
  294TMC3    C1 4480   3.598   2.199  12.430  0.2550 -0.3629  0.1374
  294TMC3    C2 4481   3.497   2.110  12.450 -0.1127 -0.7800 -0.6135
  294TMC3    C3 4482   3.368   2.162  12.457 -1.0391  0.7431  0.3144
  294TMC3    C4 4483   3.578   2.329  12.411  0.4252  0.0600 -0.3627
  294TMC3    C5 4484   3.449   2.379  12.419  0.1835  0.0371  0.3078
  294TMC3    C6 4485   3.339   2.295  12.433  0.2570  0.5350 -0.1681
  294TMC3     C 4486   3.715   2.163  12.504 -0.2283 -0.1566  0.1241
  294TMC3     O 4487   3.701   2.065  12.576 -0.7235 -0.5203 -0.2980
  294TMC3     H 4488   3.521   2.005  12.458  0.9048 -0.5430 -0.5534
  294TMC3    H1 4489   3.660   2.401  12.411  1.8635 -1.5898 -1.8349
  294TMC3    H2 4490   3.239   2.336  12.433  1.2747  3.0120  0.5834
  294TMC3    C7 4491   3.425   2.512  12.357  0.0031 -0.3222 -0.3700
  294TMC3    C8 4492   3.267   2.062  12.430 -0.1337 -0.3431 -1.2386
  294TMC3    O1 4493   3.334   2.590  12.395  0.0694  0.0773 -0.6742
  294TMC3    O2 4494   3.166   2.063  12.502  0.3330  0.2029  0.4212
  295MPD2     C 4495   4.278   0.912   0.763  0.4443 -0.4601 -0.8219
  295MPD2    C1 4496   4.297   0.804   0.676 -0.2527  0.7770  0.0132
  295MPD2    C2 4497   4.215   0.701   0.695  0.6011  0.0240  0.2854
  295MPD2    C3 4498   4.119   0.697   0.797 -0.3490  0.2693 -0.3680
  295MPD2    C4 4499   4.104   0.804   0.874 -0.0591  0.3861 -0.1360
  295MPD2    C5 4500   4.180   0.910   0.864  0.7582 -0.3938 -0.4263
  295MPD2     H 4501   4.224   0.619   0.625  0.2164 -0.2077  0.5062
  295MPD2    H1 4502   4.023   0.815   0.946  0.8679 -3.7476  1.5237
  295MPD2    H2 4503   4.352   0.991   0.755 -1.0542  0.9367 -0.9700
  295MPD2    H3 4504   4.154   0.999   0.919  1.6009 -0.0699 -0.5508
  295MPD2     N 4505   4.033   0.588   0.821 -0.8652  0.3485 -0.5335
  295MPD2    H5 4506   3.971   0.596   0.900 -0.0116  0.9546  0.0754
  295MPD2    N1 4507   4.402   0.806   0.576  0.4385 -0.0306 -0.1567
  295MPD2    H7 4508   4.449   0.894   0.556 -0.5503  1.1862  2.8273
  296TMC3    C1 4509   3.979   0.359   0.851  0.8634 -0.3330 -0.5249
  296TMC3    C2 4510   3.852   0.397   0.874  0.5351  0.8154 -0.0467
  296TMC3    C3 4511   3.773   0.308   0.938 -0.5762  0.9331 -0.1605
  296TMC3    C4 4512   4.020   0.229   0.875 -1.2623 -1.0798 -0.1896
  296TMC3    C5 4513   3.938   0.136   0.940 -0.2529  0.1064 -0.1417
  296TMC3    C6 4514   3.810   0.174   0.957  0.1681  0.2229  0.7042
  296TMC3     C 4515   4.065   0.456   0.779  0.6383 -0.1640 -0.7692
  296TMC3     O 4516   4.158   0.416   0.710  0.5751  0.0969 -0.4280
  296TMC3     H 4517   3.802   0.480   0.826  0.1694  0.7030  0.1389
  296TMC3    H1 4518   4.126   0.220   0.853 -1.1453 -0.7330  0.2289
  296TMC3    H2 4519   3.747   0.110   1.018 -2.4636  1.3371 -0.8747
  296TMC3    C7 4520   3.978   4.735   0.925 -0.4207  0.2870 -0.4111
  296TMC3    C8 4521   3.641   0.351   0.985  0.6831 -0.6808 -0.1050
  296TMC3    O1 4522   4.081   4.728   0.861 -0.7157 -0.1538 -0.6497
  296TMC3    O2 4523   3.557   0.266   1.021 -0.0343 -0.5158  0.1712
  297MPD2     C 4524   2.175   3.042  16.191  0.2404  0.2952  0.2461
  297MPD2    C1 4525   2.157   3.153  16.115  0.6608 -0.2176  0.4269
  297MPD2    C2 4526   2.262   3.177  16.031  0.1762 -0.1991 -0.2504
  297MPD2    C3 4527   2.382   3.109  16.026  0.0512  0.2285  0.1235
  297MPD2    C4 4528   2.391   3.002  16.110 -0.4310 -0.5349 -0.4320
  297MPD2    C5 4529   2.283   2.968  16.192 -0.2991 -0.0652 -0.6343
  297MPD2     H 4530   2.253   3.271  15.978 -1.1785 -0.1430  0.0887
  297MPD2    H1 4531   2.473   2.931  16.101  0.2467  0.0460  1.2461
  297MPD2    H2 4532   2.096   3.004  16.256  0.9881 -1.3039  0.2161
  297MPD2    H3 4533   2.285   2.872  16.243  1.3473 -0.1715 -0.8846
  297MPD2     N 4534   2.487   3.154  15.944  0.0411  0.5975  0.0115
  297MPD2    H5 4535   2.471   3.243  15.898  0.6375  0.4196 -0.5318
  297MPD2    N1 4536   2.038   3.229  16.101  0.1868 -0.1750 -0.1716
  297MPD2    H7 4537   2.035   3.307  16.035 -1.2674  1.2593  1.5625
  298TMC3    C1 4538   1.821   3.310  16.158  0.1193 -0.6305 -0.3676
  298TMC3    C2 4539   1.804   3.376  16.041  0.3919 -0.1291 -0.1004
  298TMC3    C3 4540   1.685   3.441  16.025  0.2118 -0.2860  0.4923
  298TMC3    C4 4541   1.727   3.306  16.257 -0.4601 -0.2466  0.2195
  298TMC3    C5 4542   1.602   3.362  16.228  0.6634 -0.0218 -0.1291
  298TMC3    C6 4543   1.580   3.426  16.112  0.0522  0.0838  0.5942
  298TMC3     C 4544   1.924   3.211  16.179 -0.9290  0.8386 -0.2803
  298TMC3     O 4545   1.912   3.140  16.275  0.4727 -0.0772 -0.0832
  298TMC3     H 4546   1.880   3.374  15.963  1.6377 -1.0056  1.1261
  298TMC3    H1 4547   1.740   3.256  16.353 -3.5933 -1.1936  0.1532
  298TMC3    H2 4548   1.495   3.494  16.113  0.3105  0.4326 -1.1126
  298TMC3    C7 4549   1.494   3.364  16.324  0.4347 -0.0271 -1.5688
  298TMC3    C8 4550   1.661   3.544  15.923 -0.0434 -0.3381  0.2492
  298TMC3    O1 4551   1.524   3.312  16.435 -0.1713  0.1840  0.3999
  298TMC3    O2 4552   1.551   3.600  15.918 -0.4006 -0.3925 -0.4123
  299MPD2     C 4553   2.452   3.185  10.241  0.4614 -0.6817  0.3896
  299MPD2    C1 4554   2.383   3.119  10.343 -1.1602 -0.1706 -0.4048
  299MPD2    C2 4555   2.252   3.078  10.321 -0.2195  0.8446  0.4400
  299MPD2    C3 4556   2.196   3.091  10.197 -0.5155 -1.4188 -0.8249
  299MPD2    C4 4557   2.262   3.164  10.097 -0.1132 -0.3773 -0.2625
  299MPD2    C5 4558   2.391   3.192  10.120  0.3161 -0.6007  0.1569
  299MPD2     H 4559   2.189   3.033  10.397 -1.3482  2.7657  0.6504
  299MPD2    H1 4560   2.217   3.189  10.001 -1.4837  0.7222  0.6702
  299MPD2    H2 4561   2.555   3.217  10.252  0.6806 -1.7218  1.4232
  299MPD2    H3 4562   2.446   3.228  10.034  0.0053  0.4760  0.4145
  299MPD2     N 4563   2.061   3.063  10.167  0.4183  0.8536 -0.6374
  299MPD2    H5 4564   2.027   3.085  10.074  0.3009  0.8960 -0.5851
  299MPD2    N1 4565   2.460   3.091  10.460 -0.4723 -0.1448  0.3169
  299MPD2    H7 4566   2.557   3.121  10.462 -0.0824 -1.3080 -0.9934
  300TMC3    C1 4567   1.836   2.994  10.187 -0.1228  0.5352  0.2190
  300TMC3    C2 4568   1.792   3.080  10.090 -0.7759 -0.1606  0.2558
  300TMC3    C3 4569   1.651   3.076  10.063 -0.4385 -0.2416 -0.0960
  300TMC3    C4 4570   1.742   2.920  10.256  0.9198  0.3727 -0.4276
  300TMC3    C5 4571   1.609   2.916  10.224 -0.1349  0.2706  0.3267
  300TMC3    C6 4572   1.563   2.991  10.124 -0.5775  0.2302 -0.3054
  300TMC3     C 4573   1.969   3.008  10.253  0.6322  0.1295 -0.1902
  300TMC3     O 4574   1.982   2.952  10.360  0.4367 -0.0166  0.5276
  300TMC3     H 4575   1.848   3.159  10.041  2.8213 -1.2345  2.6692
  300TMC3    H1 4576   1.770   2.847  10.330  1.5758  0.6877 -0.3580
  300TMC3    H2 4577   1.458   2.992  10.097 -0.2838 -0.6136 -1.4696
  300TMC3    C7 4578   1.514   2.861  10.318 -0.4833  0.2135  0.1486
  300TMC3    C8 4579   1.601   3.189   9.982  0.4303  0.2686 -0.1134
  300TMC3    O1 4580   1.402   2.832  10.275  0.0603 -0.1299 -0.1193
  300TMC3    O2 4581   1.675   3.234   9.896  0.1332 -0.3194 -0.0700
  301MPD2     C 4582   4.153   2.843   1.420 -0.4616 -0.7647 -0.2480
  301MPD2    C1 4583   4.126   2.820   1.285  0.2228  0.4776 -0.8481
  301MPD2    C2 4584   4.200   2.722   1.214 -0.8752  0.0246  0.2211
  301MPD2    C3 4585   4.310   2.662   1.278  0.1253 -0.2175  0.1548
  301MPD2    C4 4586   4.349   2.698   1.406  0.0251  0.2305  0.8982
  301MPD2    C5 4587   4.257   2.776   1.480 -0.0671 -0.0522  0.6019
  301MPD2     H 4588   4.180   2.695   1.111  0.2434 -1.3958  0.3794
  301MPD2    H1 4589   4.443   2.662   1.445 -0.8726 -0.4291  2.4050
  301MPD2    H2 4590   4.092   2.916   1.472 -1.3570 -0.9912 -0.9808
  301MPD2    H3 4591   4.270   2.793   1.587 -1.6983  2.5049  0.3879
  301MPD2     N 4592   4.392   2.556   1.217  0.1040  0.1336  0.9952
  301MPD2    H5 4593   4.474   2.522   1.267  1.3400  0.7891 -0.6111
  301MPD2    N1 4594   4.011   2.874   1.222 -0.3846  0.1561 -0.2650
  301MPD2    H7 4595   3.985   2.825   1.136 -0.4048  0.4009 -0.3965
  302TMC3    C1 4596   4.445   2.389   1.060  0.1011  0.5213  0.3509
  302TMC3    C2 4597   4.563   2.376   1.121 -0.0859  0.3170  0.0100
  302TMC3    C3 4598   4.662   2.303   1.056  0.3741 -0.7364 -0.5726
  302TMC3    C4 4599   4.431   2.344   0.933 -0.6066  0.0432  0.2714
  302TMC3    C5 4600   4.528   2.275   0.868 -0.6073  0.0418 -0.2084
  302TMC3    C6 4601   4.652   2.261   0.928 -1.3431 -0.5974 -0.0722
  302TMC3     C 4602   4.349   2.487   1.108 -0.4485  0.7159  0.0734
  302TMC3     O 4603   4.241   2.494   1.046 -0.4866  0.2089  0.1044
  302TMC3     H 4604   4.589   2.406   1.222  0.2852 -0.1193  0.0457
  302TMC3    H1 4605   4.331   2.349   0.892 -1.4672 -0.8547  2.2256
  302TMC3    H2 4606   4.726   2.190   0.892  0.1554  0.6136  0.6262
  302TMC3    C7 4607   4.509   2.241   0.729  0.3785 -0.2891  0.2737
  302TMC3    C8 4608   0.052   2.286   1.111 -0.4350  0.3714  0.0846
  302TMC3    O1 4609   4.556   2.135   0.693  0.0303 -0.3648 -1.0718
  302TMC3    O2 4610   0.138   2.258   1.031  0.2607  0.3377 -0.2900
  303MPD2     C 4611   0.343   2.254  10.745  0.3575  0.2185 -0.5438
  303MPD2    C1 4612   0.244   2.160  10.760 -0.9881  0.1953  0.4246
  303MPD2    C2 4613   0.181   2.113  10.652  0.2535 -0.2381  0.7726
  303MPD2    C3 4614   0.223   2.150  10.523 -0.0166 -0.5482  0.2936
  303MPD2    C4 4615   0.332   2.225  10.511 -0.4802 -0.2256  0.0827
  303MPD2    C5 4616   0.390   2.282  10.620  0.1339 -0.1747 -0.5412
  303MPD2     H 4617   0.098   2.046  10.669 -0.5758  1.1756  2.3163
  303MPD2    H1 4618   0.373   2.246  10.413 -0.3944  0.4423  0.2626
  303MPD2    H2 4619   0.382   2.300  10.835 -0.1924  1.4118 -0.9213
  303MPD2    H3 4620   0.480   2.339  10.605  0.0604  0.2993  0.8320
  303MPD2     N 4621   0.164   2.109  10.407 -0.6579  0.2184 -0.2077
  303MPD2    H5 4622   0.220   2.132  10.325  0.8000 -1.6593  0.2592
  303MPD2    N1 4623   0.208   2.125  10.891 -0.4039  0.1511 -0.1168
  303MPD2    H7 4624   0.244   2.183  10.966 -0.6631  0.1935 -0.0248
  304TMC3    C1 4625   0.073   2.034  11.067 -0.6701 -0.3766  0.4683
  304TMC3    C2 4626   0.022   2.155  11.108 -0.5345  0.9330  0.1475
  304TMC3    C3 4627   4.663   2.156  11.199  0.0383 -0.0388  0.0929
  304TMC3    C4 4628   0.033   1.917  11.122 -1.0787  0.0855  0.0828
  304TMC3    C5 4629   4.691   1.926  11.226 -0.2945  0.5225 -0.4864
  304TMC3    C6 4630   4.638   2.039  11.273  0.2328 -0.4524  0.0270
  304TMC3     C 4631   0.126   2.023  10.926  0.4150  0.8026 -0.9676
  304TMC3     O 4632   0.096   1.923  10.866 -0.2678  0.1721 -0.3841
  304TMC3     H 4633   0.053   2.243  11.054  0.2608  0.3108 -0.4202
  304TMC3    H1 4634   0.073   1.827  11.077  2.0999  1.4207  0.2270
  304TMC3    H2 4635   4.554   2.040  11.341  0.0423  2.5130 -0.2420
  304TMC3    C7 4636   4.591   1.812  11.229 -0.4093 -0.2341  0.5459
  304TMC3    C8 4637   4.535   2.199  11.132 -0.0891 -0.0597 -0.3967
  304TMC3    O1 4638   4.639   1.698  11.226 -0.4218 -0.1888 -0.9998
  304TMC3    O2 4639   4.438   2.122  11.145  0.6418 -0.7171 -0.1343
  305MPD2     C 4640   3.008   4.342  13.943  0.0586  0.4035  0.4749
  305MPD2    C1 4641   3.077   4.228  13.971 -0.0609 -0.0802  0.5146
  305MPD2    C2 4642   3.087   4.132  13.866 -0.3749  0.4440  0.3730
  305MPD2    C3 4643   3.022   4.138  13.749  0.0536  0.0097  0.1188
  305MPD2    C4 4644   2.953   4.248  13.723 -0.1235  0.3377 -0.3321
  305MPD2    C5 4645   2.949   4.346  13.817 -1.0871 -0.1922 -0.6290
  305MPD2     H 4646   3.125   4.033  13.889  0.4022  0.5602 -0.4175
  305MPD2    H1 4647   2.892   4.256  13.633 -0.6096 -0.5192 -0.0766
  305MPD2    H2 4648   2.992   4.430  14.005 -1.1738  0.6958 -0.2724
  305MPD2    H3 4649   2.877   4.424  13.796  0.4776  1.7841  1.3189
  305MPD2     N 4650   3.017   4.037  13.653 -0.6345  0.1092 -0.3491
  305MPD2    H5 4651   2.946   4.049  13.582  0.7193  2.0022 -1.3960
  305MPD2    N1 4652   3.154   4.228  14.093 -0.0893  0.2362  0.1986
  305MPD2    H7 4653   3.139   4.303  14.160 -1.3498  2.1413 -2.2075
  306TMC3    C1 4654   3.297   4.119  14.248  0.1451  0.4003 -0.2346
  306TMC3    C2 4655   3.403   4.037  14.245  0.0964 -0.1189 -0.3892
  306TMC3    C3 4656   3.518   4.080  14.307 -0.4510  0.2486 -0.3692
  306TMC3    C4 4657   3.290   4.232  14.318  0.3786 -0.4616 -0.5462
  306TMC3    C5 4658   3.403   4.264  14.397 -0.4161 -0.1924 -0.2308
  306TMC3    C6 4659   3.526   4.192  14.385  0.3085 -0.3393 -0.4801
  306TMC3     C 4660   3.228   4.120  14.120 -0.1462 -0.2027  0.4706
  306TMC3     O 4661   3.244   4.014  14.064 -0.2347  0.5461  0.5335
  306TMC3     H 4662   3.400   3.946  14.186 -0.6009 -0.9119  0.8701
  306TMC3    H1 4663   3.192   4.276  14.334  0.3377 -0.3262 -1.1613
  306TMC3    H2 4664   3.619   4.239  14.414  0.7470 -2.3755  1.4749
  306TMC3    C7 4665   3.378   4.364  14.502  0.5892 -0.3676 -0.2336
  306TMC3    C8 4666   3.630   4.002  14.276 -0.4322 -0.2813  0.1144
  306TMC3    O1 4667   3.295   4.444  14.481  0.3449 -0.3619 -0.2651
  306TMC3    O2 4668   3.618   3.944  14.170  0.1394 -0.2772  0.8645
  307MPD2     C 4669   0.978   2.118  17.629 -0.6454 -0.2714 -1.2088
  307MPD2    C1 4670   0.921   2.229  17.686  0.7027 -0.0207 -0.3695
  307MPD2    C2 4671   0.846   2.210   0.047 -0.2783  0.6846  0.1672
  307MPD2    C3 4672   0.833   2.085   0.113  0.4884  0.5182 -0.1226
  307MPD2    C4 4673   0.896   1.976   0.055  0.2876  0.0308  0.4454
  307MPD2    C5 4674   0.972   1.997  17.698  0.5900  0.4693  0.1632
  307MPD2     H 4675   0.789   2.293   0.087 -0.7979  0.5315 -0.2484
  307MPD2    H1 4676   0.895   1.875   0.094 -0.1477  0.6610  2.0786
  307MPD2    H2 4677   1.023   2.118  17.531  0.4620  0.8617 -0.7032
  307MPD2    H3 4678   1.010   1.904  17.656 -0.8943  0.1680 -0.5482
  307MPD2     N 4679   0.752   2.057   0.231  0.0996 -0.5263 -0.8081
  307MPD2    H5 4680   0.739   1.959   0.250  1.4303 -0.5276  0.0858
  307MPD2    N1 4681   0.919   2.354  17.620  0.0344  0.4912  0.0182
  307MPD2    H7 4682   0.893   2.427  17.685 -1.6086  0.1153 -0.2216
  308TMC3    C1 4683   0.406   2.010   0.459  0.0337  0.3318  0.6871
  308TMC3    C2 4684   0.388   2.082   0.579  0.9711 -0.4514 -0.4573
  308TMC3    C3 4685   0.489   2.173   0.606  0.0128 -0.3067  0.5138
  308TMC3    C4 4686   0.512   2.030   0.372 -0.7519 -1.0660  0.0676
  308TMC3    C5 4687   0.608   2.119   0.408  0.4547  0.3902 -0.0382
  308TMC3    C6 4688   0.593   2.198   0.523 -0.4355 -0.4019  0.2565
  308TMC3     C 4689   0.323   1.902   0.428  0.1925  0.3267  0.5615
  308TMC3     O 4690   0.372   1.812   0.369 -0.1372  0.6080 -0.3610
  308TMC3     H 4691   0.321   2.046   0.655 -0.3623 -1.0646 -1.9188
  308TMC3    H1 4692   0.512   1.965   0.285  1.8649 -0.7989 -0.1557
  308TMC3    H2 4693   0.666   2.272   0.554 -1.5976  0.3280  1.2206
  308TMC3    C7 4694   0.709   2.153   0.310  0.0722  0.0746 -0.4928
  308TMC3    C8 4695   0.464   2.283   0.697 -1.0569 -0.3438 -0.3987
  308TMC3    O1 4696   0.730   2.274   0.305 -0.1221  0.0992 -0.1215
  308TMC3    O2 4697   0.410   2.259   0.805  0.4428 -0.1631  0.3211
  309MPD2     C 4698   4.672   2.437  17.002 -0.3574  0.5421 -0.7395
  309MPD2    C1 4699   4.583   2.427  16.900  0.7769  0.8749 -0.4339
  309MPD2    C2 4700   4.451   2.454  16.919  0.0336  0.0432 -0.1247
  309MPD2    C3 4701   4.400   2.455  17.053 -0.0446 -0.2656 -0.6958
  309MPD2    C4 4702   4.488   2.459  17.160 -0.2766 -0.5361  0.3512
  309MPD2    C5 4703   4.621   2.457  17.130 -1.0990  1.0122  0.0712
  309MPD2     H 4704   4.387   2.464  16.831  0.9865 -0.3802 -0.8699
  309MPD2    H1 4705   4.468   2.488  17.263 -0.3140  2.0381 -0.3746
  309MPD2    H2 4706   0.041   2.442  16.999 -0.3930  1.5255 -0.5854
  309MPD2    H3 4707   4.687   2.462  17.216 -1.1846 -0.4450  0.2237
  309MPD2     N 4708   4.256   2.465  17.074  0.4402 -0.3753 -0.6128
  309MPD2    H5 4709   4.193   2.486  16.997 -0.8420  0.3361  0.6316
  309MPD2    N1 4710   4.632   2.429  16.769 -0.5486  0.7066 -0.4002
  309MPD2    H7 4711   4.561   2.436  16.697 -2.1502  0.7306  1.1865
  310TMC3    C1 4712   0.032   2.445  16.585  0.1273 -0.9374 -0.0566
  310TMC3    C2 4713   4.690   2.535  16.518  0.3441  0.0070 -0.3790
  310TMC3    C3 4714   4.727   2.556  16.386  0.1213  0.1633  0.2089
  310TMC3    C4 4715   0.146   2.387  16.530  0.3153  0.4932 -0.0302
  310TMC3    C5 4716   0.169   2.401  16.395  0.9711 -0.2210 -0.1712
  310TMC3    C6 4717   0.080   2.472  16.321 -0.4909  0.3388  0.3564
  310TMC3     C 4718   0.020   2.414  16.725 -0.1320 -0.4507  0.5302
  310TMC3     O 4719   0.123   2.376  16.781  0.4406  0.1007  0.1171
  310TMC3     H 4720   4.612   2.591  16.569 -0.0559 -1.6629  0.8230
  310TMC3    H1 4721   0.207   2.319  16.589 -0.6173  0.6360  1.1211
  310TMC3    H2 4722   0.083   2.458  16.213  1.7016 -1.0380  0.5912
  310TMC3    C7 4723   0.250   2.300  16.333 -0.7777  0.3529 -0.4317
  310TMC3    C8 4724   4.646   2.636  16.288 -0.1890  0.0839  0.3630
  310TMC3    O1 4725   0.211   2.259  16.227 -0.1572 -0.3064 -0.0932
  310TMC3    O2 4726   4.660   2.609  16.170  0.0017  0.4749 -0.0652
  311MPD2     C 4727   2.031   3.658  12.571  0.1876  0.2654 -0.2667
  311MPD2    C1 4728   2.028   3.764  12.657 -0.4224 -0.1528  0.0501
  311MPD2    C2 4729   1.927   3.772  12.748  0.7117 -0.0033 -0.0698
  311MPD2    C3 4730   1.832   3.674  12.755  0.0186  0.7055  0.0697
  311MPD2    C4 4731   1.840   3.560  12.673 -0.3072 -0.4354  0.2754
  311MPD2    C5 4732   1.942   3.555  12.578  0.5400 -0.4413 -0.0132
  311MPD2     H 4733   1.922   3.856  12.816 -0.1978 -0.2586  0.1793
  311MPD2    H1 4734   1.765   3.482  12.675 -0.0912 -0.6371  0.4883
  311MPD2    H2 4735   2.102   3.664  12.489  1.2533  0.7759  0.6934
  311MPD2    H3 4736   1.965   3.484  12.500 -1.8031 -1.2958  0.0847
  311MPD2     N 4737   1.729   3.698  12.853  0.7485  0.2630  0.0378
  311MPD2    H5 4738   1.746   3.760  12.931  0.3507  0.4868 -0.0576
  311MPD2    N1 4739   2.117   3.877  12.648  1.1116  0.0164  0.0389
  311MPD2    H7 4740   2.097   3.946  12.720  2.0331 -0.3127  0.6019
  312TMC3    C1 4741   1.513   3.686  12.949  0.0721  0.2529  0.1907
  312TMC3    C2 4742   1.378   3.668  12.934  0.0202 -0.6683 -0.4067
  312TMC3    C3 4743   1.305   3.685  13.050 -0.4350  0.0498 -0.1478
  312TMC3    C4 4744   1.570   3.724  13.063  0.5453 -0.2409  1.0546
  312TMC3    C5 4745   1.487   3.739  13.171  0.2036  0.1485  0.2886
  312TMC3    C6 4746   1.350   3.708  13.172 -0.0303  0.1651 -1.3711
  312TMC3     C 4747   1.606   3.642  12.850 -0.7947  0.4304 -0.7226
  312TMC3     O 4748   1.553   3.585  12.754 -0.6339  0.0450 -0.3064
  312TMC3     H 4749   1.331   3.620  12.849 -1.8336  1.1250 -0.3885
  312TMC3    H1 4750   1.676   3.735  13.082  0.7221 -2.6109  1.3946
  312TMC3    H2 4751   1.277   3.723  13.251  0.8293  1.5235 -0.8214
  312TMC3    C7 4752   1.530   3.778  13.309  0.3781 -0.0486 -0.8573
  312TMC3    C8 4753   1.174   3.634  13.047 -0.5389 -0.0076 -0.5376
  312TMC3    O1 4754   1.450   3.832  13.383 -0.0868 -0.1378  0.2523
  312TMC3    O2 4755   1.166   3.515  13.034 -0.3351 -0.7341 -0.5258
  313MPD2     C 4756   0.994   3.449  11.728  0.1618 -0.3002 -0.0560
  313MPD2    C1 4757   1.064   3.471  11.613  0.0977  1.1168 -0.2154
  313MPD2    C2 4758   1.109   3.361  11.539  0.3491  0.2464  0.1963
  313MPD2    C3 4759   1.073   3.233  11.583  0.1818  0.7555 -0.3240
  313MPD2    C4 4760   1.012   3.211  11.707 -0.1261  0.5621  0.0509
  313MPD2    C5 4761   0.972   3.322  11.781  0.2979 -0.4106 -0.1445
  313MPD2     H 4762   1.157   3.363  11.442  1.6939 -1.4718  0.8375
  313MPD2    H1 4763   1.008   3.112  11.752 -2.4273  0.0691 -1.2081
  313MPD2    H2 4764   0.953   3.532  11.784  1.4080 -0.8895  1.7391
  313MPD2    H3 4765   0.919   3.311  11.875  0.5917  1.2813  0.2157
  313MPD2     N 4766   1.083   3.132  11.482  0.1602 -0.2176 -0.3226
  313MPD2    H5 4767   1.108   3.162  11.388 -0.9279 -3.9400 -1.7643
  313MPD2    N1 4768   1.073   3.593  11.552  0.1246  0.0114  0.2313
  313MPD2    H7 4769   1.124   3.591  11.464  3.2550  0.7324  2.0010
  314TMC3    C1 4770   1.018   3.806  11.491 -0.2329 -0.1417  0.3395
  314TMC3    C2 4771   1.144   3.834  11.458 -0.7281  0.4607  0.6297
  314TMC3    C3 4772   1.165   3.918  11.349  0.6501  0.3596 -0.1482
  314TMC3    C4 4773   0.915   3.830  11.399 -0.4228 -0.0289 -0.1185
  314TMC3    C5 4774   0.946   3.898  11.286 -0.1371 -0.4998 -0.5868
  314TMC3    C6 4775   1.065   3.950  11.263  0.7176  0.1475  0.0512
  314TMC3     C 4776   0.992   3.695  11.577 -0.1242  0.0540  0.1681
  314TMC3     O 4777   0.899   3.717  11.656  0.2409  0.2212  0.6607
  314TMC3     H 4778   1.231   3.792  11.509 -0.8929  2.1250  2.2844
  314TMC3    H1 4779   0.823   3.773  11.411 -0.2295 -0.1272  0.8742
  314TMC3    H2 4780   1.075   4.019  11.181 -0.6750 -0.6495 -0.7907
  314TMC3    C7 4781   0.869   3.863  11.167 -0.6916 -0.1487  0.1237
  314TMC3    C8 4782   1.297   3.925  11.291  0.3367 -0.3320  0.1765
  314TMC3    O1 4783   0.751   3.877  11.179  0.1498  0.1571  0.1713
  314TMC3    O2 4784   1.299   3.890  11.176  0.9446  0.0170 -0.4719
  315MPD2     C 4785   1.292   2.001  17.109  0.1016  0.0440  0.0521
  315MPD2    C1 4786   1.362   1.970  17.221  0.1056 -0.3668 -0.0819
  315MPD2    C2 4787   1.374   2.067  17.321 -0.5568 -0.6020  0.1682
  315MPD2    C3 4788   1.316   2.190  17.320  0.4638  0.4105 -0.1649
  315MPD2    C4 4789   1.242   2.215  17.205  0.1716  0.2159 -0.1181
  315MPD2    C5 4790   1.234   2.128  17.100 -0.1562  0.7573 -0.2964
  315MPD2     H 4791   1.434   2.041  17.408  4.1471  0.5124 -2.7418
  315MPD2    H1 4792   1.181   2.304  17.209 -1.1109 -0.7116  0.9744
  315MPD2    H2 4793   1.285   1.933  17.025  1.4145 -0.7774  0.5983
  315MPD2    H3 4794   1.172   2.160  17.017  0.6868 -1.0647 -1.6057
  315MPD2     N 4795   1.316   2.277  17.433 -0.0396  0.0269 -0.2327
  315MPD2    H5 4796   1.350   2.233  17.518 -0.0954 -1.8567 -1.1699
  315MPD2    N1 4797   1.440   1.852  17.238 -0.0876  0.2854 -0.0750
  315MPD2    H7 4798   1.488   1.846  17.327 -0.2326 -0.9711 -0.0823
  316TMC3    C1 4799   1.326   2.481  17.554  0.3516  0.0835  0.4178
  316TMC3    C2 4800   1.422   2.431  17.643  0.2804 -0.3956 -0.0565
  316TMC3    C3 4801   1.455   2.507  17.747  0.2844 -0.2876 -0.1401
  316TMC3    C4 4802   1.264   2.604  17.574 -0.0793  0.4240  0.7195
  316TMC3    C5 4803   1.296   2.688  17.678 -0.3711  0.3699 -0.2645
  316TMC3    C6 4804   1.395   2.634   0.011  0.2877  0.0927  0.6647
  316TMC3     C 4805   1.292   2.415  17.431 -0.3964  0.9868  0.2546
  316TMC3     O 4806   1.248   2.488  17.340 -0.0828  0.2054  0.0368
  316TMC3     H 4807   1.465   2.332  17.634  0.3166 -0.5997  2.4840
  316TMC3    H1 4808   1.183   2.619  17.503  0.8416  0.0250 -0.4075
  316TMC3    H2 4809   1.443   2.702   0.080  1.1576 -2.0842  2.2148
  316TMC3    C7 4810   1.249   2.822  17.695  0.0609 -0.3778 -0.4728
  316TMC3    C8 4811   1.551   2.468   0.095 -0.0509 -0.8689  0.5935
  316TMC3    O1 4812   1.249   2.848   0.059 -0.0000  0.6599 -0.5135
  316TMC3    O2 4813   1.564   2.542   0.190 -0.1313 -0.1701 -0.0313
  317MPD2     C 4814   2.871   1.132  13.118  0.3669 -0.5350 -0.3765
  317MPD2    C1 4815   2.998   1.096  13.070  0.2206  0.4322  0.3187
  317MPD2    C2 4816   3.093   1.044  13.157 -0.5904 -0.0528  0.2736
  317MPD2    C3 4817   3.060   1.026  13.289 -0.4722 -0.8393 -0.7999
  317MPD2    C4 4818   2.944   1.077  13.339 -0.0579  0.3477  0.1166
  317MPD2    C5 4819   2.853   1.130  13.252  0.5466  0.2930  0.1912
  317MPD2     H 4820   3.185   1.006  13.113 -1.8834 -0.6189 -1.9308
  317MPD2    H1 4821   2.923   1.063  13.444 -0.8019 -1.6575 -0.2936
  317MPD2    H2 4822   2.797   1.175  13.051 -0.4532 -0.4391  0.5976
  317MPD2    H3 4823   2.758   1.163  13.291 -0.5929 -2.8467  0.0704
  317MPD2     N 4824   3.155   0.953  13.368  0.3899 -0.6508 -0.4786
  317MPD2    H5 4825   3.245   0.931  13.325  0.0057 -1.8879 -0.6622
  317MPD2    N1 4826   3.031   1.110  12.933  0.1850  0.0923  0.4604
  317MPD2    H7 4827   3.130   1.104  12.912  0.3043  1.2280  0.6846
  318TMC3    C1 4828   3.217   0.788  13.524  0.0142  0.1504  0.3176
  318TMC3    C2 4829   3.179   0.659  13.511  0.2756  0.3494 -0.3873
  318TMC3    C3 4830   3.275   0.565  13.508  0.2258 -0.4901 -0.0626
  318TMC3    C4 4831   3.346   0.829  13.548  0.3198  0.0983  0.0074
  318TMC3    C5 4832   3.436   0.727  13.552  0.8133  0.4355 -0.1127
  318TMC3    C6 4833   3.404   0.596  13.530  0.2222 -0.6109 -0.0241
  318TMC3     C 4834   3.119   0.886  13.484  0.6342 -0.4410  0.4417
  318TMC3     O 4835   3.020   0.881  13.551 -0.7202 -0.3719 -0.8404
  318TMC3     H 4836   3.076   0.646  13.479 -0.4817  0.7512  1.9113
  318TMC3    H1 4837   3.375   0.933  13.547  0.5012  0.0452 -0.2521
  318TMC3    H2 4838   3.482   0.522  13.516  0.9658  0.1636 -0.0092
  318TMC3    C7 4839   3.567   0.773  13.585  0.3134  0.0825 -0.4360
  318TMC3    C8 4840   3.250   0.446  13.421 -0.8032 -0.2142  0.1253
  318TMC3    O1 4841   3.601   0.875  13.523 -0.0109  0.1647 -0.5110
  318TMC3    O2 4842   3.329   0.350  13.428 -0.5846  0.7805  0.4428
  319MPD2     C 4843   4.090   2.085  16.708  0.3409  0.1277  0.5324
  319MPD2    C1 4844   4.026   1.983  16.765 -0.1720 -0.0023  0.3436
  319MPD2    C2 4845   3.971   1.883  16.685  0.8442 -0.1625 -0.3464
  319MPD2    C3 4846   3.997   1.884  16.550  0.3978  0.0164  0.4197
  319MPD2    C4 4847   4.065   1.991  16.491  0.1274 -0.5723 -0.2387
  319MPD2    C5 4848   4.113   2.092  16.575 -0.1045  0.0142  0.2792
  319MPD2     H 4849   3.907   1.818  16.743  0.3383 -0.4125 -1.1908
  319MPD2    H1 4850   4.074   2.005  16.384  0.6569 -0.7835 -0.2225
  319MPD2    H2 4851   4.140   2.165  16.761  0.4822 -0.7026  1.6748
  319MPD2    H3 4852   4.166   2.178  16.535 -1.7048  0.1720 -1.4987
  319MPD2     N 4853   3.940   1.792  16.461 -0.7102 -0.4179 -0.0406
  319MPD2    H5 4854   3.929   1.812  16.362 -1.4615 -2.4485 -0.3711
  319MPD2    N1 4855   4.016   1.972  16.903 -0.0893 -0.1124 -0.5777
  319MPD2    H7 4856   3.987   1.881  16.938  0.5472  0.1413  0.5984
  320TMC3    C1 4857   3.788   1.627  16.395 -0.0069  0.5657  0.0312
  320TMC3    C2 4858   3.744   1.716  16.298 -0.3044 -0.1867 -0.2645
  320TMC3    C3 4859   3.682   1.663  16.186  0.0753 -0.1758  0.9585
  320TMC3    C4 4860   3.773   1.493  16.382 -0.4593 -0.1673  0.3489
  320TMC3    C5 4861   3.706   1.452  16.276 -0.8042 -0.0575  0.3367
  320TMC3    C6 4862   3.664   1.530  16.175 -0.3549  0.6091  0.5655
  320TMC3     C 4863   3.870   1.679  16.502  0.4010 -0.3737 -0.2998
  320TMC3     O 4864   3.873   1.610  16.607 -0.1438  0.5636  0.0678
  320TMC3     H 4865   3.748   1.823  16.314  2.4457 -0.3233 -0.1611
  320TMC3    H1 4866   3.817   1.430  16.458 -2.7153 -0.7193  1.2147
  320TMC3    H2 4867   3.616   1.480  16.092  0.6126  1.5262 -0.5272
  320TMC3    C7 4868   3.677   1.307  16.249  0.1339  0.3839  0.4311
  320TMC3    C8 4869   3.637   1.750  16.080  0.8018  0.2985 -0.1528
  320TMC3    O1 4870   3.600   1.279  16.158 -0.7322  0.5349  0.2628
  320TMC3    O2 4871   3.683   1.860  16.094  0.2882 -0.5424  0.4767
  321TMC3    C1 4872   4.042   2.022  17.140  0.8346  0.5464 -0.3720
  321TMC3    C2 4873   3.982   1.897  17.159  0.5259  0.1021  0.1080
  321TMC3    C3 4874   4.025   1.827  17.266 -0.1794  0.2184  0.0749
  321TMC3    C4 4875   4.123   2.082  17.233 -0.0522 -0.3497  0.4908
  321TMC3    C5 4876   4.144   2.016  17.351  0.4764  0.1125 -0.3252
  321TMC3    C6 4877   4.094   1.892  17.368 -0.1525  0.2043  0.7985
  321TMC3     C 4878   4.052   2.066  16.999  0.3102 -0.0999  0.9509
  321TMC3     O 4879   4.114   2.173  16.988  0.0483  0.1794 -0.6997
  321TMC3     H 4880   3.920   1.859  17.079  0.5958 -0.4299  0.3044
  321TMC3    H1 4881   4.173   2.174  17.206  0.4814 -0.0115  2.6152
  321TMC3    H2 4882   4.111   1.848  17.466 -1.1607 -0.4058  0.6998
  321TMC3    C7 4883   4.282   2.023  17.380  0.0457 -0.1121 -0.0140
  321TMC3    C8 4884   4.080   1.701  17.231  0.0661 -0.3566 -0.1506
  321TMC3    O1 4885   4.328   1.914  17.414 -0.2597 -0.5997  0.3749
  321TMC3    O2 4886   4.016   1.620  17.170 -0.2649 -0.0956  0.1661
  322MPD2     C 4887   3.473   3.224  13.097  0.4054 -0.0754  0.3555
  322MPD2    C1 4888   3.420   3.210  13.220 -0.4051 -0.1553 -0.4717
  322MPD2    C2 4889   3.343   3.096  13.244 -0.2276  0.4534  0.4241
  322MPD2    C3 4890   3.317   3.006  13.143 -0.4616  0.3998 -0.0914
  322MPD2    C4 4891   3.366   3.036  13.012  0.0361  0.8715 -0.4288
  322MPD2    C5 4892   3.449   3.140  12.993  0.1823  0.1373 -0.4526
  322MPD2     H 4893   3.306   3.069  13.342 -2.2874  2.7478  0.2498
  322MPD2    H1 4894   3.335   2.982  12.923  2.6420 -2.2798  0.6075
  322MPD2    H2 4895   3.532   3.312  13.074 -0.8856  0.7340  0.1387
  322MPD2    H3 4896   3.504   3.147  12.900  0.6936 -1.1779 -0.2428
  322MPD2     N 4897   3.239   2.891  13.177  0.3461 -0.4323  0.9683
  322MPD2    H5 4898   3.227   2.877  13.276  4.0750 -1.1522  1.3142
  322MPD2    N1 4899   3.453   3.311  13.318 -0.4888 -0.6894 -0.2431
  322MPD2    H7 4900   3.521   3.383  13.295  0.4466 -1.3908  0.3126
  323TMC3    C1 4901   3.452   3.424  13.524  0.0909  0.6934 -0.3394
  323TMC3    C2 4902   3.528   3.530  13.472  0.3846  0.3595 -0.1790
  323TMC3    C3 4903   3.574   3.629  13.558  0.1766  0.2469  0.0480
  323TMC3    C4 4904   3.399   3.431  13.649  0.2568  0.4761 -0.0907
  323TMC3    C5 4905   3.453   3.519  13.742 -0.8904  0.3068  0.1192
  323TMC3    C6 4906   3.546   3.620  13.690 -0.2562  0.3456 -0.6684
  323TMC3     C 4907   3.389   3.331  13.439 -0.1284  0.4281 -0.1529
  323TMC3     O 4908   3.280   3.286  13.473  0.5196 -0.8211  0.4361
  323TMC3     H 4909   3.538   3.537  13.365  0.9576 -1.6062 -0.2450
  323TMC3    H1 4910   3.341   3.346  13.683  3.2923 -2.3870 -1.9894
  323TMC3    H2 4911   3.586   3.693  13.760 -0.0799 -0.4946  0.1009
  323TMC3    C7 4912   3.440   3.485  13.878 -0.1784  0.8409  0.5341
  323TMC3    C8 4913   3.691   3.713  13.522 -0.2092 -0.2233 -0.0255
  323TMC3    O1 4914   3.373   3.386  13.892  0.3780 -0.0369 -0.7487
  323TMC3    O2 4915   3.732   3.789  13.610  0.9255 -0.6163  0.3290
  324MPD2     C 4916   4.668   4.189  14.807  0.1230  0.6027 -0.4307
  324MPD2    C1 4917   4.719   4.290  14.730 -0.5301  0.6247 -0.3866
  324MPD2    C2 4918   4.636   4.378  14.654 -0.3566  0.8263  0.0997
  324MPD2    C3 4919   4.498   4.373  14.675 -0.3375 -0.5282  0.0464
  324MPD2    C4 4920   4.451   4.287  14.769 -0.1551 -0.1359  0.2074
  324MPD2    C5 4921   4.528   4.192  14.833 -0.4833  0.5307 -0.1832
  324MPD2     H 4922   4.672   4.459  14.591 -2.5698  1.6292 -0.1342
  324MPD2    H1 4923   4.344   4.294  14.785 -0.4641  1.6109 -2.6853
  324MPD2    H2 4924   4.732   4.115  14.853 -0.7369 -0.0722 -0.3267
  324MPD2    H3 4925   4.484   4.124  14.905  1.4559  0.3411  0.8104
  324MPD2     N 4926   4.404   4.458  14.605  0.0248  0.4796 -0.3832
  324MPD2    H5 4927   4.306   4.447  14.626  0.2603  2.2585  1.6447
  324MPD2    N1 4928   0.111   4.316  14.720  0.4878  0.2459  0.4000
  324MPD2    H7 4929   0.134   4.376  14.641  2.9142  0.5711  1.3506
  325TMC3    C1 4930   4.328   4.642  14.476  0.1315 -0.2290  0.6000
  325TMC3    C2 4931   4.215   4.573  14.450  0.5578 -0.0150 -0.0263
  325TMC3    C3 4932   4.116   4.637  14.375  0.2380  0.0763  0.4760
  325TMC3    C4 4933   4.345   0.036  14.439  0.6474  0.3516  0.3223
  325TMC3    C5 4934   4.239   0.095  14.376  0.2380  0.7389 -0.0043
  325TMC3    C6 4935   4.126   0.029  14.333  0.0159  0.3303 -0.2390
  325TMC3     C 4936   4.446   4.576  14.535 -0.3328 -0.0716 -0.7613
  325TMC3     O 4937   4.556   4.629  14.511 -0.1655 -0.0271 -0.5162
  325TMC3     H 4938   4.199   4.472  14.487  0.9659 -0.3366 -0.7365
  325TMC3    H1 4939   4.432   0.093  14.470  0.4485 -0.0452  1.6184
  325TMC3    H2 4940   4.057   0.075  14.263 -1.6122 -1.4704  0.1807
  325TMC3    C7 4941   4.226   0.240  14.360 -1.0778 -0.2577  0.8681
  325TMC3    C8 4942   3.994   4.571  14.335  0.2110  0.1330 -0.0266
  325TMC3    O1 4943   4.332   0.303  14.373  0.0390 -0.3288 -0.4816
  325TMC3    O2 4944   3.998   4.451  14.322 -0.1162  0.0351 -0.1645
  326MPD2     C 4945   0.958   0.818  11.120 -0.1389  0.5696  0.4729
  326MPD2    C1 4946   0.921   0.878  11.002  0.4043 -0.2766 -0.5149
  326MPD2    C2 4947   1.002   0.982  10.952  0.2121 -0.3696 -0.0147
  326MPD2    C3 4948   1.123   1.005  11.017  0.2107  0.2263  0.2797
  326MPD2    C4 4949   1.160   0.936  11.134 -0.7148 -0.0007 -0.6120
  326MPD2    C5 4950   1.075   0.842  11.182  0.4878  0.4836 -0.4639
  326MPD2     H 4951   0.974   1.036  10.863  0.2815 -0.8736 -0.3377
  326MPD2    H1 4952   1.255   0.962  11.179 -0.9616 -0.4642  0.1824
  326MPD2    H2 4953   0.897   0.739  11.162  0.4461 -0.2229 -0.1661
  326MPD2    H3 4954   1.103   0.792  11.273 -1.6081  0.2725  0.0543
  326MPD2     N 4955   1.215   1.101  10.967 -0.5554  0.2589  0.2215
  326MPD2    H5 4956   1.299   1.119  11.021 -0.3762  0.9398 -0.2827
  326MPD2    N1 4957   0.807   0.840  10.925 -0.3349  0.4947  0.0569
  326MPD2    H7 4958   0.786   0.888  10.838  0.3527  3.2574  1.3975
  327TMC3    C1 4959   0.648   0.708  10.823  0.3716  0.7442  0.3290
  327TMC3    C2 4960   0.543   0.796  10.823 -0.3218  0.0059  0.0939
  327TMC3    C3 4961   0.502   0.839  10.701 -0.3655  0.2670 -0.2436
  327TMC3    C4 4962   0.716   0.677  10.714 -0.0515 -0.1739  1.0519
  327TMC3    C5 4963   0.682   0.731  10.593 -0.0913 -0.9663 -0.0820
  327TMC3    C6 4964   0.567   0.805  10.582  0.0218 -0.2459  0.0329
  327TMC3     C 4965   0.729   0.726  10.947  0.1128 -0.0481  0.0370
  327TMC3     O 4966   0.739   0.646  11.038 -0.5245  0.1786  0.2281
  327TMC3     H 4967   0.496   0.806  10.920 -2.3666 -0.9128 -0.8040
  327TMC3    H1 4968   0.785   0.594  10.726  1.4862  0.6773 -1.6677
  327TMC3    H2 4969   0.529   0.841  10.487  0.3852  0.0189 -0.0113
  327TMC3    C7 4970   0.790   0.789  10.512  0.6115 -0.5025  0.2490
  327TMC3    C8 4971   0.450   0.974  10.703 -0.4441 -0.8199  0.1061
  327TMC3    O1 4972   0.755   0.842  10.409 -0.1966 -0.1450 -0.2537
  327TMC3    O2 4973   0.451   1.028  10.595  0.1182 -0.5543 -0.1760
  328MPD2     C 4974   3.673   0.750  16.854  0.0648  0.0558 -0.0810
  328MPD2    C1 4975   3.566   0.672  16.891 -0.4423 -0.4893 -0.0882
  328MPD2    C2 4976   3.452   0.697  16.819 -0.4508  0.0377  0.5382
  328MPD2    C3 4977   3.438   0.792  16.717 -0.4061 -0.2926 -0.3569
  328MPD2    C4 4978   3.551   0.863  16.685 -0.2342  0.7864  0.4929
  328MPD2    C5 4979   3.669   0.843  16.752  0.3157  0.3624 -0.5574
  328MPD2     H 4980   3.364   0.636  16.834 -2.4565  2.6570 -0.4528
  328MPD2    H1 4981   3.552   0.923  16.594  0.9745  0.6723  0.4424
  328MPD2    H2 4982   3.766   0.732  16.906  0.0677  0.9414  0.2095
  328MPD2    H3 4983   3.761   0.892  16.722 -1.0176  2.8230 -0.5941
  328MPD2     N 4984   3.320   0.819  16.643  0.4443 -0.4656 -0.0069
  328MPD2    H5 4985   3.315   0.887  16.569  0.5282 -1.4018 -0.8755
  328MPD2    N1 4986   3.582   0.576  16.996  0.0927 -0.3265 -1.4733
  328MPD2    H7 4987   3.673   0.563  17.039 -0.6489  0.9045  0.4684
  329TMC3    C1 4988   3.510   0.432  17.171 -0.1485  1.1380  0.2356
  329TMC3    C2 4989   3.631   0.441  17.229  0.4930  0.2595 -0.1132
  329TMC3    C3 4990   3.661   0.347  17.320 -0.1973  0.1131  0.1430
  329TMC3    C4 4991   3.425   0.327  17.199 -0.4929 -0.9130  0.9343
  329TMC3    C5 4992   3.469   0.226  17.275  0.4639  0.5822 -0.2828
  329TMC3    C6 4993   3.588   0.236  17.340 -0.3206 -0.2178 -0.9811
  329TMC3     C 4994   3.483   0.499  17.051  0.1786  0.1822  0.0555
  329TMC3     O 4995   3.372   0.484  17.004 -0.0925  0.1961  0.3312
  329TMC3     H 4996   3.685   0.535  17.221 -0.4596  0.6505 -2.0675
  329TMC3    H1 4997   3.329   0.320  17.149 -1.5228  1.5284  2.5615
  329TMC3    H2 4998   3.612   0.171  17.424 -0.8292  0.2994 -0.4367
  329TMC3    C7 4999   3.367   0.136  17.338 -0.0380  0.4678  0.2347
  329TMC3    C8 5000   3.770   0.376  17.411 -0.9919 -0.3311 -0.1227
  329TMC3    O1 5001   3.408   0.028  17.381  0.7080 -0.2990 -0.5136
  329TMC3    O2 5002   3.864   0.440  17.365  0.0401  0.1698  0.4132
  330TMC3    C1 5003   1.261   0.625   9.641  0.2844  0.1086  0.0302
  330TMC3    C2 5004   1.178   0.532   9.595  0.3583  0.3233 -0.0019
  330TMC3    C3 5005   1.226   0.402   9.582 -0.0526 -0.1571  0.6810
  330TMC3    C4 5006   1.385   0.594   9.677 -0.3018 -0.1440 -1.2286
  330TMC3    C5 5007   1.434   0.469   9.651  0.2438 -0.6229  0.4298
  330TMC3    C6 5008   1.358   0.365   9.604 -0.4989 -0.9156  0.3653
  330TMC3     C 5009   1.214   0.763   9.679  0.1868  0.8036  0.1245
  330TMC3     O 5010   1.292   0.828   9.747 -0.5615  0.2554  0.3612
  330TMC3     H 5011   1.072   0.546   9.573  0.5402  2.4007  0.4381
  330TMC3    H1 5012   1.453   0.676   9.702  1.7766 -1.4594 -2.6162
  330TMC3    H2 5013   1.390   0.261   9.600 -2.3193 -1.3933 -2.2312
  330TMC3    C7 5014   1.562   0.443   9.719 -0.9153 -0.3528 -0.0903
  330TMC3    C8 5015   1.139   0.316   9.503  0.2600 -0.0072  0.0832
  330TMC3    O1 5016   1.628   0.538   9.757 -0.0652  0.2933 -0.2381
  330TMC3    O2 5017   1.054   0.374   9.439  0.1259 -0.3763 -0.9241
  331MPD2     C 5018   0.072   4.167  12.473  0.1327  0.0963  0.2611
  331MPD2    C1 5019   4.739   4.131  12.354  0.0470 -0.1637 -0.1957
  331MPD2    C2 5020   4.668   4.017  12.365  0.3547  0.4297  0.4224
  331MPD2    C3 5021   4.662   3.942  12.488 -0.4378  0.5985 -0.3258
  331MPD2    C4 5022   4.735   3.978  12.596 -0.7187 -0.2971  0.3628
  331MPD2    C5 5023   0.068   4.095  12.590 -0.0597 -0.1240  0.2340
  331MPD2     H 5024   4.609   3.975  12.285  0.1892  1.4563 -0.0044
  331MPD2    H1 5025   0.004   3.924  12.690  0.5886 -0.6978  0.0132
  331MPD2    H2 5026   0.126   4.261  12.480 -1.6525  1.1075  0.4555
  331MPD2    H3 5027   0.122   4.129  12.677  1.2248 -0.8014 -0.2872
  331MPD2     N 5028   4.574   3.832  12.491  0.0412 -0.2290 -0.4883
  331MPD2    H5 5029   4.505   3.817  12.418 -0.4920 -1.5127  0.2735
  331MPD2    N1 5030   4.734   4.215  12.244 -0.6952  0.0868 -0.8107
  331MPD2    H7 5031   0.040   4.305  12.253  1.3352 -1.0580  0.2957
  332TMC3    C1 5032   4.446   3.656  12.588 -0.1288 -0.9500  0.4258
  332TMC3    C2 5033   4.338   3.685  12.506  0.1936  0.0612 -0.0772
  332TMC3    C3 5034   4.217   3.628  12.540  0.1667 -0.1173  0.7370
  332TMC3    C4 5035   4.437   3.555  12.685  0.3915  0.7791  0.6795
  332TMC3    C5 5036   4.310   3.505  12.718  0.1965 -0.5796 -0.2581
  332TMC3    C6 5037   4.204   3.537  12.638 -0.6063 -0.7882 -0.3799
  332TMC3     C 5038   4.566   3.740  12.592  0.4524  0.8074  0.6117
  332TMC3     O 5039   4.650   3.712  12.678 -0.0169 -0.5726 -0.1388
  332TMC3     H 5040   4.348   3.761  12.429  0.2975  0.1711  0.0464
  332TMC3    H1 5041   4.525   3.530  12.742  0.0704  0.3712  0.9925
  332TMC3    H2 5042   4.108   3.504  12.677 -0.5619  0.0857  0.4512
  332TMC3    C7 5043   4.295   3.382  12.804 -0.3179  0.3119 -0.2621
  332TMC3    C8 5044   4.111   3.652  12.446  0.6869 -0.4407  0.0870
  332TMC3    O1 5045   4.201   3.302  12.789  0.0087  0.1455  0.1820
  332TMC3    O2 5046   4.123   3.752  12.375 -0.1638  0.5237 -0.3456
  333MPD2     C 5047   4.201   4.033  11.287 -0.1225 -0.4522  0.3153
  333MPD2    C1 5048   4.204   3.958  11.175 -0.5699  0.1446  0.1686
  333MPD2    C2 5049   4.136   3.839  11.170  0.4747  0.5587  0.2497
  333MPD2    C3 5050   4.075   3.793  11.287 -0.5259  0.0004  0.1886
  333MPD2    C4 5051   4.089   3.862  11.405  0.3535  0.2318  0.0218
  333MPD2    C5 5052   4.142   3.985  11.400  0.0481  0.0801 -0.1514
  333MPD2     H 5053   4.125   3.785  11.077  2.3114  3.8948 -1.8661
  333MPD2    H1 5054   4.047   3.831  11.500 -0.0691  3.3731  0.8770
  333MPD2    H2 5055   4.242   4.134  11.285 -0.4899 -0.3050  0.1800
  333MPD2    H3 5056   4.164   4.030  11.497 -0.8267  0.5864 -0.1922
  333MPD2     N 5057   4.018   3.662  11.279  0.7414 -0.0971  0.9047
  333MPD2    H5 5058   4.008   3.620  11.187  1.3862  1.1893  0.2443
  333MPD2    N1 5059   4.272   4.017  11.066  0.0916 -0.2148  0.2883
  333MPD2    H7 5060   4.284   4.118  11.077  1.4841 -0.4864  1.3052
  334TMC3    C1 5061   4.373   4.036  10.856  0.2312 -0.2388 -0.6309
  334TMC3    C2 5062   4.489   3.999  10.789 -0.6873 -0.2416  0.1882
  334TMC3    C3 5063   4.541   4.093  10.703 -0.3875  1.0485 -0.0174
  334TMC3    C4 5064   4.305   4.155  10.828  0.1979 -0.2496  0.2139
  334TMC3    C5 5065   4.376   4.251  10.763 -0.4837 -0.5145  0.8887
  334TMC3    C6 5066   4.491   4.219  10.698  0.1085  0.2361  1.0377
  334TMC3     C 5067   4.314   3.947  10.952  0.3520 -0.7229  0.8209
  334TMC3     O 5068   4.328   3.826  10.938 -0.2904  0.0550  0.6103
  334TMC3     H 5069   4.534   3.901  10.799  1.5942  0.6247 -1.6924
  334TMC3    H1 5070   4.208   4.179  10.871  0.0705 -0.4918  0.0566
  334TMC3    H2 5071   4.555   4.297  10.658 -2.9182  1.5452 -1.2519
  334TMC3    C7 5072   4.334   4.395  10.773  0.2772  0.6008 -0.1859
  334TMC3    C8 5073   4.673   4.075  10.641 -0.8435  0.4952  0.6411
  334TMC3    O1 5074   4.427   4.478  10.761 -0.7963  0.9579 -0.0189
  334TMC3    O2 5075   0.010   4.167  10.615  0.0213 -0.0138 -0.1043
  335TMC3    C1 5076   4.182   0.781  16.962 -0.2635  0.1736 -0.1549
  335TMC3    C2 5077   4.066   0.730  17.020  0.5381 -0.7192  0.6256
  335TMC3    C3 5078   4.085   0.602  17.065  0.0527 -1.0944  0.1504
  335TMC3    C4 5079   4.309   0.734  16.978 -0.2530  0.2574  0.6800
  335TMC3    C5 5080   4.317   0.617  17.050  0.3958  0.1970  0.0247
  335TMC3    C6 5081   4.208   0.541  17.079 -0.4134 -0.2011  0.0333
  335TMC3     C 5082   4.161   0.872  16.858  0.0346 -0.5562 -0.1644
  335TMC3     O 5083   4.048   0.914  16.851  0.1752  0.4401  0.3999
  335TMC3     H 5084   3.967   0.775  17.016  0.1135 -1.7367 -0.2089
  335TMC3    H1 5085   4.388   0.790  16.930 -1.0106  1.0718  0.3878
  335TMC3    H2 5086   4.210   0.438  17.114  0.0074 -0.2841 -0.2353
  335TMC3    C7 5087   4.442   0.552  17.046  0.5498 -0.2483  0.7145
  335TMC3    C8 5088   3.964   0.524  17.071  0.1271  0.2666 -0.2480
  335TMC3    O1 5089   4.523   0.585  16.959 -0.1697 -0.1288 -0.3489
  335TMC3    O2 5090   3.858   0.575  17.037 -0.0442 -0.2843 -0.1700
  336MPD2     C 5091   3.983   3.340  16.091  0.8551 -0.0056 -0.2658
  336MPD2    C1 5092   3.946   3.283  15.970  0.2052 -0.1124 -0.2045
  336MPD2    C2 5093   3.963   3.142  15.971  0.2507  0.3987 -0.0821
  336MPD2    C3 5094   4.001   3.064  16.080  0.0774  0.2265 -0.4354
  336MPD2    C4 5095   4.026   3.129  16.201 -0.0250 -0.6850  0.2154
  336MPD2    C5 5096   4.012   3.270  16.201  0.0827  0.0923  0.3405
  336MPD2     H 5097   3.937   3.088  15.880  0.0577 -1.5256  1.1284
  336MPD2    H1 5098   4.059   3.071  16.287  0.7107  2.1567  1.8666
  336MPD2    H2 5099   4.001   3.447  16.099  1.7149 -0.1908  0.1806
  336MPD2    H3 5100   4.037   3.326  16.291 -0.5003 -0.8390  1.0929
  336MPD2     N 5101   4.033   2.924  16.066 -0.6071  0.2626  0.1598
  336MPD2    H5 5102   4.068   2.877  16.149 -0.7361 -0.1886 -0.0412
  336MPD2    N1 5103   3.911   3.356  15.853 -0.4164  0.1453 -0.9228
  336MPD2    H7 5104   3.882   3.310  15.768  1.1276 -2.1750 -0.1880
  337TMC3    C1 5105   3.852   3.551  15.734 -0.2159 -0.4325  0.0276
  337TMC3    C2 5106   3.775   3.469  15.662  0.1046  0.4680 -0.3760
  337TMC3    C3 5107   3.744   3.501  15.532  0.1284  0.0296  0.0237
  337TMC3    C4 5108   3.892   3.673  15.692 -0.2175 -0.7032 -0.2425
  337TMC3    C5 5109   3.871   3.702  15.562  0.1579 -0.4196 -0.3342
  337TMC3    C6 5110   3.787   3.621  15.481 -0.1829 -0.0521 -0.5619
  337TMC3     C 5111   3.921   3.492  15.845  0.0257 -0.0513  0.6488
  337TMC3     O 5112   3.966   3.576  15.922 -0.6292  0.0484  0.1551
  337TMC3     H 5113   3.734   3.377  15.704 -0.4243  0.7970 -0.1693
  337TMC3    H1 5114   3.948   3.737  15.760 -0.5726  0.6776 -1.2537
  337TMC3    H2 5115   3.771   3.651  15.378  1.0462 -1.7077 -1.2306
  337TMC3    C7 5116   3.875   3.845  15.532 -0.2838  0.0385  0.0793
  337TMC3    C8 5117   3.601   3.477  15.494  0.3693  0.0066  0.3480
  337TMC3    O1 5118   3.881   3.931  15.620  0.5244 -0.4020  0.4486
  337TMC3    O2 5119   3.537   3.411  15.574 -0.3409 -0.3351 -0.3416
  338MPD2     C 5120   3.965   2.274   0.841 -0.3067  0.6843  0.6717
  338MPD2    C1 5121   3.906   2.251   0.717 -0.1540  0.7179  0.0580
  338MPD2    C2 5122   3.777   2.289   0.697 -0.0912 -1.3865  0.2499
  338MPD2    C3 5123   3.707   2.354   0.797  0.5112  0.3778  0.5983
  338MPD2    C4 5124   3.760   2.368   0.925 -0.5760  0.0491 -0.2586
  338MPD2    C5 5125   3.887   2.323   0.941  0.0438  0.4713  0.1848
  338MPD2     H 5126   3.732   2.255   0.604 -1.1968 -3.7155  1.6141
  338MPD2    H1 5127   3.703   2.401   1.012  0.5687  1.0899  0.1005
  338MPD2    H2 5128   4.070   2.268   0.866 -0.2833 -0.4928  0.2526
  338MPD2    H3 5129   3.924   2.326   1.043  0.5355  0.5186  0.0039
  338MPD2     N 5130   3.575   2.380   0.763  0.0009  0.1098 -0.2234
  338MPD2    H5 5131   3.536   2.349   0.674 -1.8641  1.2478  0.2090
  338MPD2    N1 5132   3.965   2.194   0.603  0.4602 -0.5179 -0.7173
  338MPD2    H7 5133   3.906   2.176   0.522 -0.4873  6.0882 -1.4802
  339TMC3    C1 5134   3.376   2.508   0.754  0.5299 -0.1607 -0.0360
  339TMC3    C2 5135   3.258   2.524   0.806 -0.7305 -0.2880 -0.8397
  339TMC3    C3 5136   3.156   2.533   0.713  0.3663  0.3151  0.3891
  339TMC3    C4 5137   3.409   2.521   0.621  0.0773 -0.2160 -0.1762
  339TMC3    C5 5138   3.304   2.545   0.538 -0.5626 -0.6467  0.2877
  339TMC3    C6 5139   3.172   2.544   0.576  0.0751  0.7221  0.0857
  339TMC3     C 5140   3.480   2.449   0.837  0.2082  0.5612  0.0416
  339TMC3     O 5141   3.486   2.498   0.948  0.3563 -0.1236 -0.2700
  339TMC3     H 5142   3.241   2.490   0.907 -0.0243 -2.0461 -1.3105
  339TMC3    H1 5143   3.513   2.522   0.590  0.9252  0.2883  2.7320
  339TMC3    H2 5144   3.090   2.556   0.507 -0.8965 -1.4922  0.8491
  339TMC3    C7 5145   3.335   2.533   0.399 -0.1879 -0.0737 -0.7445
  339TMC3    C8 5146   3.016   2.537   0.761  0.7237 -0.6451 -0.3695
  339TMC3    O1 5147   3.266   2.585   0.313 -0.7684 -0.5464 -0.1752
  339TMC3    O2 5148   2.933   2.588   0.688 -0.2376  0.5060  0.1810
  340MPD2     C 5149   3.909   0.262  10.480 -0.2430 -0.0639  0.0928
  340MPD2    C1 5150   4.042   0.227  10.458  0.4343 -0.6604 -0.0760
  340MPD2    C2 5151   4.145   0.324  10.451  0.9202  0.0719  0.3501
  340MPD2    C3 5152   4.114   0.455  10.493  0.7692  0.0794  0.0858
  340MPD2    C4 5153   3.986   0.487  10.521 -0.3485 -0.7786  0.5192
  340MPD2    C5 5154   3.883   0.395  10.511 -0.0485  0.5654  0.0641
  340MPD2     H 5155   4.249   0.303  10.432  1.3524  1.4106  1.2142
  340MPD2    H1 5156   3.953   0.589  10.538  0.5876 -0.4409  0.3403
  340MPD2    H2 5157   3.828   0.190  10.468 -0.1943  0.0598 -0.9469
  340MPD2    H3 5158   3.784   0.429  10.538 -0.6454 -0.3720 -0.9244
  340MPD2     N 5159   4.213   0.556  10.503 -0.6047  0.2699 -0.3296
  340MPD2    H5 5160   4.178   0.637  10.554  2.0172  1.6558 -0.7154
  340MPD2    N1 5161   4.056   0.085  10.421 -0.1143  0.0851 -0.0461
  340MPD2    H7 5162   3.971   0.029  10.423 -1.2437  1.8540  1.9185
  341TMC3    C1 5163   4.177   4.617  10.377  0.1025 -0.1620 -0.0432
  341TMC3    C2 5164   4.064   4.567  10.322 -0.1394  0.5134 -0.6280
  341TMC3    C3 5165   4.061   4.433  10.309  0.7407 -0.7985 -0.5243
  341TMC3    C4 5166   4.286   4.543  10.406  0.7828  0.3603  0.6158
  341TMC3    C5 5167   4.286   4.408  10.381 -0.5905  0.0540 -0.5757
  341TMC3    C6 5168   4.170   4.352  10.334 -0.1131 -0.2276 -0.1091
  341TMC3     C 5169   4.177   0.016  10.416  0.3551 -0.4639 -1.0335
  341TMC3     O 5170   4.288   0.066  10.425  0.6322  0.1733  0.2835
  341TMC3     H 5171   3.982   4.633  10.298 -0.6330  0.0601 -0.2087
  341TMC3    H1 5172   4.377   4.579  10.452 -0.2229  1.6634  1.5764
  341TMC3    H2 5173   4.166   4.245  10.316 -0.0488 -0.1378 -0.6373
  341TMC3    C7 5174   4.414   4.339  10.380 -0.8707  0.1535 -0.4746
  341TMC3    C8 5175   3.952   4.376  10.227  0.5071 -0.4317  0.1002
  341TMC3    O1 5176   4.513   4.410  10.364 -0.6327  0.2372  0.5644
  341TMC3    O2 5177   3.991   4.277  10.170  0.3062 -0.3198  0.1457
  342MPD2     C 5178   2.524   3.454   0.039  0.0390  0.5008  0.2028
  342MPD2    C1 5179   2.619   3.482  17.701 -0.5671  0.5552 -0.5463
  342MPD2    C2 5180   2.683   3.603  17.698  0.2431 -0.5674 -0.0482
  342MPD2    C3 5181   2.644   3.702   0.034 -0.3437 -0.1682  0.0797
  342MPD2    C4 5182   2.561   3.662   0.139 -0.6155 -0.0708 -0.7686
  342MPD2    C5 5183   2.500   3.538   0.144  0.4655  0.6472  0.3897
  342MPD2     H 5184   2.755   3.624  17.620 -0.8240 -0.9793 -1.1634
  342MPD2    H1 5185   2.534   3.727   0.222 -0.7447 -0.8988 -0.1649
  342MPD2    H2 5186   2.479   3.357   0.057  1.7187 -0.4787 -0.8620
  342MPD2    H3 5187   2.417   3.520   0.211  1.1225 -1.9326  0.4988
  342MPD2     N 5188   2.697   3.836   0.031  0.5735  0.1591 -0.2309
  342MPD2    H5 5189   2.660   3.905   0.095 -0.7759 -0.2555 -0.5700
  342MPD2    N1 5190   2.636   3.390  17.596  0.3333 -1.0107  0.2235
  342MPD2    H7 5191   2.700   3.410  17.520 -0.9526  3.0564  0.2310
  343TMC3    C1 5192   2.587   3.193  17.463  0.4776  0.0405  0.3288
  343TMC3    C2 5193   2.711   3.190  17.412  0.0221 -0.5207 -0.2013
  343TMC3    C3 5194   2.728   3.113  17.298 -0.1339  0.0422 -0.7757
  343TMC3    C4 5195   2.485   3.112  17.410  0.2780  0.9328 -0.2028
  343TMC3    C5 5196   2.508   3.037  17.300  0.3798  0.5437  0.3753
  343TMC3    C6 5197   2.629   3.040  17.236 -0.2368 -0.1540  0.0348
  343TMC3     C 5198   2.558   3.279  17.580 -0.2940  0.7044  0.0367
  343TMC3     O 5199   2.449   3.253  17.630 -0.4928 -0.1022  0.6323
  343TMC3     H 5200   2.797   3.239  17.455  0.2337 -1.4833  0.4587
  343TMC3    H1 5201   2.381   3.112  17.444  0.6307 -3.3444  0.8356
  343TMC3    H2 5202   2.645   2.980  17.147  1.4212  1.1258 -0.5243
  343TMC3    C7 5203   2.407   2.963  17.227 -0.4349 -0.4512 -0.4587
  343TMC3    C8 5204   2.833   3.169  17.216  0.0668 -0.0306  0.3860
  343TMC3    O1 5205   2.422   2.941  17.106 -0.7157  0.0456  0.2028
  343TMC3    O2 5206   2.864   3.287  17.236  0.5267  0.1074  0.0178
  344MPD2     C 5207   3.139   3.111  10.615  0.0412 -0.7827  0.1322
  344MPD2    C1 5208   3.023   3.181  10.578  0.2618  0.2600  0.0815
  344MPD2    C2 5209   3.040   3.286  10.492 -0.6084 -0.5732 -0.2396
  344MPD2    C3 5210   3.157   3.306  10.431 -0.0692  0.3174 -0.1037
  344MPD2    C4 5211   3.267   3.236  10.472  0.4717  0.0820 -0.1009
  344MPD2    C5 5212   3.258   3.131  10.556  0.6441 -0.3601 -0.9610
  344MPD2     H 5213   2.952   3.348  10.472  0.3909  0.4122 -1.5961
  344MPD2    H1 5214   3.367   3.268  10.447  0.8989 -1.9843 -1.0843
  344MPD2    H2 5215   3.138   3.031  10.689  2.4981 -0.3593  0.6413
  344MPD2    H3 5216   3.352   3.084  10.582  0.4072 -0.3888 -0.1583
  344MPD2     N 5217   3.182   3.412  10.341 -0.1689  0.3908 -0.1455
  344MPD2    H5 5218   3.275   3.428  10.305  0.5508 -2.5549  0.4119
  344MPD2    N1 5219   2.895   3.134  10.613 -0.1571  0.3240  0.4140
  344MPD2    H7 5220   2.820   3.170  10.554  0.6803  1.5455  0.0974
  345TMC3    C1 5221   3.140   3.588  10.195 -0.2898  0.0768 -0.4566
  345TMC3    C2 5222   3.269   3.625  10.216 -0.7657  0.2401 -0.0672
  345TMC3    C3 5223   3.305   3.742  10.159 -0.2569  0.1796 -0.0849
  345TMC3    C4 5224   3.063   3.654  10.099  0.5089  0.3534  0.3251
  345TMC3    C5 5225   3.115   3.760  10.028 -0.7795  0.4819  0.2119
  345TMC3    C6 5226   3.234   3.812  10.064  0.4056  0.2657 -0.2410
  345TMC3     C 5227   3.084   3.490  10.282  0.1552  0.6178  0.1737
  345TMC3     O 5228   2.961   3.481  10.284  0.2309 -0.2347  0.1406
  345TMC3     H 5229   3.346   3.579  10.277 -1.4019  0.3721  0.8459
  345TMC3    H1 5230   2.962   3.616  10.086  0.6794 -0.4205  1.2560
  345TMC3    H2 5231   3.292   3.889  10.014  1.0536  0.8745  1.4533
  345TMC3    C7 5232   3.034   3.848   9.943  0.1916 -0.3449  0.3074
  345TMC3    C8 5233   3.424   3.811  10.212 -0.0760 -0.1895 -0.5761
  345TMC3    O1 5234   3.098   3.929   9.881 -0.3471 -0.2308 -0.5494
  345TMC3    O2 5235   3.516   3.744  10.256  0.1911 -0.4833 -0.1034
  346MPD2     C 5236   2.941   0.198  13.981 -0.1890 -0.3084  0.2551
  346MPD2    C1 5237   3.077   0.171  13.998 -1.1689  0.5352  0.0107
  346MPD2    C2 5238   3.153   0.265  14.071  0.5010  0.0055  0.4867
  346MPD2    C3 5239   3.100   0.374  14.132  0.5813  0.0033  0.3561
  346MPD2    C4 5240   2.971   0.399  14.098 -0.7653  0.2603 -0.0927
  346MPD2    C5 5241   2.896   0.319  14.023 -0.4413 -0.3747  0.9010
  346MPD2     H 5242   3.254   0.237  14.098  0.1998 -0.6713  0.9428
  346MPD2    H1 5243   2.928   0.494  14.130 -3.1941 -1.0012  0.3405
  346MPD2    H2 5244   2.879   0.142  13.911  0.4537 -0.9065  0.1663
  346MPD2    H3 5245   2.792   0.346  14.014 -0.8685 -1.7739  1.5816
  346MPD2     N 5246   3.195   0.446  14.206  0.3502  0.0844 -0.2294
  346MPD2    H5 5247   3.284   0.404  14.230  0.8433  0.9557 -0.5478
  346MPD2    N1 5248   3.147   0.060  13.935 -0.8311 -0.0063  0.0703
  346MPD2    H7 5249   3.247   0.076  13.936 -0.9582  0.9822 -2.2083
  347TMC3    C1 5250   3.300   0.622  14.302  0.2737 -0.1897  0.0355
  347TMC3    C2 5251   3.406   0.602  14.216  0.1040 -0.4405 -0.3112
  347TMC3    C3 5252   3.525   0.626  14.277 -0.1369 -0.0596 -0.8456
  347TMC3    C4 5253   3.312   0.640  14.436 -0.1609  0.7448  0.5964
  347TMC3    C5 5254   3.439   0.670  14.486  0.2894  0.1805  0.0062
  347TMC3    C6 5255   3.548   0.674  14.405 -0.2631 -0.1616  0.1349
  347TMC3     C 5256   3.172   0.574  14.254 -0.0711  0.0543  0.5561
  347TMC3     O 5257   3.069   0.633  14.273  0.4585  0.3092  0.0078
  347TMC3     H 5258   3.404   0.565  14.114 -4.9962  0.6252 -0.5564
  347TMC3    H1 5259   3.230   0.622  14.505  0.3784  0.7480  1.2315
  347TMC3    H2 5260   3.649   0.698  14.437 -0.6017 -1.5806  2.2272
  347TMC3    C7 5261   3.471   0.616  14.614 -0.1243  0.4534  0.1152
  347TMC3    C8 5262   3.637   0.555  14.225  0.1286  0.3568 -0.0922
  347TMC3    O1 5263   3.413   0.518  14.659 -0.6087  0.1607  0.0282
  347TMC3    O2 5264   3.632   0.434  14.205  0.3278 -0.5646  0.8773
  348MPD2     C 5265   2.121   0.052  12.053 -0.2535 -0.4247 -0.3362
  348MPD2    C1 5266   2.088   4.724  11.942 -0.3443  1.0181 -0.3798
  348MPD2    C2 5267   1.992   0.045  11.858  0.4455 -0.0335  0.4716
  348MPD2    C3 5268   1.930   0.164  11.883 -0.3862 -0.4180  1.0924
  348MPD2    C4 5269   1.955   0.219  12.004  0.2545  0.3606 -0.0686
  348MPD2    C5 5270   2.045   0.163  12.087 -0.0316  0.2213  0.6013
  348MPD2     H 5271   1.950   0.003  11.768  0.1665 -1.1055  1.0968
  348MPD2    H1 5272   1.909   0.311  12.038  0.9106  0.4557  0.5621
  348MPD2    H2 5273   2.202   0.023  12.119  1.8521 -0.8023 -3.0419
  348MPD2    H3 5274   2.059   0.205  12.186  1.4562  1.1807 -0.0137
  348MPD2     N 5275   1.852   0.227  11.781 -0.8508  0.3112  0.7267
  348MPD2    H5 5276   1.854   0.185  11.688  2.1753  1.5871  0.2077
  348MPD2    N1 5277   2.135   4.591  11.915  0.2264  0.2927 -0.2714
  348MPD2    H7 5278   2.097   4.548  11.831  0.5177 -0.0726 -0.2143
  349TMC3    C1 5279   2.246   4.389  11.923  0.4818  0.6995 -0.1796
  349TMC3    C2 5280   2.256   4.277  12.002 -0.1620  0.6206  0.2096
  349TMC3    C3 5281   2.236   4.153  11.948 -0.8252 -0.1495  0.5334
  349TMC3    C4 5282   2.224   4.379  11.790  0.2281 -0.1535 -0.5380
  349TMC3    C5 5283   2.200   4.257  11.737 -0.6130 -0.2282 -0.0685
  349TMC3    C6 5284   2.207   4.139  11.814 -0.2063 -0.1805 -0.3213
  349TMC3     C 5285   2.224   4.514  11.991 -0.4759  0.3847 -0.2093
  349TMC3     O 5286   2.265   4.534  12.104  0.2027 -0.0476  0.1506
  349TMC3     H 5287   2.277   4.308  12.104  0.8035 -0.9028  0.4649
  349TMC3    H1 5288   2.223   4.460  11.718  0.5622  1.2939  1.0895
  349TMC3    H2 5289   2.214   4.046  11.759  0.2774  1.3273 -2.8124
  349TMC3    C7 5290   2.132   4.238  11.611  0.5460 -0.3164 -0.0936
  349TMC3    C8 5291   2.223   4.041  12.033 -0.2377  0.5381  0.4760
  349TMC3    O1 5292   2.028   4.176  11.606  0.2486  0.2649 -0.1166
  349TMC3    O2 5293   2.262   4.056  12.149  0.1657 -0.2997  0.2954
  350MPD2     C 5294   1.139   3.064  10.533  0.2375 -0.3564  0.3128
  350MPD2    C1 5295   1.018   3.011  10.574  0.0479 -0.0438  0.2038
  350MPD2    C2 5296   1.003   2.956  10.700 -0.2371  0.1031 -0.0496
  350MPD2    C3 5297   1.111   2.967  10.786 -0.3749  0.4779  0.1396
  350MPD2    C4 5298   1.236   3.017  10.744  0.1466  0.1087  0.5749
  350MPD2    C5 5299   1.249   3.072  10.621  0.3537  0.1147 -0.4157
  350MPD2     H 5300   0.913   2.901  10.722 -0.6977  0.6103 -0.6646
  350MPD2    H1 5301   1.323   3.018  10.808  0.7214 -0.6252 -0.1942
  350MPD2    H2 5302   1.158   3.105  10.435  0.2967 -1.0031  0.0530
  350MPD2    H3 5303   1.345   3.108  10.585  1.6098 -1.0545  1.7997
  350MPD2     N 5304   1.093   2.930  10.920  0.2638  0.7953 -0.2021
  350MPD2    H5 5305   1.006   2.879  10.933 -0.2007  1.7914  0.5643
  350MPD2    N1 5306   0.913   2.986  10.479 -0.2798 -0.4409 -0.3489
  350MPD2    H7 5307   0.846   2.918  10.514 -2.0662  0.2752 -2.4035
  351TMC3    C1 5308   0.788   2.993  10.289 -0.5591 -0.1053 -0.5576
  351TMC3    C2 5309   0.773   2.856  10.309 -0.2040  0.8695  0.4284
  351TMC3    C3 5310   0.677   2.794  10.231 -0.3027  0.1958  0.6609
  351TMC3    C4 5311   0.723   3.062  10.190 -0.7424 -0.2982  0.3928
  351TMC3    C5 5312   0.625   2.994  10.124  0.3065 -0.2436 -0.1289
  351TMC3    C6 5313   0.596   2.862  10.148 -0.9872  0.2572  0.0627
  351TMC3     C 5314   0.900   3.051  10.361 -0.0726 -0.0666 -0.1332
  351TMC3     O 5315   0.944   3.159  10.331 -0.0370  0.0298 -0.2932
  351TMC3     H 5316   0.823   2.805  10.390 -2.8193 -1.5099  0.5370
  351TMC3    H1 5317   0.755   3.165  10.175  2.2678 -1.4214 -1.1000
  351TMC3    H2 5318   0.544   2.802  10.074 -0.5636  0.1181 -0.1250
  351TMC3    C7 5319   0.522   3.075  10.049  0.4812  0.6011 -0.2861
  351TMC3    C8 5320   0.705   2.662  10.190 -0.1303 -0.0552  0.3066
  351TMC3    O1 5321   0.555   3.190  10.017  0.0520  0.7543 -0.4120
  351TMC3    O2 5322   0.622   2.591  10.136 -1.0953  0.2797 -0.5763
  352MPD2     C 5323   3.836   3.792   0.896  0.1445  0.0768 -0.2855
  352MPD2    C1 5324   3.705   3.745   0.918 -0.0179  0.0314  0.8074
  352MPD2    C2 5325   3.689   3.619   0.975  0.0565 -0.1783 -0.3371
  352MPD2    C3 5326   3.805   3.546   0.998  0.1519 -0.2371 -0.4564
  352MPD2    C4 5327   3.935   3.600   0.993  0.0835  0.4432 -0.4817
  352MPD2    C5 5328   3.945   3.724   0.932  0.3668 -0.2215 -0.2318
  352MPD2     H 5329   3.595   3.570   0.994 -0.3013  0.5365 -0.2460
  352MPD2    H1 5330   4.023   3.548   1.029 -0.2483 -0.1477 -0.5204
  352MPD2    H2 5331   3.855   3.887   0.847  0.7412 -1.2373 -2.5865
  352MPD2    H3 5332   4.039   3.773   0.911 -0.8541  1.4528 -1.7633
  352MPD2     N 5333   3.799   3.407   1.040 -0.0279 -0.4831  0.2703
  352MPD2    H5 5334   3.888   3.361   1.054 -0.0398 -0.7411 -0.5394
  352MPD2    N1 5335   3.597   3.827   0.884 -0.2978  0.2270  0.3445
  352MPD2    H7 5336   3.616   3.919   0.846  1.2436 -0.4194 -0.4576
  353TMC3    C1 5337   3.725   3.193   1.058  0.1205 -0.2615  0.2495
  353TMC3    C2 5338   3.819   3.155   1.144 -0.8542  0.4799 -0.4278
  353TMC3    C3 5339   3.847   3.023   1.161 -0.0663 -0.1486  0.3930
  353TMC3    C4 5340   3.645   3.098   0.991  0.0601 -0.7827  0.4873
  353TMC3    C5 5341   3.667   2.968   1.029  0.7639 -0.5425  0.0903
  353TMC3    C6 5342   3.768   2.928   1.106  1.1991 -0.2673 -0.3347
  353TMC3     C 5343   3.689   3.327   1.037 -0.1835  0.2383  0.0479
  353TMC3     O 5344   3.583   3.344   0.983 -0.1987  0.6760 -0.1204
  353TMC3     H 5345   3.882   3.225   1.199 -1.5870  0.4130  0.5124
  353TMC3    H1 5346   3.597   3.116   0.895  0.0997 -0.0034  0.6164
  353TMC3    H2 5347   3.788   2.824   1.131 -2.3529 -0.4486  1.6698
  353TMC3    C7 5348   3.644   2.881   0.914  0.1885 -0.6967 -0.4536
  353TMC3    C8 5349   3.949   2.990   1.256  0.5977  0.3051  0.4344
  353TMC3    O1 5350   3.747   2.833   0.862 -0.1344  0.4378 -0.4119
  353TMC3    O2 5351   3.997   3.074   1.335  0.4064 -0.0728  0.3606
  354TMC3    C1 5352   1.136   0.762  13.501  0.1409  0.3637 -1.0584
  354TMC3    C2 5353   1.207   0.882  13.515  0.4328 -0.1072  0.7290
  354TMC3    C3 5354   1.291   0.918  13.412 -0.1950  0.9119  0.2678
  354TMC3    C4 5355   1.168   0.678  13.397  0.1193  0.5146 -0.1380
  354TMC3    C5 5356   1.277   0.700  13.313 -0.5031  0.1196 -1.1578
  354TMC3    C6 5357   1.333   0.823  13.321 -0.3313  0.1110 -0.2879
  354TMC3     C 5358   1.051   0.713  13.609 -0.1355 -0.2513  0.4795
  354TMC3     O 5359   1.015   0.597  13.614  0.6122 -0.4558 -0.1301
  354TMC3     H 5360   1.181   0.955  13.591  0.5400  1.4086 -0.7100
  354TMC3    H1 5361   1.103   0.591  13.397  1.4238 -0.4682  1.1886
  354TMC3    H2 5362   1.419   0.839  13.257 -0.2744 -1.5548 -0.6247
  354TMC3    C7 5363   1.256   0.638  13.185 -0.5041  0.4701 -0.2357
  354TMC3    C8 5364   1.316   1.054  13.385  0.0046 -0.5044  0.5901
  354TMC3    O1 5365   1.145   0.588  13.168 -0.2063 -0.6341 -0.2606
  354TMC3    O2 5366   1.291   1.143  13.467  0.3203 -0.3127 -0.3999
  355MPD2     C 5367   0.854   1.839  11.943 -0.0201 -0.6954  0.1173
  355MPD2    C1 5368   0.938   1.850  11.832 -0.6820 -0.3529 -0.6294
  355MPD2    C2 5369   1.071   1.837  11.850 -0.1644  0.8915  0.2341
  355MPD2    C3 5370   1.124   1.858  11.976  0.6035 -0.8282 -0.8439
  355MPD2    C4 5371   1.044   1.866  12.084 -0.1092 -0.4584 -0.7065
  355MPD2    C5 5372   0.916   1.837  12.065 -0.6765 -0.3533 -0.2205
  355MPD2     H 5373   1.130   1.827  11.759 -0.9603  1.3380 -0.3252
  355MPD2    H1 5374   1.079   1.873  12.187 -1.1789  1.4643 -0.4791
  355MPD2    H2 5375   0.746   1.836  11.934  0.0069 -1.6721  0.1143
  355MPD2    H3 5376   0.851   1.828  12.151  0.6463  1.4468  0.9747
  355MPD2     N 5377   1.260   1.895  11.997  0.4843 -0.2033  0.5053
  355MPD2    H5 5378   1.284   1.934  12.088 -1.5982  1.9146  0.1204
  355MPD2    N1 5379   0.880   1.886  11.711 -0.8836  0.3788  0.1702
  355MPD2    H7 5380   0.779   1.880  11.704 -0.7114 -2.0394 -0.4136
  356TMC3    C1 5381   1.476   1.982  11.930  0.4581  0.9706 -0.4590
  356TMC3    C2 5382   1.512   2.063  11.824  0.6324  0.5234 -0.7567
  356TMC3    C3 5383   1.564   2.184  11.847  0.3766 -1.1278 -0.5795
  356TMC3    C4 5384   1.485   2.030  12.059  0.3833  0.7981  0.1108
  356TMC3    C5 5385   1.534   2.155  12.079  0.1636  0.3366 -0.0281
  356TMC3    C6 5386   1.585   2.226  11.979 -0.7776  0.0265 -0.5231
  356TMC3     C 5387   1.357   1.902  11.900  0.8915 -0.7732  0.1425
  356TMC3     O 5388   1.345   1.865  11.785  0.3489 -0.3615  0.1704
  356TMC3     H 5389   1.516   2.017  11.726 -0.3783 -0.3644 -0.3767
  356TMC3    H1 5390   1.444   1.976  12.143  2.3181 -2.0458 -0.7723
  356TMC3    H2 5391   1.616   2.329  11.996  1.3956 -0.1466 -3.3622
  356TMC3    C7 5392   1.561   2.197  12.222 -0.3030 -0.1094  0.3855
  356TMC3    C8 5393   1.582   2.268  11.727  0.2722 -0.0664 -0.2190
  356TMC3    O1 5394   1.543   2.113  12.308 -0.5488 -0.7081 -0.3802
  356TMC3    O2 5395   1.537   2.232  11.622 -0.0861 -0.0047  0.2645
  357MPD2     C 5396   0.775   1.315   0.778  0.1810  0.0500 -0.2355
  357MPD2    C1 5397   0.747   1.328   0.915 -0.5754 -0.1346 -0.3081
  357MPD2    C2 5398   0.618   1.373   0.947 -0.0887 -0.2211 -0.6703
  357MPD2    C3 5399   0.523   1.403   0.849 -0.1652  0.9407 -0.1171
  357MPD2    C4 5400   0.554   1.387   0.715  0.1495  0.1126 -0.5086
  357MPD2    C5 5401   0.676   1.335   0.686 -0.2932 -0.1593 -0.4131
  357MPD2     H 5402   0.579   1.369   1.048  3.3270 -1.7949  0.5641
  357MPD2    H1 5403   0.485   1.396   0.631 -1.8511  2.2448  1.3386
  357MPD2    H2 5404   0.876   1.285   0.750 -0.2801 -2.7309  1.0458
  357MPD2    H3 5405   0.700   1.328   0.581  1.1710  1.3785 -0.1785
  357MPD2     N 5406   0.385   1.431   0.879  0.5723  0.0542 -0.2989
  357MPD2    H5 5407   0.317   1.429   0.803 -0.1281  0.0168  0.3342
  357MPD2    N1 5408   0.847   1.287   1.007  0.6000  0.3203 -0.1942
  357MPD2    H7 5409   0.933   1.245   0.973  0.9339  0.0668  0.9970
  358TMC3    C1 5410   0.948   1.202   1.198  0.8704 -0.2521 -0.0900
  358TMC3    C2 5411   1.061   1.230   1.136 -0.0921 -0.0727 -0.3734
  358TMC3    C3 5412   1.150   1.132   1.120  0.0041 -0.2307  0.8812
  358TMC3    C4 5413   0.919   1.080   1.247 -0.2360  0.1918 -0.4924
  358TMC3    C5 5414   1.026   0.994   1.247 -0.4677  0.1721 -0.1261
  358TMC3    C6 5415   1.141   1.016   1.193 -0.4949  0.3017 -0.2051
  358TMC3     C 5416   0.833   1.265   1.141  0.5352  0.7813 -0.0142
  358TMC3     O 5417   0.737   1.259   1.211  0.2114 -0.3686  0.3933
  358TMC3     H 5418   1.072   1.327   1.089  0.2128  1.3324  2.6456
  358TMC3    H1 5419   0.822   1.042   1.279  0.5335 -1.8784 -0.6547
  358TMC3    H2 5420   1.199   0.928   1.167 -0.1763  0.5377 -0.2953
  358TMC3    C7 5421   0.997   0.855   1.286  0.0031 -0.4977 -0.3205
  358TMC3    C8 5422   1.202   1.120   0.980 -0.2540  0.7665 -0.8619
  358TMC3    O1 5423   0.893   0.801   1.245 -0.3651  0.1729 -0.3962
  358TMC3    O2 5424   1.138   1.193   0.909  0.0943 -0.8273  0.1816
  359MPD2     C 5425   1.218   0.921  12.436  0.3601  0.0919  0.0447
  359MPD2    C1 5426   1.230   0.835  12.328 -0.1966  1.2662 -0.7569
  359MPD2    C2 5427   1.129   0.750  12.308 -0.0834  0.3671  0.0143
  359MPD2    C3 5428   1.019   0.737  12.389 -0.1314 -0.1679 -0.1351
  359MPD2    C4 5429   1.008   0.830  12.492  0.4724  0.3432 -0.2878
  359MPD2    C5 5430   1.108   0.926  12.510  0.3732 -0.2080  0.0739
  359MPD2     H 5431   1.131   0.685  12.221  1.4044 -1.4144  1.4031
  359MPD2    H1 5432   0.918   0.830  12.552  1.1437 -0.0458  0.7497
  359MPD2    H2 5433   1.304   0.984  12.457  1.4424 -1.3985  0.1527
  359MPD2    H3 5434   1.104   0.986  12.600  1.2563  0.4912 -0.3593
  359MPD2     N 5435   0.922   0.632  12.376  0.0710 -0.3652  0.2925
  359MPD2    H5 5436   0.847   0.628  12.444  2.4232 -2.4382  2.7305
  359MPD2    N1 5437   1.351   0.813  12.259  1.2722 -0.1782  0.1350
  359MPD2    H7 5438   1.338   0.752  12.178 -0.3496 -0.1989  0.4176
  360TMC3    C1 5439   1.583   0.840  12.187 -0.1941 -0.0520  0.6259
  360TMC3    C2 5440   1.707   0.810  12.229 -0.6414 -0.4536  0.5523
  360TMC3    C3 5441   1.806   0.782  12.136  0.3661  0.1745 -0.6346
  360TMC3    C4 5442   1.555   0.853  12.054 -0.7368  0.0226 -0.6241
  360TMC3    C5 5443   1.659   0.831  11.966  0.4019  0.0846  0.4576
  360TMC3    C6 5444   1.785   0.798  12.003  1.0321 -0.3700  0.4357
  360TMC3     C 5445   1.478   0.871  12.287  0.6420  0.5720  0.4325
  360TMC3     O 5446   1.505   0.916  12.397  0.2011 -0.4263 -0.0218
  360TMC3     H 5447   1.723   0.788  12.334  1.3129 -0.7594  0.1772
  360TMC3    H1 5448   1.462   0.906  12.035 -0.2141  0.3818 -2.1601
  360TMC3    H2 5449   1.858   0.793  11.923  0.2104  1.8916 -0.4599
  360TMC3    C7 5450   1.630   0.802  11.820  0.1518 -0.2923  0.2301
  360TMC3    C8 5451   1.917   0.698  12.177 -0.3516  1.2024  0.3251
  360TMC3    O1 5452   1.720   0.792  11.739 -0.3208  0.0107  0.2739
  360TMC3    O2 5453   1.965   0.704  12.291  0.6139  0.0640  0.0454
  361MPD2     C 5454   3.796   4.047  16.341  0.2718 -0.2810 -0.4023
  361MPD2    C1 5455   3.764   4.096  16.469  0.3403  1.0736 -0.1771
  361MPD2    C2 5456   3.783   4.015  16.578  0.0285  0.2856 -0.1870
  361MPD2    C3 5457   3.841   3.888  16.561 -0.0168 -0.2320  0.0468
  361MPD2    C4 5458   3.883   3.844  16.439  0.0498  0.2883  0.6127
  361MPD2    C5 5459   3.855   3.923  16.331 -0.6882  0.0715 -0.4945
  361MPD2     H 5460   3.758   4.055  16.676 -0.5129 -0.0964 -0.1688
  361MPD2    H1 5461   3.932   3.748  16.423 -1.4526 -0.1478 -1.3515
  361MPD2    H2 5462   3.776   4.095  16.246  1.2804 -1.5215 -1.2408
  361MPD2    H3 5463   3.899   3.898  16.235  0.7868 -0.4759  0.3184
  361MPD2     N 5464   3.849   3.798  16.669 -0.3670 -0.1505 -0.3333
  361MPD2    H5 5465   3.902   3.713  16.653  2.7242  1.2852  2.4383
  361MPD2    N1 5466   3.701   4.220  16.490  0.2942 -0.0075  0.7882
  361MPD2    H7 5467   3.692   4.258  16.584 -3.9227  0.9390  0.0149
  362TMC3    C1 5468   3.574   4.419  16.435 -0.2772  0.1345  0.4978
  362TMC3    C2 5469   3.539   4.436  16.566 -0.0709  0.2588  0.2650
  362TMC3    C3 5470   3.445   4.526  16.600  0.1341  0.2655  0.2389
  362TMC3    C4 5471   3.521   4.497  16.337  0.4699 -0.1948 -0.4726
  362TMC3    C5 5472   3.429   4.591  16.370  0.3402 -0.1480  1.1533
  362TMC3    C6 5473   3.391   4.606  16.501 -0.5449 -0.0491  0.5986
  362TMC3     C 5474   3.640   4.295  16.391  0.3281  0.1175 -0.5230
  362TMC3     O 5475   3.650   4.276  16.272  0.3402 -0.1502  0.1083
  362TMC3     H 5476   3.592   4.382  16.643  2.8648  1.3619 -0.9897
  362TMC3    H1 5477   3.549   4.488  16.233 -0.1585 -0.2620 -0.6375
  362TMC3    H2 5478   3.321   4.682  16.533  1.2968  2.2219 -0.7099
  362TMC3    C7 5479   3.392   4.692  16.275 -0.2788  1.1561 -0.6742
  362TMC3    C8 5480   3.403   4.533  16.739 -0.2101 -0.1082  0.3201
  362TMC3    O1 5481   3.284   0.006  16.294 -0.4882 -0.2838  0.1880
  362TMC3    O2 5482   3.475   4.472  16.818  0.4172  0.0709 -0.1721
  363TMC3    C1 5483   1.339   1.984   9.425 -0.3175 -0.7445  0.5148
  363TMC3    C2 5484   1.464   1.997   9.483  0.1600  0.4334  0.4862
  363TMC3    C3 5485   1.486   2.117   9.546 -0.2219  0.3269 -0.7006
  363TMC3    C4 5486   1.258   2.086   9.422  0.1526  0.3009 -0.4630
  363TMC3    C5 5487   1.295   2.214   9.453 -0.3432 -0.0886 -0.5281
  363TMC3    C6 5488   1.408   2.229   9.533  0.5676 -0.2332  0.2136
  363TMC3     C 5489   1.312   1.859   9.367  0.2239 -0.3422  0.3573
  363TMC3     O 5490   1.410   1.787   9.336  0.3358 -0.6228 -0.1138
  363TMC3     H 5491   1.545   1.928   9.460  0.1575  0.8031 -0.6375
  363TMC3    H1 5492   1.156   2.078   9.386 -0.1226  3.8414 -0.5595
  363TMC3    H2 5493   1.450   2.326   9.559 -4.0058  1.7783  0.2117
  363TMC3    C7 5494   1.180   2.307   9.474 -0.3733 -0.0402 -0.3758
  363TMC3    C8 5495   1.610   2.139   9.618  0.0705  0.0617 -0.2647
  363TMC3    O1 5496   1.074   2.286   9.420  0.6047 -0.1478  0.0961
  363TMC3    O2 5497   1.654   2.248   9.650  1.1460 -0.4925  0.5949
  364MPD2     C 5498   0.402   1.419  10.933  0.3572 -0.0666 -0.4022
  364MPD2    C1 5499   0.441   1.392  10.807 -0.3762 -0.1928 -0.8571
  364MPD2    C2 5500   0.432   1.256  10.767 -0.0625  0.3851 -0.5114
  364MPD2    C3 5501   0.386   1.152  10.847 -0.0892 -0.3340  0.2836
  364MPD2    C4 5502   0.316   1.190  10.962  0.2140 -0.0367  0.3408
  364MPD2    C5 5503   0.329   1.324  11.004  0.3316 -0.9838 -0.0927
  364MPD2     H 5504   0.486   1.231  10.676  1.2423  0.4833  0.2340
  364MPD2    H1 5505   0.268   1.123  11.033  0.7394 -0.5324  0.2316
  364MPD2    H2 5506   0.406   1.519  10.973  1.1060  1.2549 -3.8088
  364MPD2    H3 5507   0.290   1.347  11.102 -0.4419  0.3460 -0.7172
  364MPD2     N 5508   0.404   1.013  10.823  0.1510 -0.2102 -0.0622
  364MPD2    H5 5509   0.389   0.952  10.903  0.8404  2.6044  2.2440
  364MPD2    N1 5510   0.508   1.492  10.731 -0.9350  0.3022  0.3828
  364MPD2    H7 5511   0.548   1.567  10.786  0.6484 -0.3395  0.1059
  365TMC3    C1 5512   0.614   1.598  10.545 -0.5226  0.7880 -0.4075
  365TMC3    C2 5513   0.687   1.578  10.427  0.8357  0.4822  0.4030
  365TMC3    C3 5514   0.770   1.682  10.390 -0.5016 -0.5013 -0.4713
  365TMC3    C4 5515   0.622   1.716  10.617 -0.2341 -0.4171  0.4054
  365TMC3    C5 5516   0.699   1.815  10.561  0.1565  0.5825 -0.8075
  365TMC3    C6 5517   0.776   1.798  10.458  0.2411  0.5218  0.0394
  365TMC3     C 5518   0.523   1.496  10.592 -0.0750  0.8150  0.3194
  365TMC3     O 5519   0.490   1.416  10.504  0.4505 -0.1831 -0.2257
  365TMC3     H 5520   0.668   1.483  10.377 -0.2954  2.0113 -2.0473
  365TMC3    H1 5521   0.555   1.748  10.696  0.7587 -2.3848  2.0375
  365TMC3    H2 5522   0.845   1.878  10.433 -0.0198  0.1082 -1.9443
  365TMC3    C7 5523   0.707   1.949  10.628 -0.4304  0.4866  0.0497
  365TMC3    C8 5524   0.867   1.660  10.280 -0.3048 -0.6279  0.6687
  365TMC3    O1 5525   0.771   2.032  10.565 -0.2080  0.5060 -0.2327
  365TMC3    O2 5526   0.914   1.765  10.231 -0.4117  0.4528 -0.2031
  366MPD2     C 5527   3.679   2.331  14.793  0.1557  0.0193 -0.6274
  366MPD2    C1 5528   3.722   2.413  14.896 -0.6532 -0.1268 -0.5298
  366MPD2    C2 5529   3.856   2.411  14.925  0.1903  0.1567  0.1898
  366MPD2    C3 5530   3.944   2.351  14.839 -0.7102  0.4664 -0.1405
  366MPD2    C4 5531   3.903   2.275  14.738 -0.0784 -0.5226  0.6661
  366MPD2    C5 5532   3.772   2.257  14.718  0.4879  0.2818 -0.4699
  366MPD2     H 5533   3.890   2.473  15.006 -1.0461 -1.6215  2.0636
  366MPD2    H1 5534   3.974   2.221  14.676 -0.7703 -1.2309  0.4848
  366MPD2    H2 5535   3.577   2.301  14.775  0.7861  0.2227 -4.5451
  366MPD2    H3 5536   3.736   2.199  14.633 -1.0397  0.1172  0.2884
  366MPD2     N 5537   4.078   2.386  14.869  0.4816 -0.1295  0.4279
  366MPD2    H5 5538   4.098   2.433  14.956  0.3840  0.6641  0.0192
  366MPD2    N1 5539   3.641   2.488  14.985 -0.2026  0.6419  0.2044
  366MPD2    H7 5540   3.694   2.553  15.041  0.0681  1.4851 -1.0389
  367TMC3    C1 5541   3.450   2.578  15.084  0.4833  0.4164  0.0413
  367TMC3    C2 5542   3.537   2.625  15.173  0.6264  0.4154  0.2394
  367TMC3    C3 5543   3.531   2.759  15.202 -0.3799  0.0765 -0.4570
  367TMC3    C4 5544   3.358   2.657  15.020 -0.4083 -0.0349 -0.5756
  367TMC3    C5 5545   3.353   2.787  15.054 -0.0504  0.3702  0.3608
  367TMC3    C6 5546   3.430   2.841  15.147  0.9959  0.1158 -0.5132
  367TMC3     C 5547   3.500   2.478  14.991  0.6681 -0.8309 -0.0356
  367TMC3     O 5548   3.419   2.423  14.920 -0.3824  0.1370  0.1413
  367TMC3     H 5549   3.607   2.563  15.228 -1.2471 -2.7204 -0.9631
  367TMC3    H1 5550   3.318   2.625  14.925 -1.2950 -1.7085  0.3649
  367TMC3    H2 5551   3.411   2.945  15.170  0.9700 -0.2882  1.2796
  367TMC3    C7 5552   3.303   2.886  14.958 -0.5017 -0.0737 -0.5509
  367TMC3    C8 5553   3.647   2.823  15.266 -0.6101  0.0417 -0.5081
  367TMC3    O1 5554   3.373   2.986  14.936 -0.2927 -0.2637  0.4205
  367TMC3    O2 5555   3.708   2.764  15.355  0.0240  0.0095 -0.1488
  368MPD2     C 5556   4.703   3.960  12.969 -0.0866 -0.0735  0.1283
  368MPD2    C1 5557   4.679   4.094  12.987 -0.0758  0.4338  0.2451
  368MPD2    C2 5558   0.045   4.182  12.991 -0.0615 -0.1775  0.4908
  368MPD2    C3 5559   0.177   4.145  12.970  0.0298  0.4325 -0.4630
  368MPD2    C4 5560   0.197   4.013  12.948  0.1191 -0.4893 -0.2329
  368MPD2    C5 5561   0.098   3.918  12.951  0.1306  0.3491 -0.8737
  368MPD2     H 5562   0.015   4.284  13.011  1.1324  0.1449  0.5928
  368MPD2    H1 5563   0.296   3.977  12.922  0.7999  1.6648 -0.6246
  368MPD2    H2 5564   4.621   3.888  12.967 -1.5125  1.5379  0.3584
  368MPD2    H3 5565   0.118   3.812  12.941  0.2024  0.2835 -0.0593
  368MPD2     N 5566   0.284   4.241  12.981  0.3011 -0.1461 -0.0646
  368MPD2    H5 5567   0.378   4.219  12.951 -0.6276 -0.1743 -2.9737
  368MPD2    N1 5568   4.553   4.152  13.001  0.1979 -0.6784  0.2921
  368MPD2    H7 5569   4.542   4.252  13.014 -0.1858 -0.6756 -0.0213
  369TMC3    C1 5570   4.329   4.181  12.972 -0.5042  0.1245 -0.1682
  369TMC3    C2 5571   4.385   4.279  12.898 -0.5929  0.5019 -0.4117
  369TMC3    C3 5572   4.354   4.406  12.939  0.3405 -0.3925  0.2720
  369TMC3    C4 5573   4.248   4.197  13.081  0.1383  0.0418  0.3472
  369TMC3    C5 5574   4.207   4.327  13.107  0.2763 -0.1703  1.0900
  369TMC3    C6 5575   4.269   4.431  13.041 -0.4003  0.2707  0.5806
  369TMC3     C 5576   4.436   4.081  12.999  0.0863 -0.3461  0.6546
  369TMC3     O 5577   4.413   3.972  13.051 -0.3349  0.1670 -0.8004
  369TMC3     H 5578   4.417   4.260  12.796  3.6861  0.4371  0.9388
  369TMC3    H1 5579   4.208   4.114  13.139  2.1704 -1.4594 -0.3913
  369TMC3    H2 5580   4.260   4.537  13.062  2.4982  0.3831  1.2337
  369TMC3    C7 5581   4.093   4.338  13.198 -0.0410  0.0202  0.0457
  369TMC3    C8 5582   4.452   4.509  12.909  0.1026  0.5421 -0.6886
  369TMC3    O1 5583   4.070   4.233  13.255  0.1146 -0.1533 -0.6643
  369TMC3    O2 5584   4.446   4.620  12.958 -0.0596 -0.2665  0.3752
  370TMC3    C1 5585   4.364   0.286  15.909 -0.2599 -0.1504 -0.2665
  370TMC3    C2 5586   4.295   0.221  16.003  0.6646  0.1089  0.1432
  370TMC3    C3 5587   4.242   0.101  15.979 -0.2024  0.0620  0.0722
  370TMC3    C4 5588   4.398   0.227  15.785 -0.0347 -0.3914 -0.0652
  370TMC3    C5 5589   4.370   0.093  15.776 -0.1762  1.2617 -0.2477
  370TMC3    C6 5590   4.303   0.027  15.874  0.7427  0.1102 -0.2788
  370TMC3     C 5591   4.462   0.373  15.966 -0.1953 -0.0595  0.8629
  370TMC3     O 5592   4.481   0.355  16.088  0.2363  0.0021  0.1136
  370TMC3     H 5593   4.287   0.268  16.101 -1.0374  0.4787 -0.1647
  370TMC3    H1 5594   4.464   0.276  15.714 -1.6161  2.4756  0.4407
  370TMC3    H2 5595   4.275   4.662  15.863  2.2984 -0.6625  3.0938
  370TMC3    C7 5596   4.462   0.020  15.684 -0.0442  0.4856  0.3641
  370TMC3    C8 5597   4.191   0.026  16.095 -0.4234 -0.0119 -0.6396
  370TMC3    O1 5598   4.512   0.080  15.590 -0.2516 -0.3032  0.2734
  370TMC3    O2 5599   4.222   4.645  16.104 -0.5548 -0.0013 -0.8375
  371TMC3    C1 5600   0.988   3.252  15.604 -0.1312  0.5408 -1.1498
  371TMC3    C2 5601   0.871   3.308  15.655 -0.3489  0.3429 -0.4556
  371TMC3    C3 5602   0.837   3.440  15.616  0.3205 -0.2442 -0.2486
  371TMC3    C4 5603   1.077   3.331  15.529 -0.5852  0.5608 -0.3933
  371TMC3    C5 5604   1.037   3.459  15.507 -0.6024 -0.0004 -0.0304
  371TMC3    C6 5605   0.920   3.519  15.542 -0.3001  0.3429 -0.3763
  371TMC3     C 5606   1.022   3.114  15.626  0.2025 -0.1225 -0.1527
  371TMC3     O 5607   1.135   3.075  15.603 -0.3277 -0.3201  0.2317
  371TMC3     H 5608   0.814   3.253  15.729  1.2134  0.1691  0.6416
  371TMC3    H1 5609   1.162   3.288  15.478  0.7322  2.8946 -0.1564
  371TMC3    H2 5610   0.890   3.622  15.526 -0.0095  0.1821 -1.9994
  371TMC3    C7 5611   1.139   3.542  15.435  1.2261 -0.2714  0.2431
  371TMC3    C8 5612   0.717   3.500  15.666  0.3072  0.1922 -0.1751
  371TMC3    O1 5613   1.225   3.479  15.370 -0.3799 -0.6235 -0.2240
  371TMC3    O2 5614   0.701   3.619  15.646 -0.0524 -0.4937 -0.1917
  372MPD2     C 5615   4.711   4.473  14.220 -0.4006 -0.3142  0.1889
  372MPD2    C1 5616   0.084   4.482  14.134 -0.1129  0.6410  0.3733
  372MPD2    C2 5617   0.160   4.373  14.107  0.0495  0.2956  0.1876
  372MPD2    C3 5618   0.110   4.254  14.148 -0.4927 -0.3748 -0.2911
  372MPD2    C4 5619   4.736   4.239  14.225  0.4733 -0.0238  0.5539
  372MPD2    C5 5620   4.664   4.353  14.263  0.3655 -0.3291 -0.5972
  372MPD2     H 5621   0.251   4.375  14.049 -0.8329 -1.8623 -1.2632
  372MPD2    H1 5622   4.700   4.145  14.265  0.0910 -0.1899 -0.1775
  372MPD2    H2 5623   4.653   4.564  14.230  0.1968 -0.0953  1.6305
  372MPD2    H3 5624   4.586   4.348  14.338 -0.1337  0.2333 -1.0720
  372MPD2     N 5625   0.184   4.143  14.100  0.2545 -0.1493  0.3371
  372MPD2    H5 5626   0.273   4.146  14.051  0.6287 -1.2734  0.9348
  372MPD2    N1 5627   0.127   4.606  14.078  0.2234  0.1026 -0.7521
  372MPD2    H7 5628   0.219   4.604  14.035  1.6627 -0.0888  2.3144
  373TMC3    C1 5629   0.257   3.917  14.073  0.4019  0.5142 -0.1520
  373TMC3    C2 5630   0.387   3.946  14.106 -0.4068 -0.2746 -0.1505
  373TMC3    C3 5631   0.477   3.853  14.083  0.7925  0.1334 -0.1423
  373TMC3    C4 5632   0.219   3.791  14.042  0.0516 -0.5913  0.3567
  373TMC3    C5 5633   0.314   3.697  14.015 -0.2165 -0.2452  0.2922
  373TMC3    C6 5634   0.445   3.726  14.038  0.1290  0.0354 -0.1977
  373TMC3     C 5635   0.151   4.010  14.114  1.0848  0.0483  0.4244
  373TMC3     O 5636   0.059   3.958  14.173  0.4470  0.0188  0.2290
  373TMC3     H 5637   0.415   4.047  14.131  0.0001 -0.4693  0.1760
  373TMC3    H1 5638   0.113   3.769  14.040  0.5467 -2.8939 -0.5778
  373TMC3    H2 5639   0.523   3.651  14.028 -1.1493 -1.2073 -0.8530
  373TMC3    C7 5640   0.286   3.566  13.949 -0.4312  0.0858 -0.0628
  373TMC3    C8 5641   0.616   3.905  14.081 -0.0349 -0.0315 -0.1850
  373TMC3    O1 5642   0.171   3.551  13.915 -0.1878  0.2464 -0.2757
  373TMC3    O2 5643   0.635   4.026  14.065 -0.2309  0.3267  0.4198
  374TMC3    C1 5644   0.680   0.069   9.896  0.1048 -0.0475 -0.2731
  374TMC3    C2 5645   0.799   0.124   9.940 -0.6295  0.5878 -0.4704
  374TMC3    C3 5646   0.866   0.210   9.853 -0.2953  0.1313  0.2742
  374TMC3    C4 5647   0.627   0.103   9.778  0.6250 -0.2280  0.2249
  374TMC3    C5 5648   0.696   0.185   9.697 -0.1842  0.3348 -0.2426
  374TMC3    C6 5649   0.822   0.235   9.726 -0.0702  0.1214 -0.6075
  374TMC3     C 5650   0.596   0.013  10.001 -0.4160 -0.5272 -0.5326
  374TMC3     O 5651   0.613   0.054  10.115  0.4140  0.0832 -0.3454
  374TMC3     H 5652   0.841   0.102  10.037  1.0342 -3.1594 -2.0217
  374TMC3    H1 5653   0.525   0.078   9.753  1.0578 -0.9933 -0.7815
  374TMC3    H2 5654   0.866   0.303   9.654  0.5015 -0.2234 -0.5805
  374TMC3    C7 5655   0.634   0.211   9.570  0.3335 -0.2748  0.5435
  374TMC3    C8 5656   0.994   0.268   9.887  0.1277  0.1019 -0.2564
  374TMC3    O1 5657   0.665   0.318   9.516 -0.0381  0.3023  0.5285
  374TMC3    O2 5658   1.031   0.365   9.821 -0.3103  0.5685  0.3515
  375MPD2     C 5659   0.909   4.597  16.864  0.8448  0.6771 -0.4588
  375MPD2    C1 5660   0.858   4.654  16.749  0.0672  0.4295 -0.0111
  375MPD2    C2 5661   0.939   4.669  16.637  0.7580 -0.5242 -0.0145
  375MPD2    C3 5662   1.066   4.608  16.633  0.3567 -0.0139  0.0526
  375MPD2    C4 5663   1.110   4.547  16.750 -0.8845 -0.2634  0.4877
  375MPD2    C5 5664   1.036   4.548  16.860  1.0333 -0.2784 -0.0308
  375MPD2     H 5665   0.896   4.719  16.552  0.1320 -0.6682  0.2175
  375MPD2    H1 5666   1.214   4.520  16.766  0.0381  1.2584 -3.0626
  375MPD2    H2 5667   0.859   4.613  16.959 -2.5543 -2.4847 -1.7456
  375MPD2    H3 5668   1.083   4.524  16.955  1.1885  1.7159  0.3923
  375MPD2     N 5669   1.155   4.616  16.518 -0.3986  0.1492 -0.2501
  375MPD2    H5 5670   1.239   4.559  16.513  0.1768  0.8978  0.9847
  375MPD2    N1 5671   0.740   4.726  16.736 -0.5384  0.7856 -0.9646
  375MPD2    H7 5672   0.710   0.039  16.655  2.1005  2.7447 -0.6534
  376TMC3    C1 5673   1.222   4.681  16.308 -0.2578  0.2923  0.1057
  376TMC3    C2 5674   1.342   4.619  16.329  0.7372  0.0732 -0.0069
  376TMC3    C3 5675   1.429   4.607  16.227  0.0172  0.1993 -0.4286
  376TMC3    C4 5676   1.188   4.725  16.183  0.6142 -0.4948 -0.0911
  376TMC3    C5 5677   1.277   4.710  16.077  0.3426  0.0557  0.5800
  376TMC3    C6 5678   1.402   4.658  16.102  0.1422  0.6271 -0.0459
  376TMC3     C 5679   1.132   4.703  16.418  0.5102 -0.0333  0.3565
  376TMC3     O 5680   1.051   0.059  16.400 -1.1298  0.3464 -0.0257
  376TMC3     H 5681   1.371   4.585  16.428  0.1634  0.6113  0.3446
  376TMC3    H1 5682   1.086   0.018  16.166 -0.6175 -3.2756  1.9086
  376TMC3    H2 5683   1.478   4.669  16.025 -0.8385 -0.5996 -1.1816
  376TMC3    C7 5684   1.261   0.058  15.958  0.4879  0.3836 -0.0616
  376TMC3    C8 5685   1.558   4.549  16.246  0.1281 -0.2566  0.0767
  376TMC3    O1 5686   1.192   0.157  15.974 -0.2750  0.2443 -0.2283
  376TMC3    O2 5687   1.573   4.457  16.327  0.2328  0.5318 -0.3048
  377MPD2     C 5688   4.202   4.467  12.601  0.5210  0.0658  0.0214
  377MPD2    C1 5689   4.175   4.588  12.663  0.2060  0.0718 -0.0921
  377MPD2    C2 5690   4.063   4.591  12.744  0.3055 -0.2429  0.0233
  377MPD2    C3 5691   3.981   4.480  12.766  0.9589 -0.2414  0.5377
  377MPD2    C4 5692   4.020   4.359  12.712 -0.3667 -0.9144  0.1267
  377MPD2    C5 5693   4.132   4.349  12.629  0.0128 -0.2286  0.6846
  377MPD2     H 5694   4.037   4.681  12.799 -1.1789 -0.0632 -0.9833
  377MPD2    H1 5695   3.964   4.269  12.734 -3.2768  0.5360 -1.3884
  377MPD2    H2 5696   4.294   4.452  12.546 -0.1323 -2.3576 -0.3828
  377MPD2    H3 5697   4.155   4.249  12.593  0.2324  0.1489 -0.2170
  377MPD2     N 5698   3.871   4.484  12.854  0.5191  0.3153 -0.1006
  377MPD2    H5 5699   3.817   4.401  12.873  2.4572 -1.0668 -0.5961
  377MPD2    N1 5700   4.258   4.705  12.640 -0.0633  0.1264  0.1234
  377MPD2    H7 5701   4.332   4.697  12.572 -1.4643  1.5500 -1.5556
  378TMC3    C1 5702   4.307   0.346  12.476 -0.2489 -0.1269  0.3105
  378TMC3    C2 5703   4.272   0.284  12.589  0.3559  0.1574 -0.1144
  378TMC3    C3 5704   4.339   0.177  12.637 -0.1939 -0.2228 -0.2430
  378TMC3    C4 5705   4.419   0.303  12.406 -0.5396  0.0044  0.0909
  378TMC3    C5 5706   4.481   0.193  12.460 -0.1412  0.2122  0.1941
  378TMC3    C6 5707   4.441   0.119  12.572 -0.2498  0.0690 -0.7148
  378TMC3     C 5708   4.212   0.442  12.415 -0.3965 -0.1603 -0.2557
  378TMC3     O 5709   4.117   0.458  12.491  0.9675 -0.3159  0.1760
  378TMC3     H 5710   4.186   0.315  12.648  0.4858 -1.0360  0.7027
  378TMC3    H1 5711   4.461   0.367  12.328  1.5600 -0.4602  0.8498
  378TMC3    H2 5712   4.494   0.035  12.616 -2.3624 -0.2106  1.3388
  378TMC3    C7 5713   4.581   0.132  12.381 -0.0072 -0.2869  0.6808
  378TMC3    C8 5714   4.249   0.088  12.699  0.1068 -0.3610  0.7998
  378TMC3    O1 5715   4.650   0.053  12.446  0.3286  0.3495 -0.0538
  378TMC3    O2 5716   4.172   0.129  12.783  0.2383 -0.5980 -0.5780
  379MPD2     C 5717   4.350   3.022  16.143 -0.3359 -0.0834  0.6621
  379MPD2    C1 5718   4.415   2.938  16.062  0.2183  0.8735  0.5556
  379MPD2    C2 5719   4.499   2.846  16.128 -0.7215 -0.4191  0.2651
  379MPD2    C3 5720   4.511   2.844  16.271  0.3103 -0.7768 -0.3610
  379MPD2    C4 5721   4.456   2.934  16.352 -0.3049 -0.4706 -0.3946
  379MPD2    C5 5722   4.372   3.023  16.280  0.2596  0.1971 -0.3601
  379MPD2     H 5723   4.554   2.776  16.066 -2.3381 -0.8524 -0.6600
  379MPD2    H1 5724   4.447   2.930  16.460  1.3094  1.2256 -0.1925
  379MPD2    H2 5725   4.301   3.110  16.103 -0.8394 -0.8424 -0.3847
  379MPD2    H3 5726   4.315   3.093  16.340  0.7836 -1.6212  2.2610
  379MPD2     N 5727   4.584   2.743  16.347 -0.2301 -0.2284 -0.6956
  379MPD2    H5 5728   4.570   2.741  16.447  1.1164  1.5097 -0.4679
  379MPD2    N1 5729   4.384   2.931  15.921 -0.8822  0.0147  0.1974
  379MPD2    H7 5730   4.313   2.998  15.894 -0.5342  0.7967  1.2243
  380TMC3    C1 5731   4.407   2.905  15.689  0.0458 -0.7904 -0.2420
  380TMC3    C2 5732   4.503   2.906  15.590  0.6790  0.1414  0.4176
  380TMC3    C3 5733   4.470   2.960  15.468 -0.3189 -0.0623 -0.8350
  380TMC3    C4 5734   4.276   2.947  15.659 -0.8697  0.7626 -0.5855
  380TMC3    C5 5735   4.246   2.999  15.532 -0.6425  0.8162 -0.5374
  380TMC3    C6 5736   4.347   3.014  15.439  0.0954  1.3391  0.5785
  380TMC3     C 5737   4.451   2.864  15.821  0.2449 -0.0728 -0.6283
  380TMC3     O 5738   4.559   2.805  15.837  0.0643  0.0215 -0.4581
  380TMC3     H 5739   4.599   2.856  15.598  1.6190  2.0096  0.8073
  380TMC3    H1 5740   4.187   2.933  15.719  0.2727  2.5820  1.5280
  380TMC3    H2 5741   4.325   3.059  15.343  0.3764  0.7160  0.2186
  380TMC3    C7 5742   4.111   2.988  15.489  0.1291 -0.0229  0.4996
  380TMC3    C8 5743   4.549   2.932  15.352 -0.4186 -0.5407  0.1770
  380TMC3    O1 5744   4.040   2.895  15.526 -0.0239 -0.7720  0.0965
  380TMC3    O2 5745   4.500   2.956  15.243 -0.4535 -0.0892 -0.3279
  381TMC3    C1 5746   4.354   4.062  15.942 -0.6181 -0.2228  0.1749
  381TMC3    C2 5747   4.417   4.178  15.960  0.2304 -0.9931  0.2882
  381TMC3    C3 5748   4.404   4.244  16.080 -0.4690  0.1156  0.0992
  381TMC3    C4 5749   4.278   4.008  16.046  0.3729  0.1799  0.1116
  381TMC3    C5 5750   4.280   4.072  16.167 -0.7292  0.1589  0.7127
  381TMC3    C6 5751   4.347   4.184  16.194 -0.1448 -0.8186  0.4074
  381TMC3     C 5752   4.409   3.983  15.840 -0.0111 -0.8110  0.0328
  381TMC3     O 5753   4.456   4.043  15.744 -0.5205  0.6177 -0.4301
  381TMC3     H 5754   4.463   4.220  15.872  1.1874 -1.2428  0.6666
  381TMC3    H1 5755   4.217   3.918  16.040  0.5921  0.0616 -0.3339
  381TMC3    H2 5756   4.352   4.230  16.292 -2.4563  0.3689 -0.0272
  381TMC3    C7 5757   4.237   3.988  16.275 -0.0643  0.1101 -0.2146
  381TMC3    C8 5758   4.521   4.322  16.102 -0.1495  0.0517 -0.6029
  381TMC3    O1 5759   4.220   3.872  16.250  0.2603 -0.1124  0.2188
  381TMC3    O2 5760   4.628   4.282  16.061  0.2000  0.6222  0.7058
  382MPD2     C 5761   3.420   1.779  16.438  0.4921 -0.3174  0.4023
  382MPD2    C1 5762   3.492   1.781  16.554  0.5618 -0.3831 -0.0404
  382MPD2    C2 5763   3.514   1.659  16.620  0.9436 -0.1876 -0.2612
  382MPD2    C3 5764   3.451   1.542  16.580 -0.3100  0.1458 -0.3917
  382MPD2    C4 5765   3.392   1.543  16.452  0.4006  1.0363 -0.3971
  382MPD2    C5 5766   3.376   1.660  16.384  0.1743  0.6727 -0.5328
  382MPD2     H 5767   3.549   1.664  16.723  2.4796  2.6176 -0.9100
  382MPD2    H1 5768   3.352   1.455  16.403 -0.7036  1.9607 -1.1612
  382MPD2    H2 5769   3.390   1.868  16.383  0.0590  0.4379  1.8595
  382MPD2    H3 5770   3.329   1.667  16.287  0.8123  2.3155 -0.7231
  382MPD2     N 5771   3.447   1.424  16.650 -0.2607 -0.0331  0.1083
  382MPD2    H5 5772   3.427   1.341  16.595  0.2293 -1.4211  2.0057
  382MPD2    N1 5773   3.539   1.900  16.616 -0.2797  0.5068 -0.0474
  382MPD2    H7 5774   3.599   1.889  16.696 -1.2976  1.4025  0.8322
  383TMC3    C1 5775   3.500   1.257  16.816 -1.2297 -0.5407  0.8516
  383TMC3    C2 5776   3.380   1.195  16.801 -0.5852 -0.0735  0.1719
  383TMC3    C3 5777   3.339   1.098  16.885  0.5237  0.3960  0.4573
  383TMC3    C4 5778   3.584   1.212  16.917 -0.5496  1.1024 -0.3653
  383TMC3    C5 5779   3.539   1.115  17.004 -0.6952  0.5863 -0.8828
  383TMC3    C6 5780   3.412   1.053  16.987 -0.0812 -0.0968  0.5121
  383TMC3     C 5781   3.523   1.390  16.763 -0.3823  0.6363 -0.3651
  383TMC3     O 5782   3.577   1.468  16.839 -0.0664  0.3068 -0.1147
  383TMC3     H 5783   3.310   1.245  16.735 -1.0635  1.0707  1.5312
  383TMC3    H1 5784   3.679   1.262  16.930  0.4113 -1.1034  1.2421
  383TMC3    H2 5785   3.366   0.989  17.061  1.0651  1.9977  3.0464
  383TMC3    C7 5786   3.642   1.059  17.095 -0.0715  0.4193  0.5645
  383TMC3    C8 5787   3.192   1.075  16.881  0.0635 -0.2347 -0.5312
  383TMC3    O1 5788   3.760   1.091  17.087  0.4988 -0.2954  0.2115
  383TMC3    O2 5789   3.134   1.143  16.800  0.1655 -0.5877 -0.2991
  384MPD2     C 5790   0.007   2.914  12.261 -0.3451 -0.5980 -0.4944
  384MPD2    C1 5791   4.738   2.842  12.378 -0.2386 -0.0922 -0.1499
  384MPD2    C2 5792   0.108   2.782  12.431 -0.3546 -0.0949 -0.4773
  384MPD2    C3 5793   0.228   2.787  12.365  0.3249 -1.0232 -0.1584
  384MPD2    C4 5794   0.240   2.849  12.241 -0.3836  0.0081  0.6313
  384MPD2    C5 5795   0.127   2.909  12.190 -0.4046 -0.7226 -0.1616
  384MPD2     H 5796   0.100   2.724  12.522  1.3346  2.3456  1.2125
  384MPD2    H1 5797   0.333   2.842  12.186  0.2164 -0.8467  1.7561
  384MPD2    H2 5798   4.666   2.979  12.228  0.8285  0.1980 -1.7479
  384MPD2    H3 5799   0.143   2.957  12.094  0.4032 -0.3707  0.1445
  384MPD2     N 5800   0.345   2.727  12.415 -0.3244 -0.4971  0.3948
  384MPD2    H5 5801   0.430   2.749  12.365  0.3533  0.2794  1.8877
  384MPD2    N1 5802   4.628   2.848  12.468 -0.3459  0.3140  0.0945
  384MPD2    H7 5803   4.641   2.806  12.559  0.3016 -1.6885 -0.9311
  385TMC3    C1 5804   0.482   2.599  12.567  1.1302  0.9293 -0.0028
  385TMC3    C2 5805   0.514   2.504  12.467  0.7524 -0.1285  0.0868
  385TMC3    C3 5806   0.529   2.375  12.505  0.4042 -0.5647 -0.3905
  385TMC3    C4 5807   0.486   2.565  12.699  0.2313 -0.2135  0.0422
  385TMC3    C5 5808   0.502   2.431  12.729 -0.7902 -1.0740 -0.4042
  385TMC3    C6 5809   0.526   2.335  12.636  0.3140 -0.2317 -0.2154
  385TMC3     C 5810   0.360   2.676  12.538 -0.4824  0.3040  0.3499
  385TMC3     O 5811   0.285   2.690  12.636 -0.2753 -0.2424 -0.1044
  385TMC3     H 5812   0.514   2.537  12.364 -0.1308  0.3664  0.2372
  385TMC3    H1 5813   0.462   2.644  12.770 -1.5397  1.3561 -2.3126
  385TMC3    H2 5814   0.540   2.232  12.665 -1.3104 -0.6017 -0.7704
  385TMC3    C7 5815   0.425   2.387  12.846 -0.1667  0.0897 -0.1205
  385TMC3    C8 5816   0.604   2.297  12.406 -0.6457  0.5913 -0.3406
  385TMC3    O1 5817   0.429   2.270  12.889  0.3583 -0.1479 -0.1213
  385TMC3    O2 5818   0.694   2.229  12.450 -0.8713  0.4931 -0.0527
  386TMC3    C1 5819   0.377   4.729  11.656 -1.2418  0.9260  0.1462
  386TMC3    C2 5820   0.336   0.052  11.542  0.3595  0.3738 -0.0336
  386TMC3    C3 5821   0.305   0.189  11.556  0.3828 -0.1833  0.1780
  386TMC3    C4 5822   0.385   0.056  11.781  0.7427  0.0351 -0.1031
  386TMC3    C5 5823   0.351   0.189  11.784 -0.0548 -0.0664 -0.1399
  386TMC3    C6 5824   0.323   0.256  11.670 -0.1429  0.3579 -0.5120
  386TMC3     C 5825   0.335   4.595  11.667  0.9849 -0.4570  0.4898
  386TMC3     O 5826   0.231   4.568  11.605 -0.1275 -1.1165  0.5820
  386TMC3     H 5827   0.320   4.728  11.456 -2.0045  0.6111  0.2291
  386TMC3    H1 5828   0.431   0.010  11.868 -1.0295  0.2268  0.9323
  386TMC3    H2 5829   0.300   0.361  11.657 -0.8363  0.1179 -1.2631
  386TMC3    C7 5830   0.350   0.251  11.915  1.1408  0.4199  0.1152
  386TMC3    C8 5831   0.281   0.264  11.435 -0.2529 -0.4904 -0.5451
  386TMC3    O1 5832   0.365   0.179  12.009 -0.2363 -0.4675  0.4695
  386TMC3    O2 5833   0.246   0.382  11.428  0.3607 -0.4519  0.0143
  387MPD2     C 5834   2.787   0.661   9.868  0.3523  0.1866  0.2379
  387MPD2    C1 5835   2.908   0.599   9.907  0.8091 -0.0913 -0.0012
  387MPD2    C2 5836   2.934   0.472   9.864  0.0142  0.3181 -0.1287
  387MPD2    C3 5837   2.841   0.393   9.802 -0.3425 -0.4150  0.7366
  387MPD2    C4 5838   2.715   0.446   9.773  0.6398  0.8672 -0.7876
  387MPD2    C5 5839   2.692   0.581   9.801 -0.8632 -0.8607  0.2037
  387MPD2     H 5840   3.034   0.437   9.887  0.2553 -1.5743 -4.1052
  387MPD2    H1 5841   2.636   0.383   9.734  1.0606 -0.0675 -0.1370
  387MPD2    H2 5842   2.766   0.766   9.882 -0.2697 -0.0693  1.1882
  387MPD2    H3 5843   2.595   0.623   9.775 -0.0342  0.4531 -0.7044
  387MPD2     N 5844   2.875   0.263   9.779 -0.8252  0.2623  0.0753
  387MPD2    H5 5845   2.963   0.237   9.821 -0.7042 -1.5202 -1.2513
  387MPD2    N1 5846   3.013   0.659   9.978 -0.0559  0.2495 -0.7277
  387MPD2    H7 5847   3.101   0.609   9.980 -0.7783 -0.8827  1.8688
  388TMC3    C1 5848   3.116   0.799  10.137  0.0838 -0.2447  0.0788
  388TMC3    C2 5849   3.116   0.907  10.217  0.2458 -0.9212  0.0122
  388TMC3    C3 5850   3.187   0.903  10.332  0.5793  0.0503 -0.1023
  388TMC3    C4 5851   3.190   0.688  10.172  0.1478 -0.3510  0.3758
  388TMC3    C5 5852   3.256   0.686  10.291  0.2181  0.3935 -0.8571
  388TMC3    C6 5853   3.261   0.794  10.378  0.8132 -0.7678 -0.0230
  388TMC3     C 5854   3.009   0.779  10.044  0.3461  0.3278  0.4757
  388TMC3     O 5855   2.912   0.852  10.056  0.0464  0.7029  0.4318
  388TMC3     H 5856   3.058   0.994  10.189  1.7143 -1.0656 -3.4008
  388TMC3    H1 5857   3.211   0.614  10.096 -1.0598 -0.1693 -0.1252
  388TMC3    H2 5858   3.308   0.790  10.476  0.8043  2.3093  0.1166
  388TMC3    C7 5859   3.314   0.559  10.337  0.0213 -0.2568  0.2577
  388TMC3    C8 5860   3.193   1.015  10.417 -1.0441 -0.5959 -0.1595
  388TMC3    O1 5861   3.411   0.551  10.412 -0.0320  0.0397  0.4784
  388TMC3    O2 5862   3.226   0.993  10.535 -0.1918 -0.3935 -0.1845
  389MPD2     C 5863   2.190   3.391  11.207 -0.1251  0.3898 -0.0713
  389MPD2    C1 5864   2.057   3.363  11.184 -0.4312  0.0314 -0.1523
  389MPD2    C2 5865   1.985   3.303  11.280 -0.4582 -1.1076  0.4050
  389MPD2    C3 5866   2.040   3.258  11.402  0.6171 -0.4575  0.3526
  389MPD2    C4 5867   2.171   3.279  11.417 -0.6484  0.2600  0.2794
  389MPD2    C5 5868   2.243   3.349  11.322  0.1426 -0.8845  0.3388
  389MPD2     H 5869   1.879   3.290  11.260 -0.2560 -1.1982 -0.5903
  389MPD2    H1 5870   2.224   3.240  11.503 -0.8457 -1.3009 -0.3095
  389MPD2    H2 5871   2.253   3.452  11.144 -0.5311  2.0447  1.1334
  389MPD2    H3 5872   2.346   3.378  11.335 -0.4384  2.2584 -2.2400
  389MPD2     N 5873   1.968   3.192  11.507  0.0826  0.9549 -0.0807
  389MPD2    H5 5874   2.009   3.191  11.600  0.2662  0.3985 -0.1663
  389MPD2    N1 5875   2.004   3.393  11.053 -0.7144 -1.1721  0.7691
  389MPD2    H7 5876   2.067   3.433  10.985 -0.4357 -0.0867  1.6553
  390TMC3    C1 5877   1.792   3.095  11.614 -0.0889  0.7861  0.2181
  390TMC3    C2 5878   1.699   2.987  11.607 -0.1425 -0.3378  0.1174
  390TMC3    C3 5879   1.640   2.953  11.726  0.3647  0.1843 -0.6674
  390TMC3    C4 5880   1.809   3.180  11.727  0.0915  0.3084 -0.5936
  390TMC3    C5 5881   1.744   3.137  11.843  0.2141 -0.0090 -0.0171
  390TMC3    C6 5882   1.658   3.027  11.842 -0.2279 -0.5264  0.2156
  390TMC3     C 5883   1.848   3.136  11.485  0.0434  0.3119  0.8134
  390TMC3     O 5884   1.795   3.093  11.383  0.6120 -0.7483 -0.3363
  390TMC3     H 5885   1.693   2.906  11.535 -1.3807  0.0841 -0.2616
  390TMC3    H1 5886   1.869   3.270  11.722 -1.7245  1.5155 -0.6992
  390TMC3    H2 5887   1.598   3.009  11.931 -0.7665 -0.0616 -0.0551
  390TMC3    C7 5888   1.762   3.213  11.965 -0.7044  0.0195  0.3332
  390TMC3    C8 5889   1.551   2.843  11.722  0.9738 -0.8637  0.2436
  390TMC3    O1 5890   1.758   3.335  11.956  0.0424 -0.4132 -0.0354
  390TMC3    O2 5891   1.501   2.804  11.619  0.3151 -0.0441  0.4594
  391MPD2     C 5892   1.331   4.717  11.367  0.0837  1.0397 -0.0651
  391MPD2    C1 5893   1.441   0.049  11.321  0.5822 -0.2777 -0.3721
  391MPD2    C2 5894   1.490   0.038  11.195  0.1584 -0.2778  0.1690
  391MPD2    C3 5895   1.417   4.702  11.108 -0.8700 -1.0801 -0.6756
  391MPD2    C4 5896   1.300   4.631  11.150 -0.0266  0.0802  0.3402
  391MPD2    C5 5897   1.266   4.628  11.284  0.0203  0.1903 -0.1048
  391MPD2     H 5898   1.578   0.090  11.158 -1.3178 -0.7879 -4.0504
  391MPD2    H1 5899   1.222   4.579  11.096  0.5981 -0.2507 -0.2359
  391MPD2    H2 5900   1.299   4.723  11.470 -0.4876  0.2975 -0.1977
  391MPD2    H3 5901   1.182   4.575  11.328 -0.3371  0.7012 -0.1631
  391MPD2     N 5902   1.462   4.714  10.966 -0.4776 -0.0382 -0.6312
  391MPD2    H5 5903   1.540   0.034  10.939 -0.3682  0.4595  0.7398
  391MPD2    N1 5904   1.489   0.150  11.415 -0.1434 -0.0750  0.1941
  391MPD2    H7 5905   1.429   0.165  11.495 -0.1951  3.4981 -0.5254
  392TMC3    C1 5906   1.458   4.695  10.742 -0.8336 -0.3671  0.4050
  392TMC3    C2 5907   1.378   4.728  10.638 -0.3901  0.5378 -0.3794
  392TMC3    C3 5908   1.436   0.037  10.525  0.2267  0.0694 -0.5867
  392TMC3    C4 5909   1.589   4.728  10.736  0.2235  0.3346  0.5603
  392TMC3    C5 5910   1.646   0.048  10.624 -0.5700 -0.1207  0.7387
  392TMC3    C6 5911   1.568   0.073  10.513  0.5095  0.2559  0.0244
  392TMC3     C 5912   1.392   4.663  10.863  0.0894  0.3222 -0.1561
  392TMC3     O 5913   1.280   4.615  10.854  0.0919 -0.0173  0.3007
  392TMC3     H 5914   1.273   4.702  10.633 -0.5355  1.0067  0.1822
  392TMC3    H1 5915   1.643   4.705  10.827 -0.4011 -2.4063  0.2373
  392TMC3    H2 5916   1.612   0.124  10.428  0.1987 -0.4583 -0.5517
  392TMC3    C7 5917   1.774   0.116  10.635  0.2620  0.4192  0.4866
  392TMC3    C8 5918   1.345   0.079  10.416 -0.9387 -0.1544  0.5617
  392TMC3    O1 5919   1.807   0.163  10.743  0.4504  0.0718  0.0701
  392TMC3    O2 5920   1.231   0.028  10.403  0.3414 -0.6583  0.2167
  393TMC3    C1 5921   0.373   2.677  10.576  0.2954  0.2210  0.2567
  393TMC3    C2 5922   0.286   2.600  10.508 -0.1304  0.0173  0.1349
  393TMC3    C3 5923   0.184   2.532  10.563  0.0403 -0.2322  0.5722
  393TMC3    C4 5924   0.361   2.684  10.715 -0.8637  0.0360 -0.2013
  393TMC3    C5 5925   0.262   2.603  10.772  0.2615 -0.4933 -0.3601
  393TMC3    C6 5926   0.167   2.532  10.705  0.1699 -0.5163  0.2564
  393TMC3     C 5927   0.442   2.784  10.502  0.0234  0.0803  0.6357
  393TMC3     O 5928   0.433   2.796  10.381  0.0290 -0.1044 -0.5002
  393TMC3     H 5929   0.296   2.604  10.400  0.9947  1.2969  0.2923
  393TMC3    H1 5930   0.430   2.743  10.774 -0.9513 -2.2343  2.1669
  393TMC3    H2 5931   0.100   2.467  10.760  1.5513 -2.6896 -0.6192
  393TMC3    C7 5932   0.283   2.559  10.916 -1.1792  0.5265  0.6017
  393TMC3    C8 5933   0.075   2.475  10.483 -0.1932 -0.2124  0.1403
  393TMC3    O1 5934   0.210   2.474  10.959 -0.1159 -0.0466  0.3804
  393TMC3    O2 5935   4.707   2.453  10.546 -0.0566 -0.4576  0.7006
  394TMC3    C1 5936   1.875   3.351  10.865  0.7814  0.4319  0.3969
  394TMC3    C2 5937   1.752   3.323  10.805 -0.4435 -0.2953 -0.5408
  394TMC3    C3 5938   1.742   3.315  10.668 -0.3753  0.6044 -0.3752
  394TMC3    C4 5939   1.991   3.371  10.786  0.0309 -0.0439 -0.2259
  394TMC3    C5 5940   1.975   3.360  10.654 -0.3026 -0.5029 -0.5588
  394TMC3    C6 5941   1.855   3.340  10.592 -0.0682 -0.3118  0.7281
  394TMC3     C 5942   1.883   3.346  11.010 -0.6009  0.0297  0.7817
  394TMC3     O 5943   1.781   3.314  11.068 -0.4322  0.1696 -0.2281
  394TMC3     H 5944   1.668   3.303  10.870 -0.7053 -0.6329 -0.9889
  394TMC3    H1 5945   2.091   3.398  10.819  0.6542  3.1924 -4.7540
  394TMC3    H2 5946   1.852   3.337  10.484  0.1277  1.8698  0.6648
  394TMC3    C7 5947   2.077   3.401  10.556 -0.2250 -0.0439  0.5070
  394TMC3    C8 5948   1.608   3.327  10.615 -0.0089  0.5843 -0.4198
  394TMC3    O1 5949   2.035   3.438  10.447 -0.1782 -0.2952 -0.0571
  394TMC3    O2 5950   1.516   3.352  10.694  0.6342  0.1756  0.2068
  395TMC3    C1 5951   2.154   0.567  14.452  0.2617  0.3177 -0.4785
  395TMC3    C2 5952   2.019   0.548  14.435 -0.1312  0.0395 -0.0543
  395TMC3    C3 5953   1.931   0.653  14.464 -0.0842 -0.3400 -0.3016
  395TMC3    C4 5954   2.204   0.689  14.471 -0.2115 -0.0110  0.5394
  395TMC3    C5 5955   2.117   0.795  14.484 -0.5221 -0.6457 -0.5316
  395TMC3    C6 5956   1.979   0.779  14.490 -0.1893  0.2721 -0.1021
  395TMC3     C 5957   2.230   0.472  14.531 -0.0489  0.3232  0.2576
  395TMC3     O 5958   2.289   0.516  14.627  0.0710  0.2572  0.5311
  395TMC3     H 5959   1.990   0.452  14.394  0.4293 -0.3228  0.3887
  395TMC3    H1 5960   2.312   0.704  14.470 -0.0360 -1.2013  2.3604
  395TMC3    H2 5961   1.916   0.862  14.520 -3.7883 -1.5197 -2.8248
  395TMC3    C7 5962   2.169   0.928  14.477 -0.0977  0.3811 -0.1553
  395TMC3    C8 5963   1.829   0.612  14.563 -0.7193 -0.0887  0.5508
  395TMC3    O1 5964   2.291   0.934  14.500 -0.5871 -0.1079  0.0010
  395TMC3    O2 5965   1.755   0.697  14.615 -0.5211 -0.4564 -0.5995
  396MPD2     C 5966   1.849   1.722  16.722  0.2791 -0.0024  0.0289
  396MPD2    C1 5967   1.980   1.716  16.715 -0.3520  0.4767 -0.2851
  396MPD2    C2 5968   2.050   1.816  16.650  0.0860 -0.4238 -0.1139
  396MPD2    C3 5969   1.990   1.917  16.574  0.4874 -0.1949  0.2181
  396MPD2    C4 5970   1.850   1.917  16.576 -0.2875  0.7819 -0.0662
  396MPD2    C5 5971   1.786   1.820  16.647 -0.4311 -0.7454  0.0590
  396MPD2     H 5972   2.157   1.812  16.664  0.1111  0.9267  0.0421
  396MPD2    H1 5973   1.779   1.985  16.529  2.8053  2.6900 -2.0068
  396MPD2    H2 5974   1.793   1.654  16.785  1.0842 -0.6305  0.0607
  396MPD2    H3 5975   1.678   1.821  16.645 -0.3762 -0.8018 -2.6880
  396MPD2     N 5976   2.065   2.018  16.512 -0.0574 -0.1525 -0.0699
  396MPD2    H5 5977   2.164   2.000  16.516  0.3390  2.1833  0.8248
  396MPD2    N1 5978   2.034   1.605  16.775  0.2096 -0.2289  0.6653
  396MPD2    H7 5979   1.966   1.538  16.809 -0.6755  1.8319  2.9704
  397TMC3    C1 5980   2.180   1.436  16.846 -0.0799  0.7601  0.0872
  397TMC3    C2 5981   2.212   1.330  16.765  0.3953  0.0938  0.3963
  397TMC3    C3 5982   2.127   1.224  16.756 -0.0638 -0.9972 -0.0224
  397TMC3    C4 5983   2.080   1.421  16.935 -0.7148  0.3343  0.8961
  397TMC3    C5 5984   1.996   1.314  16.929 -0.4702 -0.1016  0.2096
  397TMC3    C6 5985   2.016   1.208  16.839  0.1228 -0.4876  0.2861
  397TMC3     C 5986   2.163   1.560  16.768 -0.6076  0.0366  0.0708
  397TMC3     O 5987   2.243   1.585  16.679 -0.7161 -0.1680  0.6863
  397TMC3     H 5988   2.286   1.372  16.697 -1.0911 -0.7448 -1.7431
  397TMC3    H1 5989   2.052   1.503  17.001  1.7541 -0.1074  2.4798
  397TMC3    H2 5990   1.954   1.119  16.828  0.8123 -0.7012 -1.9500
  397TMC3    C7 5991   1.848   1.348  16.945 -0.0867  0.0262 -0.3846
  397TMC3    C8 5992   2.116   1.161  16.625  1.0750  0.1930 -0.3190
  397TMC3    O1 5993   1.821   1.457  16.888 -0.0717 -0.4823 -0.2123
  397TMC3    O2 5994   2.181   1.209  16.533 -0.1081  0.0758 -0.5546
  398MPD2     C 5995   4.391   2.564   0.065  0.0951  0.5155 -0.4996
  398MPD2    C1 5996   4.522   2.524   0.107  0.0819 -0.5433  0.5652
  398MPD2    C2 5997   4.609   2.618   0.152 -0.4318 -0.7580 -0.7049
  398MPD2    C3 5998   4.569   2.755   0.166 -1.1938  0.0836  0.3862
  398MPD2    C4 5999   4.443   2.784   0.122  0.6061 -0.1997  0.6260
  398MPD2    C5 6000   4.351   2.691   0.075  1.1302 -0.3336 -0.2437
  398MPD2     H 6001   4.711   2.590   0.173  0.1235 -0.1966 -2.6796
  398MPD2    H1 6002   4.408   2.887   0.122 -0.2248 -0.4761  5.6809
  398MPD2    H2 6003   4.319   2.490   0.032 -0.5538  0.2681  1.4568
  398MPD2    H3 6004   4.253   2.709   0.033  0.6653  0.6140  1.2773
  398MPD2     N 6005   4.664   2.846   0.222 -0.1439  0.2990  0.5503
  398MPD2    H5 6006   0.000   2.798   0.269  0.4675  0.9250  0.2105
  398MPD2    N1 6007   4.581   2.402   0.092  1.0948  0.6502  0.3577
  398MPD2    H7 6008   4.675   2.393   0.130  0.3061 -0.0561  2.1103
  399TMC3    C1 6009   4.600   2.168   0.065 -0.0307 -0.5663  0.5409
  399TMC3    C2 6010   4.718   2.181   0.137  0.1578 -0.7733 -0.2557
  399TMC3    C3 6011   0.072   2.079   0.127  0.3860 -0.6612  0.3719
  399TMC3    C4 6012   4.566   2.060  17.742  0.4228 -0.2054  0.3490
  399TMC3    C5 6013   4.659   1.965  17.737  0.2329 -0.4668  0.2184
  399TMC3    C6 6014   0.042   1.974   0.047 -0.4230  0.3064 -0.4774
  399TMC3     C 6015   4.519   2.289   0.047 -0.5225 -0.0031 -0.0931
  399TMC3     O 6016   4.406   2.268   0.008 -0.2466 -0.0613  0.0467
  399TMC3     H 6017   4.734   2.261   0.209 -1.8453 -0.0368 -0.6432
  399TMC3    H1 6018   4.480   2.060  17.676  0.3722  0.9333  0.4313
  399TMC3    H2 6019   0.108   1.889   0.061  0.9387  1.2163 -1.4606
  399TMC3    C7 6020   4.619   1.835  17.695  1.1711 -0.3349 -0.3638
  399TMC3    C8 6021   0.208   2.116   0.159 -0.5998 -0.4963  0.8834
  399TMC3    O1 6022   4.713   1.758  17.685  0.0605 -0.2503  0.6415
  399TMC3    O2 6023   0.211   2.205   0.246 -0.2698  0.5940 -0.8746
  400TMC3    C1 6024   3.095   0.818  16.590 -0.0550 -0.6580  1.0400
  400TMC3    C2 6025   2.994   0.732  16.542 -0.2439  1.0284  0.3987
  400TMC3    C3 6026   2.888   0.790  16.490 -0.0529 -0.5262  0.1771
  400TMC3    C4 6027   3.091   0.954  16.572  0.1659 -0.4882 -0.3556
  400TMC3    C5 6028   2.972   1.007  16.522 -0.4089  0.1726  0.2197
  400TMC3    C6 6029   2.872   0.922  16.468 -0.2826  0.5320 -0.3115
  400TMC3     C 6030   3.199   0.758  16.662  0.6591  0.1710  0.1275
  400TMC3     O 6031   3.185   0.651  16.719 -0.0589  0.0663  0.7186
  400TMC3     H 6032   2.997   0.627  16.567 -1.7141  1.3761  1.9991
  400TMC3    H1 6033   3.176   1.010  16.610  0.3049  0.1366 -1.5722
  400TMC3    H2 6034   2.785   0.958  16.415 -0.6464 -0.6978 -0.5363
  400TMC3    C7 6035   2.966   1.146  16.476 -0.5829 -0.0394  0.1633
  400TMC3    C8 6036   2.781   0.706  16.464 -0.1110 -0.0123 -0.6322
  400TMC3    O1 6037   2.896   1.167  16.379 -0.2034 -0.2847  0.1176
  400TMC3    O2 6038   2.671   0.767  16.464  0.7582 -0.3232 -0.1283
  401MPD2     C 6039   1.494   4.034  17.302 -0.4833  0.7042  0.2552
  401MPD2    C1 6040   1.526   3.989  17.431  0.2694  0.1510  0.0180
  401MPD2    C2 6041   1.514   3.855  17.465  0.8797  0.0564 -0.2843
  401MPD2    C3 6042   1.462   3.766  17.369 -0.7428  0.1258  0.3299
  401MPD2    C4 6043   1.428   3.814  17.243  0.1647 -0.3410  0.1391
  401MPD2    C5 6044   1.446   3.946  17.210  0.3218  0.1695  0.0545
  401MPD2     H 6045   1.532   3.823  17.567  1.1374 -1.0121 -0.6665
  401MPD2    H1 6046   1.379   3.760  17.162  1.7835 -0.7470 -0.5654
  401MPD2    H2 6047   1.508   4.135  17.268 -1.5474  0.1008 -1.9966
  401MPD2    H3 6048   1.429   3.990  17.112 -1.6173 -1.5438 -0.3789
  401MPD2     N 6049   1.436   3.636  17.426 -0.3588  0.2562 -0.2771
  401MPD2    H5 6050   1.445   3.619  17.526  1.7483  1.6264 -0.2263
  401MPD2    N1 6051   1.556   4.075  17.534 -0.2136 -0.1155  0.2160
  401MPD2    H7 6052   1.556   4.033  17.627  1.1990  1.9432  1.1496
  402TMC3    C1 6053   1.368   3.415  17.430 -0.1777 -0.3487 -0.2192
  402TMC3    C2 6054   1.303   3.425  17.553  0.6895  0.3229  0.0031
  402TMC3    C3 6055   1.311   3.310  17.635  0.0583  0.0701  0.1447
  402TMC3    C4 6056   1.421   3.292  17.382  0.5101  0.3892  0.6437
  402TMC3    C5 6057   1.424   3.192  17.472 -1.0863  0.1011  0.0183
  402TMC3    C6 6058   1.379   3.195  17.599  0.3094 -0.0536 -0.1298
  402TMC3     C 6059   1.395   3.530  17.350  0.6601  0.5246  0.3219
  402TMC3     O 6060   1.414   3.517  17.229 -0.2470 -0.2122 -0.1873
  402TMC3     H 6061   1.268   3.523  17.584 -0.2410  0.3205 -1.0329
  402TMC3    H1 6062   1.473   3.299  17.288 -0.9379 -0.3581 -0.2052
  402TMC3    H2 6063   1.368   3.107  17.661  2.0911  0.8087  1.4317
  402TMC3    C7 6064   1.495   3.070  17.436  0.3802 -0.0047 -0.4120
  402TMC3    C8 6065   1.283   3.328   0.012  0.6521 -0.3940 -0.3174
  402TMC3    O1 6066   1.486   3.033  17.319  0.4160  0.0832 -0.5544
  402TMC3    O2 6067   1.347   3.271   0.096  0.0612 -0.1433 -0.9767
  403MPD2     C 6068   4.626   1.876  13.295 -0.2320 -0.1846  0.1829
  403MPD2    C1 6069   4.622   2.012  13.327 -0.2385 -0.2192  0.1695
  403MPD2    C2 6070   4.697   2.067  13.433  0.4806  0.1239  0.2448
  403MPD2    C3 6071   0.036   1.981  13.508 -0.7602  0.2338  0.7524
  403MPD2    C4 6072   0.032   1.843  13.482 -0.3650  0.1806  0.0652
  403MPD2    C5 6073   4.694   1.798  13.380  0.6948 -0.8518 -0.7377
  403MPD2     H 6074   4.712   2.174  13.449  0.5645 -0.3372  3.1238
  403MPD2    H1 6075   0.083   1.776  13.550  0.6453 -0.4817 -1.3329
  403MPD2    H2 6076   4.569   1.845  13.208 -1.0340 -0.0890  0.6813
  403MPD2    H3 6077   4.700   1.691  13.363 -0.6619 -1.1799  0.8868
  403MPD2     N 6078   0.120   2.044  13.606 -0.6590  0.6750 -0.0731
  403MPD2    H5 6079   0.117   2.145  13.616  1.9119  0.9959 -2.7684
  403MPD2    N1 6080   4.539   2.092  13.248  0.0544  0.0792  0.0914
  403MPD2    H7 6081   4.480   2.051  13.176  0.4062  1.6888 -1.1086
  404TMC3    C1 6082   4.409   2.267  13.190 -0.1777  0.7230  0.2493
  404TMC3    C2 6083   4.301   2.260  13.278  0.2917  0.0838  0.0634
  404TMC3    C3 6084   4.183   2.204  13.228  0.3698 -0.3636 -0.7696
  404TMC3    C4 6085   4.402   2.222  13.061 -0.1906  0.5199 -0.0124
  404TMC3    C5 6086   4.277   2.199  13.014  0.4044 -0.8835 -0.0559
  404TMC3    C6 6087   4.165   2.184  13.094 -0.2608  0.2000  1.1268
  404TMC3     C 6088   4.525   2.228  13.260 -0.1092  0.6082 -0.9078
  404TMC3     O 6089   4.556   2.303  13.349  0.5468  0.0319 -0.2787
  404TMC3     H 6090   4.315   2.291  13.381 -2.1907  2.0866 -0.2183
  404TMC3    H1 6091   4.491   2.228  12.999 -0.4329  1.4475 -0.2579
  404TMC3    H2 6092   4.073   2.136  13.062  0.5175 -0.9446  0.6157
  404TMC3    C7 6093   4.277   2.171  12.869 -0.7996 -0.4739 -0.1446
  404TMC3    C8 6094   4.125   2.094  13.306 -0.4950  0.1560 -0.4551
  404TMC3    O1 6095   4.386   2.177  12.818 -0.8609 -0.5045  0.3659
  404TMC3    O2 6096   4.103   1.993  13.242 -0.6024  0.1937 -0.1620
  405MPD2     C 6097   0.665   2.993  14.447  0.1478 -0.4025 -0.0642
  405MPD2    C1 6098   0.561   2.930  14.380 -0.0001  1.0512  0.4741
  405MPD2    C2 6099   0.457   3.009  14.338 -1.0985  0.0839 -0.3275
  405MPD2    C3 6100   0.458   3.145  14.360  0.2591 -0.3567  0.4314
  405MPD2    C4 6101   0.570   3.209  14.403 -0.0260 -0.2198  0.3080
  405MPD2    C5 6102   0.672   3.134  14.452  0.2671 -0.1236  0.6944
  405MPD2     H 6103   0.367   2.966  14.295 -1.4690  0.6142 -0.0996
  405MPD2    H1 6104   0.588   3.316  14.401 -1.4642  0.0410  1.0098
  405MPD2    H2 6105   0.755   2.942  14.482  0.2562  0.8401  1.4832
  405MPD2    H3 6106   0.763   3.178  14.492  0.8025 -0.2470 -0.3685
  405MPD2     N 6107   0.342   3.204  14.308  0.3968 -0.0809 -0.5217
  405MPD2    H5 6108   0.269   3.139  14.281  0.4302 -1.5958  3.0303
  405MPD2    N1 6109   0.570   2.791  14.365  0.6859  0.7493  0.3413
  405MPD2    H7 6110   0.637   2.740  14.423  0.7721 -0.0848 -0.4874
  406TMC3    C1 6111   4.720   3.470  14.292  0.4942 -0.1980 -0.2225
  406TMC3    C2 6112   4.660   3.379  14.210 -0.1713  0.0311 -0.9044
  406TMC3    C3 6113   4.739   3.279  14.146 -0.0010  0.2660  0.0872
  406TMC3    C4 6114   0.114   3.472  14.321 -0.0727  0.5286  0.2674
  406TMC3    C5 6115   0.191   3.373  14.259  0.3296  0.6561  0.1466
  406TMC3    C6 6116   0.135   3.271  14.183 -0.0343  0.4073 -1.2849
  406TMC3     C 6117   4.653   3.595  14.308  0.1327  0.2521 -0.1409
  406TMC3     O 6118   4.669   3.665  14.409 -0.2894 -0.5183  0.1635
  406TMC3     H 6119   4.553   3.369  14.200  0.1039 -3.1390 -0.5887
  406TMC3    H1 6120   0.166   3.549  14.376 -0.7838  1.6199 -0.5936
  406TMC3    H2 6121   0.189   3.220  14.104  0.1771 -0.1804 -0.7586
  406TMC3    C7 6122   0.316   3.341  14.322 -0.3015  0.6287 -0.8545
  406TMC3    C8 6123   4.667   3.156  14.122  0.0313 -0.3027  0.1259
  406TMC3    O1 6124   0.372   3.421  14.395  0.0047 -0.7697  0.3720
  406TMC3    O2 6125   4.545   3.149  14.128 -0.0365  0.0339  0.5708
  407MPD2     C 6126   2.242   0.092   9.727  0.2033  0.5685 -0.4585
  407MPD2    C1 6127   2.379   0.092   9.751  1.1794  0.1975  0.8485
  407MPD2    C2 6128   2.430   0.170   9.850 -0.6346 -0.7247 -0.1082
  407MPD2    C3 6129   2.354   0.264   9.912  0.0991  0.2988  0.1370
  407MPD2    C4 6130   2.216   0.270   9.881  0.0678 -0.8887 -0.0481
  407MPD2    C5 6131   2.172   0.187   9.787  0.8138  0.6003 -0.2040
  407MPD2     H 6132   2.538   0.173   9.854 -0.8041  1.0834  3.1272
  407MPD2    H1 6133   2.145   0.342   9.919  0.9833 -0.3478  0.6309
  407MPD2    H2 6134   2.187   0.037   9.652 -0.7143  1.9260 -0.7936
  407MPD2    H3 6135   2.065   0.190   9.766  1.0505 -2.0407 -1.7451
  407MPD2     N 6136   2.416   0.373   9.988 -0.3419 -0.6308  0.5258
  407MPD2    H5 6137   2.353   0.444  10.025 -0.6745 -1.0419  0.7487
  407MPD2    N1 6138   2.462   0.026   9.664  0.1989  0.7633 -0.3597
  407MPD2    H7 6139   2.557   0.062   9.657  1.1775 -2.1112 -1.6600
  408TMC3    C1 6140   2.544   4.654   9.467 -0.1777 -0.6616 -0.1626
  408TMC3    C2 6141   2.620   4.541   9.473 -0.4842  0.3831 -0.0430
  408TMC3    C3 6142   2.756   4.565   9.452 -0.5810  0.3468  0.1557
  408TMC3    C4 6143   2.585   0.035   9.417  0.6880 -0.2168 -0.6314
  408TMC3    C5 6144   2.712   0.035   9.372  0.3781  0.4379 -0.5960
  408TMC3    C6 6145   2.805   4.679   9.399  0.1833  0.2451 -0.0702
  408TMC3     C 6146   2.438   4.666   9.566 -0.3184 -0.2988 -0.5608
  408TMC3     O 6147   2.332   4.612   9.537  0.0909 -0.2836 -0.2753
  408TMC3     H 6148   2.580   4.450   9.515  2.1265 -0.4907  0.5494
  408TMC3    H1 6149   2.509   0.108   9.392  0.0224 -0.7611 -0.2211
  408TMC3    H2 6150   2.899   4.685   9.347  0.7241  2.2306  1.1017
  408TMC3    C7 6151   2.772   0.159   9.332 -0.3975 -0.4093 -0.3928
  408TMC3    C8 6152   2.859   4.466   9.493 -0.1063 -0.0123 -0.3380
  408TMC3    O1 6153   2.872   0.156   9.257 -0.6804  0.9652  0.2318
  408TMC3    O2 6154   2.826   4.348   9.509  0.0096 -0.1885 -0.5983
  409MPD2     C 6155   2.248   0.393  16.642 -0.1476 -0.3834  0.5608
  409MPD2    C1 6156   2.355   0.450  16.705  0.0995  0.6466  0.4484
  409MPD2    C2 6157   2.390   0.580  16.677 -0.7847 -0.1532  0.0200
  409MPD2    C3 6158   2.310   0.662  16.601  0.1126  0.7850  0.0587
  409MPD2    C4 6159   2.212   0.603  16.534 -0.2871 -0.6988 -0.1634
  409MPD2    C5 6160   2.180   0.469  16.550  0.2202 -0.1467 -0.0310
  409MPD2     H 6161   2.488   0.612  16.710 -0.9604  0.1710  0.2235
  409MPD2    H1 6162   2.155   0.666  16.468  1.8875  1.1952 -0.2372
  409MPD2    H2 6163   2.212   0.293  16.660 -0.6777 -0.3930 -0.5273
  409MPD2    H3 6164   2.088   0.430  16.508  0.6223 -1.6428  0.4614
  409MPD2     N 6165   2.329   0.798  16.586  0.1449  0.1409 -0.1616
  409MPD2    H5 6166   2.267   0.842  16.519  0.0863  2.7490  1.5762
  409MPD2    N1 6167   2.431   0.385  16.807 -0.8070 -0.7819 -0.6659
  409MPD2    H7 6168   2.496   0.437  16.865  1.3272 -1.3877 -2.4891
  410TMC3    C1 6169   2.423   1.008  16.631  0.0336 -0.0201 -0.0983
  410TMC3    C2 6170   2.463   1.086  16.739 -0.4892  0.2151 -0.2758
  410TMC3    C3 6171   2.552   1.184  16.713  0.0547  0.4800  0.4643
  410TMC3    C4 6172   2.465   1.037  16.505  0.7913  0.8161 -0.0279
  410TMC3    C5 6173   2.528   1.155  16.483  0.1790  0.4112  0.2511
  410TMC3    C6 6174   2.577   1.231  16.585 -0.5767  0.4074  0.2787
  410TMC3     C 6175   2.412   0.875  16.668 -0.2248 -0.1525 -0.7252
  410TMC3     O 6176   2.470   0.846  16.773  0.2175 -0.2311 -0.8890
  410TMC3     H 6177   2.437   1.056  16.840  1.8428  0.8604  0.4953
  410TMC3    H1 6178   2.452   0.967  16.423 -0.4653 -2.2803  2.8165
  410TMC3    H2 6179   2.647   1.313  16.570  2.1904 -1.5132  2.5914
  410TMC3    C7 6180   2.542   1.198  16.347  0.2969 -0.4510 -0.4010
  410TMC3    C8 6181   2.683   1.155  16.769 -0.1037 -0.3498  0.4556
  410TMC3    O1 6182   2.551   1.113  16.257 -0.3159 -0.4590 -0.4652
  410TMC3    O2 6183   2.762   1.246  16.779  0.4765  0.1416 -0.3651
  411MPD2     C 6184   1.790   1.469  14.276  0.5787  0.5303  0.1990
  411MPD2    C1 6185   1.785   1.415  14.408  0.1005  0.3549  0.4836
  411MPD2    C2 6186   1.710   1.295  14.431 -0.0796 -0.3494  0.8810
  411MPD2    C3 6187   1.626   1.250  14.326  0.1535  0.2435 -0.6798
  411MPD2    C4 6188   1.636   1.312  14.200  0.8819 -0.5233 -1.1294
  411MPD2    C5 6189   1.707   1.426  14.184  0.2076 -0.6185 -0.3204
  411MPD2     H 6190   1.708   1.241  14.525 -1.2224 -1.0291  0.4679
  411MPD2    H1 6191   1.565   1.279  14.126 -0.4925  0.0463 -0.0728
  411MPD2    H2 6192   1.839   1.562  14.250 -1.0315  0.7018 -2.2246
  411MPD2    H3 6193   1.703   1.473  14.086  0.8718  1.7706  0.8014
  411MPD2     N 6194   1.541   1.138  14.327 -0.3964  0.3530 -0.1879
  411MPD2    H5 6195   1.507   1.105  14.237 -1.4256 -2.0472  1.0978
  411MPD2    N1 6196   1.878   1.473  14.501  0.1637 -0.6820  0.3979
  411MPD2    H7 6197   1.942   1.541  14.460  1.8851 -1.4582  1.8121
  412TMC3    C1 6198   1.434   0.953  14.410  0.1833  0.0597  0.0151
  412TMC3    C2 6199   1.341   0.967  14.309 -0.0267  0.2487  0.7689
  412TMC3    C3 6200   1.307   0.851  14.238 -0.1515 -0.2800  0.3281
  412TMC3    C4 6201   1.513   0.844  14.433  0.1146 -0.1219 -0.6702
  412TMC3    C5 6202   1.484   0.736  14.351  0.1846  0.0346 -0.1011
  412TMC3    C6 6203   1.381   0.733  14.254  0.0287  0.5868 -0.9399
  412TMC3     C 6204   1.497   1.076  14.441  0.1274  0.8860  1.0221
  412TMC3     O 6205   1.530   1.086  14.560  0.1645 -0.1672 -0.1958
  412TMC3     H 6206   1.299   1.066  14.295  0.1011  0.2319  0.2789
  412TMC3    H1 6207   1.596   0.847  14.503  0.6230 -0.7321 -1.2449
  412TMC3    H2 6208   1.349   0.644  14.201  0.2525 -1.1802  1.9233
  412TMC3    C7 6209   1.607   0.673  14.300  0.2142 -0.1206 -0.2030
  412TMC3    C8 6210   1.306   0.881  14.099  0.1771  0.8271  0.4670
  412TMC3    O1 6211   1.714   0.733  14.294  0.1072  0.3295  0.2426
  412TMC3    O2 6212   1.304   0.999  14.069 -0.0047 -0.3658 -0.3347
  413MPD2     C 6213   4.294   3.978  15.406  0.2729 -0.6156  0.3557
  413MPD2    C1 6214   4.296   4.049  15.287  0.0565  0.6010 -0.3286
  413MPD2    C2 6215   4.389   4.014  15.193  0.1219  0.3971  0.2431
  413MPD2    C3 6216   4.453   3.889  15.199  0.4599  0.3599  0.6632
  413MPD2    C4 6217   4.434   3.814  15.309  0.2731  0.2672 -0.0691
  413MPD2    C5 6218   4.369   3.862  15.416  0.3601  0.2192 -0.5096
  413MPD2     H 6219   4.403   4.057  15.094 -1.8520 -1.1642 -0.7298
  413MPD2    H1 6220   4.486   3.719  15.314  1.7122  0.9430 -2.1066
  413MPD2    H2 6221   4.235   4.015  15.489  0.4207  1.8945 -0.6398
  413MPD2    H3 6222   4.376   3.806  15.509  0.7674  2.1187  0.5957
  413MPD2     N 6223   4.544   3.852  15.095 -0.5803 -0.8553  0.2426
  413MPD2    H5 6224   4.556   3.919  15.020  0.5410 -1.4594 -0.1228
  413MPD2    N1 6225   4.206   4.155  15.283  0.2137  0.0336  0.1658
  413MPD2    H7 6226   4.137   4.157  15.358  0.0905 -0.7062  0.0650
  414TMC3    C1 6227   4.669   3.716  14.945  0.3033  0.3184  0.2894
  414TMC3    C2 6228   4.648   3.603  14.869 -0.6034 -0.6450  0.2398
  414TMC3    C3 6229   4.723   3.589  14.757  0.7869  0.0384 -0.2789
  414TMC3    C4 6230   0.006   3.817  14.906  0.3048 -0.0822  0.2109
  414TMC3    C5 6231   0.071   3.811  14.782 -0.4735 -0.0910 -0.2970
  414TMC3    C6 6232   0.063   3.694  14.708 -0.0001  0.2956 -0.4328
  414TMC3     C 6233   4.590   3.719  15.069  0.2093  0.4820 -0.8684
  414TMC3     O 6234   4.533   3.620  15.109 -0.0955  0.1578 -0.6466
  414TMC3     H 6235   4.595   3.518  14.912 -1.5330  1.0811  2.5381
  414TMC3    H1 6236   0.026   3.895  14.978  0.8214 -0.6944  0.7267
  414TMC3    H2 6237   0.112   3.680  14.612 -0.7669  0.5856 -0.8635
  414TMC3    C7 6238   0.203   3.879  14.781 -0.0544  0.4705  0.1729
  414TMC3    C8 6239   0.013   3.464  14.703  0.3357  0.0003  0.0976
  414TMC3    O1 6240   0.250   3.934  14.884  0.2121 -0.5240  0.6274
  414TMC3    O2 6241   4.657   3.385  14.688  0.0145 -0.2101  0.4598
  415TMC3    C1 6242   0.002   2.009  10.274  0.3976  0.3953  0.0497
  415TMC3    C2 6243   0.102   1.974  10.176  0.1211 -0.2016 -0.0557
  415TMC3    C3 6244   0.052   1.960  10.050  1.3448 -0.2767  0.2025
  415TMC3    C4 6245   4.607   2.000  10.247  0.0401 -0.6870 -0.4676
  415TMC3    C5 6246   4.569   1.956  10.117 -0.5279  0.1519  0.0164
  415TMC3    C6 6247   4.663   1.943  10.016  0.2029  0.1006  0.2030
  415TMC3     C 6248   0.041   2.055  10.405 -0.1137  0.4177  0.4999
  415TMC3     O 6249   4.697   2.033  10.493  0.3576 -0.1266  0.1613
  415TMC3     H 6250   0.207   1.966  10.202  0.2470 -0.7578 -0.7418
  415TMC3    H1 6251   4.534   2.044  10.313  0.8862 -0.7974  0.5277
  415TMC3    H2 6252   4.631   1.916   9.916  0.4275 -0.0080  0.1621
  415TMC3    C7 6253   4.428   1.951  10.076  0.1361  0.5372  0.1010
  415TMC3    C8 6254   0.149   1.944   9.938  0.1186  1.2801 -0.0685
  415TMC3    O1 6255   4.405   1.960   9.958 -0.2320  0.0570  0.1215
  415TMC3    O2 6256   0.109   1.887   9.840  0.0831 -0.5716  0.4792
  416MPD2     C 6257   1.811   1.317  11.301 -0.2172  0.5728  0.5282
  416MPD2    C1 6258   1.706   1.252  11.240 -0.4531 -0.5558  0.0959
  416MPD2    C2 6259   1.722   1.190  11.118 -0.3785  0.3223 -0.2583
  416MPD2    C3 6260   1.848   1.172  11.069  0.0233  0.0463 -0.2746
  416MPD2    C4 6261   1.956   1.230  11.134 -0.4291  0.3196 -0.4002
  416MPD2    C5 6262   1.935   1.306  11.246  0.0961 -0.7599  0.3333
  416MPD2     H 6263   1.642   1.143  11.062 -0.9453  0.8825  0.0833
  416MPD2    H1 6264   2.059   1.215  11.103 -0.0175  0.7374  0.7503
  416MPD2    H2 6265   1.792   1.375  11.390  0.7150  3.1613 -0.9783
  416MPD2    H3 6266   2.018   1.349  11.302 -1.6199  2.9563  0.0597
  416MPD2     N 6267   1.880   1.088  10.960 -0.4408  0.0013 -0.8306
  416MPD2    H5 6268   1.972   1.109  10.922 -0.7229  0.1006 -1.4610
  416MPD2    N1 6269   1.586   1.250  11.314  0.0940 -0.0598 -0.0886
  416MPD2    H7 6270   1.584   1.294  11.405 -1.4762 -0.0986 -0.1093
  417TMC3    C1 6271   1.367   1.186  11.373 -0.2189  0.5697  1.0708
  417TMC3    C2 6272   1.398   1.161  11.506 -0.3054 -0.1850 -0.5954
  417TMC3    C3 6273   1.302   1.138  11.604 -0.0692  1.0773  0.1652
  417TMC3    C4 6274   1.237   1.189  11.332  0.6959  0.0293 -0.8153
  417TMC3    C5 6275   1.144   1.199  11.430  0.3124 -0.1735  0.3563
  417TMC3    C6 6276   1.170   1.156  11.562 -0.3418 -0.1653 -0.7431
  417TMC3     C 6277   1.472   1.188  11.271 -0.3686 -0.5121 -0.1072
  417TMC3     O 6278   1.436   1.162  11.156  0.3454 -0.0156 -0.3100
  417TMC3     H 6279   1.505   1.151  11.524 -0.2288 -0.0449 -0.9735
  417TMC3    H1 6280   1.206   1.213  11.231 -0.7488  0.0901 -0.3544
  417TMC3    H2 6281   1.088   1.148  11.632  1.0500  0.8588  0.9921
  417TMC3    C7 6282   1.027   1.280  11.410 -0.5263  0.6640 -0.0419
  417TMC3    C8 6283   1.333   1.136  11.745  0.1719 -0.1535 -0.0596
  417TMC3    O1 6284   0.932   1.266  11.486 -0.2779  0.5174  0.2116
  417TMC3    O2 6285   1.234   1.122  11.810  0.1624 -0.2032  0.2292
  418TMC3    C1 6286   0.235   3.114   0.170  0.2213 -0.1355  0.1671
  418TMC3    C2 6287   0.097   3.133   0.186 -0.5438  0.2389 -0.2986
  418TMC3    C3 6288   0.034   3.047   0.265 -0.2919  0.0938 -0.4054
  418TMC3    C4 6289   0.310   3.030   0.245 -0.3384 -0.7239 -0.7655
  418TMC3    C5 6290   0.247   2.966   0.342 -0.7844  0.7536  0.6187
  418TMC3    C6 6291   0.107   2.963   0.345 -0.2812  0.1541  0.3383
  418TMC3     C 6292   0.305   3.192   0.070  0.8990 -0.0982 -0.2664
  418TMC3     O 6293   0.235   3.274   0.009  0.1400  0.0604 -0.0127
  418TMC3     H 6294   0.045   3.205   0.123 -1.0965 -0.4142 -0.5817
  418TMC3    H1 6295   0.418   3.025   0.248 -0.2962  1.4686  1.8798
  418TMC3    H2 6296   0.058   2.912   0.427 -0.7643 -1.9108 -1.2210
  418TMC3    C7 6297   0.326   2.860   0.405 -0.5161  0.2996  0.6484
  418TMC3    C8 6298   4.652   2.983   0.212  0.1286  0.2194  0.4966
  418TMC3    O1 6299   0.409   2.791   0.341  0.2697 -0.6057  0.6398
  418TMC3    O2 6300   4.579   3.052   0.139 -0.3140 -0.5543 -0.1587
  419MPD2     C 6301   3.728   1.323  12.599 -0.5286 -0.5230  0.6236
  419MPD2    C1 6302   3.617   1.373  12.538  0.0655  0.7203  0.2355
  419MPD2    C2 6303   3.508   1.418  12.617 -0.2813 -0.6166 -0.3571
  419MPD2    C3 6304   3.509   1.410  12.753 -0.4499  0.7173  0.0825
  419MPD2    C4 6305   3.619   1.356  12.813  0.3504  0.1994 -0.2621
  419MPD2    C5 6306   3.730   1.315  12.740 -0.4175 -0.3317 -0.3927
  419MPD2     H 6307   3.425   1.461  12.563 -0.6806 -2.9552 -1.6086
  419MPD2    H1 6308   3.636   1.338  12.919 -0.4120  1.9102  0.1374
  419MPD2    H2 6309   3.815   1.285  12.547  0.3520  2.1693  0.1275
  419MPD2    H3 6310   3.813   1.272  12.795 -0.7450  1.0288  1.1677
  419MPD2     N 6311   3.388   1.442  12.809 -0.4626 -0.1792  0.0422
  419MPD2    H5 6312   3.323   1.495  12.752  0.7353  1.8853  0.6038
  419MPD2    N1 6313   3.612   1.376  12.399 -0.4982  0.7908 -0.2797
  419MPD2    H7 6314   3.522   1.416  12.372  0.2589  0.9018 -2.6378
  420TMC3    C1 6315   3.220   1.450  12.974  0.1317 -1.2489 -0.1808
  420TMC3    C2 6316   3.124   1.461  12.876  0.2959 -0.2137 -0.2234
  420TMC3    C3 6317   2.990   1.485  12.925 -0.0811  0.1436 -0.1072
  420TMC3    C4 6318   3.189   1.452  13.104 -0.8808 -0.1050 -0.4357
  420TMC3    C5 6319   3.064   1.472  13.146 -0.4043 -0.0736  0.6090
  420TMC3    C6 6320   2.956   1.493  13.060  0.4065  0.0239  0.8036
  420TMC3     C 6321   3.360   1.423  12.946 -0.0278 -0.3437  0.4009
  420TMC3     O 6322   3.438   1.402  13.037  0.0253  0.1336 -0.2334
  420TMC3     H 6323   3.150   1.461  12.771  3.1989 -0.2412  0.5135
  420TMC3    H1 6324   3.265   1.441  13.180 -1.4661  2.1779  0.4620
  420TMC3    H2 6325   2.852   1.505  13.088  0.4129  0.2346  0.7401
  420TMC3    C7 6326   3.037   1.417  13.281  0.9264  0.6291  0.1104
  420TMC3    C8 6327   2.891   1.535  12.835  0.8785 -0.3888  0.4972
  420TMC3    O1 6328   3.131   1.378  13.345 -0.0930  0.0125  0.2044
  420TMC3    O2 6329   2.930   1.553  12.720  0.5319 -0.3166 -0.6856
  421TMC3    C1 6330   0.279   2.053  13.762 -0.0577 -0.0996 -0.0836
  421TMC3    C2 6331   0.281   2.186  13.736 -0.3913 -0.5659  0.6845
  421TMC3    C3 6332   0.354   2.254  13.824  0.6353  0.0543  0.2669
  421TMC3    C4 6333   0.354   1.993  13.862 -0.8405  0.7839  0.3648
  421TMC3    C5 6334   0.422   2.073  13.951 -0.8270  0.3581  0.2125
  421TMC3    C6 6335   0.432   2.208  13.925 -0.2136 -0.6163  0.3978
  421TMC3     C 6336   0.220   1.974  13.664  0.2174  0.0653 -0.3878
  421TMC3     O 6337   0.244   1.854  13.666 -0.4681 -0.0754  0.0937
  421TMC3     H 6338   0.250   2.247  13.652 -0.3481 -0.8607  0.4551
  421TMC3    H1 6339   0.334   1.888  13.878  2.0769 -0.3248 -3.2931
  421TMC3    H2 6340   0.468   2.264  14.010  0.7111 -1.9198  0.8717
  421TMC3    C7 6341   0.518   2.021  14.044  0.2869 -0.4583  0.3143
  421TMC3    C8 6342   0.372   2.397  13.810 -0.5997 -0.0484  0.0975
  421TMC3    O1 6343   0.609   2.100  14.071 -0.1036 -0.4149  0.2738
  421TMC3    O2 6344   0.476   2.437  13.860 -0.5064  0.5682  0.1583
  422TMC3    C1 6345   2.492   4.129  12.492 -0.4196 -0.1810  0.0770
  422TMC3    C2 6346   2.495   4.195  12.620  0.0098 -0.2276 -0.0132
  422TMC3    C3 6347   2.393   4.171  12.711  0.4431  0.2041 -0.0007
  422TMC3    C4 6348   2.378   4.052  12.462 -0.2244 -0.5291 -0.4719
  422TMC3    C5 6349   2.288   4.028  12.565 -0.0007 -0.1259 -0.0008
  422TMC3    C6 6350   2.287   4.090  12.688 -0.2733 -0.1553 -0.5496
  422TMC3     C 6351   2.583   4.173  12.383  0.1233 -0.1597  0.3086
  422TMC3     O 6352   2.657   4.271  12.412  0.1878  0.2028  0.4843
  422TMC3     H 6353   2.589   4.244  12.645  1.0169 -1.8131 -0.6298
  422TMC3    H1 6354   2.378   3.994  12.371  0.2426  0.2542 -0.9651
  422TMC3    H2 6355   2.219   4.064  12.768  0.7036  1.7943  0.9077
  422TMC3    C7 6356   2.201   3.915  12.543 -0.1038  0.4759  0.1509
  422TMC3    C8 6357   2.362   4.303  12.762  0.3707  0.1876 -0.0917
  422TMC3    O1 6358   2.209   3.860  12.436 -0.2111  0.4859 -0.5016
  422TMC3    O2 6359   2.460   4.376  12.779 -0.1602  0.3876 -0.1524
  423MPD2     C 6360   3.317   4.340   0.416 -0.1974  0.1360  0.5276
  423MPD2    C1 6361   3.410   4.252   0.467  0.5027 -0.0083 -0.0034
  423MPD2    C2 6362   3.536   4.242   0.407  0.0911 -0.4060  0.2148
  423MPD2    C3 6363   3.563   4.324   0.300  0.3544  0.3364 -0.3323
  423MPD2    C4 6364   3.468   4.409   0.259 -0.2564  0.4313  0.1577
  423MPD2    C5 6365   3.346   4.418   0.311 -0.5812 -0.1536  0.2552
  423MPD2     H 6366   3.612   4.190   0.464  0.3462 -0.5958 -0.2951
  423MPD2    H1 6367   3.480   4.463   0.165 -0.1871  0.4864  0.1985
  423MPD2    H2 6368   3.216   4.340   0.455  0.0010  2.4445  1.0886
  423MPD2    H3 6369   3.277   4.482   0.257 -1.7235 -0.4825  1.3159
  423MPD2     N 6370   3.692   4.336   0.234  0.3007 -0.3257 -0.5342
  423MPD2    H5 6371   3.697   4.388   0.147  1.1942  2.5771  1.2567
  423MPD2    N1 6372   3.387   4.178   0.587  0.4229  0.3723 -0.4495
  423MPD2    H7 6373   3.465   4.125   0.625  1.5043  1.9802 -0.4414
  424TMC3    C1 6374   3.290   4.099   0.789 -0.7823  0.0649  0.0446
  424TMC3    C2 6375   3.383   3.995   0.788  0.8040  0.1930 -0.6425
  424TMC3    C3 6376   3.375   3.916   0.898 -0.0635 -0.0201 -0.7224
  424TMC3    C4 6377   3.208   4.118   0.890 -0.7889  0.3451 -0.5419
  424TMC3    C5 6378   3.189   4.017   0.983 -0.3108 -0.5448  0.2503
  424TMC3    C6 6379   3.272   3.914   0.989 -0.6129  0.8134  0.1422
  424TMC3     C 6380   3.277   4.182   0.677  0.3504  0.9455 -0.6687
  424TMC3     O 6381   3.195   4.270   0.674  0.1590 -0.6672 -0.4554
  424TMC3     H 6382   3.448   3.975   0.704  0.0929 -1.1986 -0.8664
  424TMC3    H1 6383   3.142   4.204   0.882 -1.3845  0.1258  2.1589
  424TMC3    H2 6384   3.275   3.846   1.074  0.0201 -0.3997 -0.8528
  424TMC3    C7 6385   3.062   4.006   1.051 -0.7891  0.0968  0.9160
  424TMC3    C8 6386   3.468   3.803   0.923 -0.4605 -0.3380 -0.3764
  424TMC3    O1 6387   3.045   3.896   1.094 -0.7300  0.7149 -0.2209
  424TMC3    O2 6388   3.424   3.712   0.993 -0.7729 -0.1592 -0.2075
  425MPD2     C 6389   3.359   4.111  17.169  1.1216  0.3716 -0.4530
  425MPD2    C1 6390   3.305   4.000  17.220 -0.4295  0.2384  0.3917
  425MPD2    C2 6391   3.215   4.007  17.330 -0.3674  0.6994 -0.0028
  425MPD2    C3 6392   3.194   4.129  17.393  0.1783  0.1570 -0.0393
  425MPD2    C4 6393   3.253   4.239  17.343  0.7155  0.0763  0.7716
  425MPD2    C5 6394   3.334   4.229  17.232 -0.0218  0.4446 -0.4970
  425MPD2     H 6395   3.156   3.923  17.365 -1.6251  2.0236  1.0905
  425MPD2    H1 6396   3.221   4.338  17.375  0.2408  0.0219  0.4770
  425MPD2    H2 6397   3.409   4.114  17.072  0.1693  0.2946 -0.9474
  425MPD2    H3 6398   3.374   4.321  17.191  0.5340  0.0829 -0.7738
  425MPD2     N 6399   3.092   4.128  17.488  0.6254 -0.0181 -0.5439
  425MPD2    H5 6400   3.057   4.038  17.520 -1.4144  1.2964  0.8916
  425MPD2    N1 6401   3.332   3.881  17.147  0.0472 -0.1232 -0.2765
  425MPD2    H7 6402   3.396   3.890  17.069 -1.6287 -1.2701 -1.7661
  426TMC3    C1 6403   3.356   3.647  17.123  0.1107 -0.7789  0.1883
  426TMC3    C2 6404   3.350   3.657  16.988 -0.1243 -0.0792  0.5358
  426TMC3    C3 6405   3.388   3.550  16.915 -0.1076  0.1158 -0.2353
  426TMC3    C4 6406   3.394   3.532  17.189  0.5317  0.1581  0.0094
  426TMC3    C5 6407   3.439   3.430  17.113 -0.1752  0.4582  0.3451
  426TMC3    C6 6408   3.445   3.440  16.978  1.1507  0.7187  0.0953
  426TMC3     C 6409   3.306   3.758  17.200  0.7621  0.6936  0.4724
  426TMC3     O 6410   3.254   3.729  17.305 -0.2986 -0.2736 -0.2688
  426TMC3     H 6411   3.288   3.731  16.937  0.4550  0.1536  0.1719
  426TMC3    H1 6412   3.411   3.523  17.295 -0.4406 -1.0044  0.0699
  426TMC3    H2 6413   3.464   3.351  16.920 -3.0570 -0.8553  1.1075
  426TMC3    C7 6414   3.406   3.297  17.163  0.1219 -0.3150  0.0726
  426TMC3    C8 6415   3.383   3.546  16.769  0.7934  0.1614  0.1938
  426TMC3    O1 6416   3.439   3.212  17.082  0.4884 -0.1771  0.0715
  426TMC3    O2 6417   3.345   3.436  16.722 -0.1864  0.3946  0.4940
  427MPD2     C 6418   1.311   1.010  15.069 -0.8503 -0.3605 -0.3650
  427MPD2    C1 6419   1.383   1.093  15.154  0.8019 -0.5366  0.2130
  427MPD2    C2 6420   1.320   1.214  15.187  0.3941  0.5526 -0.0994
  427MPD2    C3 6421   1.205   1.250  15.121  0.1528 -0.3841 -0.0831
  427MPD2    C4 6422   1.140   1.160  15.049  0.0969  0.3625  0.2310
  427MPD2    C5 6423   1.188   1.035  15.017  0.4459  0.3153  0.1048
  427MPD2     H 6424   1.369   1.269  15.267  0.8144 -0.7157  0.5131
  427MPD2    H1 6425   1.041   1.187  15.012  0.9184 -0.0896 -2.3101
  427MPD2    H2 6426   1.348   0.914  15.035  1.3917  0.8487 -1.3168
  427MPD2    H3 6427   1.136   0.951  14.973 -0.1760  0.2564  0.9499
  427MPD2     N 6428   1.132   1.371  15.144  0.0086  0.9597 -0.3760
  427MPD2    H5 6429   1.046   1.388  15.093 -0.9767 -1.8050  0.3320
  427MPD2    N1 6430   1.507   1.046  15.206  0.9316  0.7202  0.2808
  427MPD2    H7 6431   1.540   0.954  15.181 -2.9499 -0.4780 -0.4322
  428TMC3    C1 6432   1.712   1.056  15.306  0.0085 -0.1942 -0.3034
  428TMC3    C2 6433   1.700   0.925  15.345 -1.2285 -0.4326  0.1576
  428TMC3    C3 6434   1.809   0.869  15.404  0.0739 -0.0519 -0.1413
  428TMC3    C4 6435   1.819   1.135  15.338  0.4798  0.0685  0.3243
  428TMC3    C5 6436   1.927   1.073  15.402  0.4738  0.3013 -0.0034
  428TMC3    C6 6437   1.926   0.937  15.421  0.0290 -0.3277  0.1585
  428TMC3     C 6438   1.593   1.128  15.275  0.3758  0.2388 -0.0706
  428TMC3     O 6439   1.590   1.251  15.287  0.1629  0.2025 -0.5072
  428TMC3     H 6440   1.607   0.873  15.329 -1.1405 -0.2749 -0.8831
  428TMC3    H1 6441   1.828   1.240  15.314 -2.1490  0.0888 -0.6156
  428TMC3    H2 6442   2.013   0.889  15.464 -0.2590  0.2733  1.4196
  428TMC3    C7 6443   2.053   1.139  15.391  0.3032  0.3206 -0.1227
  428TMC3    C8 6444   1.820   0.726  15.430  0.1995  0.3191 -0.8101
  428TMC3    O1 6445   2.131   1.109  15.485  0.7869 -0.0381  0.0485
  428TMC3    O2 6446   1.918   0.679  15.495  0.2597 -1.1498  0.1525
  429MPD2     C 6447   3.058   1.483  17.690 -0.6446  0.0792  0.1908
  429MPD2    C1 6448   3.042   1.396  17.585  0.0387  0.3857 -0.0668
  429MPD2    C2 6449   3.020   1.453  17.461  0.2510 -0.0867  0.4590
  429MPD2    C3 6450   3.030   1.588  17.435 -0.4359 -0.5396  0.3239
  429MPD2    C4 6451   3.040   1.671  17.543 -0.1503 -0.1433 -0.7315
  429MPD2    C5 6452   3.043   1.621  17.672 -0.4289  0.0465 -0.3857
  429MPD2     H 6453   3.016   1.378  17.383  1.6826 -2.1417  2.3598
  429MPD2    H1 6454   3.034   1.778  17.524  1.4047  0.2800  1.1401
  429MPD2    H2 6455   3.049   1.449   0.037  0.0581 -1.2843 -0.1948
  429MPD2    H3 6456   3.035   1.684   0.003  1.9263  0.2354 -0.3008
  429MPD2     N 6457   3.040   1.630  17.299  0.0142  0.0603  0.0962
  429MPD2    H5 6458   3.044   1.557  17.229 -0.3233 -1.2480  1.4351
  429MPD2    N1 6459   3.045   1.255  17.593 -0.1565 -0.0041 -0.0436
  429MPD2    H7 6460   3.023   1.201  17.510  2.2358 -0.7576 -0.1983
  430TMC3    C1 6461   3.136   1.770  17.136 -0.3272  0.1408 -0.1813
  430TMC3    C2 6462   3.168   1.893  17.082  0.0992  0.5783 -0.1241
  430TMC3    C3 6463   3.256   1.896  16.972  0.9532  0.5315  0.8677
  430TMC3    C4 6464   3.209   1.653  17.089  0.8443 -0.4068  0.4800
  430TMC3    C5 6465   3.277   1.666  16.971  0.0777  0.5169 -0.5348
  430TMC3    C6 6466   3.314   1.784  16.918  0.8190 -0.4068  0.4484
  430TMC3     C 6467   3.061   1.754  17.263  0.0287 -0.5229 -0.2345
  430TMC3     O 6468   3.034   1.865  17.313 -0.2579  0.3608 -0.4183
  430TMC3     H 6469   3.112   1.977  17.120  0.1773  1.4668 -1.9655
  430TMC3    H1 6470   3.182   1.553  17.121  2.6196 -1.1224 -0.2452
  430TMC3    H2 6471   3.376   1.785  16.829 -1.8352  0.0058 -1.4230
  430TMC3    C7 6472   3.245   1.568  16.871  0.6619 -0.2175 -0.0892
  430TMC3    C8 6473   3.207   1.985  16.866  0.6587  0.6949 -0.1172
  430TMC3    O1 6474   3.243   1.450  16.904  0.2477  0.1376  0.1983
  430TMC3    O2 6475   3.184   1.932  16.759  0.2049  0.2118  0.4837
  431MPD2     C 6476   3.115   1.833  12.354 -0.1796  0.7059 -0.1158
  431MPD2    C1 6477   3.225   1.881  12.286  0.4905  0.4787  0.0290
  431MPD2    C2 6478   3.286   1.800  12.196 -0.5572  0.6729 -0.3565
  431MPD2    C3 6479   3.246   1.666  12.180 -0.4425  0.1566  0.0542
  431MPD2    C4 6480   3.137   1.613  12.249  1.0527  0.2665  0.4257
  431MPD2    C5 6481   3.065   1.706  12.322  0.3020 -0.6736  0.3259
  431MPD2     H 6482   3.371   1.847  12.149 -0.2726  0.0390 -0.4761
  431MPD2    H1 6483   3.104   1.510  12.240  0.2608  0.3581  2.3160
  431MPD2    H2 6484   3.056   1.890  12.425  1.6615 -0.3643  2.2475
  431MPD2    H3 6485   2.985   1.664  12.382 -2.3378  2.2997 -1.0989
  431MPD2     N 6486   3.325   1.571  12.117 -0.3717 -0.1120 -0.2785
  431MPD2    H5 6487   3.289   1.476  12.125  1.6856 -0.9248 -0.6246
  431MPD2    N1 6488   3.291   1.998  12.318 -0.3452  0.0327 -0.0294
  431MPD2    H7 6489   3.366   2.029  12.258 -0.8770  3.8006  1.2546
  432TMC3    C1 6490   3.523   1.483  12.025 -0.1237 -0.6911 -0.1796
  432TMC3    C2 6491   3.630   1.519  11.943  0.0873 -0.0347 -0.1582
  432TMC3    C3 6492   3.756   1.462  11.969 -0.3626 -0.3848 -0.4368
  432TMC3    C4 6493   3.541   1.402  12.134  0.1366 -0.1771  0.6746
  432TMC3    C5 6494   3.664   1.356  12.159 -0.2391 -0.0660  0.3767
  432TMC3    C6 6495   3.769   1.376  12.077 -0.0138 -0.0247  0.2195
  432TMC3     C 6496   3.430   1.600  12.035  0.0431 -0.0664  0.8828
  432TMC3     O 6497   3.476   1.703  11.996 -0.5545 -0.0454 -0.4189
  432TMC3     H 6498   3.602   1.568  11.851 -1.2981 -0.2642  0.1413
  432TMC3    H1 6499   3.460   1.368  12.198  0.8055 -0.8304  1.1732
  432TMC3    H2 6500   3.867   1.336  12.098  0.2581 -0.3024 -1.5598
  432TMC3    C7 6501   3.708   1.342  12.305 -0.2277 -0.1648  1.2695
  432TMC3    C8 6502   3.866   1.524  11.899 -0.1006 -0.3883  0.4746
  432TMC3    O1 6503   3.824   1.312  12.324 -0.2952 -0.2012  0.2308
  432TMC3    O2 6504   3.844   1.583  11.791  0.5111  0.4379 -0.1589
  433MPD2     C 6505   2.497   0.482  10.727 -0.4613 -0.1449 -0.3846
  433MPD2    C1 6506   2.415   0.372  10.722 -0.9480  0.2705  0.0867
  433MPD2    C2 6507   2.333   0.354  10.831 -0.2937  0.2052  0.4697
  433MPD2    C3 6508   2.351   0.432  10.950 -0.5627  0.5110  0.1471
  433MPD2    C4 6509   2.432   0.539  10.951  0.0617 -0.2838  0.4473
  433MPD2    C5 6510   2.502   0.564  10.836 -0.0322  0.0391  0.2561
  433MPD2     H 6511   2.273   0.264  10.826 -0.1832  0.2152 -1.1750
  433MPD2    H1 6512   2.454   0.599  11.038  0.6276 -0.7940  0.6539
  433MPD2    H2 6513   2.562   0.504  10.642 -0.4352  2.4072  0.2908
  433MPD2    H3 6514   2.585   0.634  10.836  0.1894 -0.2228 -2.4531
  433MPD2     N 6515   2.294   0.389  11.069 -0.4798 -0.4914  0.2169
  433MPD2    H5 6516   2.247   0.299  11.063 -0.0704 -0.8442  2.3228
  433MPD2    N1 6517   2.413   0.271  10.623 -0.6105  0.0780  0.0996
  433MPD2    H7 6518   2.363   0.185  10.645 -2.0388  0.9850  0.3311
  434TMC3    C1 6519   2.515   0.111  10.483  0.2698  0.3327 -0.8702
  434TMC3    C2 6520   2.618   0.055  10.549 -0.1485  0.5020  0.3064
  434TMC3    C3 6521   2.603   4.662  10.588 -0.1352  0.3902 -0.5069
  434TMC3    C4 6522   2.397   0.042  10.460  0.0656  0.5163  0.1346
  434TMC3    C5 6523   2.391   4.647  10.496  0.5385 -0.3965 -0.4611
  434TMC3    C6 6524   2.497   4.583  10.552  0.7219 -0.4444  0.3904
  434TMC3     C 6525   2.509   0.250  10.526  0.4077  0.8287 -0.1166
  434TMC3     O 6526   2.598   0.325  10.479  0.4731  0.3258  0.3479
  434TMC3     H 6527   2.711   0.110  10.552  0.3989 -0.5023  1.5701
  434TMC3    H1 6528   2.311   0.094  10.420  0.1289  0.0520 -0.6003
  434TMC3    H2 6529   2.486   4.481  10.588 -3.1472 -0.3292 -0.4817
  434TMC3    C7 6530   2.284   4.578  10.433  0.1611 -0.3790 -0.1737
  434TMC3    C8 6531   2.711   4.604  10.678 -0.9989  0.6130  0.7012
  434TMC3    O1 6532   2.208   4.630  10.352 -0.3345  0.4706  0.1620
  434TMC3    O2 6533   2.706   4.479  10.690 -0.3175 -0.2028  0.3338
  435MPD2     C 6534   0.106   0.229  15.157 -0.1908  0.0711 -0.3044
  435MPD2    C1 6535   0.021   0.179  15.255  0.9657  0.6665 -0.4603
  435MPD2    C2 6536   0.082   0.106  15.353  0.1156 -0.3902 -0.1417
  435MPD2    C3 6537   0.218   0.099  15.369 -0.0037  0.2566 -0.4027
  435MPD2    C4 6538   0.294   0.155  15.278  0.1330  0.1387  0.5200
  435MPD2    C5 6539   0.240   0.218  15.176  0.1242  0.1362  0.0230
  435MPD2     H 6540   0.021   0.060  15.430 -1.9766  2.0962 -0.3125
  435MPD2    H1 6541   0.403   0.157  15.283  0.3036 -1.0994 -2.7358
  435MPD2    H2 6542   0.077   0.279  15.065 -0.5339 -0.6671 -0.6050
  435MPD2    H3 6543   0.302   0.256  15.096  1.7605  1.3659  1.8754
  435MPD2     N 6544   0.261   0.022  15.476 -0.5437 -0.5078 -0.1824
  435MPD2    H5 6545   0.188   4.712  15.526 -0.5766 -0.7414 -0.4660
  435MPD2    N1 6546   4.626   0.209  15.259 -0.1720  0.1628 -0.3049
  435MPD2    H7 6547   4.573   0.171  15.338 -0.4242 -1.5439 -1.2898
  436TMC3    C1 6548   4.269   0.218  15.365  0.4304  0.4597  0.3000
  436TMC3    C2 6549   4.375   0.185  15.287 -0.2634  0.0059  0.3568
  436TMC3    C3 6550   4.416   0.276  15.192 -0.0495 -0.2295 -0.3566
  436TMC3    C4 6551   4.203   0.337  15.348 -0.4849  0.2553 -0.0477
  436TMC3    C5 6552   4.248   0.434  15.262  0.4540  0.2591  0.5255
  436TMC3    C6 6553   4.358   0.401  15.186  0.2264 -0.1502 -0.0102
  436TMC3     C 6554   4.202   0.116  15.441 -0.3490 -0.2809 -0.0517
  436TMC3     O 6555   4.247   0.004  15.408  0.3941  0.7144 -0.1052
  436TMC3     H 6556   4.431   0.094  15.305 -2.5177 -1.6859 -1.2098
  436TMC3    H1 6557   4.111   0.357  15.401 -1.1333 -0.7646 -0.7873
  436TMC3    H2 6558   4.400   0.472  15.115  0.3946 -1.8554 -1.6215
  436TMC3    C7 6559   4.201   0.568  15.259 -0.1916 -1.3582  0.3202
  436TMC3    C8 6560   4.557   0.279  15.166 -0.7413 -0.2191 -0.2843
  436TMC3    O1 6561   4.285   0.649  15.221 -0.2982 -0.8502  0.3158
  436TMC3    O2 6562   4.601   0.355  15.079 -0.2966 -0.0549 -0.3895
  437TMC3    C1 6563   2.651   1.813  13.100  0.5191 -0.0935  0.8338
  437TMC3    C2 6564   2.521   1.769  13.085  0.0601  0.5336  0.0598
  437TMC3    C3 6565   2.458   1.821  12.972  0.2908 -0.4170  0.5051
  437TMC3    C4 6566   2.709   1.910  13.024  0.1600 -0.0342  0.4454
  437TMC3    C5 6567   2.643   1.950  12.914 -0.0050 -0.3010 -0.5687
  437TMC3    C6 6568   2.515   1.913  12.890 -0.8236 -0.1575 -0.2171
  437TMC3     C 6569   2.707   1.780  13.223  0.9974 -0.5319  0.7948
  437TMC3     O 6570   2.698   1.662  13.258 -0.4601 -0.2237 -0.3813
  437TMC3     H 6571   2.475   1.697  13.152  1.6110 -1.1105 -0.6517
  437TMC3    H1 6572   2.802   1.954  13.057 -0.2733  0.8422  0.5095
  437TMC3    H2 6573   2.473   1.959  12.802  1.3145  2.8731  0.3110
  437TMC3    C7 6574   2.698   2.058  12.834  0.1738 -0.5546  0.2588
  437TMC3    C8 6575   2.314   1.801  12.974  0.7033 -0.4223 -0.1770
  437TMC3    O1 6576   2.631   2.126  12.765  0.2635  0.0218 -0.4344
  437TMC3    O2 6577   2.268   1.707  13.033  0.6621 -0.0319  0.0909
  438MPD2     C 6578   0.830   3.222  16.010  0.3869  0.5313  0.0249
  438MPD2    C1 6579   0.886   3.113  16.074  0.0640 -1.0719 -0.1362
  438MPD2    C2 6580   0.806   3.052  16.168  0.0541 -0.0048 -0.3247
  438MPD2    C3 6581   0.680   3.093  16.207 -0.4735 -0.1934  0.1136
  438MPD2    C4 6582   0.618   3.198  16.136  0.0236 -0.0903 -0.3989
  438MPD2    C5 6583   0.698   3.261  16.042  0.1459 -0.2753 -0.1736
  438MPD2     H 6584   0.852   2.963  16.210 -1.3235 -1.5516 -2.0693
  438MPD2    H1 6585   0.530   3.251  16.171  0.9130 -0.3733  2.2996
  438MPD2    H2 6586   0.876   3.290  15.938 -1.2258  1.4945 -0.0915
  438MPD2    H3 6587   0.668   3.357  16.004 -0.4809  0.1235  1.3402
  438MPD2     N 6588   0.612   3.041  16.318 -0.2057 -0.5100 -0.2125
  438MPD2    H5 6589   0.527   3.095  16.327  2.1024  3.1991 -0.4350
  438MPD2    N1 6590   1.022   3.082  16.065  0.0733 -0.5855 -0.3727
  438MPD2    H7 6591   1.055   3.007  16.125  0.9824 -0.4792 -0.7364
  439TMC3    C1 6592   1.249   3.102  16.002 -0.4026  0.0850 -0.6998
  439TMC3    C2 6593   1.337   3.139  15.905  0.4666  0.2176  0.0742
  439TMC3    C3 6594   1.469   3.096  15.915 -0.2034 -0.8059  0.1406
  439TMC3    C4 6595   1.284   3.036  16.120  0.4063 -0.2707 -0.4007
  439TMC3    C5 6596   1.420   3.019  16.128 -0.8028 -0.1757  0.1872
  439TMC3    C6 6597   1.508   3.034  16.028  0.2191 -0.5308  0.0875
  439TMC3     C 6598   1.115   3.149  15.985  0.2413 -0.0456 -0.2328
  439TMC3     O 6599   1.107   3.259  15.933 -0.2657 -0.1420 -0.1963
  439TMC3     H 6600   1.317   3.203  15.820  1.0313  0.5196  0.1637
  439TMC3    H1 6601   1.216   3.040  16.204  0.5072  0.3677 -0.3463
  439TMC3    H2 6602   1.613   3.018  16.049  0.3119  1.0389  0.8255
  439TMC3    C7 6603   1.469   2.918  16.228  0.1757  0.5543 -0.3449
  439TMC3    C8 6604   1.576   3.161  15.831  0.1849 -0.7804  0.3746
  439TMC3    O1 6605   1.582   2.929  16.274  0.4850  0.2572  0.3126
  439TMC3    O2 6606   1.682   3.103  15.850  0.3032 -0.2725  0.3246
  440MPD2     C 6607   4.183   3.219  14.595  0.4882  0.0177 -0.3675
  440MPD2    C1 6608   4.271   3.205  14.703 -0.6219 -1.0256  0.1390
  440MPD2    C2 6609   4.359   3.099  14.707  0.6727  0.2988  0.1719
  440MPD2    C3 6610   4.353   3.001  14.614 -0.2709  0.7125  0.5883
  440MPD2    C4 6611   4.262   3.008  14.508 -0.9567 -0.8957 -0.1137
  440MPD2    C5 6612   4.172   3.118  14.507  0.2122  0.1830  0.4380
  440MPD2     H 6613   4.427   3.094  14.792  0.0284 -2.3279  0.5255
  440MPD2    H1 6614   4.260   2.943  14.422  3.2911  1.8969 -2.2718
  440MPD2    H2 6615   4.102   3.291  14.607  0.2064  0.1106 -2.9320
  440MPD2    H3 6616   4.104   3.134  14.424 -0.8729  0.9184  1.4527
  440MPD2     N 6617   4.455   2.905  14.616  1.3434 -0.0697 -0.2110
  440MPD2    H5 6618   4.533   2.923  14.678  0.4814  0.9328  0.5902
  440MPD2    N1 6619   4.265   3.311  14.796 -0.4747  0.0457 -0.1561
  440MPD2    H7 6620   4.301   3.302  14.891  0.5360 -0.9664 -0.6298
  441TMC3    C1 6621   4.577   2.722  14.573  0.2362  0.6614 -0.0542
  441TMC3    C2 6622   4.686   2.765  14.509 -0.0877  0.5012 -0.0136
  441TMC3    C3 6623   0.074   2.748  14.566  0.0335  0.8709  0.0017
  441TMC3    C4 6624   4.584   2.684  14.704  0.3222 -0.5468  0.5835
  441TMC3    C5 6625   4.704   2.671  14.764  0.1555 -0.6894 -0.1069
  441TMC3    C6 6626   0.086   2.699  14.695 -0.2186  0.9338 -0.2712
  441TMC3     C 6627   4.461   2.795  14.536  0.4008 -0.7395  0.0104
  441TMC3     O 6628   4.374   2.740  14.468  0.3155  0.0604  0.4211
  441TMC3     H 6629   4.685   2.795  14.405  1.3122 -1.9932 -0.7401
  441TMC3    H1 6630   4.491   2.657  14.752  0.0725 -1.5984 -0.5062
  441TMC3    H2 6631   0.188   2.684  14.728  0.0395 -2.3528 -2.5463
  441TMC3    C7 6632   4.709   2.673  14.909 -0.0798  0.2857 -0.8967
  441TMC3    C8 6633   0.178   2.845  14.537  0.8503 -0.0334  0.4162
  441TMC3    O1 6634   4.600   2.667  14.970 -0.4094  0.4640 -0.1152
  441TMC3    O2 6635   0.292   2.807  14.537  0.1800 -0.0487 -0.4525
  442MPD2     C 6636   3.228   3.845  15.959  0.2872 -0.0740 -0.0647
  442MPD2    C1 6637   3.152   3.783  16.058 -0.5922 -0.0885  0.2065
  442MPD2    C2 6638   3.080   3.667  16.032 -0.9200  0.4739 -0.4007
  442MPD2    C3 6639   3.086   3.608  15.902  0.4494  0.4467  0.0408
  442MPD2    C4 6640   3.158   3.669  15.810  0.6705 -0.3178 -0.2029
  442MPD2    C5 6641   3.231   3.784  15.840 -0.3010 -0.0653 -0.1047
  442MPD2     H 6642   3.039   3.612  16.116 -1.4817  1.1360 -0.2450
  442MPD2    H1 6643   3.163   3.626  15.711  1.5784 -3.2874  1.1316
  442MPD2    H2 6644   3.303   3.922  15.975  0.3338 -0.3966  1.2522
  442MPD2    H3 6645   3.300   3.823  15.766  0.2362  0.2846  0.5812
  442MPD2     N 6646   3.012   3.492  15.857  0.0148 -0.3392 -0.2704
  442MPD2    H5 6647   3.018   3.464  15.760 -1.3324  2.3904 -1.1268
  442MPD2    N1 6648   3.153   3.833  16.189  0.2075  0.0805  0.7298
  442MPD2    H7 6649   3.095   3.797  16.264 -0.4252 -1.0785 -0.3278
  443TMC3    C1 6650   3.217   3.962  16.377 -0.4947 -0.4079 -0.1454
  443TMC3    C2 6651   3.220   4.090  16.418  0.1240  0.0207 -0.3208
  443TMC3    C3 6652   3.147   4.115  16.532  0.1633  0.5466 -0.2437
  443TMC3    C4 6653   3.164   3.860  16.453  0.4285 -0.0338  0.4517
  443TMC3    C5 6654   3.109   3.882  16.572  0.5745 -0.3213  0.1862
  443TMC3    C6 6655   3.105   4.012  16.618  0.0635  0.6848  0.8983
  443TMC3     C 6656   3.227   3.946  16.232 -0.4120 -0.1514 -0.0630
  443TMC3     O 6657   3.308   4.019  16.171  0.6926  0.1366  0.3291
  443TMC3     H 6658   3.257   4.168  16.353 -1.3606  0.5480 -0.5377
  443TMC3    H1 6659   3.162   3.756  16.421  0.2580  0.2769 -0.5364
  443TMC3    H2 6660   3.041   4.035  16.703 -1.2053  0.6686 -0.0493
  443TMC3    C7 6661   3.060   3.773  16.646  0.1080 -0.2732 -0.2667
  443TMC3    C8 6662   3.112   4.245  16.579  0.1353 -0.2914  0.0583
  443TMC3    O1 6663   3.008   3.677  16.588 -0.0763  0.2290  0.3852
  443TMC3    O2 6664   3.117   4.264  16.699  0.8839  0.3394 -0.0302
  444MPD2     C 6665   3.027   3.230  16.980 -0.4193  0.0415 -0.3416
  444MPD2    C1 6666   2.963   3.112  17.008 -0.0492  0.3630  0.2806
  444MPD2    C2 6667   2.996   3.003  16.933 -0.4729 -0.2601  1.1525
  444MPD2    C3 6668   3.091   3.008  16.830 -0.8718 -0.2728 -0.2883
  444MPD2    C4 6669   3.156   3.127  16.807 -0.4356  1.0242 -0.5942
  444MPD2    C5 6670   3.129   3.237  16.885  0.4467  0.3693  0.4675
  444MPD2     H 6671   2.945   2.910  16.954 -1.9287  0.5871  1.4564
  444MPD2    H1 6672   3.238   3.144  16.738 -1.4043  2.2996 -1.4207
  444MPD2    H2 6673   3.003   3.317  17.040  1.9827  1.0292 -0.7949
  444MPD2    H3 6674   3.200   3.319  16.884  2.4844 -1.4562 -3.7866
  444MPD2     N 6675   3.107   2.894  16.750  0.6383  0.4533  0.8836
  444MPD2    H5 6676   3.061   2.810  16.783  0.6172 -0.4079 -1.2907
  444MPD2    N1 6677   2.872   3.086  17.117  0.6127 -0.3395 -0.1083
  444MPD2    H7 6678   2.833   2.993  17.130  1.4399 -0.6480  0.1728
  445TMC3    C1 6679   3.222   2.748  16.603 -0.5309 -0.1990 -0.3638
  445TMC3    C2 6680   3.120   2.663  16.570  0.6095 -0.3678 -0.1086
  445TMC3    C3 6681   3.141   2.560  16.484 -0.4706  0.2263 -0.6085
  445TMC3    C4 6682   3.347   2.726  16.560 -0.2714  0.4347 -0.1754
  445TMC3    C5 6683   3.370   2.616  16.486 -0.5400 -0.3678 -0.1437
  445TMC3    C6 6684   3.272   2.533  16.441  0.2223  0.0989  0.9497
  445TMC3     C 6685   3.190   2.880  16.643  0.0402 -0.5860 -0.2299
  445TMC3     O 6686   3.247   2.965  16.578  0.0433 -0.6400  0.1287
  445TMC3     H 6687   3.017   2.688  16.591  0.5520 -0.5105 -0.2237
  445TMC3    H1 6688   3.433   2.790  16.578 -1.3161  1.5477  0.7577
  445TMC3    H2 6689   3.289   2.473  16.351 -1.5620  0.4665  0.3653
  445TMC3    C7 6690   3.509   2.562  16.484 -0.6737 -0.0553 -0.2766
  445TMC3    C8 6691   3.036   2.521  16.391  0.1672  1.1278 -0.4994
  445TMC3    O1 6692   3.600   2.633  16.523  0.1278 -0.8269 -0.1885
  445TMC3    O2 6693   2.936   2.593  16.387 -0.4095  0.2151  0.2010
  446MPD2     C 6694   2.385   4.197  10.810 -0.9979 -0.6310  0.4020
  446MPD2    C1 6695   2.297   4.297  10.818  0.0749 -0.3188  0.9745
  446MPD2    C2 6696   2.338   4.419  10.878  0.8073  0.3665 -0.3139
  446MPD2    C3 6697   2.463   4.426  10.943 -0.7687  0.1409  0.2465
  446MPD2    C4 6698   2.538   4.313  10.949  0.6482 -0.3983 -0.5053
  446MPD2    C5 6699   2.503   4.201  10.875 -0.3840 -0.2607 -0.2582
  446MPD2     H 6700   2.273   4.504  10.889  1.3586  0.7046  0.3023
  446MPD2    H1 6701   2.636   4.307  10.996 -0.0823  2.0253  1.2957
  446MPD2    H2 6702   2.376   4.109  10.748  0.0861 -0.3885 -0.0960
  446MPD2    H3 6703   2.574   4.121  10.858  2.3258  2.2681 -0.6932
  446MPD2     N 6704   2.495   4.549  11.011  0.0978 -0.1234 -0.3815
  446MPD2    H5 6705   2.446   4.634  10.987  0.4579 -0.4181 -2.2418
  446MPD2    N1 6706   2.165   4.285  10.770  0.0399 -0.1831  0.3787
  446MPD2    H7 6707   2.106   4.366  10.756  0.4361 -0.3161 -2.1705
  447TMC3    C1 6708   2.645   4.695  11.120 -0.5252 -0.1862  0.2987
  447TMC3    C2 6709   2.626   0.050  11.022  0.2659 -0.2282 -0.3923
  447TMC3    C3 6710   2.703   0.166  11.033 -0.1873  0.2534 -0.1931
  447TMC3    C4 6711   2.717   4.721  11.237 -0.0109  0.0147  0.4286
  447TMC3    C5 6712   2.781   0.097  11.246 -0.1842  0.6473  0.2652
  447TMC3    C6 6713   2.777   0.187  11.146  0.2853  0.3681  0.7584
  447TMC3     C 6714   2.599   4.558  11.102 -0.2724 -0.8201 -0.2802
  447TMC3     O 6715   2.634   4.480  11.186  0.3365 -0.4400  0.4845
  447TMC3     H 6716   2.577   0.033  10.927  0.0281  1.2848 -0.5404
  447TMC3    H1 6717   2.720   4.639  11.308 -3.1566 -1.4024 -1.0701
  447TMC3    H2 6718   2.828   0.282  11.161  0.9956  0.4561 -2.1592
  447TMC3    C7 6719   2.852   0.135  11.360  1.0272  0.3093  0.5915
  447TMC3    C8 6720   2.730   0.243  10.908  0.3000  0.0523 -0.1262
  447TMC3    O1 6721   2.923   0.234  11.355 -0.1041  0.4386 -0.1962
  447TMC3    O2 6722   2.666   0.209  10.810  0.3440 -0.0682  0.3517
  448TMC3    C1 6723   1.245   4.521  17.560  0.1498 -0.5936  0.0317
  448TMC3    C2 6724   1.214   4.423  17.466  0.1074  0.4632 -0.2455
  448TMC3    C3 6725   1.132   4.317  17.506  0.0146 -0.1691 -0.0055
  448TMC3    C4 6726   1.179   4.522  17.684 -0.0151 -0.7775  0.3378
  448TMC3    C5 6727   1.097   4.413  17.714  0.1261  0.7165  0.3621
  448TMC3    C6 6728   1.078   4.313  17.629  0.5576 -0.1370 -0.4226
  448TMC3     C 6729   1.316   4.637  17.516  0.1257  0.2375  0.0097
  448TMC3     O 6730   1.331   4.647  17.394  0.1565 -0.1957 -0.3798
  448TMC3     H 6731   1.280   4.416  17.380  2.0989  0.8992  1.2327
  448TMC3    H1 6732   1.176   4.603   0.000  1.7225  0.0802 -0.5337
  448TMC3    H2 6733   1.015   4.229  17.657  2.5128 -1.2398  0.7256
  448TMC3    C7 6734   1.105   4.369   0.100  0.6610  0.6360  0.3516
  448TMC3    C8 6735   1.108   4.204  17.411 -0.2017  0.8452 -0.0349
  448TMC3    O1 6736   1.203   4.401   0.166  0.4325  0.0579 -0.1883
  448TMC3    O2 6737   1.046   4.104  17.453 -0.3403 -0.5432  0.4514
  449MPD2     C 6738   2.439   3.111  13.520  0.0832  0.5286  0.2008
  449MPD2    C1 6739   2.302   3.138  13.537 -0.6492 -0.1686  0.5819
  449MPD2    C2 6740   2.240   3.117  13.659 -0.2975  0.1603  0.4015
  449MPD2    C3 6741   2.314   3.060  13.763  0.1441  0.7160 -0.0237
  449MPD2    C4 6742   2.446   3.031  13.744 -0.7592 -0.4917  0.3279
  449MPD2    C5 6743   2.509   3.057  13.627 -0.1565 -0.1933  0.0410
  449MPD2     H 6744   2.134   3.134  13.668 -0.3288 -0.6281  1.5103
  449MPD2    H1 6745   2.511   3.002  13.825  1.5158  0.2437 -1.2194
  449MPD2    H2 6746   2.495   3.126  13.429 -0.9830  1.1862 -0.3581
  449MPD2    H3 6747   2.614   3.031  13.627  0.4866  2.4359 -1.4579
  449MPD2     N 6748   2.249   3.036  13.887  0.6435  0.1793  0.2988
  449MPD2    H5 6749   2.151   3.065  13.886  0.5906 -0.0552 -0.8476
  449MPD2    N1 6750   2.217   3.182  13.431  0.3664  0.1609 -0.9713
  449MPD2    H7 6751   2.117   3.184  13.447  0.4804 -0.6726 -0.1863
  450TMC3    C1 6752   2.127   3.199  13.207 -0.4870  0.2558  0.0135
  450TMC3    C2 6753   2.117   3.110  13.103 -0.5359 -0.8027  1.1317
  450TMC3    C3 6754   2.010   3.026  13.093  0.2196  0.4446 -1.0074
  450TMC3    C4 6755   2.012   3.213  13.283  0.6256 -0.3082  0.1198
  450TMC3    C5 6756   1.899   3.119  13.285 -0.2522 -0.2112 -0.1230
  450TMC3    C6 6757   1.902   3.023  13.185 -0.0395 -0.4630 -0.3879
  450TMC3     C 6758   2.248   3.183  13.301  0.2705 -0.7387 -0.2440
  450TMC3     O 6759   2.348   3.137  13.246 -0.0664 -0.4543 -0.4983
  450TMC3     H 6760   2.211   3.099  13.051 -1.5278  0.8743 -1.0191
  450TMC3    H1 6761   2.011   3.301  13.345 -0.7101 -1.3145  1.5272
  450TMC3    H2 6762   1.821   2.952  13.171 -1.1551  0.6708  0.3292
  450TMC3    C7 6763   1.856   3.088  13.418 -0.0813  0.6286 -0.0031
  450TMC3    C8 6764   2.006   2.925  12.987  0.2728 -0.7735  0.6635
  450TMC3    O1 6765   1.929   3.137  13.500 -0.0782 -0.2253  0.3809
  450TMC3    O2 6766   1.930   2.831  12.990 -1.2524 -0.5080 -0.1634
  451MPD2     C 6767   3.344   0.694   0.776  0.1070 -0.4140 -0.2884
  451MPD2    C1 6768   3.455   0.764   0.743  0.2850  0.4847 -0.2192
  451MPD2    C2 6769   3.562   0.706   0.678 -0.3386 -0.0400  0.8234
  451MPD2    C3 6770   3.561   0.568   0.660  0.0109  0.6425 -0.0313
  451MPD2    C4 6771   3.449   0.499   0.688 -0.0540  0.4626 -0.7172
  451MPD2    C5 6772   3.342   0.560   0.750  0.2419 -1.0697  0.6261
  451MPD2     H 6773   3.639   0.765   0.630 -1.2710  0.9380  0.5278
  451MPD2    H1 6774   3.447   0.395   0.657  1.0829  1.0721 -2.8066
  451MPD2    H2 6775   3.253   0.738   0.815  0.4196 -0.7275  0.7736
  451MPD2    H3 6776   3.259   0.494   0.771  0.0874 -0.9395  0.4173
  451MPD2     N 6777   3.667   0.499   0.591 -0.0294  0.2668 -0.5307
  451MPD2    H5 6778   3.651   0.400   0.579 -1.9797  0.5873 -0.5894
  451MPD2    N1 6779   3.441   0.906   0.759  0.2524 -0.0726 -0.2814
  451MPD2    H7 6780   3.355   0.946   0.795 -0.5901 -1.7578 -0.4476
  452TMC3    C1 6781   3.860   0.471   0.444 -0.0865 -1.0774 -0.9524
  452TMC3    C2 6782   3.808   0.354   0.395 -0.0656 -0.1652  1.5393
  452TMC3    C3 6783   3.882   0.289   0.295 -0.5719 -0.0209 -0.4552
  452TMC3    C4 6784   3.987   0.503   0.417 -0.2111 -0.2317 -0.0171
  452TMC3    C5 6785   4.061   0.432   0.333 -0.5283 -0.4109 -0.0055
  452TMC3    C6 6786   4.018   0.315   0.281 -0.0234 -0.5538  0.1222
  452TMC3     C 6787   3.779   0.557   0.530 -0.5559  0.4893 -1.1514
  452TMC3     O 6788   3.814   0.674   0.543  0.0591 -0.2903  0.3902
  452TMC3     H 6789   3.706   0.321   0.411 -0.0168 -0.5963  0.9450
  452TMC3    H1 6790   4.031   0.596   0.449 -0.5763  0.3425 -1.1758
  452TMC3    H2 6791   4.077   0.260   0.209 -0.4360 -0.9230  0.0616
  452TMC3    C7 6792   4.178   0.494   0.284  0.5562  0.1970 -0.0756
  452TMC3    C8 6793   3.831   0.179   0.209 -0.2811  0.5222 -0.4386
  452TMC3    O1 6794   4.186   0.614   0.271 -0.5015 -0.0838 -0.6968
  452TMC3    O2 6795   3.913   0.106   0.152  0.2941 -0.2752 -0.4591
  453TMC3    C1 6796   4.283   3.329  12.241 -0.5843 -0.6072 -0.3376
  453TMC3    C2 6797   4.220   3.209  12.261  0.3954  0.0161  0.1107
  453TMC3    C3 6798   4.106   3.177  12.191  0.3806 -0.1242  0.3511
  453TMC3    C4 6799   4.240   3.407  12.134 -0.3359 -0.0243  0.1324
  453TMC3    C5 6800   4.132   3.376  12.058  1.1366 -0.8391 -0.2491
  453TMC3    C6 6801   4.066   3.254  12.086  0.6203  0.2013 -0.1406
  453TMC3     C 6802   4.422   3.354  12.287 -0.2531 -0.3968  0.2425
  453TMC3     O 6803   4.490   3.440  12.233 -0.3335  0.3898 -0.3959
  453TMC3     H 6804   4.257   3.146  12.341  0.2204 -3.2362 -2.4131
  453TMC3    H1 6805   4.303   3.485  12.094 -0.9007 -1.0101 -2.6647
  453TMC3    H2 6806   3.973   3.227  12.036  0.8621  0.6124 -0.8105
  453TMC3    C7 6807   4.150   3.412  11.918  0.0024  0.4998 -0.0727
  453TMC3    C8 6808   4.043   3.050  12.210  0.3195  0.9254  0.1935
  453TMC3    O1 6809   4.200   3.523  11.906  0.2535 -0.0859 -0.2963
  453TMC3    O2 6810   3.925   3.036  12.180  0.3398  0.3249 -0.1587
  454MPD2     C 6811   3.737   2.703  16.097  0.1863  0.0970 -0.5169
  454MPD2    C1 6812   3.701   2.745  15.973 -0.2507  0.2929 -0.6915
  454MPD2    C2 6813   3.660   2.879  15.958  0.0574  0.0785 -0.0162
  454MPD2    C3 6814   3.641   2.963  16.067 -0.0590  1.0433  0.8644
  454MPD2    C4 6815   3.694   2.922  16.186  0.8300 -0.8375 -0.5583
  454MPD2    C5 6816   3.734   2.793  16.198  0.9095 -0.2893 -0.4406
  454MPD2     H 6817   3.635   2.905  15.856 -1.4126 -1.5125 -0.0697
  454MPD2    H1 6818   3.691   2.998  16.263  1.2682 -1.6689  0.2746
  454MPD2    H2 6819   3.763   2.599  16.116  0.1337 -0.1100 -1.5915
  454MPD2    H3 6820   3.765   2.755  16.295 -0.2580 -1.6529 -0.6162
  454MPD2     N 6821   3.592   3.093  16.059 -0.0227 -0.1886 -0.1292
  454MPD2    H5 6822   3.575   3.133  16.151  1.5494 -1.6619  0.8013
  454MPD2    N1 6823   3.693   2.669  15.854  0.1589  0.0013 -0.0537
  454MPD2    H7 6824   3.661   2.718  15.771  1.8116  1.5947  0.2628
  455TMC3    C1 6825   3.432   3.236  15.971 -0.2448  0.0571 -0.0341
  455TMC3    C2 6826   3.426   3.344  16.054 -0.5453  1.1433 -0.4555
  455TMC3    C3 6827   3.303   3.349  16.128 -0.6555 -0.0787  0.5199
  455TMC3    C4 6828   3.326   3.149  15.949  0.0601 -0.3619  0.0232
  455TMC3    C5 6829   3.212   3.166  16.022 -0.5739  0.4542 -0.3090
  455TMC3    C6 6830   3.198   3.265  16.114  0.1981 -0.0102 -0.0240
  455TMC3     C 6831   3.556   3.158  15.945 -0.2493  0.2484  0.2154
  455TMC3     O 6832   3.572   3.131  15.826 -0.3793 -0.2936  0.2124
  455TMC3     H 6833   3.518   3.394  16.083  0.3732 -1.3639  0.9808
  455TMC3    H1 6834   3.335   3.068  15.878 -0.5233 -1.5870  1.3465
  455TMC3    H2 6835   3.107   3.272  16.173 -0.5087 -0.8015 -1.0086
  455TMC3    C7 6836   3.152   3.037  16.050 -0.6282 -0.9091 -0.3895
  455TMC3    C8 6837   3.294   3.426  16.243  0.3802 -0.4367  0.1502
  455TMC3    O1 6838   3.043   3.006  16.002 -0.3430  0.1021  0.0367
  455TMC3    O2 6839   3.200   3.417  16.321 -0.0914  0.4328  0.3195
  456MPD2     C 6840   1.137   3.329  16.295  0.3533  0.1963 -0.9679
  456MPD2    C1 6841   1.256   3.365  16.352 -0.0098  0.1484  0.0683
  456MPD2    C2 6842   1.265   3.386  16.491 -0.3113 -0.1159 -0.7423
  456MPD2    C3 6843   1.158   3.369  16.567 -0.5970 -0.3233  0.1937
  456MPD2    C4 6844   1.045   3.310  16.512  0.2476 -0.1503  0.3311
  456MPD2    C5 6845   1.037   3.293  16.377  0.1810 -0.8086  0.7100
  456MPD2     H 6846   1.358   3.424  16.533 -0.4480 -0.9465  0.2940
  456MPD2    H1 6847   0.959   3.285  16.574  0.1093 -2.5139 -0.8058
  456MPD2    H2 6848   1.140   3.311  16.188 -2.1474 -0.5824 -0.9178
  456MPD2    H3 6849   0.942   3.256  16.339  0.0512 -1.5520  1.7816
  456MPD2     N 6850   1.166   3.408  16.704  0.1098  0.0262  0.0350
  456MPD2    H5 6851   1.254   3.441  16.744  0.3105  0.5703 -0.8697
  456MPD2    N1 6852   1.368   3.368  16.269 -0.4679  0.0252 -0.4522
  456MPD2    H7 6853   1.353   3.367  16.169  0.6968  0.5174 -0.6289
  457TMC3    C1 6854   1.112   3.419  16.929 -0.3740  0.4182 -0.1774
  457TMC3    C2 6855   1.127   3.551  16.970 -0.2834  0.0393 -0.1987
  457TMC3    C3 6856   1.089   3.582  17.096 -0.0473  0.0278  0.0388
  457TMC3    C4 6857   1.061   3.325  17.014 -0.1142 -0.5781  0.6763
  457TMC3    C5 6858   1.033   3.359  17.141 -0.7480 -0.7742  0.1854
  457TMC3    C6 6859   1.050   3.486  17.186 -0.2414 -0.2646 -0.2167
  457TMC3     C 6860   1.064   3.393  16.796 -0.1785 -0.1662 -0.1673
  457TMC3     O 6861   0.962   3.332  16.786  0.5051  0.4660 -0.4362
  457TMC3     H 6862   1.156   3.615  16.888 -1.9658  1.7706  0.5801
  457TMC3    H1 6863   1.034   3.224  16.985  0.8756 -0.3440 -1.0040
  457TMC3    H2 6864   1.022   3.518  17.285  0.1097 -0.0145 -0.1956
  457TMC3    C7 6865   1.050   3.250  17.234 -0.5978  0.2603  0.1506
  457TMC3    C8 6866   1.086   3.720  17.148  0.4002 -0.2748 -0.1104
  457TMC3    O1 6867   1.106   3.150  17.189 -0.1198 -0.0999  0.1015
  457TMC3    O2 6868   1.085   3.739  17.268 -0.0034  0.0412  0.5136
  458MPD2     C 6869   3.101   2.334  12.735  0.0594  0.5646 -0.7738
  458MPD2    C1 6870   3.141   2.229  12.810  0.0593 -0.2408 -0.0853
  458MPD2    C2 6871   3.046   2.133  12.846 -0.0942  0.3878 -0.1064
  458MPD2    C3 6872   2.916   2.155  12.804 -0.6227 -0.2686 -0.5120
  458MPD2    C4 6873   2.879   2.258  12.726  0.0842 -0.2691  0.3285
  458MPD2    C5 6874   2.973   2.345  12.683  0.7423  0.7079  0.2381
  458MPD2     H 6875   3.075   2.055  12.916 -1.1977  0.0693 -0.0202
  458MPD2    H1 6876   2.776   2.278  12.698  0.5056 -0.3677 -1.2808
  458MPD2    H2 6877   3.175   2.411  12.719  0.7305  0.3253  1.2612
  458MPD2    H3 6878   2.947   2.430  12.622  1.4466  1.1044  0.4954
  458MPD2     N 6879   2.831   2.055  12.850 -0.5165 -0.1069 -0.3651
  458MPD2    H5 6880   2.870   1.975  12.898 -0.9402  0.6880  1.3028
  458MPD2    N1 6881   3.286   2.217  12.848  0.2688  0.3325 -0.4266
  458MPD2    H7 6882   3.345   2.294  12.815  0.0496  0.9641  0.6471
  459TMC3    C1 6883   3.476   2.125  12.957  0.1660 -0.5076  0.3520
  459TMC3    C2 6884   3.564   2.207  12.880 -0.2627  0.0447  0.0820
  459TMC3    C3 6885   3.685   2.241  12.931  0.5666 -0.5010 -0.7167
  459TMC3    C4 6886   3.529   2.075  13.076  0.4790  0.1815 -0.2352
  459TMC3    C5 6887   3.660   2.098  13.115  0.6248  0.8837 -0.1539
  459TMC3    C6 6888   3.739   2.179  13.042  0.4621 -0.4762  0.1985
  459TMC3     C 6889   3.329   2.135  12.953  0.7671 -0.0776 -0.5083
  459TMC3     O 6890   3.267   2.071  13.038 -0.1541 -0.1383  0.6322
  459TMC3     H 6891   3.529   2.249  12.787  0.3609 -0.7804 -0.5176
  459TMC3    H1 6892   3.466   2.022  13.146 -3.2978  4.5438 -0.3386
  459TMC3    H2 6893   3.843   2.198  13.065  0.4904 -0.0449 -0.2748
  459TMC3    C7 6894   3.674   2.095  13.254  0.1639 -0.3300  1.1779
  459TMC3    C8 6895   3.772   2.344  12.865 -0.2849 -0.0531  0.6884
  459TMC3    O1 6896   3.789   2.079  13.292  0.0126 -0.9052 -0.0470
  459TMC3    O2 6897   3.893   2.348  12.892  0.4452 -0.3808  0.1125
  460MPD2     C 6898   3.025   0.431  10.821 -0.0902  0.0311  0.5541
  460MPD2    C1 6899   2.909   0.371  10.801 -0.1140  0.6433  0.0923
  460MPD2    C2 6900   2.847   0.393  10.681 -0.7165 -0.0953  0.7477
  460MPD2    C3 6901   2.918   0.441  10.573 -0.5579 -0.1508  0.2218
  460MPD2    C4 6902   3.041   0.497  10.593 -1.2843  0.9481 -0.1470
  460MPD2    C5 6903   3.092   0.488  10.719 -0.4775  0.8937 -0.5549
  460MPD2     H 6904   2.742   0.368  10.667 -0.9723  1.7474 -0.6764
  460MPD2    H1 6905   3.102   0.535  10.512 -0.4745  0.2184  0.1274
  460MPD2    H2 6906   3.076   0.419  10.916 -1.3402 -1.9711  0.9907
  460MPD2    H3 6907   3.197   0.508  10.739 -0.9477 -0.4431  3.2274
  460MPD2     N 6908   2.838   0.449  10.456 -0.1902  0.2517 -0.8347
  460MPD2    H5 6909   2.749   0.399  10.458 -0.4292  0.6590 -1.2035
  460MPD2    N1 6910   2.846   0.316  10.913  0.3950 -0.1740  0.0860
  460MPD2    H7 6911   2.899   0.314  10.999 -1.3224  1.7318  1.1724
  461TMC3    C1 6912   2.750   0.562  10.266 -0.3570 -0.0037 -0.0417
  461TMC3    C2 6913   2.683   0.460  10.208  0.9657 -0.3524  0.0695
  461TMC3    C3 6914   2.572   0.481  10.132  0.0404 -0.6537  0.0699
  461TMC3    C4 6915   2.717   0.696  10.240 -0.1979  0.3802 -0.1182
  461TMC3    C5 6916   2.607   0.711  10.162  0.2075  0.3296 -0.2923
  461TMC3    C6 6917   2.527   0.609  10.113  0.3968 -0.1645 -0.4152
  461TMC3     C 6918   2.861   0.533  10.356 -0.5100  0.0027  0.2192
  461TMC3     O 6919   2.957   0.614  10.355 -0.0570 -0.5570  0.0900
  461TMC3     H 6920   2.713   0.359  10.234 -3.0867 -1.0171  2.1212
  461TMC3    H1 6921   2.790   0.767  10.277  0.4841 -0.1707 -0.3976
  461TMC3    H2 6922   2.450   0.629  10.039  0.4360 -2.1575 -0.9958
  461TMC3    C7 6923   2.564   0.851  10.141  0.4335  0.4238 -0.0968
  461TMC3    C8 6924   2.546   0.371  10.033 -0.2559 -0.5331  0.2070
  461TMC3    O1 6925   2.447   0.860  10.114 -0.1617 -0.4886  0.2269
  461TMC3    O2 6926   2.629   0.280  10.024 -0.4126  0.5830 -0.4321
  462TMC3    C1 6927   3.363   0.816   0.411 -0.5150 -0.0269  0.4474
  462TMC3    C2 6928   3.457   0.736   0.357 -0.4428  0.5435  0.0156
  462TMC3    C3 6929   3.431   0.610   0.322  0.8886  0.5980  0.1569
  462TMC3    C4 6930   3.237   0.762   0.431 -0.1432  0.3076  0.3112
  462TMC3    C5 6931   3.205   0.639   0.383 -0.6690 -0.0643 -0.1053
  462TMC3    C6 6932   3.303   0.565   0.328  0.2395  0.0738  0.4095
  462TMC3     C 6933   3.354   0.952   0.352  0.2349 -0.1342  0.6521
  462TMC3     O 6934   3.239   0.989   0.325 -0.3781  0.3946 -0.5044
  462TMC3     H 6935   3.520   0.787   0.286 -0.9722  1.1814  0.0086
  462TMC3    H1 6936   3.157   0.818   0.479 -0.1838 -0.9009  1.6558
  462TMC3    H2 6937   3.275   0.485   0.260  0.0150  0.3959  0.1178
  462TMC3    C7 6938   3.075   0.624   0.322  0.0983 -0.3077 -0.0181
  462TMC3    C8 6939   3.526   0.537   0.242  0.2249 -0.4200  0.6873
  462TMC3    O1 6940   3.035   0.513   0.300  0.8015  0.0158 -0.3352
  462TMC3    O2 6941   3.482   0.433   0.201  0.0145  0.4394  0.6444
  463MPD2     C 6942   3.605   3.216   1.436 -0.1139 -0.1723 -0.2857
  463MPD2    C1 6943   3.494   3.278   1.379  0.1564  0.3242 -0.8906
  463MPD2    C2 6944   3.506   3.404   1.331  0.2109 -0.0585 -0.1736
  463MPD2    C3 6945   3.620   3.487   1.355  0.7958 -0.0602 -0.3003
  463MPD2    C4 6946   3.731   3.425   1.411 -0.8624  0.4213 -0.1772
  463MPD2    C5 6947   3.722   3.291   1.448 -0.6929 -0.3836 -0.1875
  463MPD2     H 6948   3.421   3.447   1.280  0.6576  1.8760  0.6839
  463MPD2    H1 6949   3.824   3.477   1.429  0.5808 -1.4292 -2.3167
  463MPD2    H2 6950   3.594   3.124   1.491 -0.5665  0.3052  0.4166
  463MPD2    H3 6951   3.806   3.259   1.509  0.0660  1.3235 -0.3283
  463MPD2     N 6952   3.621   3.630   1.339  0.5318 -0.0622 -0.0422
  463MPD2    H5 6953   3.710   3.678   1.345  1.1416 -1.0249 -1.4506
  463MPD2    N1 6954   3.367   3.227   1.380  0.8561 -0.0870 -0.0988
  463MPD2    H7 6955   3.291   3.272   1.331  1.3111 -0.9016 -1.5585
  464TMC3    C1 6956   3.187   3.104   1.455  0.4574 -0.7067 -0.1024
  464TMC3    C2 6957   3.125   3.225   1.463 -0.3329  0.0049 -0.3050
  464TMC3    C3 6958   2.988   3.233   1.445 -0.0181 -0.0133 -1.2060
  464TMC3    C4 6959   3.121   2.992   1.420 -0.6097 -0.0664 -0.1498
  464TMC3    C5 6960   2.982   3.005   1.399 -0.3445  0.8926 -0.0592
  464TMC3    C6 6961   2.915   3.123   1.424  0.0891 -0.0585 -0.2227
  464TMC3     C 6962   3.331   3.105   1.431 -0.1130 -0.0830  0.4289
  464TMC3     O 6963   3.394   3.008   1.460 -0.3220  0.1084  0.2947
  464TMC3     H 6964   3.187   3.310   1.489 -1.3603  0.3700  0.9436
  464TMC3    H1 6965   3.171   2.899   1.392 -1.0040 -0.4511  0.4221
  464TMC3    H2 6966   2.808   3.134   1.410 -0.0277 -1.5121 -0.4495
  464TMC3    C7 6967   2.934   2.923   1.289 -0.8783  0.5051 -0.7373
  464TMC3    C8 6968   2.951   3.344   1.366  0.8490  0.0765  0.2359
  464TMC3    O1 6969   3.007   2.834   1.244 -0.2827  0.5688 -0.0220
  464TMC3    O2 6970   3.044   3.413   1.325 -0.3415  0.0122  0.1952
  465MPD2     C 6971   0.401   2.668  16.442  0.1345 -0.2479 -0.2964
  465MPD2    C1 6972   0.327   2.680  16.553  0.0658  0.0182 -0.0649
  465MPD2    C2 6973   0.233   2.781  16.558  0.9970 -0.2138  0.1516
  465MPD2    C3 6974   0.212   2.866  16.454 -0.1640 -0.1911 -0.0868
  465MPD2    C4 6975   0.274   2.848  16.336  0.5191  1.2069 -0.3305
  465MPD2    C5 6976   0.368   2.746  16.336  0.6279  0.0473  0.2975
  465MPD2     H 6977   0.182   2.805  16.652  0.3065  1.6711 -0.6940
  465MPD2    H1 6978   0.256   2.896  16.241 -1.6920 -0.4105 -0.7287
  465MPD2    H2 6979   0.486   2.600  16.436  0.0283 -0.4931  1.0746
  465MPD2    H3 6980   0.422   2.726  16.244 -0.2632  1.1614 -0.4796
  465MPD2     N 6981   0.103   2.951  16.470  0.3072  0.3195  0.1907
  465MPD2    H5 6982   0.061   2.942  16.562  0.4507 -1.4951  0.0660
  465MPD2    N1 6983   0.354   2.610  16.679 -0.6905  0.1316  0.1389
  465MPD2    H7 6984   0.276   2.620  16.743  0.1298 -0.7325  1.2829
  466TMC3    C1 6985   4.645   3.284  16.624  0.4202 -0.5454 -0.3436
  466TMC3    C2 6986   4.573   3.367  16.543 -0.1539 -0.1041  0.8664
  466TMC3    C3 6987   4.579   3.343  16.407  0.1913 -0.0879 -0.0970
  466TMC3    C4 6988   4.714   3.176  16.569  0.0865 -0.8126  0.4203
  466TMC3    C5 6989   4.707   3.138  16.437  0.6011  0.0011  0.7374
  466TMC3    C6 6990   4.651   3.236  16.359  0.2423 -0.6262 -0.0573
  466TMC3     C 6991   4.632   3.293  16.777 -0.0949  0.1800  1.0321
  466TMC3     O 6992   4.588   3.397  16.825 -0.3130  0.2393 -0.0881
  466TMC3     H 6993   4.513   3.440  16.596  1.5631  1.3577  0.7908
  466TMC3    H1 6994   0.031   3.114  16.638 -0.5833 -0.8409  0.9409
  466TMC3    H2 6995   4.663   3.224  16.251 -1.2537  1.5469 -0.4688
  466TMC3    C7 6996   0.070   3.047  16.381  0.7676  0.2691  0.9175
  466TMC3    C8 6997   4.590   3.459  16.323  0.0116  0.1822  0.3427
  466TMC3    O1 6998   0.117   3.074  16.273 -0.3442  0.2862  0.0402
  466TMC3    O2 6999   4.615   3.445  16.205  0.2491  0.1680 -0.1858
  467TMC3    C1 7000   0.929   1.523  13.926 -0.2851  0.6428  0.9977
  467TMC3    C2 7001   0.987   1.482  13.808 -0.1352 -0.7269 -0.6191
  467TMC3    C3 7002   0.915   1.411  13.718 -0.4660 -0.1101  0.3733
  467TMC3    C4 7003   0.799   1.510  13.947  0.5179  0.5074  0.3010
  467TMC3    C5 7004   0.722   1.455  13.843  0.1256 -0.1098  0.1425
  467TMC3    C6 7005   0.779   1.400  13.732 -0.2820 -0.1412 -0.2303
  467TMC3     C 7006   1.003   1.626  13.985  0.0673 -1.0690 -0.1957
  467TMC3     O 7007   1.125   1.622  13.998  0.0887  0.6001 -0.2104
  467TMC3     H 7008   1.095   1.472  13.807 -0.0860 -0.0868 -1.1831
  467TMC3    H1 7009   0.759   1.576  14.023 -2.2475  0.0758 -0.7749
  467TMC3    H2 7010   0.718   1.368  13.648 -0.4551  1.5192 -0.7275
  467TMC3    C7 7011   0.588   1.502  13.822  0.2273 -0.0460  0.3767
  467TMC3    C8 7012   0.962   1.417  13.580 -0.0848 -0.6523 -0.5818
  467TMC3    O1 7013   0.556   1.544  13.711  0.1630 -0.3741 -0.0055
  467TMC3    O2 7014   0.902   1.342  13.506  0.3395 -0.5068 -0.1190
  468MPD2     C 7015   3.992   0.041  10.782  0.5120  0.5632 -0.1386
  468MPD2    C1 7016   4.127   0.042  10.783  0.2132  0.2264  0.3062
  468MPD2    C2 7017   4.194   4.664  10.775  0.5423 -0.5303 -0.4069
  468MPD2    C3 7018   4.128   4.541  10.756 -0.2199  0.6641 -0.0244
  468MPD2    C4 7019   3.989   4.542  10.747  0.1705  0.6188 -0.1844
  468MPD2    C5 7020   3.922   4.665  10.756 -0.3329  0.1699  0.7413
  468MPD2     H 7021   4.302   4.662  10.773  0.5539  0.2522 -0.6446
  468MPD2    H1 7022   3.941   4.450  10.714  1.6558 -0.6010  1.0187
  468MPD2    H2 7023   3.934   0.133  10.792  0.1531  0.2330  0.8322
  468MPD2    H3 7024   3.815   4.666  10.736 -0.0306 -1.8865 -0.9882
  468MPD2     N 7025   4.194   4.419  10.755  0.5743 -0.0032 -0.2335
  468MPD2    H5 7026   4.142   4.331  10.746 -0.2513  0.4746 -0.1679
  468MPD2    N1 7027   4.206   0.160  10.787 -0.0189 -0.1556  0.7300
  468MPD2    H7 7028   4.304   0.146  10.768 -0.6375 -1.1019 -1.8252
  469TMC3    C1 7029   4.263   0.372  10.841 -0.0862 -0.8793 -0.9446
  469TMC3    C2 7030   4.393   0.336  10.835  0.2588 -0.3988  0.2282
  469TMC3    C3 7031   4.486   0.402  10.911  0.2958  0.5973 -0.7586
  469TMC3    C4 7032   4.228   0.488  10.912 -0.1282 -0.2203 -0.5721
  469TMC3    C5 7033   4.321   0.552  10.988 -0.1270 -0.6610 -0.1307
  469TMC3    C6 7034   4.454   0.514  10.983 -0.2951  0.1142  0.2223
  469TMC3     C 7035   4.155   0.283  10.814  0.6479  0.6263  0.0380
  469TMC3     O 7036   4.044   0.309  10.856 -0.6697  0.0105 -0.6200
  469TMC3     H 7037   4.423   0.238  10.798 -0.0001 -0.4603  0.1800
  469TMC3    H1 7038   4.122   0.510  10.923 -0.2273 -0.6182 -0.7005
  469TMC3    H2 7039   4.529   0.576  11.032 -0.8145  1.1329 -0.2695
  469TMC3    C7 7040   4.279   0.667  11.065  0.4998 -0.7930  0.7496
  469TMC3    C8 7041   4.624   0.341  10.903  0.1340 -0.0351  0.1594
  469TMC3    O1 7042   4.179   0.731  11.028  0.8092 -0.4019  0.3731
  469TMC3    O2 7043   4.646   0.294  10.790  0.0323 -0.5632 -0.1216
  470TMC3    C1 7044   2.038   0.155   0.531  0.4402 -0.0804 -0.3606
  470TMC3    C2 7045   2.145   0.246   0.531  0.4617 -0.6278  0.5116
  470TMC3    C3 7046   2.104   0.375   0.530  0.0086  0.4264 -0.5032
  470TMC3    C4 7047   1.915   0.190   0.573  0.3700  0.0191  0.3302
  470TMC3    C5 7048   1.891   0.323   0.591 -0.4981 -0.2716 -0.2972
  470TMC3    C6 7049   1.985   0.414   0.572  0.1857  0.0653  0.5419
  470TMC3     C 7050   2.070   0.010   0.530 -0.8060  0.0524 -0.2803
  470TMC3     O 7051   2.173   4.717   0.473 -0.0017 -0.3258 -0.1045
  470TMC3     H 7052   2.239   0.212   0.491  1.5652 -1.9047  4.2043
  470TMC3    H1 7053   1.832   0.123   0.555  1.0282 -0.3791 -1.2074
  470TMC3    H2 7054   1.963   0.520   0.567  3.0478  0.6912  0.9734
  470TMC3    C7 7055   1.758   0.371   0.633 -0.2773  0.1594 -0.2500
  470TMC3    C8 7056   2.201   0.475   0.514 -0.3202 -0.0084  1.1751
  470TMC3    O1 7057   1.731   0.481   0.591 -0.0829  0.4402  0.3895
  470TMC3    O2 7058   2.162   0.588   0.541  0.4312 -0.3635  0.3790
  471MPD2     C 7059   2.854   2.336  16.769 -0.7282 -0.5566 -0.0858
  471MPD2    C1 7060   2.921   2.252  16.674 -0.1985  0.3308 -0.6343
  471MPD2    C2 7061   3.026   2.184  16.729 -0.7149  0.0214  0.9433
  471MPD2    C3 7062   3.068   2.189  16.859 -0.3849  0.2562 -0.1848
  471MPD2    C4 7063   3.010   2.282  16.941 -0.0198  0.0241 -0.6239
  471MPD2    C5 7064   2.900   2.360  16.896  0.1165 -0.4305 -0.0518
  471MPD2     H 7065   3.082   2.117  16.665 -1.5031  0.2361  0.0239
  471MPD2    H1 7066   3.046   2.294  17.043 -0.9271 -0.9544 -0.1911
  471MPD2    H2 7067   2.768   2.392  16.732  0.8560  1.9354 -0.0082
  471MPD2    H3 7068   2.869   2.437  16.966  1.2260 -2.4200  2.6232
  471MPD2     N 7069   3.158   2.102  16.920 -0.0304  0.1615 -0.0818
  471MPD2    H5 7070   3.189   2.130  17.012  0.9208 -2.2655  0.3366
  471MPD2    N1 7071   2.871   2.211  16.545  0.2086 -0.4154 -0.3601
  471MPD2    H7 7072   2.937   2.149  16.499 -1.6488 -0.6420 -2.7371
  472TMC3    C1 7073   2.704   2.171  16.379  0.0829 -0.1199  0.2005
  472TMC3    C2 7074   2.597   2.220  16.307  0.0991  0.1457 -0.4833
  472TMC3    C3 7075   2.546   2.145  16.201  0.0059  0.1612 -0.3565
  472TMC3    C4 7076   2.751   2.045  16.360  0.6672  0.0525  0.6983
  472TMC3    C5 7077   2.704   1.974  16.245 -0.6935  0.1392 -0.3233
  472TMC3    C6 7078   2.600   2.021  16.169  0.3601  0.4235 -0.4324
  472TMC3     C 7079   2.749   2.240  16.500 -0.1597  0.2795 -0.3760
  472TMC3     O 7080   2.669   2.327  16.532  0.0721 -0.6028  0.0638
  472TMC3     H 7081   2.544   2.310  16.334 -0.4885 -0.1646 -0.5952
  472TMC3    H1 7082   2.827   2.001  16.423 -0.6240 -4.0718 -0.6278
  472TMC3    H2 7083   2.556   1.952  16.098 -2.9962  1.5307  0.5709
  472TMC3    C7 7084   2.705   1.829  16.260  0.3173 -0.4831 -0.2426
  472TMC3    C8 7085   2.431   2.187  16.127  0.1372 -0.3478  0.5307
  472TMC3    O1 7086   2.714   1.798  16.377  0.1562  0.1143 -0.2503
  472TMC3    O2 7087   2.411   2.311  16.131 -0.2293  0.1551 -0.1598
  473MPD2     C 7088   2.570   4.237  13.692  0.2488  0.5279  0.4197
  473MPD2    C1 7089   2.496   4.339  13.639  0.1051  0.7264 -0.4247
  473MPD2    C2 7090   2.491   4.453  13.714 -0.0327  0.5416  0.4015
  473MPD2    C3 7091   2.550   4.466  13.838 -0.3187 -0.0022  0.3441
  473MPD2    C4 7092   2.610   4.348  13.889  0.2465 -0.3309 -0.9173
  473MPD2    C5 7093   2.628   4.238  13.816 -0.7079 -0.3630  0.1887
  473MPD2     H 7094   2.431   4.531  13.668 -0.7407  1.1567  2.3666
  473MPD2    H1 7095   2.671   4.359  13.978  0.6069  0.3663 -1.2505
  473MPD2    H2 7096   2.595   4.150  13.631  1.4449  1.4254 -0.3648
  473MPD2    H3 7097   2.699   4.165  13.852 -0.8588  0.1749  1.5916
  473MPD2     N 7098   2.572   4.580  13.917 -0.2763  0.2075  0.2917
  473MPD2    H5 7099   2.650   4.579  13.982 -0.2634 -0.2946  0.2705
  473MPD2    N1 7100   2.416   4.330  13.523 -0.4132 -0.2143 -0.6411
  473MPD2    H7 7101   2.346   4.402  13.506 -2.0898 -1.6898  0.0100
  474TMC3    C1 7102   2.537   0.043  14.018  0.1102  0.0963 -0.7127
  474TMC3    C2 7103   2.427   0.112  14.054 -0.0779  0.3621  0.3942
  474TMC3    C3 7104   2.455   0.205  14.156  0.2308 -0.5110 -1.1895
  474TMC3    C4 7105   2.657   0.031  14.086 -0.0008  0.3924  0.7715
  474TMC3    C5 7106   2.674   0.120  14.190  0.0329 -0.0503 -0.1916
  474TMC3    C6 7107   2.580   0.216  14.214 -0.0312  0.8687  0.3812
  474TMC3     C 7108   2.509   4.694  13.905  0.0897  0.0517  0.0156
  474TMC3     O 7109   2.415   4.719  13.829  0.1202  0.7523 -0.1322
  474TMC3     H 7110   2.333   0.120  14.001 -0.6540  0.7861  1.4764
  474TMC3    H1 7111   2.747   4.725  14.046 -0.0501  0.8177  0.1765
  474TMC3    H2 7112   2.598   0.289  14.292  0.2273  1.2272 -0.0115
  474TMC3    C7 7113   2.806   0.104  14.261 -0.0602 -0.7589 -0.3663
  474TMC3    C8 7114   2.348   0.307  14.172  0.8198 -0.2836 -0.2815
  474TMC3    O1 7115   2.850   4.728  14.270 -0.1922 -0.1881 -0.5163
  474TMC3    O2 7116   2.230   0.271  14.172  0.2790 -0.2123  0.2459
  475MPD2     C 7117   0.561   2.526  11.342  0.4605 -0.7054 -0.3002
  475MPD2    C1 7118   0.635   2.599  11.254 -0.3826 -0.0477 -0.2328
  475MPD2    C2 7119   0.577   2.616  11.128 -0.1777  0.0415  0.1312
  475MPD2    C3 7120   0.449   2.571  11.095  0.4787  0.1972  0.2598
  475MPD2    C4 7121   0.372   2.519  11.196 -0.1933  0.8572 -0.8661
  475MPD2    C5 7122   0.435   2.496  11.313  0.0000 -0.7689  0.5376
  475MPD2     H 7123   0.627   2.663  11.044  0.4130 -1.7096 -0.4980
  475MPD2    H1 7124   0.266   2.495  11.184 -0.1369 -1.8873  3.9621
  475MPD2    H2 7125   0.598   2.509  11.442 -0.7908 -0.8471  0.1247
  475MPD2    H3 7126   0.370   2.461  11.392  1.5981 -2.7225  0.9938
  475MPD2     N 7127   0.404   2.599  10.964  0.0419  0.2388 -0.2203
  475MPD2    H5 7128   0.476   2.649  10.912  1.8777 -3.5810 -1.3462
  475MPD2    N1 7129   0.761   2.651  11.294  0.4554  0.0640  0.3596
  475MPD2    H7 7130   0.774   2.663  11.394 -1.3724  2.6325  0.2993
  476TMC3    C1 7131   0.969   2.753  11.238 -0.1835 -0.0112 -0.3689
  476TMC3    C2 7132   1.041   2.796  11.132  0.2297  0.2144 -0.5838
  476TMC3    C3 7133   1.134   2.900  11.153 -0.2761 -0.0276  0.6099
  476TMC3    C4 7134   0.975   2.815  11.361 -1.2642  0.1551 -0.1220
  476TMC3    C5 7135   1.046   2.929  11.367  0.0204  0.0832  0.7689
  476TMC3    C6 7136   1.126   2.981  11.267 -0.3542 -0.7623  0.6058
  476TMC3     C 7137   0.851   2.677  11.192  0.4283  0.6588 -0.4570
  476TMC3     O 7138   0.854   2.648  11.073 -0.1376  0.3976 -0.0622
  476TMC3     H 7139   1.047   2.738  11.041 -0.2997 -0.9065  0.0949
  476TMC3    H1 7140   0.905   2.786  11.439 -0.9424 -1.2396 -0.3540
  476TMC3    H2 7141   1.194   3.064  11.283 -2.2010  0.8040  0.3069
  476TMC3    C7 7142   1.049   2.997  11.497 -0.2086 -1.1374  0.2177
  476TMC3    C8 7143   1.178   2.955  11.026  0.0514  0.8161 -0.5613
  476TMC3    O1 7144   1.023   2.927  11.595  0.2265 -0.1750  0.2541
  476TMC3    O2 7145   1.270   3.033  11.037 -0.0388  0.0072  0.2139
  477MPD2     C 7146   3.404   4.188  11.738 -0.4550 -0.8082 -0.0730
  477MPD2    C1 7147   3.298   4.105  11.705  0.2279  0.0498  0.2844
  477MPD2    C2 7148   3.265   4.002  11.792 -0.2510  0.6717 -0.1549
  477MPD2    C3 7149   3.335   3.983  11.911 -0.8615 -0.4367 -0.1423
  477MPD2    C4 7150   3.435   4.070  11.945  0.4178 -0.2670  0.6478
  477MPD2    C5 7151   3.464   4.177  11.861 -0.3287  0.4154 -0.4449
  477MPD2     H 7152   3.182   3.933  11.778 -0.3718  0.6033  0.9737
  477MPD2    H1 7153   3.484   4.065  12.042  2.2888 -0.0335 -0.2860
  477MPD2    H2 7154   3.426   4.277  11.681  0.2118 -0.1420  1.2136
  477MPD2    H3 7155   3.539   4.251  11.887  0.4705 -0.1125 -1.2411
  477MPD2     N 7156   3.301   3.870  11.987 -0.2496  0.2028  0.2017
  477MPD2    H5 7157   3.231   3.811  11.942 -0.9041 -0.3081  1.8738
  477MPD2    N1 7158   3.218   4.133  11.584 -0.5323 -1.0599  0.6913
  477MPD2    H7 7159   3.240   4.211  11.523 -1.1270 -0.5161  1.1704
  478TMC3    C1 7160   3.025   4.123  11.446  0.5477 -0.0414  0.4683
  478TMC3    C2 7161   2.890   4.102  11.475  0.0317  0.3251 -0.3306
  478TMC3    C3 7162   2.798   4.174  11.403 -0.1039  0.0915  0.1755
  478TMC3    C4 7163   3.077   4.209  11.355  1.0636  0.2000  0.0995
  478TMC3    C5 7164   2.983   4.271  11.277 -1.0546  0.8037 -0.6891
  478TMC3    C6 7165   2.849   4.253  11.304 -0.3621 -0.5658  0.6167
  478TMC3     C 7166   3.114   4.060  11.545 -0.3080 -0.6340 -0.3429
  478TMC3     O 7167   3.068   3.952  11.579 -0.5254  0.0254  0.4278
  478TMC3     H 7168   2.863   4.024  11.545 -2.1990 -0.0599 -1.6301
  478TMC3    H1 7169   3.185   4.213  11.340  1.0931 -3.0581 -0.6016
  478TMC3    H2 7170   2.778   4.294  11.234  0.4218 -0.6581 -0.2395
  478TMC3    C7 7171   3.036   4.375  11.194  0.3737 -0.1716  0.7321
  478TMC3    C8 7172   2.673   4.213  11.474 -0.4002 -0.4738  0.1687
  478TMC3    O1 7173   3.148   4.412  11.223 -0.7294 -0.4298 -0.3465
  478TMC3    O2 7174   2.644   4.139  11.566  0.5842 -0.6184 -0.2137
  479MPD2     C 7175   2.177   1.358  15.119  0.2143 -0.7750 -0.2815
  479MPD2    C1 7176   2.182   1.292  15.238 -0.1138 -0.2026 -0.3326
  479MPD2    C2 7177   2.285   1.313  15.325 -0.6343 -0.2128 -0.4893
  479MPD2    C3 7178   2.391   1.399  15.290 -0.2734  0.0702  0.4401
  479MPD2    C4 7179   2.388   1.459  15.174  0.3221 -0.3203 -0.8740
  479MPD2    C5 7180   2.277   1.444  15.092 -0.5493  0.8915  0.1442
  479MPD2     H 7181   2.296   1.243  15.407  1.9002  0.0678 -0.5864
  479MPD2    H1 7182   2.465   1.530  15.147 -0.6744  1.5863  1.3345
  479MPD2    H2 7183   2.094   1.357  15.049 -0.5938  1.6753  0.6421
  479MPD2    H3 7184   2.275   1.505  15.002 -0.8691 -0.8485 -1.0339
  479MPD2     N 7185   2.513   1.411  15.366 -0.2094 -0.1116  0.1296
  479MPD2    H5 7186   2.581   1.457  15.307 -0.2284  2.5086  2.1417
  479MPD2    N1 7187   2.071   1.208  15.272 -0.1975  0.4943  0.0008
  479MPD2    H7 7188   1.995   1.200  15.205 -0.8004 -2.0866  1.0207
  480TMC3    C1 7189   2.360   1.293  15.787  0.5285 -0.1287 -0.0275
  480TMC3    C2 7190   2.273   1.394  15.808  0.3101 -0.2210 -0.2776
  480TMC3    C3 7191   2.256   1.481  15.700 -0.2016  0.6089 -0.4501
  480TMC3    C4 7192   2.449   1.287  15.684  0.4212 -0.0421 -0.0251
  480TMC3    C5 7193   2.431   1.378  15.588  0.6162  0.1061 -0.3110
  480TMC3    C6 7194   2.344   1.485  15.596 -0.0114 -0.1052 -0.1640
  480TMC3     C 7195   2.318   1.164  15.826  0.1578  0.5927 -0.4250
  480TMC3     O 7196   2.354   1.076  15.748 -0.1625 -0.0253 -0.0354
  480TMC3     H 7197   2.206   1.406  15.893 -1.3610 -0.6182 -1.5429
  480TMC3    H1 7198   2.527   1.214  15.663 -2.0514 -2.2057 -1.7394
  480TMC3    H2 7199   2.358   1.572  15.533  2.8110 -0.2625  0.2448
  480TMC3    C7 7200   2.542   1.378  15.494 -0.2465 -0.6656  0.5866
  480TMC3    C8 7201   2.113   1.484  15.665 -0.2490  0.0334 -0.2160
  480TMC3    O1 7202   2.653   1.378  15.546 -0.4276  0.2468  0.0957
  480TMC3    O2 7203   2.036   1.423  15.737  0.2810 -0.1012 -0.3906
  481MPD2     C 7204   3.590   1.170  13.686  0.0544  0.8306  0.0830
  481MPD2    C1 7205   3.558   1.076  13.787  0.1760  0.3693 -0.0736
  481MPD2    C2 7206   3.653   1.042  13.883  0.2288 -0.4891 -0.7856
  481MPD2    C3 7207   3.774   1.102  13.885 -0.2800 -0.0131 -0.2457
  481MPD2    C4 7208   3.809   1.196  13.785 -0.2540 -0.4997 -0.2148
  481MPD2    C5 7209   3.717   1.221  13.690 -0.4192 -0.6893 -0.4103
  481MPD2     H 7210   3.622   0.980  13.967  0.7231  0.1023 -0.1609
  481MPD2    H1 7211   3.901   1.252  13.779 -0.3642 -0.7418 -3.6456
  481MPD2    H2 7212   3.521   1.201  13.609 -1.4381  0.8580  1.4192
  481MPD2    H3 7213   3.740   1.286  13.605  2.1144 -0.0781  0.7425
  481MPD2     N 7214   3.873   1.065  13.980 -1.0890  0.1313  0.7150
  481MPD2    H5 7215   3.949   1.133  13.983  0.0814 -1.1377 -0.1989
  481MPD2    N1 7216   3.424   1.030  13.794 -0.2410  0.0437 -0.0743
  481MPD2    H7 7217   3.365   1.069  13.721 -2.6204 -0.5206  1.5763
  482TMC3    C1 7218   3.235   0.921  13.885 -0.8225 -0.3457  0.9466
  482TMC3    C2 7219   3.198   0.794  13.926 -0.8957  0.3016 -0.4922
  482TMC3    C3 7220   3.063   0.757  13.920  0.0626  0.0410 -0.5019
  482TMC3    C4 7221   3.148   1.013  13.837  0.2525 -0.4342 -0.2674
  482TMC3    C5 7222   3.014   0.978  13.848 -0.7602 -0.4090  0.3754
  482TMC3    C6 7223   2.976   0.850  13.866  0.7630 -0.7060 -0.4297
  482TMC3     C 7224   3.378   0.951  13.896  0.2460 -0.2932  0.0507
  482TMC3     O 7225   3.426   0.887  13.992 -0.7123  0.4320 -0.5604
  482TMC3     H 7226   3.267   0.718  13.961 -0.7461  0.0674 -1.2825
  482TMC3    H1 7227   3.166   1.119  13.851 -0.1266 -0.2618 -1.1382
  482TMC3    H2 7228   2.869   0.848  13.885  0.7824 -1.9137 -0.4188
  482TMC3    C7 7229   2.913   1.078  13.809  0.3942 -0.2933  0.0631
  482TMC3    C8 7230   3.055   0.622  13.865 -0.2016 -0.2189  0.2029
  482TMC3    O1 7231   2.799   1.060  13.856 -0.6341 -0.4998  0.0842
  482TMC3    O2 7232   3.159   0.555  13.872  0.3167  0.0797  0.4886
  483TMC3    C1 7233   1.567   4.280  17.654 -0.3486 -0.5233 -0.2097
  483TMC3    C2 7234   1.613   4.408  17.665  0.2036 -0.7955  0.1113
  483TMC3    C3 7235   1.608   4.466   0.027 -0.5276 -0.5621  0.0033
  483TMC3    C4 7236   1.483   4.226  17.755 -0.0375  0.1127  0.2393
  483TMC3    C5 7237   1.479   4.287   0.119  0.4409 -0.4943 -0.0608
  483TMC3    C6 7238   1.553   4.401   0.134  0.4642  0.1850  0.3674
  483TMC3     C 7239   1.576   4.207  17.528  0.1573 -0.3795 -0.3618
  483TMC3     O 7240   1.608   4.273  17.433 -0.2746 -0.4054  0.6356
  483TMC3     H 7241   1.667   4.456  17.584 -0.9131  0.1132 -0.0891
  483TMC3    H1 7242   1.436   4.129  17.744 -0.0138  0.0329  0.8166
  483TMC3    H2 7243   1.546   4.448   0.231 -0.6499 -0.7892  0.7531
  483TMC3    C7 7244   1.488   4.194   0.229  0.3375 -0.0382  0.6094
  483TMC3    C8 7245   1.674   4.594   0.041  0.7580  0.1760 -0.3002
  483TMC3    O1 7246   1.578   4.211   0.307  0.5166 -0.3203  0.1819
  483TMC3    O2 7247   1.768   4.613  17.721 -0.2707  0.0927 -0.5958
  484MPD2     C 7248   3.674   2.581  12.606 -0.5358 -0.1054 -0.0374
  484MPD2    C1 7249   3.755   2.509  12.686 -0.2143 -0.3536  0.1814
  484MPD2    C2 7250   3.890   2.532  12.680  0.3900  0.2181  0.0458
  484MPD2    C3 7251   3.935   2.638  12.597 -0.3568 -0.2236 -0.1162
  484MPD2    C4 7252   3.848   2.700  12.506  0.0670 -0.0978  0.2688
  484MPD2    C5 7253   3.715   2.676  12.519 -0.0332  0.7460  0.9605
  484MPD2     H 7254   3.961   2.468  12.731 -0.8752 -0.7241  0.6047
  484MPD2    H1 7255   3.879   2.780  12.439 -0.9715  0.9703  1.0501
  484MPD2    H2 7256   3.567   2.568  12.607 -0.6587  0.7618 -2.2194
  484MPD2    H3 7257   3.648   2.733  12.456  0.2340  0.5121  0.4657
  484MPD2     N 7258   4.071   2.674  12.577 -0.0050 -0.2798  0.0769
  484MPD2    H5 7259   4.093   2.760  12.528 -0.6492  0.8100  1.6800
  484MPD2    N1 7260   3.701   2.414  12.770 -0.0295  0.7268 -0.2782
  484MPD2    H7 7261   3.600   2.406  12.766 -0.1673  1.3883  1.5016
  485TMC3    C1 7262   4.298   2.686  12.622 -0.0889 -0.2656  0.4520
  485TMC3    C2 7263   4.391   2.655  12.719  0.3702 -0.4727 -0.7301
  485TMC3    C3 7264   4.494   2.746  12.735 -0.3453  0.5796 -0.0258
  485TMC3    C4 7265   4.324   2.784  12.524 -0.2885 -0.1309  0.0078
  485TMC3    C5 7266   4.415   2.875  12.552  0.0705  0.0574  0.1026
  485TMC3    C6 7267   4.493   2.856  12.662  0.5173 -0.2617 -0.2161
  485TMC3     C 7268   4.176   2.610  12.638  0.2397  0.6242 -0.2517
  485TMC3     O 7269   4.171   2.515  12.707  0.4190  0.2476  0.2397
  485TMC3     H 7270   4.381   2.576  12.793  2.4765 -0.0980 -0.0483
  485TMC3    H1 7271   4.250   2.798  12.446  1.3560 -2.3438 -1.9403
  485TMC3    H2 7272   4.569   2.931  12.681  1.0265 -0.7749 -0.2259
  485TMC3    C7 7273   4.501   2.891  12.436  0.7934 -0.1181  0.4104
  485TMC3    C8 7274   4.622   2.701  12.795  0.0001  0.6112  0.4025
  485TMC3    O1 7275   4.469   2.943  12.331 -0.1315  0.1611  0.2418
  485TMC3    O2 7276   4.714   2.770  12.757 -0.4881 -0.1936 -0.5677
  486MPD2     C 7277   2.004   1.555  12.588  1.2903 -0.2990  0.1060
  486MPD2    C1 7278   1.889   1.496  12.568  0.3691  0.3798 -0.6987
  486MPD2    C2 7279   1.770   1.573  12.546 -0.0692  0.3198 -0.7166
  486MPD2    C3 7280   1.776   1.710  12.547 -0.1372 -0.2510 -0.3590
  486MPD2    C4 7281   1.897   1.771  12.558 -1.6688  0.0438 -0.2162
  486MPD2    C5 7282   2.004   1.695  12.578  0.4010  0.4767 -0.0036
  486MPD2     H 7283   1.672   1.534  12.524 -0.1084  0.4964 -0.8512
  486MPD2    H1 7284   1.917   1.877  12.564  1.1314 -0.5646  1.2810
  486MPD2    H2 7285   2.097   1.513  12.624  0.2537 -1.4077  1.4392
  486MPD2    H3 7286   2.097   1.751  12.586  1.4190 -1.2333  0.1424
  486MPD2     N 7287   1.661   1.788  12.520 -0.1507 -0.3165 -0.0143
  486MPD2    H5 7288   1.570   1.743  12.516 -0.1793 -0.3070  0.4500
  486MPD2    N1 7289   1.888   1.353  12.593 -0.1618 -0.1291 -0.6510
  486MPD2    H7 7290   1.979   1.311  12.612  0.3956  0.6698 -1.5767
  487TMC3    C1 7291   1.798   1.125  12.611  0.5840 -0.0499 -0.3391
  487TMC3    C2 7292   1.686   1.042  12.603 -0.0500  0.0458  0.4099
  487TMC3    C3 7293   1.721   0.912  12.613  0.4538  0.0431  0.3161
  487TMC3    C4 7294   1.927   1.078  12.604 -0.5502 -0.3470  0.5742
  487TMC3    C5 7295   1.949   0.941  12.626 -0.1191 -0.3164 -0.1978
  487TMC3    C6 7296   1.842   0.857  12.599  0.2739  0.4022 -0.0431
  487TMC3     C 7297   1.772   1.268  12.580  0.3248 -0.3906  0.1056
  487TMC3     O 7298   1.658   1.300  12.554 -0.0567  0.4013  0.2176
  487TMC3     H 7299   1.586   1.064  12.639  0.6534  2.1143  1.1132
  487TMC3    H1 7300   2.019   1.136  12.611 -0.3691 -0.4101 -1.2131
  487TMC3    H2 7301   1.853   0.759  12.644  2.2396  0.4936 -0.3197
  487TMC3    C7 7302   1.998   0.909  12.760 -0.5383 -0.0604 -0.5688
  487TMC3    C8 7303   1.646   0.848  12.725 -0.3916  0.1695 -0.0618
  487TMC3    O1 7304   1.968   0.988  12.845 -0.1252 -0.6031  0.1890
  487TMC3    O2 7305   1.691   0.846  12.837 -0.4781 -0.0306  0.1769
  488MPD2     C 7306   2.376   3.549  16.098 -0.4046  0.6422 -0.1508
  488MPD2    C1 7307   2.490   3.575  16.161  0.1571  0.2746 -0.1565
  488MPD2    C2 7308   2.507   3.530  16.291 -0.3491 -0.6087  0.1027
  488MPD2    C3 7309   2.409   3.464  16.364  0.8873  1.0682  0.0942
  488MPD2    C4 7310   2.292   3.431  16.292 -0.4707 -0.0937  0.2735
  488MPD2    C5 7311   2.279   3.484  16.162  0.4111 -0.1181 -0.3070
  488MPD2     H 7312   2.593   3.561  16.349  1.0713 -0.6770 -1.9760
  488MPD2    H1 7313   2.201   3.402  16.341 -1.8217 -0.8178 -2.6512
  488MPD2    H2 7314   2.364   3.575  15.994  0.8677 -0.6139 -0.6039
  488MPD2    H3 7315   2.185   3.475  16.109  0.7798  1.0225 -1.1536
  488MPD2     N 7316   2.426   3.440  16.502  0.0592  0.1833  0.1234
  488MPD2    H5 7317   2.515   3.459  16.547  0.3486  1.5581 -1.0279
  488MPD2    N1 7318   2.600   3.639  16.101  0.1548 -1.0053 -0.0443
  488MPD2    H7 7319   2.679   3.665  16.159  0.1579 -2.1057  0.4564
  489TMC3    C1 7320   2.400   3.335  16.699  0.4444 -0.3582  0.0538
  489TMC3    C2 7321   2.536   3.338  16.712 -1.2834  0.0778 -0.6697
  489TMC3    C3 7322   2.594   3.327  16.836 -0.5770 -0.2931  0.4310
  489TMC3    C4 7323   2.327   3.321  16.812 -0.5659  0.8800  0.2297
  489TMC3    C5 7324   2.391   3.322  16.938  0.6822 -0.7377 -0.0872
  489TMC3    C6 7325   2.524   3.333  16.953  0.1232 -0.6911  0.2397
  489TMC3     C 7326   2.339   3.364  16.573 -0.4233  0.9609 -0.2831
  489TMC3     O 7327   2.225   3.327  16.566 -0.2469  0.1769 -0.5210
  489TMC3     H 7328   2.601   3.332  16.625  0.3723  1.9106  0.4462
  489TMC3    H1 7329   2.219   3.325  16.805 -0.5191  1.6983  0.0214
  489TMC3    H2 7330   2.566   3.312  17.051  1.1767  1.7185  0.3144
  489TMC3    C7 7331   2.308   3.302  17.051 -0.1898 -1.3920 -0.0285
  489TMC3    C8 7332   2.735   3.372  16.838  0.3409  0.7995  0.3066
  489TMC3    O1 7333   2.352   3.351  17.154  0.0717  0.1773 -0.1486
  489TMC3    O2 7334   2.805   3.360  16.738 -0.2212 -0.3615  0.8007
  490MPD2     C 7335   2.345   2.674   0.039  0.4712 -0.5516 -0.7102
  490MPD2    C1 7336   2.399   2.602  17.692  0.8685 -0.5061  0.7504
  490MPD2    C2 7337   2.531   2.573  17.695  0.0282 -0.0220 -0.0155
  490MPD2    C3 7338   2.609   2.611   0.044  0.5836 -0.5333 -0.1932
  490MPD2    C4 7339   2.556   2.667   0.156  0.3544 -0.3885  0.0256
  490MPD2    C5 7340   2.428   2.705   0.148  0.3423 -0.6758  0.1905
  490MPD2     H 7341   2.582   2.538  17.606 -0.7791  1.8244 -1.2008
  490MPD2    H1 7342   2.618   2.682   0.243  0.5858  0.0072 -0.2102
  490MPD2    H2 7343   2.239   2.693   0.040  0.5165 -0.3417  0.0524
  490MPD2    H3 7344   2.382   2.754   0.233  0.1156  1.1747 -0.9978
  490MPD2     N 7345   2.746   2.574   0.056 -0.2121 -0.4517 -0.4049
  490MPD2    H5 7346   2.788   2.589   0.147 -0.2454 -1.6503 -0.1927
  490MPD2    N1 7347   2.328   2.543  17.587  0.5373  0.6407  0.0870
  490MPD2    H7 7348   2.375   2.517  17.500 -1.1125 -1.3985 -0.1791
  491TMC3    C1 7349   2.167   2.417  17.480 -0.0453  0.2589  0.1916
  491TMC3    C2 7350   2.190   2.290  17.529  0.5312  0.0924  0.5983
  491TMC3    C3 7351   2.220   2.189  17.442  0.1935  0.7197  0.9000
  491TMC3    C4 7352   2.223   2.451  17.356 -0.1045  0.9876  0.1460
  491TMC3    C5 7353   2.265   2.344  17.277  0.0147  0.6529  1.0089
  491TMC3    C6 7354   2.249   2.210  17.308 -0.4283  0.5397  0.6581
  491TMC3     C 7355   2.191   2.516  17.585 -0.1921 -0.1173  0.5535
  491TMC3     O 7356   2.113   2.537  17.676  0.4034 -0.2903 -0.5397
  491TMC3     H 7357   2.165   2.275  17.634  0.4389 -1.0408  0.4047
  491TMC3    H1 7358   2.213   2.551  17.317 -2.2996  1.8447  2.9074
  491TMC3    H2 7359   2.270   2.130  17.238 -1.6403  0.7646  0.0485
  491TMC3    C7 7360   2.308   2.371  17.141 -0.3069 -0.5526  0.1319
  491TMC3    C8 7361   2.300   2.089  17.510 -1.0606 -0.1836 -0.6901
  491TMC3    O1 7362   2.271   2.293  17.057 -0.4299 -0.3035 -0.0206
  491TMC3    O2 7363   2.266   2.064  17.624 -0.4324  0.1206 -0.1729
  492MPD2     C 7364   2.786   2.642  11.196 -0.3962  0.0542  0.7510
  492MPD2    C1 7365   2.666   2.639  11.119  0.3154  0.2845  0.4364
  492MPD2    C2 7366   2.557   2.574  11.173 -0.3603  0.4233 -0.0051
  492MPD2    C3 7367   2.557   2.524  11.304 -0.2107  0.0659 -0.4997
  492MPD2    C4 7368   2.671   2.548  11.378 -0.0777 -0.4926 -0.8531
  492MPD2    C5 7369   2.783   2.599  11.323  0.1684 -0.4526 -0.7242
  492MPD2     H 7370   2.461   2.573  11.122  0.0776 -0.8927 -0.8067
  492MPD2    H1 7371   2.660   2.516  11.482  1.4141 -2.8537 -1.4126
  492MPD2    H2 7372   2.881   2.673  11.154  0.1938  0.1335  2.1629
  492MPD2    H3 7373   2.872   2.606  11.384  0.1604  4.4117 -1.2394
  492MPD2     N 7374   2.455   2.455  11.363 -0.2376 -0.4025  0.5887
  492MPD2    H5 7375   2.467   2.440  11.463  1.5048  0.9196  0.5783
  492MPD2    N1 7376   2.672   2.710  11.004 -0.7219 -0.3489  0.2124
  492MPD2    H7 7377   2.761   2.757  10.988 -1.7153  0.8810 -1.5770
  493TMC3    C1 7378   2.595   2.831  10.817  0.0873 -0.2997  0.0311
  493TMC3    C2 7379   2.710   2.902  10.810 -0.5324 -0.2161 -0.1476
  493TMC3    C3 7380   2.729   3.012  10.735  0.2393  0.3029  0.3642
  493TMC3    C4 7381   2.491   2.882  10.740  0.0931  0.5247  0.0930
  493TMC3    C5 7382   2.506   2.999  10.663  0.2167 -0.1256 -0.4243
  493TMC3    C6 7383   2.628   3.066  10.663 -0.5168 -0.6311 -0.4660
  493TMC3     C 7384   2.574   2.726  10.914 -0.0232 -0.0688  0.7526
  493TMC3     O 7385   2.465   2.670  10.910 -0.0629 -0.0578  0.0036
  493TMC3     H 7386   2.801   2.847  10.831 -0.3747 -0.2093 -0.8400
  493TMC3    H1 7387   2.398   2.825  10.740 -0.4385  1.3669 -1.8917
  493TMC3    H2 7388   2.649   3.144  10.591  0.3515 -0.0647  0.3949
  493TMC3    C7 7389   2.420   2.997  10.548  0.2251  0.1127  0.6167
  493TMC3    C8 7390   2.870   3.051  10.716 -0.0836 -0.8838 -0.4649
  493TMC3    O1 7391   2.317   2.933  10.545 -0.6701  0.4721 -0.3913
  493TMC3    O2 7392   2.940   3.023  10.811  0.2871  0.4206  0.1611
  494TMC3    C1 7393   3.667   3.761   0.331  0.3381  0.3715  0.2231
  494TMC3    C2 7394   3.678   3.632   0.279 -0.2459 -0.2358  0.3808
  494TMC3    C3 7395   3.732   3.612   0.155 -0.2727  0.9873  0.2240
  494TMC3    C4 7396   3.688   3.869   0.249  0.1905  0.3750  0.4191
  494TMC3    C5 7397   3.734   3.844   0.121 -0.8613  0.6751 -0.2431
  494TMC3    C6 7398   3.771   3.716   0.083 -0.2800  0.7027  0.3695
  494TMC3     C 7399   3.587   3.783   0.457  0.5065  0.9104  0.2525
  494TMC3     O 7400   3.516   3.882   0.452  0.6935  0.3982 -0.0144
  494TMC3     H 7401   3.680   3.551   0.352 -0.3272 -0.0534  0.5868
  494TMC3    H1 7402   3.667   3.970   0.281 -1.1278  0.3784 -0.4583
  494TMC3    H2 7403   3.818   3.706  17.741 -1.3843  1.0981 -0.2046
  494TMC3    C7 7404   3.708   3.931   0.013 -0.0191 -0.0427  0.1885
  494TMC3    C8 7405   3.759   3.476   0.111 -0.3445 -0.2290 -0.3617
  494TMC3    O1 7406   3.770   3.912  17.666 -0.1417 -0.1639 -0.3239
  494TMC3    O2 7407   3.712   3.383   0.177 -0.2681  0.6237  0.0296
  495TMC3    C1 7408   1.962   1.530  14.712 -0.7707  0.2045 -0.3648
  495TMC3    C2 7409   2.074   1.581  14.650 -0.3596  0.6063 -0.3979
  495TMC3    C3 7410   2.141   1.682  14.715 -0.2947 -0.6460  0.3632
  495TMC3    C4 7411   1.932   1.558  14.840  0.8755 -0.0420 -0.0071
  495TMC3    C5 7412   2.007   1.651  14.907  0.3179  0.3203  0.6214
  495TMC3    C6 7413   2.122   1.703  14.850  0.0919  0.1860 -0.2985
  495TMC3     C 7414   1.870   1.451  14.635  0.7791  0.2480  0.6496
  495TMC3     O 7415   1.784   1.377  14.685 -0.4249 -0.2874 -0.2715
  495TMC3     H 7416   2.100   1.549  14.549 -3.0353 -2.0208 -0.2561
  495TMC3    H1 7417   1.848   1.506  14.884  0.1824 -0.8438 -2.2919
  495TMC3    H2 7418   2.182   1.782  14.893 -0.4815 -0.2352  1.2611
  495TMC3    C7 7419   1.990   1.664  15.051 -0.8688  0.1960 -0.1032
  495TMC3    C8 7420   2.235   1.768  14.654  0.0347 -0.1725  0.0901
  495TMC3    O1 7421   2.079   1.725  15.115 -0.8863  0.1248  0.2576
  495TMC3    O2 7422   2.348   1.758  14.698  0.3521 -0.7861 -0.4288
  496MPD2     C 7423   4.017   2.062  15.267  0.0633  0.4935 -0.5164
  496MPD2    C1 7424   4.048   1.933  15.289 -0.1604  0.2681 -0.3986
  496MPD2    C2 7425   3.962   1.835  15.250 -0.7615  0.1922 -0.1330
  496MPD2    C3 7426   3.850   1.855  15.177  0.2389  0.3609 -0.2561
  496MPD2    C4 7427   3.824   1.987  15.145 -0.1320 -0.0332 -0.5605
  496MPD2    C5 7428   3.913   2.084  15.179 -0.4462  0.1330 -0.0496
  496MPD2     H 7429   3.994   1.735  15.277  0.2209  0.8383  1.0637
  496MPD2    H1 7430   3.746   2.023  15.079  0.2393  0.7243 -0.5873
  496MPD2    H2 7431   4.084   2.145  15.289 -0.2223  0.9895 -1.5373
  496MPD2    H3 7432   3.908   2.181  15.131 -1.5308  1.5694  2.9665
  496MPD2     N 7433   3.763   1.752  15.140  0.6277 -0.0158 -0.0819
  496MPD2    H5 7434   3.787   1.662  15.181 -0.1181  0.2095  0.8638
  496MPD2    N1 7435   4.169   1.905  15.360 -0.0663  0.3179 -0.6069
  496MPD2    H7 7436   4.235   1.980  15.377 -0.7850  0.5347  1.2267
  497TMC3    C1 7437   3.591   1.624  15.028 -0.6922  0.5636 -0.1510
  497TMC3    C2 7438   3.534   1.611  14.901  0.0430 -0.0100  0.3124
  497TMC3    C3 7439   3.472   1.490  14.881  1.2203  0.0861  0.6930
  497TMC3    C4 7440   3.577   1.528  15.123 -0.0420  0.3000  0.2471
  497TMC3    C5 7441   3.514   1.414  15.091 -0.8215  0.5732  0.6987
  497TMC3    C6 7442   3.454   1.387  14.973  0.0846  0.2606  0.3175
  497TMC3     C 7443   3.660   1.754  15.044 -0.1193  0.0488 -0.1834
  497TMC3     O 7444   3.630   1.841  14.967 -0.2670  0.0234  0.0048
  497TMC3     H 7445   3.560   1.686  14.827  0.0906 -1.3220 -1.0049
  497TMC3    H1 7446   3.615   1.536  15.224 -1.2600  0.2787  0.7028
  497TMC3    H2 7447   3.403   1.294  14.948 -0.3735  0.6666 -0.2623
  497TMC3    C7 7448   3.463   1.331  15.202  0.0808  0.7094 -0.0651
  497TMC3    C8 7449   3.410   1.462  14.749 -0.7566 -0.1709  0.1573
  497TMC3    O1 7450   3.356   1.273  15.184  0.1551 -0.4874  0.5089
  497TMC3    O2 7451   3.325   1.373  14.736 -0.0205 -0.0821  0.0228
  498MPD2     C 7452   0.601   2.006   9.704 -0.3300  0.1330 -0.3106
  498MPD2    C1 7453   0.585   2.109   9.794 -0.4030  0.2212  0.2577
  498MPD2    C2 7454   0.462   2.117   9.864 -0.6862  0.2938 -0.0443
  498MPD2    C3 7455   0.373   2.017   9.855  0.1302 -0.1856  0.3096
  498MPD2    C4 7456   0.396   1.906   9.776 -0.4949  0.4917  0.0146
  498MPD2    C5 7457   0.505   1.910   9.694 -0.2631  0.0561 -0.1001
  498MPD2     H 7458   0.446   2.206   9.923  0.3170 -0.9522  2.0780
  498MPD2    H1 7459   0.327   1.824   9.759  1.0299 -0.6940 -0.4491
  498MPD2    H2 7460   0.690   1.999   9.643 -0.4325  1.1067 -0.5657
  498MPD2    H3 7461   0.515   1.820   9.634 -0.4784  0.0472 -0.1240
  498MPD2     N 7462   0.267   2.021   9.952  0.1039 -0.3483  0.9008
  498MPD2    H5 7463   0.268   2.092  10.025 -1.8022  2.4410 -1.7731
  498MPD2    N1 7464   0.679   2.210   9.812 -0.3187  1.0212  0.1856
  498MPD2    H7 7465   0.649   2.300   9.848 -2.0371  0.3717  0.3805
  499TMC3    C1 7466   0.887   2.315   9.787 -0.1724 -0.3953 -1.1087
  499TMC3    C2 7467   1.030   2.307   9.816  0.2788  0.0973  0.0695
  499TMC3    C3 7468   1.095   2.424   9.833  0.1623 -0.1940 -0.3069
  499TMC3    C4 7469   0.826   2.437   9.785 -0.0209  0.7070 -0.3597
  499TMC3    C5 7470   0.894   2.548   9.828 -0.4673 -0.2566  0.6765
  499TMC3    C6 7471   1.032   2.545   9.844  0.2651 -0.0663 -0.0528
  499TMC3     C 7472   0.809   2.194   9.776  0.0872  0.2032 -0.4120
  499TMC3     O 7473   0.869   2.090   9.746  0.5368  0.1830  0.0351
  499TMC3     H 7474   1.077   2.212   9.837 -0.8541 -0.2679  0.9644
  499TMC3    H1 7475   0.722   2.439   9.756 -0.6045  1.2415  1.7824
  499TMC3    H2 7476   1.091   2.635   9.853 -0.1072  0.2008 -0.3012
  499TMC3    C7 7477   0.839   2.678   9.819  0.3022  0.8691 -0.8047
  499TMC3    C8 7478   1.238   2.406   9.846 -0.4945  0.1457 -0.2951
  499TMC3    O1 7479   0.913   2.773   9.800 -0.0284 -0.4533 -0.2525
  499TMC3    O2 7480   1.289   2.321   9.776  0.2394  0.0737  0.4665
  500MPD2     C 7481   1.831   3.669  10.898  0.0145 -0.6544 -0.0285
  500MPD2    C1 7482   1.871   3.695  10.767 -0.0154  0.3706  0.8336
  500MPD2    C2 7483   1.781   3.706  10.670  0.2249  0.4208  0.4830
  500MPD2    C3 7484   1.649   3.683  10.695 -0.1184  0.1647  0.2572
  500MPD2    C4 7485   1.608   3.660  10.823 -0.3913 -0.3045  0.4037
  500MPD2    C5 7486   1.698   3.656  10.922  0.0313 -0.1330  0.1756
  500MPD2     H 7487   1.824   3.705  10.570  1.5976 -2.1185  1.0952
  500MPD2    H1 7488   1.503   3.644  10.847 -0.8387  1.2392 -0.5112
  500MPD2    H2 7489   1.901   3.672  10.981 -1.2260 -0.8104  1.0173
  500MPD2    H3 7490   1.659   3.638  11.021 -1.4899 -0.9421 -0.5702
  500MPD2     N 7491   1.551   3.682  10.589  0.1453 -0.2106  0.0714
  500MPD2    H5 7492   1.454   3.659  10.610 -0.7147  1.5009 -2.1581
  500MPD2    N1 7493   2.014   3.716  10.733 -0.2029  0.3856 -0.0189
  500MPD2    H7 7494   2.036   3.757  10.643 -1.5324  1.8901  0.3378
  501TMC3    C1 7495   2.254   3.727  10.741 -0.4366  0.5395  0.2364
  501TMC3    C2 7496   2.250   3.812  10.635 -0.8800  0.0593 -0.9413
  501TMC3    C3 7497   2.373   3.840  10.579  0.3491  0.4866  1.0269
  501TMC3    C4 7498   2.365   3.688  10.798  0.2111  0.1547 -0.0951
  501TMC3    C5 7499   2.487   3.726  10.751 -0.0450  1.2503  0.0890
  501TMC3    C6 7500   2.493   3.795  10.634  0.1007 -0.3347 -0.5040
  501TMC3     C 7501   2.129   3.692  10.810  0.4082 -0.1114  0.4658
  501TMC3     O 7502   2.141   3.650  10.923  0.5107 -0.4270 -0.0478
  501TMC3     H 7503   2.159   3.867  10.612 -0.4528  0.6201 -1.2555
  501TMC3    H1 7504   2.368   3.623  10.885  1.5297 -1.0584 -1.0617
  501TMC3    H2 7505   2.581   3.847  10.598 -0.1971  3.0130  3.5317
  501TMC3    C7 7506   2.602   3.650  10.801 -0.4362  0.3146  0.4919
  501TMC3    C8 7507   2.374   3.952  10.482 -1.0677 -1.0730  0.2369
  501TMC3    O1 7508   2.581   3.563  10.885  0.3783 -0.2620  0.1675
  501TMC3    O2 7509   2.478   4.018  10.484  0.5383 -0.3437  0.1234
  502TMC3    C1 7510   1.608   2.488  15.334 -1.0531 -0.1661 -0.2946
  502TMC3    C2 7511   1.563   2.542  15.219 -0.4973 -0.1374  0.1795
  502TMC3    C3 7512   1.432   2.589  15.215 -0.6522  0.1076  0.4537
  502TMC3    C4 7513   1.526   2.471  15.445 -0.8289  0.6098  0.8626
  502TMC3    C5 7514   1.400   2.530  15.440 -0.5161 -0.4834  0.0374
  502TMC3    C6 7515   1.347   2.587  15.327  1.2888  0.0676  0.0491
  502TMC3     C 7516   1.740   2.536  15.351 -0.0829  0.1478 -0.6364
  502TMC3     O 7517   1.760   2.598  15.455 -0.0943  0.0009 -0.6231
  502TMC3     H 7518   1.632   2.559  15.137 -0.7952  1.4040  0.2438
  502TMC3    H1 7519   1.568   2.434  15.538 -2.7139  2.8979  2.5977
  502TMC3    H2 7520   1.240   2.605  15.321  1.0237 -1.2158  0.9270
  502TMC3    C7 7521   1.312   2.488  15.551  0.0201 -0.7502 -0.1671
  502TMC3    C8 7522   1.435   2.720  15.146  0.0043  0.4430 -0.1540
  502TMC3    O1 7523   1.350   2.392  15.618 -0.3942  0.1085 -0.3305
  502TMC3    O2 7524   1.508   2.724  15.050  0.4386 -0.4968  0.1582
  503MPD2     C 7525   3.629   3.069  16.812 -0.3662 -0.3835 -0.3446
  503MPD2    C1 7526   3.754   3.098  16.869 -0.5085 -0.0907  0.1715
  503MPD2    C2 7527   3.815   2.994  16.940 -0.3531 -0.1283 -0.3930
  503MPD2    C3 7528   3.762   2.861  16.935 -0.2725  0.2140 -0.0895
  503MPD2    C4 7529   3.646   2.834  16.860 -0.5902 -0.1572 -0.4077
  503MPD2    C5 7530   3.572   2.941  16.808  0.1155 -0.0871 -0.4304
  503MPD2     H 7531   3.916   3.016  16.972 -0.4788 -1.1180  0.7055
  503MPD2    H1 7532   3.605   2.735  16.869 -0.6508 -0.0593  0.3884
  503MPD2    H2 7533   3.571   3.149  16.767  0.6337  0.6591  0.2108
  503MPD2    H3 7534   3.475   2.920  16.766  0.5872 -0.6606 -1.2190
  503MPD2     N 7535   3.829   2.757  17.001 -0.2293 -0.1116 -0.3065
  503MPD2    H5 7536   3.897   2.788  17.070 -1.5745  0.8661  0.5754
  503MPD2    N1 7537   3.794   3.231  16.888 -0.1755  0.0159 -0.6983
  503MPD2    H7 7538   3.876   3.241  16.948 -0.4129  1.4818 -0.6146
  504TMC3    C1 7539   3.873   2.556  17.093 -0.0550  0.4365 -0.0709
  504TMC3    C2 7540   3.799   2.460  17.158 -0.2588 -0.2762 -0.8249
  504TMC3    C3 7541   3.862   2.408  17.271 -0.5128 -0.5433 -0.2750
  504TMC3    C4 7542   4.010   2.564  17.100 -0.0872 -0.2406 -0.2270
  504TMC3    C5 7543   4.066   2.499  17.207  0.5724  0.1518  0.4004
  504TMC3    C6 7544   3.994   2.442  17.308  0.1588 -0.2978  0.3375
  504TMC3     C 7545   3.805   2.620  16.993 -0.4306  0.4838 -0.1424
  504TMC3     O 7546   3.731   2.555  16.923  0.2896  0.3115 -0.4715
  504TMC3     H 7547   3.696   2.443  17.131  0.2270 -0.4090 -2.5545
  504TMC3    H1 7548   4.068   2.633  17.039 -1.9288  1.4017 -0.1192
  504TMC3    H2 7549   4.042   2.389  17.390  0.3189  0.0814  0.4862
  504TMC3    C7 7550   4.209   2.457  17.203 -0.3288 -0.4110 -0.2783
  504TMC3    C8 7551   3.813   2.282  17.316  0.1757 -0.2914  0.0882
  504TMC3    O1 7552   4.254   2.400  17.301  0.0456 -0.1252  0.2385
  504TMC3    O2 7553   3.745   2.216  17.243  0.2698  0.1936  0.2963
  505MPD2     C 7554   4.249   2.473  10.812  0.4133 -0.0774 -0.4150
  505MPD2    C1 7555   4.220   2.369  10.899  0.5750  0.1830  0.5532
  505MPD2    C2 7556   4.319   2.320  10.978 -0.3840  0.3159  0.2267
  505MPD2    C3 7557   4.453   2.358  10.965  0.0541  0.2018 -0.0567
  505MPD2    C4 7558   4.481   2.461  10.875 -0.1419  0.2352  0.8512
  505MPD2    C5 7559   4.380   2.523  10.804 -0.3079  0.0207  0.5432
  505MPD2     H 7560   4.290   2.251  11.056  0.9141  0.6759  1.0275
  505MPD2    H1 7561   4.575   2.513  10.879  0.1541 -0.2244 -0.4551
  505MPD2    H2 7562   4.177   2.512  10.740  1.5685  1.4049 -0.7666
  505MPD2    H3 7563   4.394   2.606  10.736 -0.1885 -0.1678  0.3352
  505MPD2     N 7564   4.553   2.310  11.052  0.1334  0.4126 -0.5669
  505MPD2    H5 7565   4.641   2.360  11.061 -0.5643  1.7304 -1.1849
  505MPD2    N1 7566   4.097   2.306  10.886  0.7242  0.8194  0.4766
  505MPD2    H7 7567   4.029   2.350  10.824  2.2113 -0.2241 -1.8791
  506TMC3    C1 7568   3.951   2.124  10.871 -0.3147  0.3560  0.7021
  506TMC3    C2 7569   3.944   2.117  10.739  1.2085 -0.2008  0.4636
  506TMC3    C3 7570   3.871   2.016  10.683 -0.4727  1.0691  0.2200
  506TMC3    C4 7571   3.891   2.034  10.954 -0.6279  0.5342  0.0916
  506TMC3    C5 7572   3.845   1.922  10.902  0.6647 -0.0374  0.2580
  506TMC3    C6 7573   3.834   1.914  10.764  0.2833 -0.3491  0.2368
  506TMC3     C 7574   4.065   2.184  10.936 -0.2428  1.2578 -0.1697
  506TMC3     O 7575   4.119   2.120  11.028  0.3703  0.1392  0.3139
  506TMC3     H 7576   3.996   2.181  10.668 -0.7918  0.7498 -0.1234
  506TMC3    H1 7577   3.902   2.057  11.059  2.8564 -0.7575  0.0030
  506TMC3    H2 7578   3.791   1.823  10.723  0.8001 -0.2926 -0.4364
  506TMC3    C7 7579   3.922   1.807  10.949 -0.3060 -0.7179  0.3886
  506TMC3    C8 7580   3.874   1.990  10.543 -0.3750 -0.4275  0.1531
  506TMC3    O1 7581   3.887   1.694  10.909 -0.2952  0.0197 -0.0378
  506TMC3    O2 7582   3.786   1.925  10.490 -0.2514  0.3175 -0.1854
  507TMC3    C1 7583   0.365   2.433  14.403  0.8687  0.0931  0.0443
  507TMC3    C2 7584   0.323   2.370  14.284 -0.1547 -0.4380 -0.3174
  507TMC3    C3 7585   0.343   2.442  14.167  0.2472 -0.1819 -0.2029
  507TMC3    C4 7586   0.425   2.557  14.404  0.3338 -0.1479  0.0422
  507TMC3    C5 7587   0.474   2.600  14.282 -0.0974 -0.0185 -0.6857
  507TMC3    C6 7588   0.436   2.546  14.159  0.8195 -0.0159  0.3002
  507TMC3     C 7589   0.262   2.417  14.506 -0.3916 -0.1875  0.8172
  507TMC3     O 7590   0.298   2.411  14.625  0.4480 -0.5419 -0.3564
  507TMC3     H 7591   0.270   2.275  14.282  0.9793 -1.0254 -2.2757
  507TMC3    H1 7592   0.442   2.618  14.492  0.4359 -1.8393  1.1970
  507TMC3    H2 7593   0.461   2.588  14.063  0.4718  2.6072  1.3685
  507TMC3    C7 7594   0.484   2.736  14.270  0.3721 -0.9588 -0.5627
  507TMC3    C8 7595   0.208   2.478  14.122  0.0356 -0.1683 -0.3437
  507TMC3    O1 7596   0.418   2.780  14.181 -0.5483  0.1934 -0.2346
  507TMC3    O2 7597   0.120   2.398  14.152 -0.2131  0.5234  0.2868
  508MPD2     C 7598   1.390   4.729  15.619  0.5313 -0.6230 -0.6588
  508MPD2    C1 7599   1.326   0.063  15.721 -0.2039  0.3514 -0.9521
  508MPD2    C2 7600   1.271   0.186  15.685 -0.5844 -0.3353 -0.8341
  508MPD2    C3 7601   1.268   0.227  15.553  0.8416 -0.0370  0.5329
  508MPD2    C4 7602   1.319   0.150  15.451 -0.1081  0.5683 -0.2063
  508MPD2    C5 7603   1.389   0.040  15.488  0.3908 -0.0493  0.2803
  508MPD2     H 7604   1.233   0.251  15.762  0.8425  0.6214 -0.9413
  508MPD2    H1 7605   1.312   0.166  15.344 -3.0880 -2.6170 -0.4763
  508MPD2    H2 7606   1.441   4.636  15.643  0.8219 -0.9566 -2.5890
  508MPD2    H3 7607   1.442   4.732  15.406 -1.1505 -1.3794  0.0479
  508MPD2     N 7608   1.208   0.357  15.531 -0.5070  0.1975 -0.5241
  508MPD2    H5 7609   1.175   0.409  15.612  1.7572  0.5599  0.1757
  508MPD2    N1 7610   1.330   0.013  15.851  0.2014 -0.0793  0.3840
  508MPD2    H7 7611   1.380   4.665  15.860 -1.0320 -0.5498  2.4588
  509TMC3    C1 7612   1.090   0.758  15.367  0.4664 -0.7206  0.0506
  509TMC3    C2 7613   1.166   0.833  15.449  0.3835 -0.5073  0.0320
  509TMC3    C3 7614   1.271   0.773  15.512 -0.1228 -0.4948 -0.0282
  509TMC3    C4 7615   1.109   0.628  15.351  0.7096  0.3261 -0.4893
  509TMC3    C5 7616   1.204   0.560  15.421 -0.5704 -0.2086 -1.3063
  509TMC3    C6 7617   1.287   0.635  15.503  1.3189 -0.3745  0.2919
  509TMC3     C 7618   1.004   0.815  15.268  0.2917  0.4734 -0.1341
  509TMC3     O 7619   1.000   0.759  15.161  0.1292 -0.0140  0.0915
  509TMC3     H 7620   1.162   0.941  15.439 -2.7125 -0.4134  2.1941
  509TMC3    H1 7621   1.044   0.573  15.285  1.9874 -1.8447  0.0851
  509TMC3    H2 7622   1.373   0.600  15.559  2.2118 -1.1590 -1.5428
  509TMC3    C7 7623   1.215   0.421  15.409  0.4472  0.1128  0.1213
  509TMC3    C8 7624   1.383   0.858  15.555  0.1763 -0.2524 -0.9420
  509TMC3    O1 7625   1.233   0.371  15.296  0.3771  0.3798 -0.4990
  509TMC3    O2 7626   1.490   0.804  15.579  0.7456  0.8165 -0.1496
  510MPD2     C 7627   3.484   2.172  14.250  0.7053  0.3153  0.1889
  510MPD2    C1 7628   3.534   2.107  14.356 -0.1743  0.3053 -1.2084
  510MPD2    C2 7629   3.672   2.112  14.363 -0.3426  0.1998  0.4181
  510MPD2    C3 7630   3.746   2.178  14.263 -0.3534  0.5670 -0.6343
  510MPD2    C4 7631   3.692   2.245  14.160 -0.1472 -1.2127  0.1596
  510MPD2    C5 7632   3.556   2.236  14.152  0.4937  0.0530 -0.8377
  510MPD2     H 7633   3.727   2.076  14.449 -2.1590 -0.1182  1.4338
  510MPD2    H1 7634   3.745   2.294  14.079 -0.1717 -0.8126  0.3839
  510MPD2    H2 7635   3.378   2.192  14.239  0.2532 -0.4618  3.1087
  510MPD2    H3 7636   3.500   2.290  14.077 -2.0342  0.4272  1.2931
  510MPD2     N 7637   3.885   2.166  14.277 -0.3389 -0.3746  0.0921
  510MPD2    H5 7638   3.922   2.099  14.344 -0.1561  0.1229  0.4868
  510MPD2    N1 7639   3.447   2.049  14.451 -0.3496  0.1067  0.2230
  510MPD2    H7 7640   3.349   2.062  14.428  0.0472 -0.1893 -1.6996
  511TMC3    C1 7641   3.382   1.933  14.635 -0.6579  0.5793 -0.2932
  511TMC3    C2 7642   3.384   1.914  14.767  0.2781 -0.3708 -0.5081
  511TMC3    C3 7643   3.284   1.846  14.827 -0.1801  0.6989 -0.9412
  511TMC3    C4 7644   3.300   1.861  14.553 -0.7537 -0.2545 -0.3343
  511TMC3    C5 7645   3.207   1.782  14.620  0.5682 -0.0869  0.2068
  511TMC3    C6 7646   3.192   1.773  14.754  0.4421 -0.2787 -0.0409
  511TMC3     C 7647   3.494   1.991  14.568  0.3897 -0.2273 -0.2284
  511TMC3     O 7648   3.600   1.980  14.622 -0.6631 -0.1254  0.4010
  511TMC3     H 7649   3.456   1.968  14.828 -0.7990  0.9273 -0.3826
  511TMC3    H1 7650   3.300   1.868  14.445  0.0179 -2.3384 -0.4629
  511TMC3    H2 7651   3.098   1.748  14.802  1.0662 -1.3000  0.6538
  511TMC3    C7 7652   3.116   1.714  14.529  0.4297 -0.5429  0.9848
  511TMC3    C8 7653   3.262   1.878  14.966 -0.2432 -0.2207  1.0638
  511TMC3    O1 7654   3.116   1.745  14.410  0.0152  0.2085  0.4314
  511TMC3    O2 7655   3.324   1.974  15.007  0.0706 -0.0805  0.6809
  512TMC3    C1 7656   2.005   1.440  13.058 -0.1391  0.3583  0.0479
  512TMC3    C2 7657   2.085   1.445  13.171 -0.2025  0.1723  0.3551
  512TMC3    C3 7658   2.206   1.388  13.163  0.4525 -0.2351 -0.4189
  512TMC3    C4 7659   2.046   1.377  12.946 -0.0390 -0.0954 -0.4727
  512TMC3    C5 7660   2.166   1.307  12.950  0.3906  0.5532 -0.4864
  512TMC3    C6 7661   2.247   1.309  13.059 -0.4985  0.4456 -0.4272
  512TMC3     C 7662   1.898   1.538  13.061 -0.2610  0.4704  0.7768
  512TMC3     O 7663   1.906   1.615  13.157  0.2046 -0.6326  0.6002
  512TMC3     H 7664   2.046   1.491  13.261 -1.7891  1.3840 -0.9464
  512TMC3    H1 7665   1.974   1.356  12.869 -1.0947 -2.8555  1.2659
  512TMC3    H2 7666   2.342   1.259  13.059 -1.1026 -0.7182 -1.6719
  512TMC3    C7 7667   2.216   1.245  12.827 -0.2793  0.0477 -0.1005
  512TMC3    C8 7668   2.303   1.438  13.263  1.0415  0.3127 -0.6424
  512TMC3    O1 7669   2.202   1.302  12.716  0.0823  0.1998  0.0792
  512TMC3    O2 7670   2.401   1.375  13.291  0.1451  0.5706 -0.4882
  513MPD2     C 7671   4.277   0.984  13.579  0.1693 -0.2424 -0.2715
  513MPD2    C1 7672   4.379   1.012  13.488  0.5714  0.2477  1.1679
  513MPD2    C2 7673   4.477   1.104  13.523  0.1799 -0.6157  0.4095
  513MPD2    C3 7674   4.481   1.171  13.645 -0.1249 -0.1968  0.5227
  513MPD2    C4 7675   4.380   1.137  13.738  0.6142  0.5072 -0.6224
  513MPD2    C5 7676   4.272   1.055  13.698  0.4775 -0.8426 -0.2901
  513MPD2     H 7677   4.554   1.110  13.446  0.5207  1.1450  0.8895
  513MPD2    H1 7678   4.371   1.191  13.831  1.2770 -1.2392  0.4581
  513MPD2    H2 7679   4.202   0.916  13.542 -0.5927  0.6701 -0.4075
  513MPD2    H3 7680   4.191   1.033  13.765 -1.0463  3.7374 -0.6389
  513MPD2     N 7681   4.588   1.255  13.676  0.0158  0.1698 -0.0280
  513MPD2    H5 7682   4.663   1.254  13.608  1.0558  0.6342  1.1044
  513MPD2    N1 7683   4.396   0.943  13.369  0.4901 -0.4040 -0.2237
  513MPD2    H7 7684   4.481   0.953  13.314 -0.0849  0.5376 -0.9399
  514TMC3    C1 7685   4.342   0.825  13.172 -0.3054  0.0568  0.4013
  514TMC3    C2 7686   4.262   0.868  13.069 -0.3260  0.5912  0.0129
  514TMC3    C3 7687   4.335   0.910  12.964 -0.7300  0.2747  0.1700
  514TMC3    C4 7688   4.469   0.792  13.161 -0.0675 -0.0700  0.1525
  514TMC3    C5 7689   4.541   0.845  13.063 -0.4197 -0.6057  0.1117
  514TMC3    C6 7690   4.474   0.904  12.958 -0.3718 -0.2770 -0.1170
  514TMC3     C 7691   4.302   0.870  13.307 -0.0122 -0.4060  0.6592
  514TMC3     O 7692   4.191   0.829  13.344  0.1616 -0.3153 -0.8567
  514TMC3     H 7693   4.160   0.904  13.081 -0.7557 -0.9772  1.1051
  514TMC3    H1 7694   4.524   0.766  13.251 -0.9794  0.8493  0.9780
  514TMC3    H2 7695   4.521   0.927  12.863  1.3899 -1.3511  0.4917
  514TMC3    C7 7696   4.636   0.933  13.120 -0.0244 -0.1046  0.4531
  514TMC3    C8 7697   4.274   0.983  12.863 -0.0157 -0.4031  0.0840
  514TMC3    O1 7698   4.593   1.036  13.172  0.1794 -0.2200 -0.0255
  514TMC3    O2 7699   4.154   0.956  12.860  0.1914 -0.6587  0.2356
  515MPD2     C 7700   2.592   3.184  14.938 -0.3999 -0.0917  0.3914
  515MPD2    C1 7701   2.598   3.208  14.805 -0.4815 -0.3135 -0.1810
  515MPD2    C2 7702   2.667   3.319  14.756  0.9286  0.2085 -0.4192
  515MPD2    C3 7703   2.763   3.383  14.836 -0.1026  0.6564  0.2254
  515MPD2    C4 7704   2.768   3.348  14.970 -0.1102  0.3570 -0.2798
  515MPD2    C5 7705   2.677   3.254  15.020 -0.2749 -0.2060 -0.0873
  515MPD2     H 7706   2.649   3.336  14.651  0.3406 -0.5432 -0.4426
  515MPD2    H1 7707   2.841   3.391  15.037 -0.3250 -2.8265  1.9950
  515MPD2    H2 7708   2.532   3.103  14.978 -1.3254 -0.3228 -1.4648
  515MPD2    H3 7709   2.693   3.216  15.120 -1.0878 -0.1395  0.0730
  515MPD2     N 7710   2.850   3.487  14.794  0.1775 -0.1209  0.3870
  515MPD2    H5 7711   2.912   3.539  14.854  0.1923  1.8994 -1.3816
  515MPD2    N1 7712   2.531   3.122  14.710 -0.7164  0.3139  0.3509
  515MPD2    H7 7713   2.547   3.151  14.614  2.3411  1.0478  1.1057
  516TMC3    C1 7714   2.433   2.928  14.622 -0.0237 -0.1368 -0.4996
  516TMC3    C2 7715   2.339   2.994  14.540  0.0187 -0.0015  0.7361
  516TMC3    C3 7716   2.234   2.918  14.498 -0.8371  0.8875 -0.3224
  516TMC3    C4 7717   2.440   2.791  14.628 -0.6807 -0.6510  0.1501
  516TMC3    C5 7718   2.331   2.722  14.587 -0.1832  0.3629  0.6698
  516TMC3    C6 7719   2.236   2.785  14.512 -0.0915 -0.1484 -0.2445
  516TMC3     C 7720   2.501   2.990  14.734  0.5098  0.0319 -0.1527
  516TMC3     O 7721   2.539   2.921  14.829 -0.1792 -0.3922  0.1339
  516TMC3     H 7722   2.325   3.101  14.546 -1.6337 -0.2314  0.8855
  516TMC3    H1 7723   2.515   2.744  14.691  1.1831 -3.3596 -4.0320
  516TMC3    H2 7724   2.150   2.734  14.471 -1.0836  0.2200  1.3913
  516TMC3    C7 7725   2.300   2.594  14.650  0.0124  0.0067  0.2782
  516TMC3    C8 7726   2.108   2.984  14.470  0.2211 -1.1262 -0.2978
  516TMC3    O1 7727   2.364   2.567  14.750 -0.1343  0.4071  0.3190
  516TMC3    O2 7728   2.011   2.911  14.478  0.0943  0.0513  0.2752
  517MPD2     C 7729   2.353   4.455  17.516  0.0518 -0.5905 -0.0335
  517MPD2    C1 7730   2.464   4.501  17.584  0.5881 -0.4304 -0.1649
  517MPD2    C2 7731   2.466   4.631  17.626  0.0751  0.0308  0.2672
  517MPD2    C3 7732   2.362   4.718  17.584 -0.3579 -0.6227  0.1379
  517MPD2    C4 7733   2.247   4.666  17.530 -0.3777 -0.0059  0.7925
  517MPD2    C5 7734   2.241   4.534  17.495  0.3288  0.1789 -0.1457
  517MPD2     H 7735   2.545   4.678  17.684  0.2269 -0.2376  0.2772
  517MPD2    H1 7736   2.153   4.719  17.521 -0.5372 -0.0272  2.2548
  517MPD2    H2 7737   2.368   4.358  17.470 -1.0868 -0.3134 -0.9919
  517MPD2    H3 7738   2.149   4.501  17.448 -0.6815  1.7187  0.7643
  517MPD2     N 7739   2.346   0.115  17.626  0.1852 -0.1215 -0.7583
  517MPD2    H5 7740   2.256   0.159  17.612 -0.5634 -1.5240 -0.3392
  517MPD2    N1 7741   2.574   4.422  17.606  0.5437  0.4516 -0.2650
  517MPD2    H7 7742   2.651   4.454  17.664  1.1488  0.5391 -1.1147
  518TMC3    C1 7743   2.689   4.232  17.652 -0.8313 -0.0673 -0.3348
  518TMC3    C2 7744   2.681   4.102  17.704 -1.2261  0.2106  0.4773
  518TMC3    C3 7745   2.800   4.031  17.709 -0.2358 -0.9380  0.1575
  518TMC3    C4 7746   2.804   4.284  17.602  0.1663 -0.5768  0.3717
  518TMC3    C5 7747   2.915   4.204  17.615  0.4130  0.9248 -0.1675
  518TMC3    C6 7748   2.919   4.082  17.671 -0.3924  0.3376  0.8050
  518TMC3     C 7749   2.563   4.286  17.605 -0.4398  0.4684  0.3382
  518TMC3     O 7750   2.459   4.222  17.611 -0.1773 -0.4581 -0.4747
  518TMC3     H 7751   2.583   4.056  17.711  0.0993 -2.7977 -0.7093
  518TMC3    H1 7752   2.810   4.376  17.545 -0.0712  0.2515  1.6678
  518TMC3    H2 7753   3.007   4.024  17.697 -1.6379  0.3811  5.2348
  518TMC3    C7 7754   3.025   4.242  17.532  0.0211  0.1871  0.1155
  518TMC3    C8 7755   2.797   3.888  17.707 -0.2160 -0.4470 -0.2125
  518TMC3    O1 7756   3.048   4.363  17.516  0.0095 -0.3196  0.5292
  518TMC3    O2 7757   2.870   3.832  17.628 -0.2951  0.4302  0.5572
  519MPD2     C 7758   3.870   3.064  14.345 -0.0827 -0.4864  0.6173
  519MPD2    C1 7759   3.906   3.066  14.212 -0.3919 -0.1868  0.2469
  519MPD2    C2 7760   3.971   2.959  14.141 -0.0187 -0.6483 -0.5590
  519MPD2    C3 7761   4.000   2.841  14.210 -0.2727 -0.6330 -0.2313
  519MPD2    C4 7762   3.972   2.847  14.344 -0.7126 -0.0387 -0.1653
  519MPD2    C5 7763   3.908   2.947  14.403 -0.4430  0.6995  0.0348
  519MPD2     H 7764   3.977   2.968  14.033 -0.3354  1.7683 -0.3599
  519MPD2    H1 7765   3.993   2.761  14.407  0.1372  1.4009  1.5170
  519MPD2    H2 7766   3.831   3.147  14.404  3.2953  0.3305  1.6718
  519MPD2    H3 7767   3.895   2.941  14.510 -2.4927 -3.7532 -0.4531
  519MPD2     N 7768   4.048   2.725  14.149  0.0640 -0.4116  0.3841
  519MPD2    H5 7769   4.086   2.657  14.214  2.5465  1.9935  1.4774
  519MPD2    N1 7770   3.861   3.176  14.138 -0.5380 -0.2872 -0.0042
  519MPD2    H7 7771   3.777   3.217  14.178  1.4685  1.7088  2.2194
  520TMC3    C1 7772   4.088   2.568  13.974 -1.1176 -0.0844  0.5585
  520TMC3    C2 7773   4.037   2.527  13.848 -0.0008  0.0997  0.0462
  520TMC3    C3 7774   4.112   2.442  13.776 -0.0403 -0.6673 -0.0541
  520TMC3    C4 7775   4.203   2.521  14.028 -0.5306  0.3557  0.2182
  520TMC3    C5 7776   4.277   2.437  13.952  0.0050  0.3619 -0.0840
  520TMC3    C6 7777   4.237   2.399  13.824 -0.4785  0.2423 -0.7022
  520TMC3     C 7778   4.038   2.700  14.014 -0.3926 -0.5920  0.2235
  520TMC3     O 7779   3.979   2.767  13.933 -0.5784  0.2719  0.0320
  520TMC3     H 7780   3.937   2.563  13.826  0.3600  0.2105 -1.3833
  520TMC3    H1 7781   4.243   2.548  14.126  0.9590  1.0084 -0.5649
  520TMC3    H2 7782   4.300   2.335  13.762  1.4200  0.4090  1.0623
  520TMC3    C7 7783   4.399   2.385  14.010 -0.7458 -0.9836  0.0458
  520TMC3    C8 7784   4.077   2.416  13.639  0.5850 -0.2510  0.1082
  520TMC3    O1 7785   4.438   2.426  14.122  0.0973 -0.2330  0.1296
  520TMC3    O2 7786   4.166   2.372  13.564  0.0933 -0.1687  0.8442
  521MPD2     C 7787   4.544   0.278  17.272 -0.0157  0.0018 -0.1360
  521MPD2    C1 7788   4.552   0.361  17.164 -0.1980  0.2129  0.3851
  521MPD2    C2 7789   4.661   0.338  17.072  0.3466  0.1838 -0.1059
  521MPD2    C3 7790   0.018   0.240  17.093  0.2802 -0.1286  0.3676
  521MPD2    C4 7791   0.010   0.168  17.206 -0.3058  0.2057 -0.4965
  521MPD2    C5 7792   4.644   0.189  17.298 -0.4019  0.0049  0.4055
  521MPD2     H 7793   4.663   0.390  16.977 -0.3314  0.6050  0.1107
  521MPD2    H1 7794   0.081   0.090  17.231  0.6214  1.6727  1.4926
  521MPD2    H2 7795   4.479   0.293  17.357  0.9417  3.6419 -0.0624
  521MPD2    H3 7796   4.652   0.138  17.394 -1.5340  0.3927  0.7012
  521MPD2     N 7797   0.115   0.225  16.992  0.3687  0.6148  0.2738
  521MPD2    H5 7798   0.108   0.292  16.916 -0.3231 -0.9273 -1.0543
  521MPD2    N1 7799   4.449   0.457  17.147 -0.1231  0.4046 -0.5338
  521MPD2    H7 7800   4.386   0.457  17.226  0.7675 -0.4239  0.1793
  522TMC3    C1 7801   0.325   0.150  16.894  0.8927 -1.0675 -0.9021
  522TMC3    C2 7802   0.430   0.064  16.897  0.2208  0.2699 -0.4456
  522TMC3    C3 7803   0.529   0.070  16.810  0.2287 -0.2589 -0.2527
  522TMC3    C4 7804   0.325   0.255  16.806  0.0929 -0.2039 -0.6905
  522TMC3    C5 7805   0.425   0.256  16.715 -0.7564  0.2580 -0.1231
  522TMC3    C6 7806   0.532   0.166  16.718 -0.3182  0.3473 -0.2659
  522TMC3     C 7807   0.219   0.130  16.996  0.0380  0.2066 -0.7729
  522TMC3     O 7808   0.243   0.045  17.078 -0.7167  0.1812  0.0589
  522TMC3     H 7809   0.435   4.723  16.970 -0.3565  1.0258  0.4185
  522TMC3    H1 7810   0.256   0.337  16.818 -1.8737 -2.3147  2.5622
  522TMC3    H2 7811   0.612   0.174  16.646  0.7625 -1.4181  0.7290
  522TMC3    C7 7812   0.425   0.368  16.622 -0.3143 -0.0376  0.3807
  522TMC3    C8 7813   0.640   4.713  16.820 -0.4639 -0.2318  0.0519
  522TMC3    O1 7814   0.544   0.394  16.595 -0.6198 -0.2243 -0.1349
  522TMC3    O2 7815   0.631   4.634  16.916 -0.1087  0.5444  0.3283
  523MPD2     C 7816   2.759   1.164  10.131 -0.6663 -0.5267  0.1329
  523MPD2    C1 7817   2.649   1.084  10.142 -0.0997  0.0296  0.2423
  523MPD2    C2 7818   2.526   1.143  10.147  0.3056 -0.0615  0.4597
  523MPD2    C3 7819   2.512   1.281  10.137  0.0560  0.1843  0.0457
  523MPD2    C4 7820   2.623   1.359  10.114 -0.1613  0.1658 -0.5623
  523MPD2    C5 7821   2.747   1.296  10.113 -0.7381 -0.7067 -0.3976
  523MPD2     H 7822   2.439   1.078  10.150 -0.5538  0.9757 -1.7252
  523MPD2    H1 7823   2.612   1.464  10.089  0.5289  0.5402  0.6956
  523MPD2    H2 7824   2.861   1.128  10.120  0.5039  2.3157  1.6538
  523MPD2    H3 7825   2.833   1.361  10.106  0.2134 -2.1990 -2.2563
  523MPD2     N 7826   2.387   1.346  10.144  0.2888 -0.1271 -0.2950
  523MPD2    H5 7827   2.397   1.447  10.147 -0.8700 -0.0360  0.7671
  523MPD2    N1 7828   2.667   0.939  10.150 -0.2585  0.0042 -0.0962
  523MPD2    H7 7829   2.762   0.903  10.142  0.0823  1.6006 -3.0963
  524TMC3    C1 7830   2.158   1.367  10.139  1.0110  1.0633 -0.8194
  524TMC3    C2 7831   2.031   1.318  10.157  0.9370 -0.0599 -0.2460
  524TMC3    C3 7832   1.929   1.368  10.087 -0.1939  0.0942  0.2515
  524TMC3    C4 7833   2.173   1.486  10.065  0.3051  1.2714  0.0668
  524TMC3    C5 7834   2.055   1.548  10.012  0.7378 -0.5319 -0.2512
  524TMC3    C6 7835   1.928   1.490  10.023 -0.7427  0.0584  0.7324
  524TMC3     C 7836   2.268   1.279  10.141  0.2544  0.9661 -0.3923
  524TMC3     O 7837   2.247   1.159  10.125 -0.2422  0.4944 -0.0848
  524TMC3     H 7838   2.021   1.216  10.192 -1.2099  0.7178  1.3698
  524TMC3    H1 7839   2.267   1.539  10.058  0.1447  1.4420 -0.7580
  524TMC3    H2 7840   1.835   1.539   9.996 -0.0220  2.2180  2.2126
  524TMC3    C7 7841   2.066   1.695   9.984 -0.0264  0.1891 -0.3567
  524TMC3    C8 7842   1.822   1.282  10.053  0.1761  0.6717 -0.4870
  524TMC3    O1 7843   2.149   1.758  10.049 -0.7321 -0.4866  0.5722
  524TMC3    O2 7844   1.811   1.184  10.129 -0.2285 -0.0931  0.9684
  525MPD2     C 7845   0.688   2.328  14.717 -0.3893  0.0710  0.1734
  525MPD2    C1 7846   0.788   2.297  14.810 -0.3758 -0.3998 -0.2856
  525MPD2    C2 7847   0.918   2.345  14.789 -0.9992  0.3462  0.1445
  525MPD2    C3 7848   0.948   2.421  14.677  0.5733 -0.4358  0.5894
  525MPD2    C4 7849   0.844   2.450  14.587 -0.5097  0.5356 -1.0293
  525MPD2    C5 7850   0.721   2.402  14.608 -0.1588  0.8589 -0.0713
  525MPD2     H 7851   0.992   2.329  14.866 -1.2470 -0.7219  0.1522
  525MPD2    H1 7852   0.874   2.500  14.496  0.0430  0.0347 -1.1277
  525MPD2    H2 7853   0.584   2.302  14.731 -0.6518  1.6232  1.0877
  525MPD2    H3 7854   0.638   2.429  14.543  0.7131  3.3278 -0.1676
  525MPD2     N 7855   1.065   2.490  14.653  0.0746  0.4861 -0.0648
  525MPD2    H5 7856   1.052   2.575  14.598 -1.2597 -0.0685 -0.6183
  525MPD2    N1 7857   0.763   2.233  14.937 -0.1293 -0.8130 -0.1506
  525MPD2    H7 7858   0.843   2.217  14.998 -0.4804  0.6568  0.6881
  526TMC3    C1 7859   0.656   2.096  15.099  0.0678  0.3322  0.3592
  526TMC3    C2 7860   0.544   2.087  15.175  0.1292  0.4423 -0.1697
  526TMC3    C3 7861   0.565   2.056  15.309  0.8894  0.0488  0.1503
  526TMC3    C4 7862   0.779   2.048  15.137  0.1372 -0.3657 -0.0630
  526TMC3    C5 7863   0.792   1.995  15.268  0.7607  0.0493 -0.5818
  526TMC3    C6 7864   0.685   2.012  15.358 -0.5302  0.4864  0.1796
  526TMC3     C 7865   0.643   2.175  14.974  0.8076 -0.0610  0.4334
  526TMC3     O 7866   0.536   2.179  14.918  0.0788  0.5125  0.1875
  526TMC3     H 7867   0.452   2.130  15.138  0.0838  0.0917 -0.4700
  526TMC3    H1 7868   0.861   2.040  15.066 -0.1013  1.8842 -0.5947
  526TMC3    H2 7869   0.694   1.980  15.462 -0.5443 -2.8314 -0.8169
  526TMC3    C7 7870   0.921   1.950  15.312  0.0817  0.3492  0.3073
  526TMC3    C8 7871   0.494   2.142  15.396  0.3023 -0.0946 -0.6870
  526TMC3    O1 7872   0.934   1.908  15.428 -0.3954 -0.4185  0.1588
  526TMC3    O2 7873   0.564   2.235  15.441  0.6313  0.0520 -0.9441
  527MPD2     C 7874   2.583   4.136   1.160 -0.2559  0.3494 -0.0802
  527MPD2    C1 7875   2.636   4.238   1.091 -0.9043 -0.1879 -0.4992
  527MPD2    C2 7876   2.777   4.228   1.057  0.0277  0.3336 -0.6473
  527MPD2    C3 7877   2.847   4.113   1.084 -0.2768 -0.1229  0.0723
  527MPD2    C4 7878   2.790   4.015   1.157 -0.1908  0.2845  0.4154
  527MPD2    C5 7879   2.652   4.025   1.190  0.7430  0.5854 -0.4605
  527MPD2     H 7880   2.816   4.305   0.991 -0.6106  1.8807  0.7908
  527MPD2    H1 7881   2.834   3.922   1.191  0.9237 -0.2262 -2.3880
  527MPD2    H2 7882   2.478   4.138   1.189 -0.5758  0.6100 -1.2612
  527MPD2    H3 7883   2.605   3.942   1.240  1.8538  0.3303  0.1525
  527MPD2     N 7884   2.977   4.115   1.035  0.1767 -0.1353  0.5395
  527MPD2    H5 7885   3.012   4.193   0.980  0.5476 -0.5120  0.2482
  527MPD2    N1 7886   2.564   4.347   1.047 -0.2193  0.0011 -0.8341
  527MPD2    H7 7887   2.613   4.410   0.983 -0.9249 -0.6760 -2.0305
  528TMC3    C1 7888   2.377   4.458   0.988  0.0398  0.1452 -0.0168
  528TMC3    C2 7889   2.428   4.455   0.861 -0.2838  0.8387  0.7833
  528TMC3    C3 7890   2.387   4.560   0.775  0.4028 -0.4793 -0.5100
  528TMC3    C4 7891   2.274   4.541   1.031  0.7618  0.2397 -1.0045
  528TMC3    C5 7892   2.243   4.643   0.943 -0.9620  0.2105  0.4533
  528TMC3    C6 7893   2.305   4.663   0.820 -0.6280 -0.2305  0.0112
  528TMC3     C 7894   2.430   4.366   1.075 -0.6307 -0.6892 -0.5400
  528TMC3     O 7895   2.366   4.343   1.175  0.2142  0.4475  0.8387
  528TMC3     H 7896   2.505   4.386   0.827 -2.3452 -0.5288 -1.0676
  528TMC3    H1 7897   2.220   4.538   1.125  2.8833 -1.0727  0.1557
  528TMC3    H2 7898   2.271   4.730   0.742 -1.5637 -1.7614 -0.9029
  528TMC3    C7 7899   2.163   0.018   0.984 -0.0701 -0.6186  0.0914
  528TMC3    C8 7900   2.451   4.574   0.648  0.0644  0.2823 -0.7549
  528TMC3    O1 7901   2.079   0.003   1.074 -0.1348 -1.0701 -0.2262
  528TMC3    O2 7902   2.506   4.685   0.637  0.0239  0.0277 -0.1748
  529MPD2     C 7903   0.640   3.302   0.220  0.7951  0.2055  0.1800
  529MPD2    C1 7904   0.573   3.313   0.345  0.0966  0.2169 -0.1903
  529MPD2    C2 7905   0.496   3.425   0.364  0.0377 -0.3740  0.6482
  529MPD2    C3 7906   0.492   3.525   0.265  0.1510 -0.3815 -0.0138
  529MPD2    C4 7907   0.557   3.505   0.143  0.2529  0.0951 -0.7932
  529MPD2    C5 7908   0.624   3.392   0.115  0.6273 -0.0917  0.0383
  529MPD2     H 7909   0.449   3.434   0.462 -2.4259  1.2001 -0.6895
  529MPD2    H1 7910   0.558   3.584   0.069  0.4273  0.8298  0.0001
  529MPD2    H2 7911   0.705   3.217   0.202  0.0234  0.3380 -3.1284
  529MPD2    H3 7912   0.681   3.381   0.023  1.4252  2.3196  0.2696
  529MPD2     N 7913   0.441   3.653   0.297  0.0672  0.5968 -0.0778
  529MPD2    H5 7914   0.460   3.732   0.235  2.7438  3.0056  3.7734
  529MPD2    N1 7915   0.597   3.223   0.449  0.1774 -0.9355  0.2021
  529MPD2    H7 7916   0.566   3.236   0.545  1.1348  0.8127  0.2694
  530TMC3    C1 7917   0.685   3.036   0.564  0.0929  0.1990 -0.3664
  530TMC3    C2 7918   0.749   3.111   0.661 -0.4162  0.1206 -0.1410
  530TMC3    C3 7919   0.814   3.041   0.755 -0.0557 -0.1276  0.1120
  530TMC3    C4 7920   0.704   2.900   0.555  0.6397 -0.0284 -0.2482
  530TMC3    C5 7921   0.765   2.839   0.656  0.4156 -0.2258  0.3914
  530TMC3    C6 7922   0.822   2.905   0.754 -0.3561  0.9307 -0.5598
  530TMC3     C 7923   0.653   3.098   0.430 -0.4123 -0.0909  0.1623
  530TMC3     O 7924   0.657   3.025   0.330  0.4651  0.0550  0.0122
  530TMC3     H 7925   0.748   3.219   0.669  2.1328  0.2212 -1.1482
  530TMC3    H1 7926   0.656   2.846   0.474  1.0421 -2.9286  1.4714
  530TMC3    H2 7927   0.864   2.842   0.832  1.1411  2.0772 -0.4310
  530TMC3    C7 7928   0.811   2.715   0.618  0.4602  0.3596 -0.5663
  530TMC3    C8 7929   0.910   3.108   0.836 -0.2337 -0.4339  0.1992
  530TMC3    O1 7930   0.836   2.694   0.500  0.0505  0.0827 -0.1893
  530TMC3    O2 7931   0.881   3.216   0.885  0.0888  0.1658 -0.2446
  531MPD2     C 7932   0.342   0.981  13.353  0.2417  0.1720 -0.0958
  531MPD2    C1 7933   0.228   1.045  13.388  0.4237 -0.2819 -0.4914
  531MPD2    C2 7934   0.115   1.013  13.305 -0.0017 -0.4639  0.2589
  531MPD2    C3 7935   0.121   0.913  13.211 -0.2339 -0.6834 -0.6862
  531MPD2    C4 7936   0.234   0.835  13.196 -0.9247  0.2520 -0.2629
  531MPD2    C5 7937   0.344   0.879  13.261  0.0085  0.7568  0.6409
  531MPD2     H 7938   0.025   1.072  13.316  0.4584  0.6075 -1.7434
  531MPD2    H1 7939   0.231   0.748  13.132  0.9353  0.2474 -0.3493
  531MPD2    H2 7940   0.432   1.020  13.398 -0.0985  0.3230  0.4521
  531MPD2    H3 7941   0.441   0.843  13.229  1.1181  2.1678  2.4117
  531MPD2     N 7942   0.022   0.875  13.125 -0.6294  0.3095  0.3180
  531MPD2    H5 7943   0.046   0.800  13.061 -0.7330  0.1330  0.4890
  531MPD2    N1 7944   0.234   1.152  13.485  0.4031  0.2668  0.5411
  531MPD2    H7 7945   0.327   1.173  13.522  0.5660  1.4434 -0.5466
  532TMC3    C1 7946   0.172   1.315  13.639 -0.5116  0.3057 -1.0366
  532TMC3    C2 7947   0.056   1.383  13.669 -0.0821  0.6058  0.3216
  532TMC3    C3 7948   0.007   1.374  13.799  0.5709  0.7694  0.3077
  532TMC3    C4 7949   0.247   1.255  13.735 -0.1468  0.2002 -0.0897
  532TMC3    C5 7950   0.201   1.252  13.861 -0.2558  0.2595 -0.8463
  532TMC3    C6 7951   0.091   1.320  13.900  0.2222  0.6779  0.2229
  532TMC3     C 7952   0.138   1.236  13.518  0.4106  0.3983  0.1887
  532TMC3     O 7953   0.032   1.258  13.460 -0.4410  0.1766  0.3106
  532TMC3     H 7954   0.001   1.440  13.595  1.6941  0.8448 -0.8154
  532TMC3    H1 7955   0.344   1.209  13.719 -0.7224 -0.8001 -0.7701
  532TMC3    H2 7956   0.049   1.297  13.998 -1.7705  1.5794 -0.4175
  532TMC3    C7 7957   0.258   1.150  13.950 -0.1783  0.5145 -0.4026
  532TMC3    C8 7958   4.609   1.332  13.795 -0.6720 -0.1149  0.2322
  532TMC3    O1 7959   0.346   1.178  14.031  0.1544 -0.1837  0.4230
  532TMC3    O2 7960   4.541   1.341  13.897 -0.3812  0.4719 -0.0643
  533TMC3    C1 7961   1.277   2.579  14.698  0.3096 -0.1135  0.0439
  533TMC3    C2 7962   1.273   2.647  14.577 -0.1540 -0.8592  0.5073
  533TMC3    C3 7963   1.273   2.781  14.585 -0.3679  0.5871 -0.2479
  533TMC3    C4 7964   1.273   2.650  14.816 -0.5776 -0.1358 -0.3655
  533TMC3    C5 7965   1.264   2.780  14.818  0.0879  0.5334 -0.1656
  533TMC3    C6 7966   1.267   2.850  14.704  0.1687 -0.4247  0.1998
  533TMC3     C 7967   1.187   2.465  14.712  0.7185  0.1683 -0.0603
  533TMC3     O 7968   1.231   2.378  14.784  0.5302  0.3094  0.3144
  533TMC3     H 7969   1.282   2.588  14.487  0.9541  0.7284 -0.4268
  533TMC3    H1 7970   1.271   2.590  14.906  2.1678  0.0831 -0.1834
  533TMC3    H2 7971   1.273   2.958  14.707 -0.4528 -0.4103  0.8521
  533TMC3    C7 7972   1.145   2.805  14.892  0.2053  0.1242 -0.0136
  533TMC3    C8 7973   1.364   2.845  14.491 -0.0786 -0.1049 -0.4724
  533TMC3    O1 7974   1.072   2.710  14.906  0.5644  0.0308 -0.0066
  533TMC3    O2 7975   1.472   2.786  14.481  0.3258  0.0778 -0.1642
  534MPD2     C 7976   2.843   2.880   1.008  0.4238  0.5680 -0.1204
  534MPD2    C1 7977   2.780   2.960   1.106  0.4646 -0.1105  0.1876
  534MPD2    C2 7978   2.674   3.028   1.071  0.0365  0.1719  0.7590
  534MPD2    C3 7979   2.614   3.021   0.950 -0.4096  0.0273  0.0338
  534MPD2    C4 7980   2.670   2.942   0.846 -0.2819 -0.0660 -0.1192
  534MPD2    C5 7981   2.786   2.873   0.880  0.5202 -1.1735 -0.0266
  534MPD2     H 7982   2.633   3.091   1.149 -1.4855  0.1696 -0.0302
  534MPD2    H1 7983   2.621   2.924   0.751 -1.3851 -3.3641  1.0616
  534MPD2    H2 7984   2.931   2.825   1.037 -1.1754 -2.4676 -1.0214
  534MPD2    H3 7985   2.826   2.807   0.803  0.7610 -0.8751 -0.1593
  534MPD2     N 7986   2.508   3.111   0.917 -0.0082  0.1421 -0.4056
  534MPD2    H5 7987   2.475   3.109   0.822 -0.1531  0.7574 -0.3618
  534MPD2    N1 7988   2.824   2.976   1.237  0.4795  0.1466  0.3679
  534MPD2    H7 7989   2.772   3.046   1.288  1.7858  1.7779 -0.5228
  535TMC3    C1 7990   2.378   3.302   0.924  0.3815  0.6540  0.6478
  535TMC3    C2 7991   2.285   3.378   0.991 -0.1663 -0.2220  0.3954
  535TMC3    C3 7992   2.272   3.511   0.949  0.4477  0.6973  0.9145
  535TMC3    C4 7993   2.453   3.356   0.828 -0.1752  0.3386 -0.2298
  535TMC3    C5 7994   2.442   3.485   0.795 -0.2437  0.3922 -0.1438
  535TMC3    C6 7995   2.352   3.569   0.857  0.5466 -0.9075 -0.6925
  535TMC3     C 7996   2.442   3.198   0.999  0.1331  0.0877 -0.2465
  535TMC3     O 7997   2.437   3.204   1.122 -0.0814 -0.7423  0.4907
  535TMC3     H 7998   2.225   3.324   1.063 -3.1440 -1.2437 -2.8535
  535TMC3    H1 7999   2.517   3.295   0.765  0.4412  1.1149 -0.3513
  535TMC3    H2 8000   2.351   3.677   0.849 -1.7088 -0.9621 -1.1617
  535TMC3    C7 8001   2.535   3.535   0.693  0.5859  0.3347 -0.2870
  535TMC3    C8 8002   2.142   3.564   0.984 -0.8161 -0.0065 -0.6422
  535TMC3    O1 8003   2.621   3.457   0.648 -0.4073 -0.8288 -0.0481
  535TMC3    O2 8004   2.066   3.483   1.039  0.8108  0.2368 -0.8334
  536MPD2     C 8005   1.893   2.753  16.153  0.5873 -0.6553  0.2035
  536MPD2    C1 8006   2.002   2.678  16.122 -0.6171 -0.1411  0.0376
  536MPD2    C2 8007   2.082   2.727  16.017 -0.8843  0.9037  0.4248
  536MPD2    C3 8008   2.053   2.855  15.959  0.0234  0.8928 -0.2709
  536MPD2    C4 8009   1.938   2.924  15.999  0.6629  0.4266  0.4224
  536MPD2    C5 8010   1.860   2.868  16.092  0.2900 -0.2891 -0.9272
  536MPD2     H 8011   2.165   2.663  15.987 -1.5866 -0.6353  1.7251
  536MPD2    H1 8012   1.917   3.020  15.955 -1.7624 -0.5420 -0.5546
  536MPD2    H2 8013   1.826   2.722  16.232  1.1309  0.4067  1.0714
  536MPD2    H3 8014   1.774   2.926  16.124  1.1177 -0.2667  1.2521
  536MPD2     N 8015   2.133   2.918  15.868 -1.2205  0.1826 -0.1954
  536MPD2    H5 8016   2.096   3.010  15.846  1.4083  0.8145 -1.9496
  536MPD2    N1 8017   2.033   2.564  16.190  0.3994 -0.5049 -0.3963
  536MPD2    H7 8018   1.971   2.529  16.263 -0.8980 -0.8873 -1.6908
  537TMC3    C1 8019   2.164   2.426  16.324 -0.3118 -0.7607  0.4374
  537TMC3    C2 8020   2.283   2.431  16.399  0.0101 -1.0719 -0.5523
  537TMC3    C3 8021   2.317   2.334  16.482 -0.1137 -1.0014  0.0049
  537TMC3    C4 8022   2.088   2.312  16.326 -0.6216  0.1370  0.0545
  537TMC3    C5 8023   2.120   2.207  16.404 -0.0662  0.0354 -0.3035
  537TMC3    C6 8024   2.236   2.218  16.482  0.3453 -0.2194 -0.7461
  537TMC3     C 8025   2.155   2.524  16.217 -0.1329 -0.0195 -0.1229
  537TMC3     O 8026   2.266   2.560  16.179  0.3454 -0.5090 -0.5686
  537TMC3     H 8027   2.346   2.518  16.384  0.6273 -1.5026 -0.4395
  537TMC3    H1 8028   1.996   2.303  16.270 -0.0808 -5.5380  0.0600
  537TMC3    H2 8029   2.269   2.138  16.548 -1.0340 -0.0024  0.2152
  537TMC3    C7 8030   2.012   2.127  16.448  0.4806  0.4814  0.1512
  537TMC3    C8 8031   2.368   2.360  16.611  0.2890 -0.2328 -0.0012
  537TMC3    O1 8032   1.895   2.167  16.429 -0.0018  0.4633 -0.3105
  537TMC3    O2 8033   2.345   2.269  16.693 -0.0522 -0.3176  0.3096
  538TMC3    C1 8034   3.143   0.670  11.297  0.7255 -0.3340  0.2848
  538TMC3    C2 8035   3.275   0.660  11.262  0.0249 -0.3686  0.5793
  538TMC3    C3 8036   3.306   0.687  11.127  0.1087 -0.5488 -0.2485
  538TMC3    C4 8037   3.047   0.717  11.214 -0.5878 -0.7621  0.0762
  538TMC3    C5 8038   3.071   0.748  11.086 -0.4340 -0.7592 -0.1492
  538TMC3    C6 8039   3.204   0.729  11.041 -0.0952  0.3087 -0.0241
  538TMC3     C 8040   3.097   0.608  11.419  0.1163  1.0223  0.3820
  538TMC3     O 8041   2.980   0.580  11.427 -0.3345 -0.3181  0.5107
  538TMC3     H 8042   3.347   0.612  11.328 -0.6887 -0.3769  1.3509
  538TMC3    H1 8043   2.948   0.708  11.256 -1.0099 -1.7575 -1.1440
  538TMC3    H2 8044   3.232   0.759  10.940  2.1873  0.6390  0.7125
  538TMC3    C7 8045   2.961   0.792  11.007  0.9723  0.1880 -0.1774
  538TMC3    C8 8046   3.440   0.668  11.074 -0.1872  0.3073  0.6963
  538TMC3    O1 8047   2.850   0.806  11.053 -0.1443 -0.1477  0.2348
  538TMC3    O2 8048   3.509   0.579  11.122 -0.5131 -0.5698  0.4003
  539MPD2     C 8049   2.591   4.402  11.675  0.1386  0.1365  0.9460
  539MPD2    C1 8050   2.567   4.422  11.541 -0.3001  0.7814 -0.5502
  539MPD2    C2 8051   2.504   4.532  11.503  0.4788 -0.2538 -0.3718
  539MPD2    C3 8052   2.457   4.625  11.593  0.2616 -0.3087  0.1464
  539MPD2    C4 8053   2.479   4.600  11.731 -0.0944 -0.0630 -0.2802
  539MPD2    C5 8054   2.534   4.484  11.768  0.6668  0.7045 -0.7443
  539MPD2     H 8055   2.484   4.549  11.398  1.1398  1.7672 -0.1804
  539MPD2    H1 8056   2.428   4.657  11.808  4.2469  1.6769  1.2881
  539MPD2    H2 8057   2.632   4.310  11.715 -0.0482 -0.5738 -0.5275
  539MPD2    H3 8058   2.536   4.455  11.872  0.1444  0.2416 -0.8665
  539MPD2     N 8059   2.380   0.004  11.559  0.2120 -0.3644 -0.0103
  539MPD2    H5 8060   2.359   0.069  11.634  0.3306 -0.1327 -0.1818
  539MPD2    N1 8061   2.622   4.335  11.434 -0.0262  0.4552  0.6760
  539MPD2    H7 8062   2.633   4.374  11.341  1.0193 -1.7178 -0.1136
  540TMC3    C1 8063   2.280   0.176  11.419 -0.3597  0.5602  0.2269
  540TMC3    C2 8064   2.285   0.246  11.301  0.8234 -0.7084 -0.4851
  540TMC3    C3 8065   2.235   0.377  11.290 -0.1497  0.2705  0.3389
  540TMC3    C4 8066   2.238   0.237  11.531  1.0233 -0.0870 -0.6469
  540TMC3    C5 8067   2.192   0.367  11.521  0.6703  0.1878 -0.1462
  540TMC3    C6 8068   2.191   0.441  11.402  0.7160 -0.0879  0.6086
  540TMC3     C 8069   2.358   0.048  11.430  0.2874 -0.6507  0.7163
  540TMC3     O 8070   2.414   0.005  11.331  0.4882 -0.3465 -0.4421
  540TMC3     H 8071   2.315   0.185  11.216  1.6330  0.2961 -0.9260
  540TMC3    H1 8072   2.219   0.187  11.625  2.6973  0.3018 -0.0957
  540TMC3    H2 8073   2.157   0.543  11.387  0.1096 -0.0280  2.3742
  540TMC3    C7 8074   2.158   0.437  11.640 -0.1876 -0.6306  0.7272
  540TMC3    C8 8075   2.293   0.460  11.188 -0.0407 -0.2962  0.4785
  540TMC3    O1 8076   2.096   0.541  11.625 -0.4255  0.4374  0.4916
  540TMC3    O2 8077   2.311   0.580  11.205 -0.3193  0.1813  0.3649
  541MPD2     C 8078   1.395   1.314  13.260 -0.6677 -0.7444 -0.0354
  541MPD2    C1 8079   1.365   1.198  13.187  0.4635 -0.3556 -0.0414
  541MPD2    C2 8080   1.360   1.202  13.048  0.8357  0.7478  0.2997
  541MPD2    C3 8081   1.386   1.324  12.987 -0.0719  0.4419 -0.1398
  541MPD2    C4 8082   1.414   1.433  13.061 -0.1018 -0.0152  0.1356
  541MPD2    C5 8083   1.424   1.428  13.200  0.5282 -0.1262 -0.0681
  541MPD2     H 8084   1.339   1.112  12.991 -1.9061  3.1579 -2.5448
  541MPD2    H1 8085   1.435   1.528  13.015 -0.9221 -0.2848 -0.7763
  541MPD2    H2 8086   1.401   1.320  13.368 -0.9144  2.2493 -0.1647
  541MPD2    H3 8087   1.437   1.516  13.261  1.1783 -0.7737  0.7223
  541MPD2     N 8088   1.374   1.349  12.845  0.9091 -0.2863  0.3786
  541MPD2    H5 8089   1.369   1.444  12.808 -1.8861 -0.0790  1.2920
  541MPD2    N1 8090   1.344   1.072  13.247  0.3389 -0.4728 -0.6982
  541MPD2    H7 8091   1.334   0.992  13.186  3.1191  0.8127 -2.8790
  542TMC3    C1 8092   1.295   1.297  12.641  0.9842 -0.2562 -0.9828
  542TMC3    C2 8093   1.344   1.265  12.516 -0.3674 -0.1105 -0.3814
  542TMC3    C3 8094   1.284   1.323  12.406  0.1566  0.1270 -0.1463
  542TMC3    C4 8095   1.185   1.374  12.657  0.2584 -0.3202  0.1279
  542TMC3    C5 8096   1.126   1.425  12.548 -0.0772 -0.0864 -0.2777
  542TMC3    C6 8097   1.169   1.392  12.422 -0.3455 -0.8316 -0.0638
  542TMC3     C 8098   1.374   1.250  12.751 -0.2987  0.1653  0.2006
  542TMC3     O 8099   1.399   1.132  12.760  0.2573  0.1000  0.0705
  542TMC3     H 8100   1.442   1.219  12.508 -1.0203 -1.3638 -1.1235
  542TMC3    H1 8101   1.169   1.396  12.762 -0.1459  1.8093 -0.3794
  542TMC3    H2 8102   1.132   1.447  12.336  2.5406 -1.6292 -1.8131
  542TMC3    C7 8103   1.027   1.536  12.557  0.3660  1.0947  0.4860
  542TMC3    C8 8104   1.319   1.282  12.274  0.1669  0.2448 -0.6739
  542TMC3    O1 8105   1.004   1.586  12.452  0.0636 -0.7199  0.1602
  542TMC3    O2 8106   1.227   1.273  12.194 -0.2945  0.2942  0.2580
  543TMC3    C1 8107   0.568   2.932  16.532  0.0364  0.0955  0.9254
  543TMC3    C2 8108   0.635   2.858  16.634  0.2074 -0.5637  0.5537
  543TMC3    C3 8109   0.597   2.877  16.764 -0.1236  0.0924  0.2433
  543TMC3    C4 8110   0.484   3.036  16.569 -0.5027 -0.1102 -0.1000
  543TMC3    C5 8111   0.459   3.057  16.695 -0.2226  0.2413  0.4289
  543TMC3    C6 8112   0.502   2.971  16.793  0.4036  0.1138  0.1939
  543TMC3     C 8113   0.645   2.940  16.405  0.1424 -0.1346 -0.1176
  543TMC3     O 8114   0.737   2.860  16.396  0.5287 -0.1723 -0.6908
  543TMC3     H 8115   0.706   2.779  16.611 -0.4822 -0.8220 -0.6849
  543TMC3    H1 8116   0.444   3.087  16.482  0.0015 -0.8665 -0.7675
  543TMC3    H2 8117   0.456   2.982  16.891  0.1517  0.0551  0.0823
  543TMC3    C7 8118   0.355   3.149  16.728  1.0523  0.9509  0.7089
  543TMC3    C8 8119   0.635   2.773  16.860  0.3872 -0.1729 -0.1985
  543TMC3    O1 8120   0.315   3.148  16.846  0.2376  0.3454  0.1737
  543TMC3    O2 8121   0.694   2.680  16.808 -0.2641  0.0947  0.5350
  544MPD2     C 8122   0.611   2.521  17.301 -0.1302 -0.1977  0.2483
  544MPD2    C1 8123   0.665   2.482  17.181  0.2141 -0.6937  0.3293
  544MPD2    C2 8124   0.667   2.571  17.073  0.2519  0.5148  0.3547
  544MPD2    C3 8125   0.617   2.694  17.100 -0.3755  0.1555  0.5844
  544MPD2    C4 8126   0.563   2.735  17.220  0.2405 -0.3221 -0.1650
  544MPD2    C5 8127   0.556   2.645  17.318 -0.1849 -0.7502  0.3846
  544MPD2     H 8128   0.702   2.544  16.974  0.3601 -0.7901  0.7425
  544MPD2    H1 8129   0.520   2.834  17.230 -1.4160 -1.1633  0.8841
  544MPD2    H2 8130   0.604   2.443  17.376 -0.6508  0.6902  1.1224
  544MPD2    H3 8131   0.527   2.683  17.416  0.6420 -1.3633  0.8717
  544MPD2     N 8132   0.595   2.788  16.996  0.2286  0.0651 -0.9619
  544MPD2    H5 8133   0.546   2.873  17.021 -0.8972 -0.0632 -2.7435
  544MPD2    N1 8134   0.708   2.346  17.169 -0.0846  0.3816  0.0603
  544MPD2    H7 8135   0.696   2.293  17.255 -1.4988 -2.5418 -1.9086
  545TMC3    C1 8136   0.778   2.139  17.084 -0.5188 -0.2168 -0.3396
  545TMC3    C2 8137   0.866   2.077  17.000 -0.2481 -0.4728 -0.1712
  545TMC3    C3 8138   0.912   1.952  17.041  0.0894  0.8266  0.3375
  545TMC3    C4 8139   0.733   2.078  17.197 -0.1813 -0.3862 -0.1246
  545TMC3    C5 8140   0.794   1.972  17.245  0.8796  0.2483  0.6233
  545TMC3    C6 8141   0.887   1.899  17.167 -0.7319 -0.1663  0.4794
  545TMC3     C 8142   0.757   2.284  17.059  0.0744  0.5818 -0.1091
  545TMC3     O 8143   0.793   2.330  16.951  0.5656 -0.2458  0.0080
  545TMC3     H 8144   0.923   2.148  16.941 -2.5753  1.9395  0.4997
  545TMC3    H1 8145   0.643   2.119  17.242  0.4286 -0.9436  1.5962
  545TMC3    H2 8146   0.930   1.805  17.199  1.1042 -0.9631 -4.2098
  545TMC3    C7 8147   0.748   1.908  17.374 -0.6975  0.2296  0.6097
  545TMC3    C8 8148   0.981   1.858  16.946 -0.0241 -0.2367 -0.0923
  545TMC3    O1 8149   0.636   1.939  17.408 -0.0889 -0.0383  0.0071
  545TMC3    O2 8150   1.037   1.762  17.001  0.6528  0.6257 -0.1579
  546MPD2     C 8151   1.975   2.674  17.233 -0.4866  0.1531  0.5856
  546MPD2    C1 8152   2.065   2.704  17.127  0.1093 -0.8989  0.1954
  546MPD2    C2 8153   2.171   2.786  17.141 -0.2361  1.1340 -0.2743
  546MPD2    C3 8154   2.197   2.842  17.270  0.6016  0.1535  0.2509
  546MPD2    C4 8155   2.104   2.816  17.379 -0.0576  0.0323  0.4362
  546MPD2    C5 8156   1.997   2.737  17.357  0.2437  0.2852 -0.2808
  546MPD2     H 8157   2.235   2.795  17.054  2.2170 -2.4504  1.1898
  546MPD2    H1 8158   2.113   2.868  17.474  1.8202 -0.0911  0.3340
  546MPD2    H2 8159   1.890   2.612  17.210 -0.7722  1.5430 -2.1390
  546MPD2    H3 8160   1.921   2.726  17.434  0.5993  1.0254  0.1718
  546MPD2     N 8161   2.308   2.921  17.312 -0.2152 -0.2028  0.4868
  546MPD2    H5 8162   2.318   2.935  17.412  1.0379 -0.9170  0.4693
  546MPD2    N1 8163   2.037   2.640  17.011  0.3041 -0.0471  0.7989
  546MPD2    H7 8164   1.950   2.588  17.015 -0.2937  1.1320  3.0133
  547TMC3    C1 8165   2.035   2.586  16.781  0.2336 -0.0279 -0.3947
  547TMC3    C2 8166   1.939   2.641  16.702 -0.0182  0.3097  0.0319
  547TMC3    C3 8167   1.846   2.553  16.647 -0.3507 -0.2333  0.5639
  547TMC3    C4 8168   2.040   2.451  16.803 -0.2813 -0.4565 -0.5286
  547TMC3    C5 8169   1.958   2.371  16.733 -0.4682 -0.2814  0.4792
  547TMC3    C6 8170   1.858   2.416  16.655 -0.3853 -0.2195  0.2490
  547TMC3     C 8171   2.088   2.671  16.885 -0.1725  0.5257 -0.6265
  547TMC3     O 8172   2.133   2.778  16.847  0.3350 -0.0485  0.2727
  547TMC3     H 8173   1.912   2.743  16.724 -0.0549 -0.0164  1.4698
  547TMC3    H1 8174   2.103   2.410  16.880 -1.5207 -1.5814 -0.1132
  547TMC3    H2 8175   1.791   2.345  16.609 -2.0639  2.1256 -0.9176
  547TMC3    C7 8176   1.951   2.233  16.760 -1.2681 -0.2736 -0.0569
  547TMC3    C8 8177   1.743   2.619  16.571 -0.6024  1.0915 -0.1283
  547TMC3    O1 8178   1.843   2.176  16.736  0.1722  0.2110 -0.5656
  547TMC3    O2 8179   1.772   2.719  16.511  0.4634 -0.3291  0.1986
  548MPD2     C 8180   1.719   3.299  12.968  0.4888  0.1164 -0.2930
  548MPD2    C1 8181   1.656   3.203  12.895 -0.2340 -0.9573 -0.3562
  548MPD2    C2 8182   1.723   3.141  12.800  0.1664 -0.2749 -0.2621
  548MPD2    C3 8183   1.849   3.183  12.761 -0.6967 -0.1984 -0.4456
  548MPD2    C4 8184   1.908   3.280  12.832  0.0635 -0.2935 -0.2665
  548MPD2    C5 8185   1.848   3.339  12.938  0.2614 -0.0396  0.6396
  548MPD2     H 8186   1.666   3.075  12.735  2.4529  0.8387 -3.4021
  548MPD2    H1 8187   2.009   3.317  12.818 -0.6265  2.0114  0.8753
  548MPD2    H2 8188   1.662   3.344  13.048  1.8285  0.4106  0.5018
  548MPD2    H3 8189   1.898   3.421  12.989 -1.1800 -0.2556  2.4256
  548MPD2     N 8190   1.894   3.123  12.644 -0.3931  0.0673 -0.0403
  548MPD2    H5 8191   1.838   3.048  12.604  1.9107 -1.3613 -0.6575
  548MPD2    N1 8192   1.522   3.158  12.940  0.3766  0.6518 -0.6397
  548MPD2    H7 8193   1.483   3.206  13.020 -2.4003  0.8302 -2.0777
  549TMC3    C1 8194   1.315   3.042  12.919  0.0665 -0.2252  0.5124
  549TMC3    C2 8195   1.231   3.154  12.894  0.3605  0.7365 -0.0005
  549TMC3    C3 8196   1.098   3.137  12.871 -0.3049  0.1021  0.2290
  549TMC3    C4 8197   1.263   2.915  12.905  0.0622 -0.1304  0.3603
  549TMC3    C5 8198   1.126   2.901  12.881  0.7268 -0.1535 -0.3096
  549TMC3    C6 8199   1.043   3.013  12.867  0.3102  0.5543 -0.0846
  549TMC3     C 8200   1.459   3.045  12.895 -0.0045  0.2308 -0.3245
  549TMC3     O 8201   1.502   2.953  12.823  0.1812  0.3527 -0.2831
  549TMC3     H 8202   1.276   3.252  12.906 -0.0584  0.7783  1.1653
  549TMC3    H1 8203   1.322   2.824  12.907 -0.4363 -0.4696 -0.3430
  549TMC3    H2 8204   0.939   3.011  12.836  0.4898 -0.9864 -0.5895
  549TMC3    C7 8205   1.057   2.775  12.903  0.6376  0.2196  0.1918
  549TMC3    C8 8206   1.019   3.236  12.812 -1.1889  0.0635 -0.3664
  549TMC3    O1 8207   0.940   2.786  12.937 -0.3684 -0.2576 -0.2670
  549TMC3    O2 8208   0.896   3.232  12.814 -0.0991  0.3052  0.0445
  550TMC3    C1 8209   0.684   1.119  12.396 -0.3542 -0.2231  0.2531
  550TMC3    C2 8210   0.694   1.116  12.532 -0.2225 -0.2379 -0.0679
  550TMC3    C3 8211   0.722   1.225  12.603 -0.5230 -0.4954  0.4396
  550TMC3    C4 8212   0.701   1.235  12.321  0.0441 -0.1856  0.2372
  550TMC3    C5 8213   0.734   1.344  12.401 -0.2191 -0.6041  0.0039
  550TMC3    C6 8214   0.747   1.339  12.535 -0.6758  0.8006  0.4535
  550TMC3     C 8215   0.663   0.990  12.330  0.2785 -0.0505  0.6321
  550TMC3     O 8216   0.673   0.890  12.401 -0.4464 -0.2573  0.4598
  550TMC3     H 8217   0.687   1.018  12.578  0.4968 -0.3482 -0.1972
  550TMC3    H1 8218   0.707   1.239  12.213  1.7790 -0.8471  0.3057
  550TMC3    H2 8219   0.772   1.427  12.594  1.4928  0.5216 -0.0684
  550TMC3    C7 8220   0.651   1.451  12.365  0.0691  0.2133 -0.2215
  550TMC3    C8 8221   0.661   1.249  12.731 -0.5216 -0.3656  0.1442
  550TMC3    O1 8222   0.550   1.419  12.301  0.3769 -0.0797  0.0345
  550TMC3    O2 8223   0.649   1.363  12.765 -0.1835 -0.4112  0.0166
  551TMC3    C1 8224   2.943   3.707  13.386 -0.3250  0.5948 -0.4655
  551TMC3    C2 8225   3.054   3.657  13.326  0.2137 -0.0730 -0.4612
  551TMC3    C3 8226   3.177   3.696  13.377 -0.3544  0.2052 -0.8302
  551TMC3    C4 8227   2.950   3.798  13.487  0.0491  1.3316 -0.8990
  551TMC3    C5 8228   3.078   3.831  13.536 -0.1514  0.7827  0.4511
  551TMC3    C6 8229   3.194   3.786  13.480  0.1410 -0.0088 -0.1571
  551TMC3     C 8230   2.831   3.709  13.297 -0.4434  0.3779  0.1648
  551TMC3     O 8231   2.803   3.596  13.256  0.1869  0.3079  0.5665
  551TMC3     H 8232   3.054   3.589  13.241 -1.5839 -1.2586  0.4996
  551TMC3    H1 8233   2.863   3.846  13.531  0.2554  0.6277  0.2686
  551TMC3    H2 8234   3.287   3.828  13.515 -0.5476  0.2462  1.3284
  551TMC3    C7 8235   3.092   3.917  13.655  0.7892  0.1769  0.6016
  551TMC3    C8 8236   3.283   3.693  13.284  0.0843 -0.7164  0.0636
  551TMC3    O1 8237   3.183   3.888  13.732  0.3484  0.7147  0.0929
  551TMC3    O2 8238   3.329   3.588  13.238 -0.0161 -0.0083  0.7183
  552MPD2     C 8239   0.006   1.158  14.206 -0.4517 -0.0894  0.8350
  552MPD2    C1 8240   0.013   1.021  14.236  0.8949 -0.0075  0.9405
  552MPD2    C2 8241   0.120   0.984  14.312 -0.1571  0.6531  0.6278
  552MPD2    C3 8242   0.223   1.070  14.346 -0.5897  0.1161  0.3523
  552MPD2    C4 8243   0.219   1.202  14.305 -0.0435 -0.1958 -0.4115
  552MPD2    C5 8244   0.112   1.245  14.238  0.1535  0.1709  0.3267
  552MPD2     H 8245   0.129   0.880  14.341  0.4914  0.4951 -0.1537
  552MPD2    H1 8246   0.298   1.275  14.319 -0.4791  0.2916 -0.5122
  552MPD2    H2 8247   4.659   1.195  14.153 -0.6078 -1.1690  0.3432
  552MPD2    H3 8248   0.109   1.349  14.209 -1.3823 -0.2815 -1.0842
  552MPD2     N 8249   0.333   1.045  14.424  0.1208 -0.6844  0.6119
  552MPD2    H5 8250   0.392   1.122  14.455 -2.9143  1.6476  0.5537
  552MPD2    N1 8251   4.648   0.933  14.203  0.1838  0.0560 -0.3251
  552MPD2    H7 8252   4.666   0.836  14.226 -2.4913  0.0166  1.6980
  553TMC3    C1 8253   4.492   0.838  14.069 -0.5931  0.8864  0.4508
  553TMC3    C2 8254   4.471   0.845  13.935 -0.2099 -0.3166 -0.2231
  553TMC3    C3 8255   4.447   0.735  13.864 -0.7828  0.9401  0.0459
  553TMC3    C4 8256   4.501   0.726  14.135 -0.2014  0.1087 -0.2153
  553TMC3    C5 8257   4.477   0.609  14.060 -0.3519  0.2117  0.0938
  553TMC3    C6 8258   4.448   0.613  13.929 -0.4572  0.1494 -0.5019
  553TMC3     C 8259   4.535   0.956  14.127 -0.4487 -0.0212 -0.5199
  553TMC3     O 8260   4.499   1.060  14.082 -0.4610 -0.1976  0.4691
  553TMC3     H 8261   4.491   0.936  13.881  1.1154  0.2017  1.1382
  553TMC3    H1 8262   4.515   0.717  14.242 -0.0664  1.6059 -0.1102
  553TMC3    H2 8263   4.467   0.518  13.880 -2.5698 -0.6442  0.2169
  553TMC3    C7 8264   4.539   0.483  14.103 -0.2220  0.2331  0.5950
  553TMC3    C8 8265   4.526   0.726  13.751 -0.9180 -0.4033  0.3123
  553TMC3    O1 8266   4.484   0.377  14.073  0.2122  0.0206 -0.3050
  553TMC3    O2 8267   4.619   0.804  13.742  0.4642  0.3876  0.3665
  554TMC3    C1 8268   1.741   0.388  11.670 -0.4110  0.1442 -0.7286
  554TMC3    C2 8269   1.646   0.303  11.612 -0.1990 -0.1530  0.4138
  554TMC3    C3 8270   1.603   0.346  11.487 -1.2992 -0.3380  0.2757
  554TMC3    C4 8271   1.786   0.505  11.610 -0.0375 -0.8429 -0.3021
  554TMC3    C5 8272   1.729   0.544  11.493 -0.2985  0.7898 -0.5844
  554TMC3    C6 8273   1.645   0.457  11.427 -0.0604 -0.1406 -0.0812
  554TMC3     C 8274   1.806   0.349  11.791 -0.1785  0.5036  0.5490
  554TMC3     O 8275   1.805   0.429  11.883  0.4772  0.0183  0.0016
  554TMC3     H 8276   1.622   0.208  11.658 -0.5437  0.4729  1.5432
  554TMC3    H1 8277   1.861   0.575  11.644 -0.8683 -0.6596  1.1635
  554TMC3    H2 8278   1.612   0.478  11.327 -0.4864 -1.2533 -0.1715
  554TMC3    C7 8279   1.810   0.631  11.405  0.1838  0.1263  0.3129
  554TMC3    C8 8280   1.588   0.244  11.381  0.4812  0.2679  0.5982
  554TMC3    O1 8281   1.767   0.621  11.290 -0.1600  0.2133 -0.7389
  554TMC3    O2 8282   1.671   0.248  11.292  0.1287  1.0620  0.0934
  555TMC3    C1 8283   1.168   4.516  15.388  0.0574  0.4916  0.9164
  555TMC3    C2 8284   1.098   4.586  15.485 -0.0567  0.3138 -0.0159
  555TMC3    C3 8285   1.057   4.511  15.590  0.5258 -0.3652 -0.3125
  555TMC3    C4 8286   1.208   4.382  15.391 -0.8968  0.2787  0.1353
  555TMC3    C5 8287   1.165   4.315  15.498  0.0951  0.6019 -0.4095
  555TMC3    C6 8288   1.086   4.374  15.592 -0.4411  0.4990  0.3871
  555TMC3     C 8289   1.150   4.569  15.254 -0.1296 -0.3863  0.2103
  555TMC3     O 8290   1.181   4.687  15.239 -0.6018 -0.2481  0.1844
  555TMC3     H 8291   1.052   4.680  15.457  2.3770  1.3448 -0.4937
  555TMC3    H1 8292   1.264   4.342  15.308  0.2262  1.1415  0.4715
  555TMC3    H2 8293   1.060   4.316  15.680 -2.2058  0.6058 -0.0668
  555TMC3    C7 8294   1.173   4.171  15.499  1.2078 -0.2479  0.7035
  555TMC3    C8 8295   0.964   4.569  15.680 -0.0793  0.2986  0.1623
  555TMC3    O1 8296   1.104   4.104  15.578 -0.5584  0.0887  0.7908
  555TMC3    O2 8297   0.900   4.658  15.630 -0.1639  0.0142 -0.0982
  556MPD2     C 8298   3.390   1.877  10.561  0.6574 -0.5686 -0.2191
  556MPD2    C1 8299   3.470   1.784  10.633 -0.5895  0.6921  0.2958
  556MPD2    C2 8300   3.507   1.660  10.587  0.0311  0.4326  0.6668
  556MPD2    C3 8301   3.480   1.626  10.456 -0.0200  0.7261  0.5514
  556MPD2    C4 8302   3.410   1.722  10.378  0.7236 -0.5422 -0.2619
  556MPD2    C5 8303   3.357   1.836  10.436  0.3298 -0.4237  0.1223
  556MPD2     H 8304   3.558   1.590  10.651  2.9161 -0.3231 -2.4694
  556MPD2    H1 8305   3.393   1.709  10.272  0.2625 -1.5344 -0.0654
  556MPD2    H2 8306   3.345   1.967  10.602 -1.2236 -1.3274 -0.6242
  556MPD2    H3 8307   3.303   1.903  10.370  1.6963  0.3621 -0.1951
  556MPD2     N 8308   3.530   1.500  10.408 -0.1623 -0.2570 -0.2639
  556MPD2    H5 8309   3.585   1.448  10.475 -0.1059 -1.2388 -1.0600
  556MPD2    N1 8310   3.499   1.799  10.770  0.1087  0.1309  0.0271
  556MPD2    H7 8311   3.529   1.708  10.803 -0.5627  0.0577  0.4309
  557TMC3    C1 8312   3.513   1.299  10.306  0.9667 -0.6216 -0.5252
  557TMC3    C2 8313   3.480   1.224  10.197  0.4880 -0.1948 -0.2271
  557TMC3    C3 8314   3.502   1.089  10.200  0.4423  0.1282 -0.2482
  557TMC3    C4 8315   3.545   1.237  10.422  0.0231  0.2971  0.2520
  557TMC3    C5 8316   3.563   1.107  10.424 -0.6126 -0.5755 -0.2637
  557TMC3    C6 8317   3.543   1.027  10.317 -0.4635 -0.3871  0.2789
  557TMC3     C 8318   3.476   1.436  10.300  0.0512  0.1690 -0.8256
  557TMC3     O 8319   3.412   1.478  10.205 -0.4675  0.1872 -0.2201
  557TMC3     H 8320   3.446   1.270  10.105 -1.1926  0.6458  0.8124
  557TMC3    H1 8321   3.538   1.295  10.513 -1.4317  0.5199  0.0022
  557TMC3    H2 8322   3.521   0.922  10.325 -0.7847 -0.1231  2.9795
  557TMC3    C7 8323   3.574   1.048  10.555  0.2870 -0.2706 -0.5497
  557TMC3    C8 8324   3.433   1.018  10.094  0.2122 -0.0852 -0.2602
  557TMC3    O1 8325   3.537   1.118  10.644 -0.6375 -0.5124  0.0101
  557TMC3    O2 8326   3.348   1.076  10.036 -0.5585  0.2248 -0.5832
  558TMC3    C1 8327   1.439   3.703  10.389  1.1199 -0.1025 -0.3393
  558TMC3    C2 8328   1.324   3.721  10.463  0.5498 -0.0899 -0.1790
  558TMC3    C3 8329   1.203   3.704  10.403 -0.6932 -0.3616  1.1993
  558TMC3    C4 8330   1.441   3.667  10.253 -0.4134 -0.1632 -0.7391
  558TMC3    C5 8331   1.320   3.653  10.199  0.8369 -0.5965 -1.1055
  558TMC3    C6 8332   1.201   3.678  10.265  0.3433 -0.4723 -0.2813
  558TMC3     C 8333   1.565   3.698  10.456 -0.5155 -0.0176 -1.0453
  558TMC3     O 8334   1.666   3.705  10.388 -0.2563  0.3427 -0.2275
  558TMC3     H 8335   1.332   3.758  10.564  3.0134 -0.1817 -0.3439
  558TMC3    H1 8336   1.532   3.649  10.196 -0.7146  1.4662 -1.7246
  558TMC3    H2 8337   1.114   3.702  10.205 -0.0271 -0.9375  0.0726
  558TMC3    C7 8338   1.316   3.635  10.053  0.2432  0.1630  0.2604
  558TMC3    C8 8339   1.069   3.700  10.476  0.3756  0.3870  0.2555
  558TMC3    O1 8340   1.428   3.645  10.013  0.7213 -0.3580  0.1332
  558TMC3    O2 8341   0.973   3.660  10.419 -0.0049 -0.2747 -1.3700
  559MPD2     C 8342   1.276   4.033  10.224  0.2550 -0.1090 -0.4570
  559MPD2    C1 8343   1.248   4.056  10.354 -0.5880 -0.1870 -0.1311
  559MPD2    C2 8344   1.356   4.078  10.433 -0.0818 -0.3279  0.4339
  559MPD2    C3 8345   1.488   4.088  10.392 -0.5943  0.0885  0.0287
  559MPD2    C4 8346   1.510   4.065  10.261 -0.0560  0.0576 -0.6247
  559MPD2    C5 8347   1.403   4.038  10.178  0.5263  0.5332  0.1872
  559MPD2     H 8348   1.341   4.073  10.540 -0.3151  1.7535  0.4947
  559MPD2    H1 8349   1.610   4.084  10.225  0.2072 -3.0073 -1.4600
  559MPD2    H2 8350   1.202   4.010  10.148 -0.5802  0.1109  0.3008
  559MPD2    H3 8351   1.422   4.019  10.073 -2.1930 -0.2670 -0.1699
  559MPD2     N 8352   1.587   4.110  10.488  0.4224  0.1740 -0.1412
  559MPD2    H5 8353   1.555   4.125  10.583  0.2887 -1.0624  0.0134
  559MPD2    N1 8354   1.122   4.060  10.415 -0.1485 -0.2214 -0.2437
  559MPD2    H7 8355   1.122   4.082  10.514 -1.4648 -0.0842 -0.2699
  560TMC3    C1 8356   1.785   4.116  10.608 -0.2531 -0.2123 -0.5062
  560TMC3    C2 8357   1.720   4.048  10.705 -0.3077 -0.3079 -0.4888
  560TMC3    C3 8358   1.782   4.036  10.826 -0.5836 -0.1540 -0.3550
  560TMC3    C4 8359   1.900   4.189  10.632 -0.0095  0.0851  0.4477
  560TMC3    C5 8360   1.965   4.157  10.748  0.1438 -0.6963 -0.1713
  560TMC3    C6 8361   1.909   4.080  10.846  0.1679  0.9297  0.0769
  560TMC3     C 8362   1.720   4.123  10.475 -0.2862 -0.5224 -0.1274
  560TMC3     O 8363   1.795   4.124  10.376  0.2916 -0.9854  0.0244
  560TMC3     H 8364   1.619   4.008  10.702 -0.7422  0.7447  0.1257
  560TMC3    H1 8365   1.951   4.245  10.554 -2.7502 -0.1376 -1.4891
  560TMC3    H2 8366   1.959   4.071  10.941 -2.8319  3.5200  1.8822
  560TMC3    C7 8367   2.114   4.157  10.757 -0.8630 -0.2991 -0.4865
  560TMC3    C8 8368   1.695   3.986  10.937  0.6705  0.3328  0.5059
  560TMC3    O1 8369   2.162   4.047  10.775 -0.3736 -0.5761 -0.0280
  560TMC3    O2 8370   1.574   3.977  10.921 -0.3042  0.2513 -0.3578
  561TMC3    C1 8371   3.872   3.284  11.178  0.2134 -0.5510  0.3330
  561TMC3    C2 8372   3.780   3.227  11.260 -0.3629 -0.2260 -0.4801
  561TMC3    C3 8373   3.757   3.279  11.387 -0.2129 -0.2387  0.2065
  561TMC3    C4 8374   3.927   3.412  11.207  0.5522 -0.2518  0.3757
  561TMC3    C5 8375   3.890   3.464  11.332 -0.1351  0.1233 -0.1805
  561TMC3    C6 8376   3.816   3.400  11.427  0.3157 -0.0865 -0.0978
  561TMC3     C 8377   3.925   3.212  11.059 -0.0950  0.3117 -0.0090
  561TMC3     O 8378   3.868   3.114  11.010 -0.9142 -0.0016 -0.1410
  561TMC3     H 8379   3.748   3.128  11.229  0.6557 -0.3563 -1.1094
  561TMC3    H1 8380   4.009   3.454  11.149 -1.3115  1.8099 -0.7364
  561TMC3    H2 8381   3.783   3.460  11.511 -0.2191  1.2140 -1.2373
  561TMC3    C7 8382   3.942   3.597  11.373 -0.0561  0.7572  0.2666
  561TMC3    C8 8383   3.685   3.195  11.483 -0.0272  0.2248  0.9274
  561TMC3    O1 8384   3.922   3.630  11.490  0.2685  0.2274 -0.1861
  561TMC3    O2 8385   3.694   3.072  11.459  0.2254 -0.0490 -0.0705
  562TMC3    C1 8386   0.392   4.512  16.564 -0.2449 -0.0885  0.2434
  562TMC3    C2 8387   0.397   4.634  16.510  0.9386  0.2595  0.1321
  562TMC3    C3 8388   0.416   4.646  16.374  0.3638  0.5385 -0.7045
  562TMC3    C4 8389   0.425   4.398  16.494 -0.0669 -0.7880 -0.2628
  562TMC3    C5 8390   0.454   4.411  16.356  0.3725  0.3554  0.0540
  562TMC3    C6 8391   0.444   4.535  16.291 -0.2764  0.6790  0.0044
  562TMC3     C 8392   0.355   4.496  16.702  0.3506  0.6217  0.6297
  562TMC3     O 8393   0.306   4.596  16.755  0.3450  0.5255 -0.0157
  562TMC3     H 8394   0.383   4.724  16.567 -0.7624  0.1742 -0.1454
  562TMC3    H1 8395   0.413   4.298  16.535  3.0825 -2.1596 -2.6965
  562TMC3    H2 8396   0.467   4.549  16.186  1.4376  5.4049  1.0308
  562TMC3    C7 8397   0.470   4.303  16.267 -0.0595 -0.0563  0.3475
  562TMC3    C8 8398   0.416   0.047  16.325 -0.5423  1.1776 -0.7173
  562TMC3    O1 8399   0.428   4.320  16.153 -0.5679  0.1216  0.1979
  562TMC3    O2 8400   0.439   0.133  16.408 -0.1886 -0.1896  0.2319
  563MPD2     C 8401   2.921   0.957  15.677 -1.2893  0.0713 -0.4524
  563MPD2    C1 8402   2.977   0.986  15.803  0.4519 -0.0287  0.3267
  563MPD2    C2 8403   3.102   0.943  15.835  0.2968 -0.5714  0.2266
  563MPD2    C3 8404   3.176   0.878  15.742 -0.4494 -0.1112 -0.3474
  563MPD2    C4 8405   3.114   0.836  15.623 -0.1076  0.6459 -0.4233
  563MPD2    C5 8406   2.987   0.882  15.586  0.5172  0.6308 -0.7597
  563MPD2     H 8407   3.141   0.955  15.935  0.1482  0.1093  0.2063
  563MPD2    H1 8408   3.175   0.784  15.549  0.2569  1.3035 -0.5869
  563MPD2    H2 8409   2.820   0.984  15.648 -0.7994  0.0065 -2.1674
  563MPD2    H3 8410   2.942   0.852  15.492 -2.5099 -0.7934  1.1583
  563MPD2     N 8411   3.295   0.816  15.779  0.4287 -0.9203  0.0344
  563MPD2    H5 8412   3.327   0.846  15.871  0.3232 -2.3407  0.5435
  563MPD2    N1 8413   2.900   1.030  15.910  0.1144 -0.0313  0.1070
  563MPD2    H7 8414   2.945   1.038  16.000 -0.4176  1.3654  0.2425
  564TMC3    C1 8415   2.714   1.004  16.039  0.0695 -0.2031 -0.3912
  564TMC3    C2 8416   2.588   0.949  16.006  0.1322  0.2451  0.5111
  564TMC3    C3 8417   2.563   0.818  16.036 -0.1651 -0.3003  0.7718
  564TMC3    C4 8418   2.803   0.932  16.105  0.0940 -0.6266 -0.1514
  564TMC3    C5 8419   2.779   0.793  16.125  0.3252 -0.3686  1.1956
  564TMC3    C6 8420   2.663   0.737  16.082 -0.6348  0.3266  0.2246
  564TMC3     C 8421   2.767   1.050  15.913 -0.4707  0.7559 -0.2102
  564TMC3     O 8422   2.684   1.054  15.828  0.3251 -0.5212 -0.2426
  564TMC3     H 8423   2.516   1.017  15.964  0.4349  0.4158  0.2680
  564TMC3    H1 8424   2.891   0.985  16.139 -0.8677  0.0100  1.3907
  564TMC3    H2 8425   2.654   0.629  16.081 -0.1547  0.3085 -1.8949
  564TMC3    C7 8426   2.890   0.712  16.095 -0.2360  0.2268 -0.3393
  564TMC3    C8 8427   2.495   0.748  15.928  0.4953 -0.4768 -0.1256
  564TMC3    O1 8428   3.004   0.746  16.133  0.4424 -0.1335  0.6172
  564TMC3    O2 8429   2.468   0.633  15.959 -0.5694  0.4653 -0.0079
  565TMC3    C1 8430   3.005   2.263  10.052  0.0855  0.1689 -0.8556
  565TMC3    C2 8431   3.048   2.196  10.165 -0.6329 -0.3109  0.5475
  565TMC3    C3 8432   2.986   2.085  10.210 -0.4495 -0.0768  0.6736
  565TMC3    C4 8433   2.887   2.219   9.994 -0.1020 -0.3745  0.3129
  565TMC3    C5 8434   2.820   2.113  10.051  0.2322 -0.5234  0.3648
  565TMC3    C6 8435   2.874   2.034  10.148  0.7436 -0.1827 -0.3940
  565TMC3     C 8436   3.083   2.371   9.995 -0.5377  0.2396  0.1717
  565TMC3     O 8437   3.031   2.438   9.901  0.3535  0.6129 -0.2457
  565TMC3     H 8438   3.138   2.228  10.217  0.8976 -0.4109 -2.0408
  565TMC3    H1 8439   2.843   2.277   9.913  0.3635 -1.1504 -0.4890
  565TMC3    H2 8440   2.809   1.972  10.210  0.9057  0.3604  0.3106
  565TMC3    C7 8441   2.685   2.080  10.013 -0.3687 -0.3501 -0.2517
  565TMC3    C8 8442   3.017   2.047  10.345 -0.6343 -0.1010 -0.3903
  565TMC3    O1 8443   2.639   1.986  10.068 -0.1527 -0.7835  0.5754
  565TMC3    O2 8444   3.087   2.124  10.408 -0.1742  0.0073 -0.2750
  566MPD2     C 8445   1.123   3.846  14.110 -0.3046 -0.4153  0.0925
  566MPD2    C1 8446   1.048   3.950  14.068 -0.1746 -0.1564 -0.7619
  566MPD2    C2 8447   0.907   3.930  14.064 -0.8825  0.2688  0.2941
  566MPD2    C3 8448   0.848   3.814  14.103  0.2639 -0.1220 -0.9314
  566MPD2    C4 8449   0.927   3.707  14.144  0.3153 -0.4530 -0.0122
  566MPD2    C5 8450   1.066   3.720  14.141  0.0354 -0.5260  0.3440
  566MPD2     H 8451   0.847   4.014  14.032  0.0487  0.0962 -1.9625
  566MPD2    H1 8452   0.881   3.614  14.173  1.2934 -0.7447  0.5969
  566MPD2    H2 8453   1.231   3.844  14.116 -0.2302  0.7406 -0.9072
  566MPD2    H3 8454   1.128   3.633  14.157  1.1804  0.6304  2.1412
  566MPD2     N 8455   0.704   3.804  14.097  0.5661 -0.2240  0.3851
  566MPD2    H5 8456   0.669   3.712  14.120 -0.2796 -0.4909 -2.0322
  566MPD2    N1 8457   1.109   4.072  14.042  0.3422 -0.1514 -0.2578
  566MPD2    H7 8458   1.202   4.078  14.081 -0.9497  0.4702  2.7286
  567TMC3    C1 8459   1.130   4.309  13.990 -0.0001 -0.4682 -0.6581
  567TMC3    C2 8460   1.058   4.407  13.931 -0.4464  0.4307 -0.5759
  567TMC3    C3 8461   1.061   4.532  13.976 -0.1732 -0.5048  0.4815
  567TMC3    C4 8462   1.202   4.329  14.107 -0.8267 -0.4775  0.3775
  567TMC3    C5 8463   1.210   4.462  14.145 -0.0148  0.1962 -0.4782
  567TMC3    C6 8464   1.143   4.562  14.082  0.2375  0.1303 -0.4587
  567TMC3     C 8465   1.052   4.181  13.979  0.0009 -0.0188 -0.4125
  567TMC3     O 8466   0.940   4.187  13.925 -0.0511 -0.4384  0.2010
  567TMC3     H 8467   0.992   4.389  13.847 -1.8317 -1.7646  0.9691
  567TMC3    H1 8468   1.227   4.251  14.178  1.8144  0.3472  0.3406
  567TMC3    H2 8469   1.132   4.655  14.136  1.3454  0.2020 -0.3400
  567TMC3    C7 8470   1.260   4.503  14.272  0.5050  0.2968  0.2424
  567TMC3    C8 8471   0.941   4.603  13.955 -0.2257 -0.3791  0.7897
  567TMC3    O1 8472   1.320   4.608  14.283 -0.1306 -0.0799 -0.0293
  567TMC3    O2 8473   0.837   4.540  13.964  0.2899 -0.6713 -0.4479
  568MPD2     C 8474   3.528   4.722  15.942 -0.2846  0.2149 -0.4888
  568MPD2    C1 8475   3.432   4.733  16.035 -0.2745  0.2078  0.4768
  568MPD2    C2 8476   3.304   0.029  16.003 -0.0125  0.0408 -0.1107
  568MPD2    C3 8477   3.274   0.059  15.872 -0.1981  0.8588  0.1637
  568MPD2    C4 8478   3.371   0.049  15.773  0.1957  0.4599 -0.2243
  568MPD2    C5 8479   3.499   0.017  15.813  0.3962 -0.3752  0.3781
  568MPD2     H 8480   3.224   0.038  16.075  1.8722  0.8068  1.9042
  568MPD2    H1 8481   3.338   0.069  15.672 -3.4169 -0.7086  0.6859
  568MPD2    H2 8482   3.630   4.699  15.972 -1.0924 -2.3172  0.2951
  568MPD2    H3 8483   3.577   0.010  15.738 -1.0447 -3.3479 -0.8333
  568MPD2     N 8484   3.135   0.091  15.852 -0.2484  0.3537  0.4052
  568MPD2    H5 8485   3.090   0.136  15.932 -0.0242  0.9572  0.1922
  568MPD2    N1 8486   3.468   4.697  16.164 -0.4495  0.0864 -0.7636
  568MPD2    H7 8487   3.568   4.683  16.174 -0.3639  0.1129 -1.6244
  569TMC3    C1 8488   2.936   0.146  15.738 -0.8837 -0.1466 -0.0629
  569TMC3    C2 8489   2.877   0.170  15.859  0.1381  0.0104 -0.1657
  569TMC3    C3 8490   2.743   0.191  15.842 -0.8818  0.0570  0.1061
  569TMC3    C4 8491   2.873   0.150  15.613 -0.5904  0.5744  0.1993
  569TMC3    C5 8492   2.742   0.175  15.617 -0.2968 -0.0620  0.1292
  569TMC3    C6 8493   2.671   0.185  15.728 -0.1779  0.1234 -0.2742
  569TMC3     C 8494   3.068   0.084  15.732  0.0443 -0.0960 -0.3714
  569TMC3     O 8495   3.112   0.046  15.625  0.4422  0.2676  0.0755
  569TMC3     H 8496   2.930   0.149  15.952  0.1802 -2.8943 -0.8598
  569TMC3    H1 8497   2.936   0.127  15.527  2.3036  3.5781  1.4834
  569TMC3    H2 8498   2.563   0.178  15.726 -0.0963 -1.0333 -0.4852
  569TMC3    C7 8499   2.724   0.295  15.538  0.6594  0.2896 -0.0949
  569TMC3    C8 8500   2.663   0.236  15.954  0.4677 -0.1077 -0.3068
  569TMC3    O1 8501   2.769   0.304  15.424 -0.0110  0.2430  0.1393
  569TMC3    O2 8502   2.549   0.271  15.930  0.0828  0.0181 -0.2857
  570TMC3    C1 8503   2.708   3.759  15.930 -1.0591 -0.5480 -0.0202
  570TMC3    C2 8504   2.760   3.769  15.801 -0.6002 -0.2523  0.4522
  570TMC3    C3 8505   2.866   3.858  15.780  0.4516  0.3752  0.1818
  570TMC3    C4 8506   2.746   3.847  16.029  0.6720  0.1633  0.4633
  570TMC3    C5 8507   2.846   3.945  15.999 -0.0883  0.0061 -0.4333
  570TMC3    C6 8508   2.905   3.946  15.875  0.2636 -0.0485 -1.1904
  570TMC3     C 8509   2.605   3.664  15.964  0.1921  0.2741  0.3504
  570TMC3     O 8510   2.543   3.607  15.872  0.1190  0.2138  0.5978
  570TMC3     H 8511   2.727   3.700  15.725 -1.2504  0.4400  0.1182
  570TMC3    H1 8512   2.701   3.848  16.127  1.8416  2.3626  0.9519
  570TMC3    H2 8513   2.989   4.014  15.861 -0.4717  0.9522 -0.7080
  570TMC3    C7 8514   2.885   4.039  16.106 -0.3346  0.8503 -0.1907
  570TMC3    C8 8515   2.905   3.896  15.645  0.6449  0.0537  0.2595
  570TMC3    O1 8516   2.862   4.002  16.216  0.7198  0.2526  0.1375
  570TMC3    O2 8517   2.970   4.000  15.638  0.5545  0.3144  0.1022
  571MPD2     C 8518   0.544   0.413   0.111  0.1050  0.2785  0.2708
  571MPD2    C1 8519   0.462   0.354   0.206 -0.2535  1.7271  0.1195
  571MPD2    C2 8520   0.350   0.422   0.237  0.5799  0.7532  0.2392
  571MPD2    C3 8521   0.316   0.539   0.185  0.2621 -0.3639  0.0056
  571MPD2    C4 8522   0.410   0.600   0.103  0.1389 -0.2149  0.4586
  571MPD2    C5 8523   0.523   0.537   0.065  0.2168  0.1963  0.8729
  571MPD2     H 8524   0.289   0.374   0.313  1.9290  1.2687  1.6574
  571MPD2    H1 8525   0.383   0.690   0.048 -1.9259 -0.4103  1.1557
  571MPD2    H2 8526   0.630   0.362   0.068 -1.8508 -0.8015 -2.3711
  571MPD2    H3 8527   0.575   0.589  17.741 -1.2264  1.0042  0.4495
  571MPD2     N 8528   0.199   0.610   0.224 -0.6308 -0.0175  0.2445
  571MPD2    H5 8529   0.207   0.710   0.208  0.4229 -0.1466 -0.0351
  571MPD2    N1 8530   0.493   0.226   0.263 -0.7155  0.3980 -0.5338
  571MPD2    H7 8531   0.588   0.193   0.251  0.4061  3.3682  0.0828
  572TMC3    C1 8532   0.001   0.673   0.328  0.3334 -0.5450  0.4597
  572TMC3    C2 8533   4.619   0.642   0.368 -0.5922  0.5859 -0.3951
  572TMC3    C3 8534   4.530   0.740   0.390  0.4881  1.2568 -0.4195
  572TMC3    C4 8535   0.048   0.803   0.316 -0.6004  0.2854  0.8984
  572TMC3    C5 8536   4.695   0.904   0.351 -0.0468 -0.7402 -0.5668
  572TMC3    C6 8537   4.570   0.872   0.379 -0.6112 -0.2369 -0.2565
  572TMC3     C 8538   0.088   0.564   0.293 -0.1503 -0.0044 -0.2096
  572TMC3     O 8539   0.065   0.448   0.330  0.4071 -0.9473 -0.6006
  572TMC3     H 8540   4.589   0.538   0.365 -0.4143  0.5589 -1.3074
  572TMC3    H1 8541   0.148   0.835   0.290 -0.5655  0.4697  1.2597
  572TMC3    H2 8542   4.511   0.961   0.401 -0.3941  0.6584 -3.2826
  572TMC3    C7 8543   4.734   1.041   0.328 -0.7794  0.2563  0.6117
  572TMC3    C8 8544   4.432   0.707   0.493  0.0245  0.2702  0.3052
  572TMC3    O1 8545   4.650   1.121   0.286  0.6729 -0.1473 -0.3278
  572TMC3    O2 8546   4.409   0.585   0.507 -0.2788  0.6340  0.3678
  573MPD2     C 8547   1.408   0.869   0.818 -0.0116  0.0004  0.5116
  573MPD2    C1 8548   1.328   0.978   0.827 -0.1837  0.5453 -0.7512
  573MPD2    C2 8549   1.283   1.038   0.709  0.0141 -0.5518  0.4822
  573MPD2    C3 8550   1.307   0.977   0.583 -0.5981 -0.1314  0.5299
  573MPD2    C4 8551   1.391   0.871   0.581  0.5084  0.0099 -0.6800
  573MPD2    C5 8552   1.438   0.823   0.695  0.1838 -0.1640  0.2162
  573MPD2     H 8553   1.243   1.138   0.717 -0.3752 -0.5947 -0.7852
  573MPD2    H1 8554   1.414   0.830   0.484 -0.5907  0.5089 -1.1495
  573MPD2    H2 8555   1.429   0.804   0.902 -1.6565  0.8249  1.5871
  573MPD2    H3 8556   1.510   0.743   0.692  0.4536  0.0264  1.4984
  573MPD2     N 8557   1.263   1.038   0.464  0.0925  0.2607  0.0137
  573MPD2    H5 8558   1.296   0.982   0.385  1.0544 -1.9574  1.9872
  573MPD2    N1 8559   1.292   1.020   0.959 -0.8982 -0.3368 -0.1445
  573MPD2    H7 8560   1.326   0.964   1.037 -1.3945 -0.3452  0.0680
  574TMC3    C1 8561   1.190   1.195   0.297  0.3224  0.5049  0.3719
  574TMC3    C2 8562   1.090   1.280   0.261 -0.0446  0.0632 -0.5303
  574TMC3    C3 8563   1.088   1.352   0.141 -0.6479  0.1737  1.0409
  574TMC3    C4 8564   1.295   1.163   0.210  0.2707  0.0936  0.4086
  574TMC3    C5 8565   1.286   1.229   0.092  0.2116 -0.5961  0.0621
  574TMC3    C6 8566   1.184   1.318   0.057 -1.0165  0.2087 -0.0357
  574TMC3     C 8567   1.192   1.155   0.450  0.6755 -0.0902  0.0517
  574TMC3     O 8568   1.116   1.215   0.523 -0.2251  0.3505  0.1118
  574TMC3     H 8569   1.014   1.312   0.331 -0.1626 -0.0652 -0.5988
  574TMC3    H1 8570   1.371   1.091   0.238  0.2426 -0.7698 -1.7192
  574TMC3    H2 8571   1.189   1.343  17.707  0.2106 -0.0653 -0.0510
  574TMC3    C7 8572   1.368   1.182  17.734 -0.0586  0.3981 -1.2193
  574TMC3    C8 8573   0.961   1.393   0.088  0.4421  0.0250  0.2285
  574TMC3    O1 8574   1.307   1.188  17.629 -0.0745 -0.8562  0.5919
  574TMC3    O2 8575   0.860   1.369   0.152 -0.0985  0.5031  0.1976
  575TMC3    C1 8576   3.334   2.273  11.100 -0.5151 -1.0348 -0.0012
  575TMC3    C2 8577   3.325   2.214  11.228 -0.2296  1.0650  0.5864
  575TMC3    C3 8578   3.245   2.099  11.229 -0.6616  0.6215 -1.1785
  575TMC3    C4 8579   3.278   2.224  10.986  0.1169  0.5521  0.5220
  575TMC3    C5 8580   3.207   2.112  10.998  0.3661 -0.0118  0.2271
  575TMC3    C6 8581   3.182   2.042  11.116 -0.6216  0.1841 -0.8899
  575TMC3     C 8582   3.452   2.360  11.095 -0.0475 -0.0329  0.2369
  575TMC3     O 8583   3.543   2.348  11.175  0.0266 -0.4558 -0.2237
  575TMC3     H 8584   3.385   2.243  11.314  4.0815 -0.3283 -1.9345
  575TMC3    H1 8585   3.288   2.268  10.887 -1.4430 -3.0165 -1.2197
  575TMC3    H2 8586   3.114   1.958  11.125  2.5266 -1.7902  3.8172
  575TMC3    C7 8587   3.147   2.065  10.869 -0.5788  0.4376  0.3550
  575TMC3    C8 8588   3.240   2.017  11.344  0.7913 -0.1565 -0.2453
  575TMC3    O1 8589   3.157   2.144  10.771  0.1112 -0.3527  0.0333
  575TMC3    O2 8590   3.214   1.897  11.336 -0.4182  0.2969  0.0906
  576MPD2     C 8591   3.023   3.600  12.747 -0.1523 -0.1525 -0.6443
  576MPD2    C1 8592   3.109   3.699  12.691  0.0039 -0.0076  0.1502
  576MPD2    C2 8593   3.127   3.817  12.757 -0.0359 -0.0517 -0.7494
  576MPD2    C3 8594   3.077   3.837  12.881 -0.3917 -0.0132  0.2594
  576MPD2    C4 8595   2.990   3.745  12.933  0.6657  0.1747  0.1434
  576MPD2    C5 8596   2.956   3.630  12.864 -0.3133  0.2098 -0.0691
  576MPD2     H 8597   3.189   3.895  12.715 -0.3948  0.0651 -1.0611
  576MPD2    H1 8598   2.963   3.751  13.038 -0.9647 -0.0234 -0.2690
  576MPD2    H2 8599   3.010   3.502  12.702 -1.3250 -0.8310  1.1744
  576MPD2    H3 8600   2.894   3.559  12.916  4.2990 -2.1387  2.1617
  576MPD2     N 8601   3.107   3.963  12.943 -0.2023  0.2216 -0.0520
  576MPD2    H5 8602   3.165   4.023  12.886 -0.5172  0.7010  0.1342
  576MPD2    N1 8603   3.171   3.677  12.564  0.2180 -0.4614 -0.3804
  576MPD2    H7 8604   3.222   3.755  12.522 -0.3300  0.3410  0.4432
  577TMC3    C1 8605   3.205   3.593  12.350  0.1879 -0.1252 -0.3631
  577TMC3    C2 8606   3.238   3.483  12.276 -0.8454  0.3815 -0.3463
  577TMC3    C3 8607   3.294   3.499  12.150  0.0926 -0.4461  0.1182
  577TMC3    C4 8608   3.218   3.726  12.295  0.1950 -0.7826  0.5943
  577TMC3    C5 8609   3.258   3.734  12.162 -0.0510  0.1826  0.1988
  577TMC3    C6 8610   3.300   3.621  12.092 -0.1222 -0.2887  0.2077
  577TMC3     C 8611   3.151   3.566  12.482 -0.1659  0.2637  0.2944
  577TMC3     O 8612   3.120   3.451  12.509  0.1940  0.5583 -0.4729
  577TMC3     H 8613   3.237   3.383  12.317  2.2368  0.6824  0.4487
  577TMC3    H1 8614   3.217   3.815  12.357  1.1796 -0.4024  0.0771
  577TMC3    H2 8615   3.353   3.629  11.997 -2.0800  1.0758 -0.7631
  577TMC3    C7 8616   3.308   3.857  12.119  0.2741 -0.1160 -0.0651
  577TMC3    C8 8617   3.324   3.373  12.083 -0.9927  0.6952 -0.7003
  577TMC3    O1 8618   3.338   3.940  12.200  0.1604 -0.4911 -0.6584
  577TMC3    O2 8619   3.324   3.271  12.154 -0.1756 -0.1109  0.5519
  578MPD2     C 8620   0.984   3.482   0.170 -0.0388 -0.5022  0.5174
  578MPD2    C1 8621   1.116   3.438   0.165  0.2254  0.7134 -0.9088
  578MPD2    C2 8622   1.186   3.408   0.282 -0.3125  0.1142  0.3726
  578MPD2    C3 8623   1.113   3.426   0.401  0.3694  0.4549 -0.0241
  578MPD2    C4 8624   0.978   3.464   0.405  0.0778  0.1172 -0.1617
  578MPD2    C5 8625   0.916   3.487   0.289 -0.3415  0.3545 -0.4975
  578MPD2     H 8626   1.293   3.391   0.281 -0.4707 -0.8700  0.2443
  578MPD2    H1 8627   0.925   3.474   0.499  0.0014 -2.4529  0.0830
  578MPD2    H2 8628   0.928   3.520   0.085  0.2199  1.1801  1.1024
  578MPD2    H3 8629   0.810   3.510   0.293 -0.4944 -0.2640 -1.1179
  578MPD2     N 8630   1.191   3.399   0.511 -0.1077 -0.7051 -0.4260
  578MPD2    H5 8631   1.282   3.356   0.498 -0.0922 -0.2226 -1.9575
  578MPD2    N1 8632   1.180   3.419   0.037 -0.3408  0.1706  1.0853
  578MPD2    H7 8633   1.129   3.450  17.711  0.1101  0.5257  0.9404
  579TMC3    C1 8634   1.286   3.411   0.716  0.2008  0.0973 -0.1302
  579TMC3    C2 8635   1.328   3.516   0.797  0.1165 -0.2002  0.1172
  579TMC3    C3 8636   1.444   3.506   0.861 -0.0951 -0.9268 -0.2505
  579TMC3    C4 8637   1.357   3.299   0.689  0.6628 -0.0760 -0.2717
  579TMC3    C5 8638   1.469   3.288   0.767  0.8461 -0.2392 -0.7754
  579TMC3    C6 8639   1.518   3.391   0.848 -1.1215 -0.9310  0.4780
  579TMC3     C 8640   1.170   3.441   0.637  0.0242 -0.2951 -0.2706
  579TMC3     O 8641   1.105   3.537   0.667 -0.1832 -0.1395  0.1292
  579TMC3     H 8642   1.275   3.611   0.803  2.6652  1.2218  0.2496
  579TMC3    H1 8643   1.312   3.223   0.626  1.7249  0.8047 -2.1139
  579TMC3    H2 8644   1.597   3.368   0.918 -1.4062 -0.8882  0.8107
  579TMC3    C7 8645   1.546   3.171   0.757 -0.1774  0.6824  0.9452
  579TMC3    C8 8646   1.513   3.638   0.873 -0.5736 -0.5981  0.2635
  579TMC3    O1 8647   1.656   3.164   0.814  0.1592 -0.0464 -0.5062
  579TMC3    O2 8648   1.454   3.745   0.891 -0.0445 -0.3343  0.0327
  580TMC3    C1 8649   1.074   3.009  12.501 -0.0400 -0.2078 -0.9538
  580TMC3    C2 8650   1.188   3.073  12.538 -0.2746 -0.3097  0.2852
  580TMC3    C3 8651   1.309   3.002  12.568 -0.0005  0.0133  0.8422
  580TMC3    C4 8652   1.083   2.873  12.474  0.3898 -0.1798  0.4427
  580TMC3    C5 8653   1.200   2.808  12.499 -0.3286 -0.7643 -0.1632
  580TMC3    C6 8654   1.318   2.872  12.534  0.1279  0.9766 -0.3608
  580TMC3     C 8655   0.966   3.085  12.449  0.5400  0.0424  0.9347
  580TMC3     O 8656   0.853   3.062  12.494 -0.0242 -0.4645  0.3236
  580TMC3     H 8657   1.186   3.181  12.532  1.4751 -0.3328 -0.7689
  580TMC3    H1 8658   0.990   2.817  12.466  1.2128 -1.2627 -1.5822
  580TMC3    H2 8659   1.413   2.822  12.549 -0.7864 -0.6099  0.1910
  580TMC3    C7 8660   1.215   2.667  12.464  0.0575 -0.0317 -0.3190
  580TMC3    C8 8661   1.421   3.091  12.563 -0.1750 -0.0929 -0.0910
  580TMC3    O1 8662   1.308   2.600  12.507 -0.0129  0.8735 -0.2025
  580TMC3    O2 8663   1.387   3.205  12.591 -1.0519 -0.0730  0.1494
  581MPD2     C 8664   3.889   2.525  14.510  0.7926  0.3029  0.3968
  581MPD2    C1 8665   3.899   2.620  14.607  0.0568  0.3326 -0.6583
  581MPD2    C2 8666   3.785   2.685  14.655  0.1770  0.1860  0.2347
  581MPD2    C3 8667   3.671   2.657  14.593 -0.1485 -0.0037 -0.3958
  581MPD2    C4 8668   3.658   2.562  14.503  0.1843  0.3671  0.8284
  581MPD2    C5 8669   3.763   2.491  14.465 -0.4230 -0.5260  0.3772
  581MPD2     H 8670   3.789   2.770  14.721 -1.5496  0.9891 -0.7107
  581MPD2    H1 8671   3.569   2.520  14.458  0.9077  0.6401 -0.8752
  581MPD2    H2 8672   3.973   2.470  14.467  0.0124 -0.4453 -0.1685
  581MPD2    H3 8673   3.758   2.413  14.389 -1.5641  0.7396 -0.8292
  581MPD2     N 8674   3.555   2.734  14.619  0.1213 -0.3655  0.6822
  581MPD2    H5 8675   3.567   2.823  14.667  1.5371  0.5571 -1.4024
  581MPD2    N1 8676   4.025   2.642  14.654  0.5068 -0.0634 -0.1028
  581MPD2    H7 8677   4.090   2.567  14.633  1.4151  1.7160 -3.6138
  582TMC3    C1 8678   4.189   2.704  14.790 -0.0535 -0.4142 -0.7503
  582TMC3    C2 8679   4.194   2.725  14.923 -0.0478  0.1236 -0.0269
  582TMC3    C3 8680   4.258   2.634  14.998 -1.3102  0.3450  0.1550
  582TMC3    C4 8681   4.240   2.588  14.743  0.3170 -0.1120  0.2978
  582TMC3    C5 8682   4.266   2.486  14.821 -0.3809  0.5771 -0.9890
  582TMC3    C6 8683   4.274   2.508  14.954 -0.0813 -0.4101 -0.0470
  582TMC3     C 8684   4.064   2.740  14.741 -1.0977  0.1007  0.6626
  582TMC3     O 8685   3.997   2.825  14.798 -0.3864  0.6039 -0.1370
  582TMC3     H 8686   4.149   2.813  14.967 -0.0655 -0.2578  0.7120
  582TMC3    H1 8687   4.254   2.577  14.636  1.9348  0.1522  0.4737
  582TMC3    H2 8688   4.290   2.421  15.017 -0.2593  0.0843  0.6826
  582TMC3    C7 8689   4.174   2.382  14.779 -0.7812  0.3993  0.3380
  582TMC3    C8 8690   4.273   2.656  15.138  0.0326 -0.6769 -0.9103
  582TMC3    O1 8691   4.156   2.377  14.657  0.4633 -0.5713  0.0445
  582TMC3    O2 8692   4.193   2.716  15.205  0.6161 -0.7051  0.0083
  583MPD2     C 8693   4.219   3.871  16.543  0.6230 -0.9446  0.1981
  583MPD2    C1 8694   4.179   4.001  16.511  0.1682  0.5845 -0.1663
  583MPD2    C2 8695   4.126   4.079  16.603 -0.3242 -0.8384  0.2290
  583MPD2    C3 8696   4.124   4.037  16.738  0.5453 -0.3558 -0.2617
  583MPD2    C4 8697   4.171   3.915  16.773 -0.5966 -0.0757 -0.3258
  583MPD2    C5 8698   4.210   3.832  16.675 -0.3914 -0.5680 -0.1931
  583MPD2     H 8699   4.075   4.169  16.572  0.5684 -0.5371 -0.3749
  583MPD2    H1 8700   4.170   3.872  16.873 -0.1843  3.1210  1.0535
  583MPD2    H2 8701   4.270   3.804  16.476  0.1231  0.4530 -1.5896
  583MPD2    H3 8702   4.225   3.728  16.702 -0.2756 -0.5878 -0.3324
  583MPD2     N 8703   4.066   4.124  16.832 -0.5070 -0.5107 -0.0226
  583MPD2    H5 8704   4.028   4.209  16.793 -2.6000 -2.1705 -1.6168
  583MPD2    N1 8705   4.200   4.063  16.381 -0.1145 -0.2712  0.0512
  583MPD2    H7 8706   4.161   4.156  16.370 -1.2745 -0.8071 -0.4279
  584TMC3    C1 8707   3.988   4.203  17.041 -0.4341 -0.5518 -0.1331
  584TMC3    C2 8708   3.965   4.324  16.989  1.1772 -0.2170  0.2334
  584TMC3    C3 8709   3.935   4.427  17.075  0.2778 -0.3943 -0.1593
  584TMC3    C4 8710   3.971   4.173  17.172  0.7926  0.7171  0.2396
  584TMC3    C5 8711   3.922   4.274  17.256  0.9921  0.4139  0.9643
  584TMC3    C6 8712   3.910   4.407  17.212 -0.3645  0.0442 -0.1116
  584TMC3     C 8713   4.052   4.094  16.965  0.1595 -0.0323  0.1597
  584TMC3     O 8714   4.072   3.994  17.025 -0.3202  0.3001 -0.1563
  584TMC3     H 8715   3.994   4.350  16.888 -1.0830  0.6979 -0.1760
  584TMC3    H1 8716   3.977   4.070  17.206 -0.6883  1.2670  2.1677
  584TMC3    H2 8717   3.876   4.488  17.275 -1.2757 -0.3942 -0.0378
  584TMC3    C7 8718   3.865   4.229  17.381  0.6449 -0.5526  0.0822
  584TMC3    C8 8719   3.878   4.544  17.011  0.1325 -0.4542 -0.5821
  584TMC3    O1 8720   3.910   4.126  17.424 -0.5609 -0.1323 -0.1380
  584TMC3    O2 8721   3.826   4.531  16.897 -0.0112 -0.2368  0.2729
  585MPD2     C 8722   3.007   3.165   0.521  0.5756 -0.2058 -0.1860
  585MPD2    C1 8723   3.105   3.178   0.426  0.2870 -0.8117  0.4418
  585MPD2    C2 8724   3.132   3.074   0.330  0.1625 -0.0985  0.5143
  585MPD2    C3 8725   3.048   2.962   0.333 -0.5399  0.6179  0.0045
  585MPD2    C4 8726   2.960   2.942   0.435 -0.4121 -1.5257  0.3426
  585MPD2    C5 8727   2.932   3.047   0.524  0.4126  0.2020  0.0924
  585MPD2     H 8728   3.203   3.087   0.249 -0.9313 -2.5216 -0.8434
  585MPD2    H1 8729   2.902   2.851   0.436 -0.3850 -1.5408  0.5137
  585MPD2    H2 8730   2.980   3.256   0.573  0.5556 -0.3878  0.1201
  585MPD2    H3 8731   2.859   3.022   0.600  0.1021 -0.0229 -0.2847
  585MPD2     N 8732   3.055   2.859   0.237 -0.0248 -0.0703 -0.4336
  585MPD2    H5 8733   2.995   2.778   0.247  0.8750 -0.5139  1.4120
  585MPD2    N1 8734   3.170   3.306   0.421 -0.2596  0.2579 -0.3758
  585MPD2    H7 8735   3.140   3.363   0.499  2.2135  0.2034  0.6320
  586TMC3    C1 8736   3.120   2.739   0.039  0.1423 -0.2962  0.4508
  586TMC3    C2 8737   3.217   2.687  17.718  0.6581 -0.1814  0.3926
  586TMC3    C3 8738   3.191   2.567  17.652 -0.4805  0.7266 -0.4605
  586TMC3    C4 8739   2.997   2.675   0.052  0.4807  0.0834  0.0174
  586TMC3    C5 8740   2.968   2.562  17.738  0.1965 -0.1721 -0.3248
  586TMC3    C6 8741   3.070   2.511  17.662  0.4595  0.1073 -0.5201
  586TMC3     C 8742   3.150   2.845   0.137  0.2591 -0.2944 -0.8256
  586TMC3     O 8743   3.238   2.921   0.102 -0.3153  0.0257  0.5879
  586TMC3     H 8744   3.317   2.727  17.720 -0.7357  3.3519  0.5524
  586TMC3    H1 8745   2.918   2.727   0.104  0.8401  2.0574 -1.4074
  586TMC3    H2 8746   3.042   2.427  17.599 -2.1092  0.2469  0.4302
  586TMC3    C7 8747   2.825   2.527  17.715 -0.1966 -0.4415  0.3032
  586TMC3    C8 8748   3.272   2.529  17.536  0.3022 -0.2582  0.3259
  586TMC3    O1 8749   2.806   2.492  17.598  0.4325  0.0053 -0.9223
  586TMC3    O2 8750   3.249   2.420  17.494 -0.1384 -0.1947  0.5739
  587TMC3    C1 8751   0.082   1.559  16.242  0.5831  0.5433  0.3679
  587TMC3    C2 8752   0.178   1.632  16.305 -0.2443  0.1760 -0.9325
  587TMC3    C3 8753   0.309   1.585  16.304  0.0986 -0.1480 -0.4461
  587TMC3    C4 8754   0.117   1.438  16.192  0.0703  0.2829  0.1966
  587TMC3    C5 8755   0.243   1.396  16.194  0.1737 -0.1336 -0.0472
  587TMC3    C6 8756   0.349   1.471  16.250 -0.1137  1.2145 -0.1280
  587TMC3     C 8757   4.694   1.621  16.216 -0.3655 -0.4644  0.3886
  587TMC3     O 8758   4.665   1.730  16.266  0.0181  0.1798 -0.0680
  587TMC3     H 8759   0.143   1.727  16.344  0.3182  0.8496 -2.0799
  587TMC3    H1 8760   0.051   1.383  16.126 -0.9021  0.0632  1.3572
  587TMC3    H2 8761   0.454   1.444  16.247 -0.6583 -0.5674 -3.3159
  587TMC3    C7 8762   0.279   1.263  16.154  0.1826 -0.8983  0.0947
  587TMC3    C8 8763   0.421   1.680  16.341 -0.0058 -0.6228  0.7319
  587TMC3    O1 8764   0.200   1.199  16.088  0.2638  0.1561 -0.5191
  587TMC3    O2 8765   0.536   1.643  16.345 -0.0977 -0.5639  0.3188
  588TMC3    C1 8766   2.849   0.028   9.807  0.2416  0.8775  0.4655
  588TMC3    C2 8767   2.770   4.651   9.809  0.1234 -0.0859 -0.5412
  588TMC3    C3 8768   2.824   4.538   9.859  0.2427  0.4643 -0.4144
  588TMC3    C4 8769   2.984   0.024   9.849  0.5291 -0.0738 -0.9452
  588TMC3    C5 8770   3.030   4.647   9.900  0.0355 -0.2043 -0.0095
  588TMC3    C6 8771   2.962   4.526   9.893  0.2584  0.8027 -0.2488
  588TMC3     C 8772   2.802   0.154   9.742 -0.2787  0.3018 -0.0442
  588TMC3     O 8773   2.691   0.146   9.692  0.1203  0.2257  0.1433
  588TMC3     H 8774   2.663   4.667   9.800 -0.0307 -2.2337 -2.4696
  588TMC3    H1 8775   3.056   0.104   9.832  0.4024 -0.1062 -1.6378
  588TMC3    H2 8776   3.004   4.439   9.942  3.9365  0.9791 -3.0814
  588TMC3    C7 8777   3.131   4.666  10.003  0.3071 -0.1303 -0.0163
  588TMC3    C8 8778   2.751   4.416   9.829  0.3190  1.2634  0.2764
  588TMC3    O1 8779   3.200   4.565  10.032 -0.5135  0.0128 -0.7387
  588TMC3    O2 8780   2.644   4.440   9.773 -0.1064 -0.2901  0.0314
  589TMC3    C1 8781   2.220   1.276   0.550 -0.6787  0.0879 -0.5663
  589TMC3    C2 8782   2.281   1.296   0.671 -0.1729 -0.1913  0.1502
  589TMC3    C3 8783   2.396   1.230   0.688 -0.1321 -0.3949  0.2485
  589TMC3    C4 8784   2.268   1.180   0.461 -0.4557 -0.0521  0.7398
  589TMC3    C5 8785   2.374   1.099   0.500  0.0465  0.5426 -0.1205
  589TMC3    C6 8786   2.440   1.128   0.613  0.2669 -0.6912  0.3053
  589TMC3     C 8787   2.093   1.333   0.519  0.6509  0.1094  0.0734
  589TMC3     O 8788   2.035   1.286   0.419 -0.7648  0.1184  0.0208
  589TMC3     H 8789   2.260   1.387   0.726 -0.9650 -0.0901 -0.3132
  589TMC3    H1 8790   2.225   1.163   0.363  0.8077 -0.2438  0.2158
  589TMC3    H2 8791   2.515   1.057   0.648  2.1379  0.8702 -0.5007
  589TMC3    C7 8792   2.369   0.965   0.439 -0.1785  0.0149 -0.3032
  589TMC3    C8 8793   2.481   1.275   0.797 -0.6693 -0.0787 -0.1377
  589TMC3    O1 8794   2.260   0.927   0.395  0.7060  0.3484 -0.2334
  589TMC3    O2 8795   2.431   1.351   0.875 -0.2699  0.3819  0.1409
  590MPD2     C 8796   1.860   4.520  16.260 -0.7438 -0.3563 -0.0960
  590MPD2    C1 8797   1.791   4.621  16.191  0.0524 -0.3206  0.1569
  590MPD2    C2 8798   1.860   4.711  16.122 -0.2976  1.0879 -0.3141
  590MPD2    C3 8799   2.001   4.710  16.106  0.6483  0.7851 -0.0475
  590MPD2    C4 8800   2.068   4.607  16.170 -0.1795 -0.0151 -0.7191
  590MPD2    C5 8801   1.999   4.516  16.241  0.1511 -0.5104 -0.6007
  590MPD2     H 8802   1.812   0.054  16.070 -2.0897  0.2108 -0.0472
  590MPD2    H1 8803   2.175   4.591  16.159 -0.3883 -3.3703  2.3338
  590MPD2    H2 8804   1.806   4.436  16.301 -1.7360  0.2926 -0.0709
  590MPD2    H3 8805   2.051   4.427  16.271  1.3789 -0.1170 -1.5618
  590MPD2     N 8806   2.064   0.071  16.028 -0.4355 -0.0685  0.2452
  590MPD2    H5 8807   2.008   0.150  15.998  1.8266  0.5566 -2.3071
  590MPD2    N1 8808   1.651   4.631  16.185  0.0052 -0.2578 -0.4413
  590MPD2    H7 8809   1.613   4.718  16.149 -1.5155 -0.5234  0.5103
  591TMC3    C1 8810   2.234   0.192  15.934 -0.6263 -0.2342 -1.0089
  591TMC3    C2 8811   2.290   0.207  15.807 -0.3826 -0.5680  0.5498
  591TMC3    C3 8812   2.302   0.333  15.760  0.4854 -0.3998 -0.0626
  591TMC3    C4 8813   2.182   0.302  16.001 -0.5427  0.2281  0.0311
  591TMC3    C5 8814   2.211   0.425  15.955 -0.5073  0.3047  0.7374
  591TMC3    C6 8815   2.264   0.445  15.830 -0.1584 -0.2281  1.2968
  591TMC3     C 8816   2.195   0.065  15.989  0.1690 -0.0967  0.5370
  591TMC3     O 8817   2.261   4.705  15.961  0.4844  0.6936  0.0713
  591TMC3     H 8818   2.305   0.120  15.745  0.9512  0.2057 -0.2041
  591TMC3    H1 8819   2.132   0.295  16.096  2.0687  0.4125  1.4133
  591TMC3    H2 8820   2.296   0.543  15.799  1.3696 -1.9943 -2.7252
  591TMC3    C7 8821   2.167   0.541  16.040 -0.3227 -0.5756 -0.2158
  591TMC3    C8 8822   2.337   0.353  15.623 -0.5240  0.2185  1.2612
  591TMC3    O1 8823   2.108   0.524  16.143  0.2032  0.0351  0.0810
  591TMC3    O2 8824   2.396   0.260  15.573 -0.1887  0.4341  0.3897
  592MPD2     C 8825   1.786   2.632  11.438 -0.2787 -0.3971  0.0173
  592MPD2    C1 8826   1.832   2.652  11.566 -0.8982  0.5428  0.8785
  592MPD2    C2 8827   1.789   2.573  11.674 -0.3440  0.5522 -0.5447
  592MPD2    C3 8828   1.697   2.470  11.647  0.7338  0.1980  0.1983
  592MPD2    C4 8829   1.656   2.458  11.515 -0.4346 -0.0549 -0.5812
  592MPD2    C5 8830   1.698   2.539  11.416  0.5070 -0.7401  0.4265
  592MPD2     H 8831   1.819   2.588  11.777 -0.2447 -1.0574 -0.3378
  592MPD2    H1 8832   1.587   2.384  11.478 -1.0392  0.9264 -1.4356
  592MPD2    H2 8833   1.823   2.688  11.353 -1.4646 -1.4010 -1.1629
  592MPD2    H3 8834   1.675   2.514  11.313  0.2612  1.1945  0.0055
  592MPD2     N 8835   1.655   2.386  11.753  0.1687  0.2094 -0.1274
  592MPD2    H5 8836   1.690   2.393  11.848 -0.2236 -0.7413  0.0803
  592MPD2    N1 8837   1.926   2.758  11.579 -0.1428  0.6379 -0.5572
  592MPD2    H7 8838   1.971   2.792  11.494  1.8116  0.6020  0.4719
  593TMC3    C1 8839   2.089   2.880  11.695  0.2929 -0.2224  0.0748
  593TMC3    C2 8840   2.109   2.964  11.805  0.7877 -0.4692  0.4742
  593TMC3    C3 8841   2.234   3.024  11.822  0.3093  0.3993  0.2551
  593TMC3    C4 8842   2.188   2.845  11.607 -0.1350 -0.4789 -0.4094
  593TMC3    C5 8843   2.312   2.891  11.648  0.3800 -0.8084 -0.3342
  593TMC3    C6 8844   2.339   2.978  11.748 -0.5925  0.5458 -0.1180
  593TMC3     C 8845   1.971   2.800  11.706 -0.3905 -0.2150 -0.4198
  593TMC3     O 8846   1.921   2.794  11.816 -0.0229 -0.3526  0.0524
  593TMC3     H 8847   2.020   3.002  11.853 -0.3818 -1.9071 -0.5284
  593TMC3    H1 8848   2.172   2.776  11.524 -2.1742 -0.3749 -0.1016
  593TMC3    H2 8849   2.443   3.009  11.747 -0.0131 -1.4392 -0.7959
  593TMC3    C7 8850   2.425   2.846  11.581 -0.1833  0.0889 -0.4520
  593TMC3    C8 8851   2.217   3.168  11.804  0.6914 -0.1484 -0.0846
  593TMC3    O1 8852   2.428   2.867  11.462  0.6479  0.4345  0.2997
  593TMC3    O2 8853   2.111   3.205  11.754  0.3618 -0.3507  0.7440
  594MPD2     C 8854   0.916   1.208  14.278 -0.0220  0.4851 -0.0600
  594MPD2    C1 8855   0.927   1.179  14.408 -1.0220 -0.0932 -0.1770
  594MPD2    C2 8856   1.035   1.222  14.482  0.5445  0.2434  0.2586
  594MPD2    C3 8857   1.133   1.304  14.424  0.1382 -0.2606  0.6421
  594MPD2    C4 8858   1.119   1.326  14.285  0.7137  0.2704  0.1534
  594MPD2    C5 8859   1.009   1.293  14.223 -0.0115  0.1122  1.1000
  594MPD2     H 8860   1.031   1.213  14.590  3.0413 -1.2757  0.2364
  594MPD2    H1 8861   1.188   1.384  14.224  1.0917 -2.0139 -1.6029
  594MPD2    H2 8862   0.820   1.196  14.228 -0.1429 -1.4110  0.6248
  594MPD2    H3 8863   0.996   1.321  14.119  0.6827 -0.5456  0.8366
  594MPD2     N 8864   1.236   1.355  14.505  0.3594  0.2610  0.0421
  594MPD2    H5 8865   1.251   1.315  14.597  1.9422  0.1354 -0.2745
  594MPD2    N1 8866   0.816   1.108  14.464  0.3224  0.3034 -1.0486
  594MPD2    H7 8867   0.738   1.096  14.401 -0.3400  1.3096 -0.4086
  595TMC3    C1 8868   1.557   1.679  14.627 -0.8419 -0.1138  0.7616
  595TMC3    C2 8869   1.513   1.593  14.531 -0.1181 -0.4884  0.2612
  595TMC3    C3 8870   1.402   1.512  14.558 -0.0748 -0.6754  0.0815
  595TMC3    C4 8871   1.495   1.693  14.750 -0.3977  0.2459 -0.6704
  595TMC3    C5 8872   1.384   1.620  14.769  0.6170  0.1052  0.0227
  595TMC3    C6 8873   1.337   1.528  14.679 -0.3003  0.6082 -0.1155
  595TMC3     C 8874   1.679   1.754  14.608  0.5380  0.1619  1.1967
  595TMC3     O 8875   1.743   1.778  14.712  0.5578 -0.4246  0.3905
  595TMC3     H 8876   1.558   1.585  14.433  1.2408 -0.2822  0.8799
  595TMC3    H1 8877   1.526   1.772  14.817 -0.7005  1.9509 -2.5369
  595TMC3    H2 8878   1.242   1.483  14.704  0.0005 -1.8618 -3.4120
  595TMC3    C7 8879   1.302   1.659  14.878 -0.1076 -0.5516  0.3776
  595TMC3    C8 8880   1.331   1.446  14.454  0.2700 -0.0054 -0.0740
  595TMC3    O1 8881   1.182   1.632  14.871  0.4236  0.2823  0.3839
  595TMC3    O2 8882   1.357   1.474  14.337  0.3799 -0.0199 -0.5120
  596MPD2     C 8883   0.195   4.061  16.791 -0.6160  0.6075  0.0766
  596MPD2    C1 8884   0.143   4.176  16.722  0.0925 -0.0835 -0.0544
  596MPD2    C2 8885   0.144   4.167  16.581  0.1534  0.1061  0.1236
  596MPD2    C3 8886   0.215   4.067  16.519  0.4036 -0.1978  0.1484
  596MPD2    C4 8887   0.287   3.980  16.596 -0.1297 -0.3621  0.3235
  596MPD2    C5 8888   0.282   3.983  16.733 -0.3208  0.3761 -0.0321
  596MPD2     H 8889   0.088   4.235  16.518  0.6121 -1.2141 -1.7265
  596MPD2    H1 8890   0.352   3.906  16.551 -0.6089 -0.2617 -0.5171
  596MPD2    H2 8891   0.202   4.053  16.899 -3.0361  1.4459  0.2750
  596MPD2    H3 8892   0.331   3.905  16.791  0.4275  0.1051 -1.0290
  596MPD2     N 8893   0.210   4.032  16.377 -0.4838 -0.0292 -0.2481
  596MPD2    H5 8894   0.275   3.958  16.353 -0.4452  0.4693 -1.6721
  596MPD2    N1 8895   0.062   4.273  16.776  0.0983 -0.1458  0.6278
  596MPD2    H7 8896   0.029   4.349  16.717 -0.7879  0.4912  1.9369
  597TMC3    C1 8897   4.717   4.412  16.945 -1.4898  0.1194  1.0647
  597TMC3    C2 8898   0.005   4.529  16.876  0.0652  0.2060 -0.5360
  597TMC3    C3 8899   4.690   4.649  16.915 -0.5193 -0.7281 -0.0276
  597TMC3    C4 8900   4.645   4.427  17.058 -0.3730  0.1226  0.0376
  597TMC3    C5 8901   4.597   4.548  17.104  0.6476  0.3760  0.3028
  597TMC3    C6 8902   4.610   4.659  17.027 -0.2561 -0.4594  0.7883
  597TMC3     C 8903   0.032   4.281  16.908  0.6714  0.3849  0.1055
  597TMC3     O 8904   0.032   4.199  17.001 -0.3508 -0.1339 -0.2777
  597TMC3     H 8905   0.047   4.525  16.776  1.6898 -1.9763  0.2077
  597TMC3    H1 8906   4.624   4.339  17.118  0.1705  0.6632  1.0208
  597TMC3    H2 8907   4.578   0.020  17.048  3.7090  1.0098 -0.1457
  597TMC3    C7 8908   4.520   4.556  17.227  0.9901  0.0105  0.6903
  597TMC3    C8 8909   4.641   4.738  16.812  0.9342  0.1505 -0.1320
  597TMC3    O1 8910   4.547   4.476  17.317 -0.0165  0.6631  0.2004
  597TMC3    O2 8911   4.520   0.015  16.807 -0.3212 -0.1078  0.2466
  598TMC3    C1 8912   2.673   0.860  14.840  0.0749 -0.1904  0.2160
  598TMC3    C2 8913   2.538   0.826  14.862  0.1085 -0.4830  0.5742
  598TMC3    C3 8914   2.448   0.904  14.790 -0.0945  0.3997 -0.9083
  598TMC3    C4 8915   2.718   0.963  14.772 -0.1945 -0.4182  0.2829
  598TMC3    C5 8916   2.624   1.046  14.714  0.1784 -0.3157  0.2567
  598TMC3    C6 8917   2.493   1.011  14.720  0.6793  0.0238  0.8403
  598TMC3     C 8918   2.757   0.803  14.941 -0.2336  0.1820 -0.7730
  598TMC3     O 8919   2.713   0.713  15.008 -0.3985  0.0638  0.0333
  598TMC3     H 8920   2.503   0.750  14.931  0.5361 -1.3312 -0.1375
  598TMC3    H1 8921   2.822   0.985  14.756 -0.6964  2.5239  1.0987
  598TMC3    H2 8922   2.419   1.081  14.683  1.3018 -1.1563 -2.6337
  598TMC3    C7 8923   2.663   1.143  14.619  0.1238 -0.3169  0.4801
  598TMC3    C8 8924   2.315   0.910  14.831  0.3570  0.1361 -0.1587
  598TMC3    O1 8925   2.574   1.172  14.539 -0.0056  0.0978 -0.1488
  598TMC3    O2 8926   2.267   1.026  14.840  0.1025  0.0434 -0.3139
  599MPD2     C 8927   3.475   3.023  15.486  0.1729 -0.2035 -0.5566
  599MPD2    C1 8928   3.394   2.922  15.541 -0.0790 -0.2209 -0.3831
  599MPD2    C2 8929   3.265   2.946  15.580 -0.1932  0.2525  0.4397
  599MPD2    C3 8930   3.213   3.075  15.546  0.0807  0.0518 -0.1256
  599MPD2    C4 8931   3.288   3.172  15.482  0.6402 -0.9293 -0.0439
  599MPD2    C5 8932   3.421   3.145  15.455 -0.2510  0.4119 -0.4663
  599MPD2     H 8933   3.209   2.873  15.637  0.1121  0.5289  1.0949
  599MPD2    H1 8934   3.245   3.268  15.454  2.2893  0.4122  1.9851
  599MPD2    H2 8935   3.582   3.012  15.475 -0.1508 -2.2400 -1.7691
  599MPD2    H3 8936   3.487   3.223  15.420 -3.6038  4.0297  1.2865
  599MPD2     N 8937   3.090   3.116  15.596  0.1517 -0.5665  0.1592
  599MPD2    H5 8938   3.071   3.216  15.586  0.6897 -0.8246 -3.3278
  599MPD2    N1 8939   3.463   2.797  15.556 -0.3041  0.3326  0.0962
  599MPD2    H7 8940   3.564   2.800  15.544 -0.2001  1.3715  1.3121
  600TMC3    C1 8941   2.907   3.133  15.735 -0.3081  0.5163  0.1648
  600TMC3    C2 8942   2.778   3.088  15.754 -0.1981  0.0389 -0.0031
  600TMC3    C3 8943   2.698   3.157  15.841 -1.1158  0.1687  0.3283
  600TMC3    C4 8944   2.953   3.246  15.784 -0.0940 -0.0252 -0.5844
  600TMC3    C5 8945   2.867   3.317  15.865 -0.1042 -0.6886 -0.0890
  600TMC3    C6 8946   2.737   3.277  15.889 -0.2077  0.5717  0.4043
  600TMC3     C 8947   2.997   3.040  15.661 -0.6465 -0.4423 -1.0148
  600TMC3     O 8948   2.984   2.921  15.652 -0.0986  0.1948 -0.6893
  600TMC3     H 8949   2.746   2.991  15.717 -0.2722  0.0210  0.1067
  600TMC3    H1 8950   3.054   3.275  15.757 -0.3511  1.0446 -0.3919
  600TMC3    H2 8951   2.681   3.333  15.963 -1.3504 -3.2949  2.4549
  600TMC3    C7 8952   2.921   3.426  15.936 -0.4899 -0.1794  0.0152
  600TMC3    C8 8953   2.592   3.076  15.900  0.2287 -0.7610 -0.7881
  600TMC3    O1 8954   2.887   3.447  16.054  0.4258  0.0385  0.0791
  600TMC3    O2 8955   2.599   2.953  15.896  0.0125 -0.3439  0.2249
  601MPD2     C 8956   0.383   1.379   0.211 -0.4136  0.0489  0.1664
  601MPD2    C1 8957   0.257   1.362   0.152  0.4385 -0.3909 -0.6560
  601MPD2    C2 8958   0.166   1.275   0.202  0.9967  0.1505 -0.8556
  601MPD2    C3 8959   0.208   1.182   0.301 -0.6084 -0.3478  0.0624
  601MPD2    C4 8960   0.325   1.202   0.364 -0.7216 -0.7842  0.1572
  601MPD2    C5 8961   0.402   1.304   0.326  0.2573  0.3980  0.2166
  601MPD2     H 8962   0.068   1.267   0.155  0.2180 -0.5024  0.9097
  601MPD2    H1 8963   0.359   1.132   0.440 -1.6959 -0.3160  1.0231
  601MPD2    H2 8964   0.472   1.434   0.183  0.3114 -0.0840  2.1658
  601MPD2    H3 8965   0.498   1.311   0.376  0.6569 -1.0878 -0.3304
  601MPD2     N 8966   0.131   1.065   0.342  0.6457 -0.0969 -0.1590
  601MPD2    H5 8967   0.182   0.996   0.394  3.6288  1.1425 -1.4467
  601MPD2    N1 8968   0.227   1.436   0.034 -0.8581  0.3794  0.5816
  601MPD2    H7 8969   0.145   1.420  17.733 -1.8886 -0.2202  2.2516
  602TMC3    C1 8970   0.245   1.588  17.618 -0.3517 -0.0310 -0.1790
  602TMC3    C2 8971   0.262   1.718  17.583 -0.6104 -0.7300  0.5271
  602TMC3    C3 8972   0.200   1.758  17.467 -0.4512 -0.0076 -0.2115
  602TMC3    C4 8973   0.191   1.496  17.531 -0.5622  0.3210  0.2150
  602TMC3    C5 8974   0.145   1.539  17.410  0.2157  0.9736 -0.2610
  602TMC3    C6 8975   0.150   1.672  17.370 -0.0944  0.0567 -0.2575
  602TMC3     C 8976   0.289   1.553  17.748  0.2096  0.7956 -0.8767
  602TMC3     O 8977   0.363   1.632   0.049 -0.3399 -0.5288  0.0590
  602TMC3     H 8978   0.296   1.789  17.657  0.7343 -0.6754 -0.1507
  602TMC3    H1 8979   0.165   1.395  17.559 -1.2975  0.5194  0.2302
  602TMC3    H2 8980   0.117   1.698  17.271  0.2647 -2.8191 -1.1324
  602TMC3    C7 8981   0.034   1.472  17.352  0.0009  0.4699 -0.0981
  602TMC3    C8 8982   0.161   1.906  17.465  0.5572 -0.4787  0.0057
  602TMC3    O1 8983   0.055   1.352  17.325  0.4153 -0.4454  0.3925
  602TMC3    O2 8984   0.209   1.977  17.556 -0.2979  0.7653 -0.1864
  603TMC3    C1 8985   2.793   2.108  10.981 -0.2372  0.2381  0.5496
  603TMC3    C2 8986   2.771   2.113  11.118 -0.5604 -0.5979  0.7564
  603TMC3    C3 8987   2.841   2.205  11.192 -0.2467 -0.6734 -0.5442
  603TMC3    C4 8988   2.856   2.218  10.920  0.2727  0.3091 -0.4401
  603TMC3    C5 8989   2.907   2.311  10.998 -0.0449  0.4911 -0.3065
  603TMC3    C6 8990   2.916   2.305  11.136 -0.4290  0.2506 -1.2926
  603TMC3     C 8991   2.708   2.008  10.915  0.0666 -0.1537 -0.6736
  603TMC3     O 8992   2.662   1.923  10.987 -0.0519  0.1469  0.3651
  603TMC3     H 8993   2.737   2.022  11.165 -1.7100  0.1572  1.3846
  603TMC3    H1 8994   2.869   2.226  10.812 -0.1625  1.0352 -0.4369
  603TMC3    H2 8995   2.955   2.388  11.194  0.7709 -1.4156  0.2830
  603TMC3    C7 8996   2.951   2.434  10.925  0.5025  0.3853  0.3386
  603TMC3    C8 8997   2.869   2.163  11.333  0.6322 -0.5807  0.2979
  603TMC3    O1 8998   3.040   2.499  10.985 -0.3152  0.3767 -0.9157
  603TMC3    O2 8999   2.825   2.057  11.375  0.9380  0.0362  0.8493
  604MPD2     C 9000   3.939   4.657  15.833  0.0747  0.3651 -0.0810
  604MPD2    C1 9001   3.924   0.050  15.842  0.3581  0.8800  0.2311
  604MPD2    C2 9002   4.002   0.121  15.751 -0.0263 -0.4101  0.2709
  604MPD2    C3 9003   4.063   0.070  15.642  0.5773 -0.4508  0.2230
  604MPD2    C4 9004   4.071   4.675  15.634 -0.2935 -0.6940 -0.4194
  604MPD2    C5 9005   4.011   4.601  15.727  0.1523 -0.2658  0.1678
  604MPD2     H 9006   3.993   0.228  15.769 -1.8766 -0.8138  1.7349
  604MPD2    H1 9007   4.113   4.619  15.551  1.1814 -0.3753  0.1172
  604MPD2    H2 9008   3.890   4.594  15.906  1.7018 -1.1642 -0.3298
  604MPD2    H3 9009   4.013   4.495  15.707 -0.1845 -0.4620  1.1663
  604MPD2     N 9010   4.122   0.154  15.553  0.2870  0.4987 -0.2904
  604MPD2    H5 9011   4.100   0.252  15.566  1.2759  0.6795  0.0217
  604MPD2    N1 9012   3.839   0.110  15.933  0.0046 -0.0886  0.3700
  604MPD2    H7 9013   3.797   0.045  15.999 -0.8774  2.4876  2.3442
  605TMC3    C1 9014   3.672   0.258  16.014 -0.3688  0.0567  0.1909
  605TMC3    C2 9015   3.702   0.233  16.143 -0.6593  0.2669 -0.1359
  605TMC3    C3 9016   3.601   0.235  16.233 -0.6153  0.8613  0.0904
  605TMC3    C4 9017   3.551   0.312  15.975  0.4428 -0.1025  0.1550
  605TMC3    C5 9018   3.455   0.322  16.069  0.5441  0.4728 -0.4029
  605TMC3    C6 9019   3.480   0.278  16.194 -0.4429  0.2339  0.3807
  605TMC3     C 9020   3.772   0.228  15.911 -0.2584  0.4799  0.1620
  605TMC3     O 9021   3.764   0.283  15.803 -0.0337 -0.1681  0.3834
  605TMC3     H 9022   3.801   0.199  16.172  0.3216  3.3336  0.0996
  605TMC3    H1 9023   3.529   0.325  15.869  0.6834 -4.9477 -0.4851
  605TMC3    H2 9024   3.411   0.293  16.276 -1.6850 -2.7761 -0.0971
  605TMC3    C7 9025   3.335   0.400  16.050 -0.0688 -0.7032  0.4656
  605TMC3    C8 9026   3.656   0.279  16.364 -0.8320  0.0411 -0.3737
  605TMC3    O1 9027   3.262   0.420  16.146  0.6680  0.1512 -0.3783
  605TMC3    O2 9028   3.588   0.255  16.462  0.4030 -0.2963  0.4418
  606TMC3    C1 9029   3.868   4.107   0.628  0.3808 -0.1905  0.7347
  606TMC3    C2 9030   3.957   4.208   0.591  0.6250 -0.9789  0.4967
  606TMC3    C3 9031   4.087   4.163   0.558 -0.1970 -0.1611 -0.0006
  606TMC3    C4 9032   3.893   3.972   0.600  0.5469 -0.3119 -0.2011
  606TMC3    C5 9033   4.005   3.938   0.537  0.1446  0.2134  0.0643
  606TMC3    C6 9034   4.105   4.028   0.516  0.5407  0.6301  0.2225
  606TMC3     C 9035   3.746   4.141   0.693 -0.6770  0.6654  0.7391
  606TMC3     O 9036   3.676   4.049   0.729  0.0883  0.0178 -0.1101
  606TMC3     H 9037   3.936   4.314   0.601  1.7060 -0.6825 -0.3710
  606TMC3    H1 9038   3.813   3.902   0.617  0.0254  0.3502  0.0945
  606TMC3    H2 9039   4.198   4.003   0.465  1.6594  0.4980  2.3110
  606TMC3    C7 9040   4.018   3.800   0.480 -0.0072  0.0810 -0.3449
  606TMC3    C8 9041   4.192   4.256   0.527  0.2913  0.2092 -0.1771
  606TMC3    O1 9042   3.929   3.721   0.507  0.0328  0.2380 -0.5110
  606TMC3    O2 9043   4.154   4.373   0.521  0.3258  0.5666 -0.3300
  607MPD2     C 9044   1.797   1.951  11.595 -0.2691  0.2865  0.6830
  607MPD2    C1 9045   1.863   2.039  11.678  0.2103 -0.6475 -1.0877
  607MPD2    C2 9046   1.864   2.020  11.816 -0.1946 -0.0783  0.3447
  607MPD2    C3 9047   1.806   1.911  11.869  0.7708  0.6578  0.3983
  607MPD2    C4 9048   1.742   1.820  11.791  0.5817 -0.2095  0.0441
  607MPD2    C5 9049   1.733   1.843  11.657 -0.0594  0.7570 -0.1778
  607MPD2     H 9050   1.911   2.089  11.886  0.9400 -0.1283 -0.3754
  607MPD2    H1 9051   1.697   1.731  11.833 -0.7556  0.8239  0.7915
  607MPD2    H2 9052   1.803   1.943  11.487 -2.6876 -1.4231  0.6645
  607MPD2    H3 9053   1.693   1.766  11.592  0.8790 -1.6348  2.0924
  607MPD2     N 9054   1.827   1.901  12.010  0.0756 -0.3727 -0.0743
  607MPD2    H5 9055   1.884   1.977  12.046 -0.1569 -0.1087 -0.2671
  607MPD2    N1 9056   1.935   2.150  11.639 -0.4937 -0.0242  0.2875
  607MPD2    H7 9057   1.982   2.202  11.712  1.7621 -0.8782 -0.5511
  608TMC3    C1 9058   2.060   2.293  11.508 -0.7589 -0.1447  0.1666
  608TMC3    C2 9059   2.069   2.362  11.626 -0.2831 -0.4620 -0.0276
  608TMC3    C3 9060   2.169   2.460  11.641 -0.2144 -0.0100 -1.0805
  608TMC3    C4 9061   2.148   2.318  11.411 -0.0527 -0.0288  0.5533
  608TMC3    C5 9062   2.242   2.411  11.427  0.0985  0.5684 -0.2197
  608TMC3    C6 9063   2.262   2.485  11.544  0.5678  0.3194 -0.3544
  608TMC3     C 9064   1.969   2.185  11.505 -0.5723  0.6653  0.3228
  608TMC3     O 9065   1.962   2.120  11.403  0.6906  0.9394  0.0490
  608TMC3     H 9066   1.994   2.362  11.704  0.7769  0.7077  0.9780
  608TMC3    H1 9067   2.143   2.273  11.312  0.5894 -0.7118  0.8363
  608TMC3    H2 9068   2.342   2.551  11.575 -2.1547  2.3047  2.5353
  608TMC3    C7 9069   2.329   2.431  11.313 -0.4369 -0.6262 -0.3079
  608TMC3    C8 9070   2.193   2.524  11.770  0.0960  0.8616 -1.2595
  608TMC3    O1 9071   2.292   2.420  11.196 -0.6512  0.1215  0.1464
  608TMC3    O2 9072   2.266   2.620  11.781  0.8979 -0.3246  0.1447
  609TMC3    C1 9073   4.568   1.579   9.483 -0.3693  0.2723 -0.4636
  609TMC3    C2 9074   4.522   1.640   9.372  0.2873 -0.0658 -0.3774
  609TMC3    C3 9075   4.583   1.621   9.259  0.3282  0.1735  0.2834
  609TMC3    C4 9076   4.672   1.489   9.473 -0.1577 -0.2501 -0.7357
  609TMC3    C5 9077   4.729   1.466   9.352 -0.3240  0.7131 -0.2507
  609TMC3    C6 9078   4.682   1.522   9.242 -0.4874  0.0814 -0.8882
  609TMC3     C 9079   4.499   1.599   9.609 -0.0031 -0.3533  0.0349
  609TMC3     O 9080   4.390   1.659   9.605 -0.1193  0.3442  0.0947
  609TMC3     H 9081   4.428   1.695   9.370  0.2454 -0.1571 -1.0825
  609TMC3    H1 9082   4.711   1.442   9.563  1.5677 -0.5622 -1.6519
  609TMC3    H2 9083   4.730   1.507   9.146  0.2317 -0.4693 -0.4352
  609TMC3    C7 9084   0.104   1.378   9.340 -0.3966 -0.1335 -0.0631
  609TMC3    C8 9085   4.493   1.657   9.153  0.2175 -0.2572  0.6770
  609TMC3    O1 9086   0.194   1.390   9.421 -0.0831 -0.1193 -0.1658
  609TMC3    O2 9087   4.428   1.758   9.169  0.0700 -0.4907  0.2041
  610TMC3    C1 9088   2.510   2.200  12.430  0.1999 -0.9716 -0.4806
  610TMC3    C2 9089   2.620   2.278  12.398  0.2004 -0.0127  0.1386
  610TMC3    C3 9090   2.744   2.221  12.379 -0.0176  0.7312  0.2771
  610TMC3    C4 9091   2.527   2.063  12.445 -0.2874  0.0082 -0.5742
  610TMC3    C5 9092   2.652   2.009  12.428 -0.0645  0.4589  0.0809
  610TMC3    C6 9093   2.767   2.087  12.397  0.0902  0.0407 -0.5352
  610TMC3     C 9094   2.396   2.251  12.509  0.0586  0.3400 -0.6645
  610TMC3     O 9095   2.287   2.194  12.492 -0.0470  0.1851 -0.2666
  610TMC3     H 9096   2.600   2.379  12.365  0.2212 -0.2680 -0.6766
  610TMC3    H1 9097   2.443   2.013  12.493  0.0306 -0.3437 -0.3890
  610TMC3    H2 9098   2.864   2.040  12.390 -0.6667 -1.3542 -1.7666
  610TMC3    C7 9099   2.682   1.876  12.485  1.0164 -0.1424 -0.2580
  610TMC3    C8 9100   2.856   2.312  12.343  0.1408  0.2328  0.1073
  610TMC3    O1 9101   2.802   1.864  12.517 -0.0829 -0.9889 -1.0475
  610TMC3    O2 9102   2.841   2.430  12.368 -0.5384 -0.9298 -0.6640
  611MPD2     C 9103   1.800   2.590  10.530  0.0630 -0.0990  0.1777
  611MPD2    C1 9104   1.863   2.520  10.429 -0.0317  0.0565 -0.0097
  611MPD2    C2 9105   1.991   2.546  10.386 -0.5860  0.0331 -0.6059
  611MPD2    C3 9106   2.058   2.654  10.444 -0.5751  0.8798 -0.0149
  611MPD2    C4 9107   2.001   2.718  10.545  0.1484  0.1111 -0.3997
  611MPD2    C5 9108   1.876   2.692  10.588 -0.1723  0.3093 -0.0670
  611MPD2     H 9109   2.035   2.484  10.308 -0.4421 -0.7340  0.0800
  611MPD2    H1 9110   2.050   2.807  10.582  0.0708  0.1318 -0.3459
  611MPD2    H2 9111   1.700   2.563  10.562  1.2712 -1.0585  3.1529
  611MPD2    H3 9112   1.839   2.745  10.675 -1.1951 -2.2837  1.0667
  611MPD2     N 9113   2.180   2.708  10.394  0.0540 -0.0250  0.8233
  611MPD2    H5 9114   2.217   2.777  10.459 -1.3808  0.8173  0.7359
  611MPD2    N1 9115   1.792   2.404  10.377  0.3580  0.0043 -0.3745
  611MPD2    H7 9116   1.693   2.394  10.396  0.4502  0.7878  0.5062
  612TMC3    C1 9117   2.351   2.743  10.230  0.1002 -0.2127 -0.3084
  612TMC3    C2 9118   2.457   2.756  10.318 -0.0887 -0.4582 -0.7087
  612TMC3    C3 9119   2.574   2.795  10.260  0.0172  0.2344 -0.0578
  612TMC3    C4 9120   2.364   2.780  10.099 -1.2088 -0.2340  0.4185
  612TMC3    C5 9121   2.482   2.839  10.048 -0.2580  0.9155 -0.8182
  612TMC3    C6 9122   2.588   2.843  10.133 -0.1351  0.0009  0.1437
  612TMC3     C 9123   2.227   2.680  10.266 -0.5119  0.1059 -1.0678
  612TMC3     O 9124   2.185   2.604  10.180  0.2093 -0.2838 -0.1303
  612TMC3     H 9125   2.442   2.745  10.425  3.9236  0.7010 -0.0177
  612TMC3    H1 9126   2.271   2.776  10.043 -0.9389 -1.3934  0.0660
  612TMC3    H2 9127   2.680   2.895  10.105  1.0761 -1.9652  0.4865
  612TMC3    C7 9128   2.485   2.865   9.899 -0.2782  0.5898  0.3594
  612TMC3    C8 9129   2.690   2.812  10.344  0.2606 -0.1994 -0.3328
  612TMC3    O1 9130   2.383   2.836   9.840  0.2239  0.1229 -0.3126
  612TMC3    O2 9131   2.755   2.915  10.331  0.1367  0.2165 -0.4256
  613MPD2     C 9132   0.736   3.985  17.031 -0.0152 -0.8766  0.2316
  613MPD2    C1 9133   0.708   4.012  16.898  0.1271  0.6308 -1.1104
  613MPD2    C2 9134   0.660   3.909  16.820 -0.3953  0.4204 -0.3842
  613MPD2    C3 9135   0.659   3.782  16.874 -0.1028 -0.1837  1.0830
  613MPD2    C4 9136   0.693   3.760  17.002 -0.0136  0.0249  0.4577
  613MPD2    C5 9137   0.719   3.861  17.085 -0.3160 -0.1152  0.2121
  613MPD2     H 9138   0.645   3.935  16.716 -2.5975  0.3706 -0.0954
  613MPD2    H1 9139   0.689   3.659  17.042  0.9321 -0.4293 -0.6338
  613MPD2    H2 9140   0.770   4.066  17.094  1.2463 -2.0761  1.0811
  613MPD2    H3 9141   0.746   3.841  17.188 -0.8743 -0.7950  0.2215
  613MPD2     N 9142   0.636   3.666  16.794 -0.8033 -0.6106 -1.0077
  613MPD2    H5 9143   0.659   3.579  16.840 -0.0783 -1.0553 -2.2108
  613MPD2    N1 9144   0.742   4.142  16.853 -0.0831  0.1480 -0.1398
  613MPD2    H7 9145   0.793   4.196  16.922  1.0335 -2.4227  1.0406
  614TMC3    C1 9146   0.807   4.288  16.691  0.0419  0.5172  0.8217
  614TMC3    C2 9147   0.922   4.219  16.684  0.3524  0.4086 -0.0752
  614TMC3    C3 9148   0.997   4.238  16.568 -0.3015 -0.3836  0.1977
  614TMC3    C4 9149   0.767   4.370  16.589 -0.2304 -0.4007 -0.2075
  614TMC3    C5 9150   0.849   4.394  16.485 -0.4774 -0.1071 -0.4613
  614TMC3    C6 9151   0.963   4.324  16.467  0.6037  0.3827  0.6837
  614TMC3     C 9152   0.704   4.199  16.730 -0.5196 -0.3708 -0.1587
  614TMC3     O 9153   0.607   4.174  16.660 -0.0273 -0.0256  0.4309
  614TMC3     H 9154   0.948   4.138  16.751 -2.2239 -0.5962 -0.2961
  614TMC3    H1 9155   0.670   4.419  16.595 -0.4971 -0.9617  0.0576
  614TMC3    H2 9156   1.042   4.345  16.396  1.4184 -1.0764  1.1655
  614TMC3    C7 9157   0.809   4.495  16.388 -0.1872 -0.0721  0.4533
  614TMC3    C8 9158   1.069   4.113  16.529  0.6441  0.0931 -0.3293
  614TMC3    O1 9159   0.734   4.585  16.427 -0.0612 -0.1123 -0.0357
  614TMC3    O2 9160   1.078   4.027  16.612  0.0783  0.3227  0.6414
  615MPD2     C 9161   0.807   1.005  15.823 -0.1316 -0.3383  0.4749
  615MPD2    C1 9162   0.717   1.113  15.795  0.5551 -0.0623 -0.2893
  615MPD2    C2 9163   0.647   1.089  15.676 -0.2317  0.2514 -0.1388
  615MPD2    C3 9164   0.666   0.975  15.593 -0.3023 -0.4074 -0.0209
  615MPD2    C4 9165   0.756   0.875  15.629 -0.2406  0.3073 -0.1422
  615MPD2    C5 9166   0.819   0.897  15.743 -0.4375  0.0250  0.7144
  615MPD2     H 9167   0.574   1.164  15.648 -0.8017  0.0537  0.8309
  615MPD2    H1 9168   0.768   0.781  15.577 -0.8106 -1.1494  2.3346
  615MPD2    H2 9169   0.878   0.995  15.905  0.6074 -1.5493 -0.3055
  615MPD2    H3 9170   0.881   0.813  15.772 -1.6628 -1.5236 -1.1448
  615MPD2     N 9171   0.577   0.962  15.484 -0.0318  0.3157  0.2692
  615MPD2    H5 9172   0.532   1.041  15.437 -1.3047  0.0148  0.9678
  615MPD2    N1 9173   0.683   1.230  15.869  0.9542 -0.0948 -0.5315
  615MPD2    H7 9174   0.621   1.296  15.821  2.5129  1.2732 -0.6699
  616TMC3    C1 9175   0.719   1.415  16.012 -0.7962  0.2341 -0.2630
  616TMC3    C2 9176   0.814   1.493  16.071  0.5175 -0.0054  0.3684
  616TMC3    C3 9177   0.777   1.623  16.086  0.1775 -0.8217  0.9618
  616TMC3    C4 9178   0.592   1.458  15.988  0.3731  0.3460 -0.4036
  616TMC3    C5 9179   0.564   1.591  15.994  0.2171  0.3079 -0.1760
  616TMC3    C6 9180   0.657   1.677  16.048  0.5951  0.6399  0.8568
  616TMC3     C 9181   0.750   1.277  15.976  0.0428 -0.1820  1.3064
  616TMC3     O 9182   0.854   1.235  16.033  0.4889 -0.0058 -0.2004
  616TMC3     H 9183   0.913   1.458  16.096  0.4969 -0.7648 -0.6338
  616TMC3    H1 9184   0.519   1.391  15.946 -0.1742  1.3491 -1.0476
  616TMC3    H2 9185   0.644   1.784  16.065  0.2818  0.7045  0.2199
  616TMC3    C7 9186   0.435   1.642  15.942  0.8241  0.7688  0.3790
  616TMC3    C8 9187   0.881   1.725  16.111 -0.9202  1.1035 -0.3532
  616TMC3    O1 9188   0.374   1.582  15.859  0.0407 -0.4076  0.3542
  616TMC3    O2 9189   0.857   1.837  16.158  0.0781 -0.3536  0.1755
  617MPD2     C 9190   4.118   3.844  13.262 -0.0861 -0.0530  1.1017
  617MPD2    C1 9191   4.067   3.896  13.379 -0.0450  0.2980 -0.0648
  617MPD2    C2 9192   3.959   3.834  13.428  0.2020  0.3034 -0.0492
  617MPD2    C3 9193   3.881   3.736  13.362 -0.6986 -0.2110  0.0951
  617MPD2    C4 9194   3.922   3.703  13.241  0.2388 -0.5158 -0.8160
  617MPD2    C5 9195   4.046   3.752  13.194 -0.2719  0.2344  0.0714
  617MPD2     H 9196   3.916   3.872  13.521 -0.4501  1.5368 -0.8401
  617MPD2    H1 9197   3.862   3.631  13.186 -0.4292 -0.0704 -0.6682
  617MPD2    H2 9198   4.210   3.876  13.215  0.5653  0.2933  2.6176
  617MPD2    H3 9199   4.077   3.717  13.096 -2.1447  2.1881 -1.2122
  617MPD2     N 9200   3.762   3.680  13.407  0.0218  0.2481  0.3463
  617MPD2    H5 9201   3.731   3.597  13.357  0.4915  0.2928 -0.0269
  617MPD2    N1 9202   4.130   3.993  13.455 -0.2102 -0.1329  0.4413
  617MPD2    H7 9203   4.219   4.033  13.425  0.1670 -0.6402  0.8779
  618TMC3    C1 9204   4.150   4.168  13.609 -0.2630  0.0191 -0.7197
  618TMC3    C2 9205   4.269   4.137  13.661 -0.4679  0.2583 -0.1298
  618TMC3    C3 9206   4.337   4.246  13.711 -0.5209 -0.7747  0.0375
  618TMC3    C4 9207   4.101   4.298  13.604 -0.3548 -0.1992 -0.0029
  618TMC3    C5 9208   4.176   4.403  13.636  0.0119 -0.1362  1.0600
  618TMC3    C6 9209   4.292   4.376  13.702 -0.1865 -0.3628  1.0355
  618TMC3     C 9210   4.063   4.063  13.556  0.1566 -0.4505  0.3752
  618TMC3     O 9211   3.945   4.069  13.589  0.4791  0.0494 -0.9629
  618TMC3     H 9212   4.298   4.033  13.664 -0.6127  0.2271  0.2210
  618TMC3    H1 9213   4.007   4.325  13.557  0.7889  0.8284 -1.7210
  618TMC3    H2 9214   4.352   4.459  13.738 -0.0859 -0.0273  0.0835
  618TMC3    C7 9215   4.141   4.535  13.591 -0.9312  0.3723 -0.0662
  618TMC3    C8 9216   4.479   4.224  13.735  0.3014 -0.1270  0.3118
  618TMC3    O1 9217   4.035   4.581  13.632 -0.2697 -1.0087  0.0243
  618TMC3    O2 9218   4.536   4.305  13.805 -0.3567 -0.2505 -0.2904
  619MPD2     C 9219   0.193   4.673  13.670 -0.4777  0.3521 -0.8388
  619MPD2    C1 9220   0.126   0.036  13.601  0.2393 -0.5542  0.6134
  619MPD2    C2 9221   4.729   0.041  13.600  0.9007  0.1280 -1.3638
  619MPD2    C3 9222   4.659   4.698  13.678 -0.5831  0.1070  0.0247
  619MPD2    C4 9223   4.719   4.594  13.743 -0.2119 -0.0331 -0.0463
  619MPD2    C5 9224   0.118   4.574  13.732 -0.5551 -0.1548  0.2734
  619MPD2     H 9225   4.682   0.117  13.538  0.5653  0.9517 -0.0895
  619MPD2    H1 9226   4.659   4.520  13.796 -2.4757  1.5033 -0.4736
  619MPD2    H2 9227   0.301   4.670  13.673 -0.5097  0.4309  0.6461
  619MPD2    H3 9228   0.168   4.496  13.788 -0.6747  0.1732  0.8429
  619MPD2     N 9229   4.524   4.721  13.704 -0.1376 -0.3289  0.4449
  619MPD2    H5 9230   4.487   4.663  13.779 -0.7585 -1.3430 -0.6610
  619MPD2    N1 9231   0.188   0.138  13.525  0.8621  0.5329  0.1836
  619MPD2    H7 9232   0.127   0.203  13.478  0.5768 -1.6633 -2.4647
  620TMC3    C1 9233   0.357   0.291  13.466  0.3026 -0.2747 -0.0527
  620TMC3    C2 9234   0.285   0.313  13.348  0.6345 -0.0941 -0.0437
  620TMC3    C3 9235   0.271   0.445  13.308  0.2316  0.5246  0.0267
  620TMC3    C4 9236   0.401   0.390  13.556 -0.1932  0.5909  0.0138
  620TMC3    C5 9237   0.371   0.517  13.512 -0.4519 -0.6579  0.5093
  620TMC3    C6 9238   0.308   0.545  13.390 -0.4048  0.8785  0.3661
  620TMC3     C 9239   0.319   0.170  13.542  0.4351 -0.2791  0.4964
  620TMC3     O 9240   0.392   0.134  13.632  0.0217 -0.2491 -0.3636
  620TMC3     H 9241   0.243   0.237  13.284  0.7163  0.4697 -0.7735
  620TMC3    H1 9242   0.425   0.363  13.658  2.9732  1.3626 -0.5335
  620TMC3    H2 9243   0.294   0.646  13.353 -1.6595  0.1096 -1.2245
  620TMC3    C7 9244   0.344   0.621  13.611 -0.9521 -0.9854  0.2866
  620TMC3    C8 9245   0.129   0.472  13.257  0.2283 -0.7926 -0.2029
  620TMC3    O1 9246   0.272   0.711  13.569 -0.0247  0.6136 -0.0888
  620TMC3    O2 9247   0.077   0.398  13.175  0.2541 -0.6149 -0.8293
  621MPD2     C 9248   0.607   0.300  10.336 -0.1362 -0.0237  0.0990
  621MPD2    C1 9249   0.710   0.353  10.405 -0.1249 -0.2764 -0.0993
  621MPD2    C2 9250   0.792   0.445  10.340  1.0921 -0.0263 -0.0418
  621MPD2    C3 9251   0.772   0.490  10.214  0.1889 -0.0955 -0.1425
  621MPD2    C4 9252   0.672   0.433  10.143 -0.2672 -0.4285  0.7723
  621MPD2    C5 9253   0.584   0.349  10.211  0.3040  0.6790 -0.5202
  621MPD2     H 9254   0.871   0.482  10.404  0.8521  1.7353 -0.7471
  621MPD2    H1 9255   0.654   0.446  10.037  1.5373  3.0132  0.8790
  621MPD2    H2 9256   0.537   0.230  10.382 -1.2818  1.1994  0.2100
  621MPD2    H3 9257   0.498   0.312  10.156  0.0107 -0.6710  0.8345
  621MPD2     N 9258   0.873   0.574  10.154 -0.4028 -0.2192  0.0024
  621MPD2    H5 9259   0.954   0.599  10.211 -0.0099  0.2855 -0.7766
  621MPD2    N1 9260   0.744   0.312  10.536  0.0477 -0.9155 -0.5892
  621MPD2    H7 9261   0.815   0.358  10.591 -0.5067 -0.9624  0.1654
  622TMC3    C1 9262   0.709   0.214  10.746  0.4867  0.2441 -0.1051
  622TMC3    C2 9263   0.657   0.329  10.796  0.3429 -0.7054 -0.1220
  622TMC3    C3 9264   0.624   0.309  10.934  0.3128  0.5194 -0.2555
  622TMC3    C4 9265   0.738   0.097  10.802 -0.3771 -0.1049 -0.0035
  622TMC3    C5 9266   0.699   0.089  10.928  0.3045  0.4639 -0.5738
  622TMC3    C6 9267   0.646   0.192  10.997  0.2938  0.2306 -0.3300
  622TMC3     C 9268   0.676   0.214  10.602  0.2107  0.0265  0.0408
  622TMC3     O 9269   0.615   0.115  10.560  0.1115  0.4223 -0.2371
  622TMC3     H 9270   0.601   0.393  10.728  2.1093  0.2628 -0.6471
  622TMC3    H1 9271   0.778   0.014  10.746  3.0027  0.7973  1.0718
  622TMC3    H2 9272   0.609   0.163  11.095  1.0697  0.5868  0.0753
  622TMC3    C7 9273   0.620   4.710  10.962  0.3674 -0.1594  0.2791
  622TMC3    C8 9274   0.543   0.402  11.017 -0.5657  0.1842 -0.2629
  622TMC3    O1 9275   0.572   4.691  11.074 -0.1101  0.1692  0.2479
  622TMC3    O2 9276   0.574   0.400  11.134 -0.2754 -0.3647  0.1291
  623MPD2     C 9277   4.054   0.973  15.687 -0.2581  0.0895  1.6474
  623MPD2    C1 9278   4.025   0.838  15.717 -0.9341 -0.3175  0.6069
  623MPD2    C2 9279   4.131   0.774  15.781  0.4585 -0.1687 -0.0888
  623MPD2    C3 9280   4.248   0.841  15.827  0.6498  0.5077  0.0985
  623MPD2    C4 9281   4.276   0.969  15.793 -0.9829 -0.5311  0.5972
  623MPD2    C5 9282   4.172   1.038  15.730 -0.0012 -0.2289 -0.5809
  623MPD2     H 9283   4.116   0.671  15.808 -0.8951  0.8223  2.8780
  623MPD2    H1 9284   4.365   1.022  15.823  0.7925 -2.8535 -0.4997
  623MPD2    H2 9285   3.976   1.027  15.636  0.2316 -0.1114  0.6892
  623MPD2    H3 9286   4.182   1.135  15.681  1.1180 -1.0452 -1.9664
  623MPD2     N 9287   4.333   0.765  15.904 -0.4497 -0.6614  0.7435
  623MPD2    H5 9288   4.293   0.679  15.941  0.4644 -0.1600  2.8851
  623MPD2    N1 9289   3.899   0.783  15.699  0.2731  0.0397  0.0224
  623MPD2    H7 9290   3.833   0.837  15.645 -0.7562  1.0297  2.2987
  624TMC3    C1 9291   4.529   0.742  16.324 -0.1315 -0.1705 -0.1869
  624TMC3    C2 9292   4.413   0.692  16.370 -0.1933  0.3067  0.2499
  624TMC3    C3 9293   4.312   0.666  16.284 -0.1211 -0.6279  0.1556
  624TMC3    C4 9294   4.542   0.773  16.193 -0.3427 -0.3757 -0.7451
  624TMC3    C5 9295   4.441   0.747  16.107  1.1442 -0.7912  0.4926
  624TMC3    C6 9296   4.325   0.686  16.153 -0.0529 -0.4870 -0.1967
  624TMC3     C 9297   4.646   0.704  16.400  0.3705  0.8036 -0.1101
  624TMC3     O 9298   4.624   0.643  16.503 -0.2593 -0.5981  0.0056
  624TMC3     H 9299   4.397   0.673  16.476  1.0631 -2.1788 -0.0002
  624TMC3    H1 9300   4.637   0.791  16.144  0.9083  0.3957  1.9253
  624TMC3    H2 9301   4.234   0.682  16.094 -0.6018  0.6417  0.5533
  624TMC3    C7 9302   4.437   0.819  15.976  0.5241 -0.0727  0.2092
  624TMC3    C8 9303   4.203   0.577  16.315 -0.1047 -0.5132  0.3490
  624TMC3    O1 9304   4.499   0.927  15.972  0.4449  0.0847  0.1127
  624TMC3    O2 9305   4.176   0.491  16.231  0.2739  0.4387 -0.6203
  625MPD2     C 9306   4.615   1.733   0.259 -0.3733 -0.0809 -0.0054
  625MPD2    C1 9307   4.590   1.830   0.354 -0.4066  0.2606  0.4776
  625MPD2    C2 9308   4.700   1.886   0.427  0.4738 -0.1623 -1.2861
  625MPD2    C3 9309   0.085   1.847   0.400 -0.1896 -0.1267  0.6464
  625MPD2    C4 9310   0.103   1.734   0.326  0.0826 -0.2020 -0.7361
  625MPD2    C5 9311   0.000   1.686   0.249 -0.6639 -0.1503 -0.6598
  625MPD2     H 9312   4.678   1.962   0.500  2.1432  0.3483 -1.3167
  625MPD2    H1 9313   0.202   1.694   0.308 -0.0174  0.1339 -1.9977
  625MPD2    H2 9314   4.539   1.689   0.195  0.0226 -1.0096  0.1784
  625MPD2    H3 9315   0.006   1.608   0.174 -0.1420  0.7838 -1.5935
  625MPD2     N 9316   0.192   1.926   0.450 -0.2176 -0.5228 -0.0276
  625MPD2    H5 9317   0.168   2.018   0.486 -1.7187 -1.4433  1.3288
  625MPD2    N1 9318   4.457   1.874   0.393 -0.7106 -0.1157 -0.5978
  625MPD2    H7 9319   4.443   1.953   0.456  0.7904  1.1242 -1.8061
  626TMC3    C1 9320   4.215   1.890   0.360 -0.0552 -0.2140 -0.2402
  626TMC3    C2 9321   4.123   1.906   0.255 -0.2397 -0.4079 -0.4958
  626TMC3    C3 9322   4.016   1.986   0.266 -0.6835  0.5599 -0.3925
  626TMC3    C4 9323   4.207   1.962   0.470 -0.5679 -0.7523  0.0283
  626TMC3    C5 9324   4.103   2.055   0.473 -0.0740  0.1292 -0.3192
  626TMC3    C6 9325   4.008   2.064   0.377  0.3182  0.6337 -0.1270
  626TMC3     C 9326   4.338   1.817   0.337  0.1866 -0.3397  1.3448
  626TMC3     O 9327   4.332   1.711   0.275 -0.0617 -0.3226  0.4173
  626TMC3     H 9328   4.139   1.846   0.167 -2.9239 -0.8935 -0.6446
  626TMC3    H1 9329   4.260   1.938   0.561 -0.1891  0.7441  0.1950
  626TMC3    H2 9330   3.939   2.147   0.382  0.2811  0.8085 -3.3932
  626TMC3    C7 9331   4.083   2.122   0.603  0.2913 -0.2635 -0.2940
  626TMC3    C8 9332   3.958   2.031   0.146 -0.3760 -0.9791  0.2082
  626TMC3    O1 9333   4.149   2.086   0.701 -0.4234  0.4932 -0.2414
  626TMC3    O2 9334   3.916   2.146   0.157  0.2220  0.4400 -0.3614
  627MPD2     C 9335   2.773   2.936  14.328  0.0292  0.6664 -0.1607
  627MPD2    C1 9336   2.851   2.849  14.398 -0.4944  0.8352 -0.4042
  627MPD2    C2 9337   2.789   2.734  14.446  0.9503  0.3647  0.4800
  627MPD2    C3 9338   2.666   2.694  14.405 -0.1956 -0.5557 -0.0233
  627MPD2    C4 9339   2.594   2.776  14.323 -1.0245  0.5579 -0.1380
  627MPD2    C5 9340   2.644   2.899  14.288  0.0494 -0.5225  0.0985
  627MPD2     H 9341   2.844   2.660  14.503  0.5102 -0.4931 -0.2156
  627MPD2    H1 9342   2.493   2.759  14.288 -1.5593  1.8971  0.7288
  627MPD2    H2 9343   2.813   3.031  14.296  0.7771  0.4065  0.0012
  627MPD2    H3 9344   2.592   2.970  14.225  1.3871 -0.4339 -0.8941
  627MPD2     N 9345   2.624   2.566  14.442 -0.6286  0.4252 -0.1538
  627MPD2    H5 9346   2.660   2.522  14.526  0.4078 -0.7816 -1.2500
  627MPD2    N1 9347   2.995   2.863  14.419 -0.5003  0.2794  0.2482
  627MPD2    H7 9348   3.033   2.799  14.487  1.7773  1.3012 -0.0726
  628TMC3    C1 9349   3.203   2.959  14.425  0.5376  0.2354 -0.1401
  628TMC3    C2 9350   3.243   2.847  14.492 -0.6228  0.0895 -1.3926
  628TMC3    C3 9351   3.366   2.848  14.554  0.0427  0.1128  0.0887
  628TMC3    C4 9352   3.281   3.071  14.416  0.6316 -0.2916 -1.1822
  628TMC3    C5 9353   3.402   3.076  14.491  0.5142 -0.3709 -0.1626
  628TMC3    C6 9354   3.446   2.959  14.553  0.1907  0.1967 -0.3255
  628TMC3     C 9355   3.075   2.965  14.370  0.1145 -0.1253 -0.1366
  628TMC3     O 9356   3.061   3.028  14.267 -0.3115  0.5390  0.2008
  628TMC3     H 9357   3.188   2.754  14.500 -1.4167  0.8383  1.5980
  628TMC3    H1 9358   3.243   3.154  14.357 -0.1256 -1.3510 -2.1894
  628TMC3    H2 9359   3.554   2.967  14.550  0.3191 -2.3727 -2.2495
  628TMC3    C7 9360   3.506   3.179  14.462 -0.7422 -0.3989 -0.1209
  628TMC3    C8 9361   3.433   2.721  14.562 -0.0058 -0.0941  0.3978
  628TMC3    O1 9362   3.609   3.180  14.530  0.9364  0.2309  0.1617
  628TMC3    O2 9363   3.370   2.622  14.534  0.2040  0.2182  0.1246
  629MPD2     C 9364   1.372   1.882  16.195  0.1114 -0.5669 -0.0189
  629MPD2    C1 9365   1.374   1.756  16.137 -0.3083  0.3691  0.2722
  629MPD2    C2 9366   1.258   1.682  16.116  0.6755  0.6323 -0.7138
  629MPD2    C3 9367   1.136   1.745  16.139  0.1395 -0.2618 -0.0522
  629MPD2    C4 9368   1.140   1.867  16.188  0.4139  0.5661 -0.2453
  629MPD2    C5 9369   1.253   1.933  16.214 -0.3691 -0.7644  0.0985
  629MPD2     H 9370   1.257   1.583  16.074  0.9969  0.9468 -1.4559
  629MPD2    H1 9371   1.052   1.930  16.198  0.8254  0.9859  0.7301
  629MPD2    H2 9372   1.459   1.939  16.226  0.9359 -2.1480  0.5919
  629MPD2    H3 9373   1.242   2.037  16.244 -1.8730 -1.2681  1.2949
  629MPD2     N 9374   1.013   1.678  16.102  0.0785 -0.0722  0.3351
  629MPD2    H5 9375   1.018   1.589  16.054 -1.7707 -0.9139  1.6876
  629MPD2    N1 9376   1.501   1.705  16.114  0.2067 -0.4060 -0.1039
  629MPD2    H7 9377   1.582   1.766  16.114 -0.5352  0.5671  2.5784
  630TMC3    C1 9378   1.671   1.563  16.064 -1.0294  0.1924 -0.8137
  630TMC3    C2 9379   1.743   1.654  16.001  0.4902  1.5337 -0.5500
  630TMC3    C3 9380   1.879   1.622  15.997 -0.5797 -0.4606 -0.8670
  630TMC3    C4 9381   1.714   1.438  16.101 -0.0404  0.6470  0.3009
  630TMC3    C5 9382   1.852   1.406  16.093  0.2365 -1.1469 -0.2547
  630TMC3    C6 9383   1.932   1.498  16.028  0.1223  0.4346  0.2404
  630TMC3     C 9384   1.528   1.575  16.081  0.1564 -0.1400 -0.1506
  630TMC3     O 9385   1.454   1.481  16.079  0.5618 -0.3199  0.0575
  630TMC3     H 9386   1.703   1.753  15.982 -1.8415  0.7334  0.1899
  630TMC3    H1 9387   1.648   1.386  16.169  0.1345  0.1480  0.0946
  630TMC3    H2 9388   2.038   1.479  16.014 -0.2934 -0.8596 -1.1014
  630TMC3    C7 9389   1.913   1.316  16.183 -0.6388 -0.2910  0.6477
  630TMC3    C8 9390   1.973   1.731  16.020 -0.8149  1.1956 -0.1774
  630TMC3    O1 9391   2.031   1.328  16.217 -0.1641  0.2636 -0.3569
  630TMC3    O2 9392   2.076   1.701  16.074  0.0958 -0.5282 -0.1313
  631MPD2     C 9393   4.380   1.187  15.428 -0.4614 -0.3103  0.1129
  631MPD2    C1 9394   4.486   1.268  15.459  0.6151  0.7357  0.0478
  631MPD2    C2 9395   4.613   1.213  15.447 -0.2661  0.5227 -0.4070
  631MPD2    C3 9396   4.635   1.088  15.393 -0.4938 -0.0934  0.2609
  631MPD2    C4 9397   4.530   1.009  15.362  0.0198 -0.7214  0.5359
  631MPD2    C5 9398   4.404   1.054  15.389  0.4828  0.1012 -0.0187
  631MPD2     H 9399   4.702   1.268  15.473  0.5798 -0.6343 -0.8311
  631MPD2    H1 9400   4.547   0.906  15.330 -0.6267 -0.3179 -1.1244
  631MPD2    H2 9401   4.276   1.217  15.441 -0.4853 -0.4148  0.1694
  631MPD2    H3 9402   4.324   0.986  15.362  0.3880  1.4173 -3.0135
  631MPD2     N 9403   0.037   1.046  15.382 -0.1451  0.0161  0.4340
  631MPD2    H5 9404   0.110   1.116  15.376  0.2882 -0.6314 -1.9281
  631MPD2    N1 9405   4.457   1.398  15.504  0.0822  0.3170  1.0027
  631MPD2    H7 9406   4.362   1.433  15.492 -0.1875 -0.5380  0.6912
  632TMC3    C1 9407   4.502   1.628  15.545  0.0032  0.7276  0.2748
  632TMC3    C2 9408   4.369   1.653  15.525  0.1372 -0.8534  0.1898
  632TMC3    C3 9409   4.339   1.767  15.459 -0.4386 -0.1834  0.3019
  632TMC3    C4 9410   4.599   1.712  15.508  0.4872 -0.6306 -0.1777
  632TMC3    C5 9411   4.563   1.815  15.422 -0.2450  0.0222 -0.0560
  632TMC3    C6 9412   4.431   1.842  15.396 -0.4945 -0.4575 -0.0684
  632TMC3     C 9413   4.550   1.491  15.544  0.0498  0.0350 -0.7678
  632TMC3     O 9414   4.670   1.472  15.573  0.3133 -0.4294  0.0657
  632TMC3     H 9415   4.282   1.591  15.543 -0.9403  0.6884  0.3420
  632TMC3    H1 9416   4.700   1.674  15.521 -0.3569 -2.2989  1.5272
  632TMC3    H2 9417   4.405   1.917  15.323 -1.2722 -1.3922 -0.7415
  632TMC3    C7 9418   4.652   1.863  15.318  0.8514  0.4271 -1.1550
  632TMC3    C8 9419   4.202   1.780  15.413 -0.0122 -0.3629 -0.2953
  632TMC3    O1 9420   4.601   1.929  15.232  0.1596 -0.0905  0.4826
  632TMC3    O2 9421   4.116   1.695  15.441 -0.2244  0.1003 -0.7963
  633MPD2     C 9422   4.311   4.208  17.248 -0.1039  0.4729  0.6165
  633MPD2    C1 9423   4.395   4.142  17.165  0.2206 -0.7243  0.1825
  633MPD2    C2 9424   4.478   4.048  17.219 -0.4332 -0.8023  0.6783
  633MPD2    C3 9425   4.485   4.009  17.351 -0.3904  0.1777 -0.1679
  633MPD2    C4 9426   4.392   4.075  17.438 -0.2310  0.4767 -0.2470
  633MPD2    C5 9427   4.303   4.172  17.385 -0.0424 -0.7521 -0.2017
  633MPD2     H 9428   4.549   3.992  17.159  1.4289  1.9807  0.2961
  633MPD2    H1 9429   4.383   4.057  17.544  2.1213  1.5879  0.1541
  633MPD2    H2 9430   4.230   4.272  17.216 -0.5980  0.0200  0.9547
  633MPD2    H3 9431   4.225   4.218  17.445 -1.3975 -2.6993 -0.4525
  633MPD2     N 9432   4.576   3.906  17.396 -0.2324  0.4571 -0.7238
  633MPD2    H5 9433   4.644   3.872  17.329 -0.6829  0.8440 -1.3752
  633MPD2    N1 9434   4.400   4.169  17.025  0.3248 -0.6520  0.0673
  633MPD2    H7 9435   4.466   4.116  16.969  1.6882  0.4151  0.6538
  634TMC3    C1 9436   4.394   4.277  16.822  0.4243 -0.2251 -0.0567
  634TMC3    C2 9437   4.470   4.176  16.767  0.9614 -0.2174  0.6368
  634TMC3    C3 9438   4.505   4.173  16.636  0.9136  0.1160 -0.0121
  634TMC3    C4 9439   4.335   4.367  16.735  0.2617  0.5221 -1.0913
  634TMC3    C5 9440   4.373   4.370  16.604  0.1239 -0.3210 -0.4119
  634TMC3    C6 9441   4.463   4.275  16.557 -0.0802 -0.7979 -0.2752
  634TMC3     C 9442   4.351   4.277  16.958 -0.0898 -0.0730  0.6057
  634TMC3     O 9443   4.285   4.371  17.006 -0.3300  0.8464 -0.0660
  634TMC3     H 9444   4.511   4.096  16.830 -1.3294  0.2074  2.6545
  634TMC3    H1 9445   4.257   4.431  16.775 -1.5061 -3.3678  1.5993
  634TMC3    H2 9446   4.491   4.286  16.453  0.8059  0.6990  0.1100
  634TMC3    C7 9447   4.323   4.481  16.524 -0.1043  0.5158  0.2990
  634TMC3    C8 9448   4.554   4.056  16.587 -0.3846 -0.7153  0.4214
  634TMC3    O1 9449   4.333   4.458  16.404  0.4870  0.0020 -0.1453
  634TMC3    O2 9450   4.565   3.962  16.666  0.5079  0.1045  0.7281
  635TMC3    C1 9451   0.499   0.036   0.404  0.2465 -0.1509  0.0369
  635TMC3    C2 9452   0.634   0.045   0.393  0.8482 -0.4536  0.3074
  635TMC3    C3 9453   0.699   4.668   0.427 -0.2099 -0.7152  0.2807
  635TMC3    C4 9454   0.421   4.678   0.461 -1.1684 -0.8507  0.5168
  635TMC3    C5 9455   0.493   4.575   0.504 -0.0515 -0.4344  0.2906
  635TMC3    C6 9456   0.629   4.561   0.474 -0.0063 -0.4371  0.2140
  635TMC3     C 9457   0.418   0.145   0.347 -0.2173 -0.0349 -0.0051
  635TMC3     O 9458   0.298   0.139   0.365  0.3533 -0.7467 -0.2432
  635TMC3     H 9459   0.686   0.121   0.335  2.1234  0.1006  2.2005
  635TMC3    H1 9460   0.314   4.679   0.446 -1.3497 -0.5445  1.7846
  635TMC3    H2 9461   0.676   4.467   0.501  1.0630 -0.1053 -0.5266
  635TMC3    C7 9462   0.430   4.461   0.571  0.1006  0.4144 -0.0943
  635TMC3    C8 9463   0.836   4.694   0.472 -0.7644 -0.1312 -0.4008
  635TMC3    O1 9464   0.495   4.363   0.596 -0.0159  0.6525  0.2283
  635TMC3    O2 9465   0.881   0.054   0.417 -0.3138 -0.3937 -0.0331
  636MPD2     C 9466   0.528   4.073  16.100  0.6800 -0.1603  0.1888
  636MPD2    C1 9467   0.523   4.063  16.236 -1.2171  0.6974 -0.1071
  636MPD2    C2 9468   0.525   3.935  16.296  0.0077  0.1862 -0.3006
  636MPD2    C3 9469   0.534   3.821  16.222 -0.4624  0.0093 -0.4296
  636MPD2    C4 9470   0.534   3.829  16.087 -0.4114  0.0642 -0.1117
  636MPD2    C5 9471   0.526   3.953  16.030  0.5589  0.2424  0.3764
  636MPD2     H 9472   0.494   3.937  16.400  1.2467 -2.1311  0.1236
  636MPD2    H1 9473   0.535   3.739  16.026 -1.1170  0.5600 -0.8414
  636MPD2    H2 9474   0.531   4.166  16.044 -1.9735  0.2920  0.8049
  636MPD2    H3 9475   0.513   3.976  15.925  0.1480  0.9186  0.5779
  636MPD2     N 9476   0.540   3.707  16.293 -0.2093  0.4176 -0.0623
  636MPD2    H5 9477   0.529   3.721  16.393  2.0372 -2.2998  0.5450
  636MPD2    N1 9478   0.504   4.184  16.317 -0.3081  0.5271 -0.0221
  636MPD2    H7 9479   0.527   4.173  16.415  0.1752  2.5519  0.0827
  637TMC3    C1 9480   0.611   3.488  16.354  0.4952 -0.2340 -0.2217
  637TMC3    C2 9481   0.559   3.529  16.481 -0.0238  0.1741  0.8849
  637TMC3    C3 9482   0.624   3.534  16.598 -0.1791  1.4418 -0.1262
  637TMC3    C4 9483   0.748   3.476  16.348 -0.4212  0.9485 -0.6396
  637TMC3    C5 9484   0.815   3.504  16.462  0.2556 -0.1528  0.3734
  637TMC3    C6 9485   0.756   3.507  16.585  0.0235  0.1283  0.3759
  637TMC3     C 9486   0.573   3.582  16.248  0.5144 -0.4825 -0.1988
  637TMC3     O 9487   0.622   3.558  16.139 -0.0148 -0.3367 -0.0013
  637TMC3     H 9488   0.453   3.551  16.488  0.1563  2.3798 -3.4211
  637TMC3    H1 9489   0.805   3.462  16.257  0.2840 -0.5307  0.0173
  637TMC3    H2 9490   0.819   3.525  16.672 -0.7004 -1.2447  1.1841
  637TMC3    C7 9491   0.914   3.609  16.460 -0.3132 -0.1987 -0.6391
  637TMC3    C8 9492   0.605   3.665  16.661 -0.0680 -0.3137  0.1849
  637TMC3    O1 9493   0.943   3.659  16.566 -0.1688  0.0597 -0.0356
  637TMC3    O2 9494   0.558   3.753  16.587  0.2486  0.5959  0.1163
  638MPD2     C 9495   1.063   3.112  15.085 -0.0932 -0.1429  0.2083
  638MPD2    C1 9496   1.056   2.978  15.047 -0.5208  0.4574 -0.2577
  638MPD2    C2 9497   0.953   2.901  15.101  0.7382  0.6194 -0.0779
  638MPD2    C3 9498   0.873   2.958  15.198 -0.1311  0.2962 -0.1656
  638MPD2    C4 9499   0.888   3.091  15.238  0.4048 -0.1300  0.2879
  638MPD2    C5 9500   0.989   3.168  15.183 -0.4537  0.6283  0.2153
  638MPD2     H 9501   0.942   2.794  15.086  0.7583  0.4929  0.8181
  638MPD2    H1 9502   0.829   3.140  15.315  1.0053 -0.8662  1.2075
  638MPD2    H2 9503   1.139   3.172  15.034 -0.7637 -1.0317 -1.8635
  638MPD2    H3 9504   0.999   3.267  15.224 -3.4948  1.0269 -0.0545
  638MPD2     N 9505   0.775   2.867  15.248  0.2134 -0.1719  0.0950
  638MPD2    H5 9506   0.768   2.773  15.209 -0.2861  0.0264 -0.2916
  638MPD2    N1 9507   1.146   2.931  14.949 -0.0417  0.3573  0.0183
  638MPD2    H7 9508   1.222   2.995  14.926  1.1121 -0.4140  1.6324
  639TMC3    C1 9509   0.607   2.770  15.373  0.2707  0.2441 -0.2374
  639TMC3    C2 9510   0.593   2.671  15.275  0.2343 -0.6195 -0.2732
  639TMC3    C3 9511   0.508   2.569  15.311  0.3194 -0.0629  0.7368
  639TMC3    C4 9512   0.577   2.753  15.498 -0.7938  0.7568  0.2214
  639TMC3    C5 9513   0.518   2.634  15.535  0.2847 -0.1438 -0.2641
  639TMC3    C6 9514   0.469   2.549  15.442 -0.3963 -0.5764 -0.4027
  639TMC3     C 9515   0.681   2.893  15.343 -0.2108 -0.4002 -0.5484
  639TMC3     O 9516   0.669   3.001  15.409  0.0040 -0.3668 -0.2825
  639TMC3     H 9517   0.624   2.674  15.171 -1.4869  0.4446 -0.7599
  639TMC3    H1 9518   0.597   2.824  15.578  0.9656  2.0319 -1.3784
  639TMC3    H2 9519   0.420   2.459  15.478 -1.1574 -0.4400 -1.0839
  639TMC3    C7 9520   0.600   2.566  15.634 -0.4090 -0.1935 -0.0290
  639TMC3    C8 9521   0.432   2.498  15.206  0.2746  0.3731 -0.2802
  639TMC3    O1 9522   0.548   2.473  15.695 -0.4583  0.1413  0.3429
  639TMC3    O2 9523   0.488   2.483  15.095 -0.2329  0.6703  0.2582
  640MPD2     C 9524   1.040   2.284  10.163 -0.3177  0.1838  0.0406
  640MPD2    C1 9525   0.903   2.273  10.153  0.0280  0.9291 -0.3110
  640MPD2    C2 9526   0.835   2.389  10.174  0.4122 -0.0225  0.4460
  640MPD2    C3 9527   0.905   2.509  10.188 -0.2249  0.5844 -0.1236
  640MPD2    C4 9528   1.043   2.509  10.192 -0.7294  0.0126  1.0757
  640MPD2    C5 9529   1.111   2.394  10.181  0.4235  0.1023 -0.2823
  640MPD2     H 9530   0.728   2.377  10.167  0.3514  0.7920  0.0202
  640MPD2    H1 9531   1.096   2.603  10.200 -0.0654 -0.2322 -0.3767
  640MPD2    H2 9532   1.090   2.188  10.163 -1.9222 -0.6669 -1.8701
  640MPD2    H3 9533   1.220   2.393  10.188  0.4742 -2.8121 -1.6513
  640MPD2     N 9534   0.840   2.639  10.197 -0.2594 -0.0143  0.6856
  640MPD2    H5 9535   0.885   2.728  10.219 -1.7280  0.4806  1.6708
  640MPD2    N1 9536   0.840   2.146  10.140  0.1862 -0.5411 -0.0002
  640MPD2    H7 9537   0.896   2.070  10.103  0.5403  0.6445 -1.9390
  641TMC3    C1 9538   0.673   1.989  10.136  0.0962 -0.5847 -0.8274
  641TMC3    C2 9539   0.735   1.933  10.025 -0.8403  0.2529 -0.1515
  641TMC3    C3 9540   0.691   1.807   9.989 -0.3313 -0.4855 -0.0060
  641TMC3    C4 9541   0.576   1.927  10.206 -0.6676 -0.3581 -0.5677
  641TMC3    C5 9542   0.530   1.808  10.164 -0.3973 -0.3049  0.7247
  641TMC3    C6 9543   0.585   1.746  10.057  0.1923 -0.0640  1.0530
  641TMC3     C 9544   0.705   2.119  10.171  0.0573 -0.1961  0.0609
  641TMC3     O 9545   0.621   2.187  10.230  0.3738 -0.1550 -0.4128
  641TMC3     H 9546   0.793   1.995   9.957 -0.2464  0.6022  0.6757
  641TMC3    H1 9547   0.534   1.971  10.296 -0.6033  1.2919 -1.3320
  641TMC3    H2 9548   0.550   1.647  10.032 -2.2148  1.0230  0.1646
  641TMC3    C7 9549   0.415   1.752  10.230  0.5000  0.5123 -0.2528
  641TMC3    C8 9550   0.754   1.727   9.883 -0.0848 -0.0606  0.1334
  641TMC3    O1 9551   0.357   1.833  10.299 -0.2330  0.7434  0.6673
  641TMC3    O2 9552   0.675   1.652   9.822  0.7025  0.5010  0.1055
  642TMC3    C1 9553   2.040   3.048  12.477 -0.7581  0.0215 -0.0599
  642TMC3    C2 9554   2.129   3.085  12.382 -0.5637  0.6841  0.3582
  642TMC3    C3 9555   2.149   3.008  12.275  0.2999  0.1499  0.4156
  642TMC3    C4 9556   1.964   2.935  12.468  0.9360  0.2085  0.0705
  642TMC3    C5 9557   1.983   2.856  12.358 -0.7028  0.0249 -0.7600
  642TMC3    C6 9558   2.080   2.890  12.266  0.2673 -0.4151  0.3988
  642TMC3     C 9559   2.009   3.151  12.579 -1.4792 -0.5627  0.5940
  642TMC3     O 9560   2.094   3.237  12.610  0.2066 -0.1887 -0.0882
  642TMC3     H 9561   2.200   3.163  12.409 -2.3285  2.6365 -0.6576
  642TMC3    H1 9562   1.882   2.911  12.536 -0.5295  0.8924 -1.4417
  642TMC3    H2 9563   2.103   2.834  12.176 -0.0462 -1.5774  1.0399
  642TMC3    C7 9564   1.916   2.726  12.349  0.1414 -0.8513 -0.1696
  642TMC3    C8 9565   2.273   3.021  12.198 -0.4286  0.5152  0.1343
  642TMC3    O1 9566   1.911   2.683  12.233 -0.3202  0.0832  0.3136
  642TMC3    O2 9567   2.310   2.924  12.128  0.0751 -0.1092  0.2303
  643TMC3    C1 9568   1.628   1.624  17.399  0.3597  0.0900 -0.3875
  643TMC3    C2 9569   1.517   1.634  17.318  0.4649 -0.0160 -0.6259
  643TMC3    C3 9570   1.535   1.656  17.182  0.1020 -0.9487 -0.4385
  643TMC3    C4 9571   1.755   1.634  17.349 -0.1255 -0.0214  0.2413
  643TMC3    C5 9572   1.767   1.652  17.212  0.2366  0.0679 -0.1413
  643TMC3    C6 9573   1.664   1.653  17.130 -0.5168  0.0925  0.4730
  643TMC3     C 9574   1.593   1.705  17.514  0.4952 -0.2568 -0.0516
  643TMC3     O 9575   1.496   1.774  17.491  0.1522  0.2006 -0.2908
  643TMC3     H 9576   1.416   1.610  17.349  1.0198 -0.2176  1.0070
  643TMC3    H1 9577   1.829   1.653  17.426 -0.3676 -1.9321  0.9457
  643TMC3    H2 9578   1.687   1.676  17.027  1.7016  0.0151  0.9321
  643TMC3    C7 9579   1.895   1.698  17.163 -0.1603  0.1416  0.3172
  643TMC3    C8 9580   1.452   1.762  17.138 -0.3457  0.0288 -0.1311
  643TMC3    O1 9581   1.992   1.659  17.225  0.3616  0.3698 -0.2010
  643TMC3    O2 9582   1.415   1.748  17.021  0.2333 -0.0859 -0.5427
  644MPD2     C 9583   1.230   2.666   9.560 -0.1081 -0.4929 -0.1939
  644MPD2    C1 9584   1.157   2.553   9.522  0.5739  0.4528 -0.5552
  644MPD2    C2 9585   1.024   2.564   9.499 -0.2461 -0.4490  0.3471
  644MPD2    C3 9586   0.971   2.695   9.491  0.1101  0.4400  1.1439
  644MPD2    C4 9587   1.041   2.804   9.534 -0.6312 -0.4013 -0.8247
  644MPD2    C5 9588   1.171   2.787   9.570 -0.0600 -0.2177 -0.0564
  644MPD2     H 9589   0.962   2.478   9.474 -1.0705  0.3710 -0.4306
  644MPD2    H1 9590   0.988   2.893   9.565  0.3889  0.9071 -2.8405
  644MPD2    H2 9591   1.334   2.663   9.589 -0.1608  0.6192  0.1219
  644MPD2    H3 9592   1.224   2.875   9.606 -0.7781  1.0786 -2.1913
  644MPD2     N 9593   0.828   2.708   9.453  0.3279 -0.0804  0.5185
  644MPD2    H5 9594   0.769   2.631   9.423  1.0107 -0.2093 -0.4859
  644MPD2    N1 9595   1.225   2.429   9.514 -1.0555  0.5128 -0.3866
  644MPD2    H7 9596   1.325   2.429   9.532 -1.3738  0.0356  1.3766
  645TMC3    C1 9597   0.627   2.821   9.421  0.8705 -0.0116  0.2725
  645TMC3    C2 9598   0.549   2.920   9.364 -0.1841 -0.4248 -0.0388
  645TMC3    C3 9599   0.421   2.893   9.336 -0.3631  0.2369  0.2717
  645TMC3    C4 9600   0.578   2.697   9.468 -0.0376 -0.6625  0.0576
  645TMC3    C5 9601   0.444   2.673   9.432 -0.2098 -0.1536 -0.5521
  645TMC3    C6 9602   0.364   2.774   9.373  0.3063 -0.6580  0.3636
  645TMC3     C 9603   0.773   2.837   9.428  0.1436  0.6104 -0.3997
  645TMC3     O 9604   0.825   2.944   9.401  0.2078 -0.4029 -0.1288
  645TMC3     H 9605   0.591   3.013   9.327  1.7472 -1.2331  0.1051
  645TMC3    H1 9606   0.628   2.628   9.535  2.6219  0.7608 -0.4661
  645TMC3    H2 9607   0.274   2.746   9.321  0.9006 -1.3224 -0.2961
  645TMC3    C7 9608   0.390   2.543   9.471 -0.5036  0.2658  0.0270
  645TMC3    C8 9609   0.343   2.993   9.265 -0.5189 -1.1912 -0.6691
  645TMC3    O1 9610   0.482   2.460   9.490 -0.2034 -0.4459  0.1123
  645TMC3    O2 9611   0.222   2.985   9.260 -0.1946  0.0928 -0.5624
  646MPD2     C 9612   0.972   1.873  14.766 -0.0824  0.4029 -0.3008
  646MPD2    C1 9613   0.863   1.813  14.834 -0.0607 -0.0585  0.0393
  646MPD2    C2 9614   0.739   1.839  14.789 -0.9030  0.4830 -0.3085
  646MPD2    C3 9615   0.724   1.929  14.684 -0.5436 -0.0041  0.1915
  646MPD2    C4 9616   0.825   1.989  14.619  0.1744  0.0230 -0.0199
  646MPD2    C5 9617   0.951   1.969  14.665 -0.3830 -0.0111  0.6831
  646MPD2     H 9618   0.651   1.791  14.830  0.3500 -1.4608  0.0987
  646MPD2    H1 9619   0.802   2.057  14.537  0.7262  1.4836  1.0373
  646MPD2    H2 9620   1.074   1.843  14.791  0.4884  0.9163 -1.9953
  646MPD2    H3 9621   1.031   2.024  14.616  0.3797 -2.3021 -0.6243
  646MPD2     N 9622   0.592   1.950  14.643  0.2473  0.8737  0.1297
  646MPD2    H5 9623   0.521   1.896  14.689  2.1866 -1.8257 -0.0522
  646MPD2    N1 9624   0.891   1.724  14.938 -0.0226  0.3658 -0.1944
  646MPD2    H7 9625   0.980   1.676  14.941  0.2534  0.8396 -0.9058
  647TMC3    C1 9626   0.849   1.599  15.134 -0.3193  0.0746  0.1174
  647TMC3    C2 9627   0.770   1.586  15.251 -0.0342 -0.5727  0.4368
  647TMC3    C3 9628   0.824   1.556  15.371  0.3009 -0.8969 -0.3045
  647TMC3    C4 9629   0.976   1.559  15.143  0.2668 -1.1195 -0.2738
  647TMC3    C5 9630   1.034   1.540  15.267 -0.3288 -0.2018  0.0986
  647TMC3    C6 9631   0.960   1.539  15.377 -0.1758 -0.0582  0.1168
  647TMC3     C 9632   0.794   1.686  15.031  0.7139 -0.5392  0.1630
  647TMC3     O 9633   0.675   1.714  15.030 -0.0183  0.2475  0.2698
  647TMC3     H 9634   0.669   1.624  15.239 -0.2688 -1.4753 -0.4066
  647TMC3    H1 9635   1.046   1.571  15.061  0.6630 -0.7677  0.1150
  647TMC3    H2 9636   1.008   1.515  15.472  3.3343  1.1631 -1.3309
  647TMC3    C7 9637   1.140   1.443  15.260  0.3443  0.3961 -0.3005
  647TMC3    C8 9638   0.773   1.422  15.403  0.0597 -0.1972  0.0267
  647TMC3    O1 9639   1.206   1.423  15.363 -0.0073  0.6841 -0.2850
  647TMC3    O2 9640   0.806   1.361  15.502 -0.1767 -0.3807 -0.0162
  648TMC3    C1 9641   0.171   4.046  16.143  0.4845  0.9481  0.1957
  648TMC3    C2 9642   0.174   3.908  16.132 -0.7155  0.6803 -0.1460
  648TMC3    C3 9643   0.169   3.863  16.006 -0.0529 -0.0439  0.1608
  648TMC3    C4 9644   0.156   4.135  16.043  0.2020  0.1290 -0.1543
  648TMC3    C5 9645   0.151   4.080  15.916  0.5980  0.3115 -0.6785
  648TMC3    C6 9646   0.159   3.945  15.892  0.0719 -0.5806  1.1243
  648TMC3     C 9647   0.145   4.103  16.277  0.2959  0.2727  0.3303
  648TMC3     O 9648   0.080   4.205  16.283 -0.1864  0.3322 -0.3657
  648TMC3     H 9649   0.175   3.840  16.216 -1.2834 -0.2886 -0.9322
  648TMC3    H1 9650   0.147   4.242  16.056 -2.0370  0.1580 -1.9440
  648TMC3    H2 9651   0.152   3.903  15.792 -1.4234  2.1224  0.0946
  648TMC3    C7 9652   0.126   4.163  15.805  0.2607 -0.2360  0.1276
  648TMC3    C8 9653   0.185   3.721  15.987  0.2143  0.0287  0.6012
  648TMC3    O1 9654   0.161   4.119  15.699 -0.2330  0.5708  0.2388
  648TMC3    O2 9655   0.152   3.647  16.080  0.5934 -0.2516 -0.3405
  649TMC3    C1 9656   3.801   0.745  12.989 -0.4467  0.1868 -0.5187
  649TMC3    C2 9657   3.934   0.724  12.959  0.0391  0.0133  0.6246
  649TMC3    C3 9658   3.999   0.632  13.031  0.8045 -0.2781  0.2912
  649TMC3    C4 9659   3.739   0.683  13.093 -0.2927 -0.5800 -0.1168
  649TMC3    C5 9660   3.813   0.599  13.167 -0.0278  0.7135  0.3001
  649TMC3    C6 9661   3.948   0.571  13.150 -0.1762 -0.4900 -0.0008
  649TMC3     C 9662   3.710   0.815  12.897 -0.3973  0.6788 -0.0532
  649TMC3     O 9663   3.590   0.808  12.923 -0.0981 -0.0586  0.4898
  649TMC3     H 9664   3.989   0.783  12.886 -0.7958 -2.1245 -1.7475
  649TMC3    H1 9665   3.633   0.698  13.112 -0.1728 -1.2536  1.0746
  649TMC3    H2 9666   4.002   0.493  13.203  0.7995 -1.2310 -2.0737
  649TMC3    C7 9667   3.744   0.530  13.268 -0.3312 -0.6776  0.2508
  649TMC3    C8 9668   4.124   0.585  12.984 -0.6362  0.0367 -0.2218
  649TMC3    O1 9669   3.625   0.505  13.257  0.0705  0.2580  0.6800
  649TMC3    O2 9670   4.186   0.508  13.057  0.2855  0.2911 -0.3889
  650TMC3    C1 9671   1.519   1.958  12.570 -0.0378 -0.0265  0.5581
  650TMC3    C2 9672   1.496   2.038  12.676  0.4238 -0.1224  0.4141
  650TMC3    C3 9673   1.364   2.074  12.691  0.3330 -0.3452  0.5718
  650TMC3    C4 9674   1.427   1.923  12.477 -0.8592  0.0091  0.4718
  650TMC3    C5 9675   1.300   1.964  12.503  0.4922  0.1785 -0.3286
  650TMC3    C6 9676   1.264   2.022  12.617  0.2113 -0.0566  0.5340
  650TMC3     C 9677   1.656   1.927  12.544  0.2499  0.0725 -0.4087
  650TMC3     O 9678   1.738   2.013  12.577 -0.4348  0.1265  0.5986
  650TMC3     H 9679   1.574   2.075  12.740  2.2721 -1.0852 -1.2744
  650TMC3    H1 9680   1.447   1.872  12.383 -4.8814 -1.7054  0.5133
  650TMC3    H2 9681   1.159   2.042  12.635 -0.4187 -2.0330 -0.9613
  650TMC3    C7 9682   1.231   2.021  12.390  0.8964  0.0030 -0.5702
  650TMC3    C8 9683   1.327   2.185  12.777 -0.0866  0.3919 -0.4912
  650TMC3    O1 9684   1.243   1.983  12.277 -0.4427 -0.6794  0.2571
  650TMC3    O2 9685   1.415   2.266  12.803 -0.2096  0.6161  0.5817
  651MPD2     C 9686   0.070   3.773  10.490 -0.6152 -0.2633  0.1428
  651MPD2    C1 9687   0.077   3.886  10.564  0.8388  0.9478 -0.9176
  651MPD2    C2 9688   0.206   3.936  10.575 -0.2674  0.8368  0.0007
  651MPD2    C3 9689   0.312   3.873  10.501 -0.4110 -0.7228 -0.1255
  651MPD2    C4 9690   0.289   3.772  10.416 -0.2576 -1.1889  0.4492
  651MPD2    C5 9691   0.167   3.720  10.408  0.4519  0.1889  0.7897
  651MPD2     H 9692   0.217   4.020  10.643 -0.0717  0.3382  0.5882
  651MPD2    H1 9693   0.365   3.713  10.365 -0.8382 -2.3978  1.0007
  651MPD2    H2 9694   4.709   3.737  10.473 -0.6477  0.9487 -2.2583
  651MPD2    H3 9695   0.154   3.625  10.356 -1.8400  0.4043  0.9878
  651MPD2     N 9696   0.445   3.918  10.509 -0.0832  0.6638 -0.5930
  651MPD2    H5 9697   0.466   3.977  10.589 -2.8946  3.0027 -1.5884
  651MPD2    N1 9698   4.703   3.940  10.627 -0.2146  0.0992  0.3490
  651MPD2    H7 9699   4.630   3.874  10.648  0.5233 -1.2664 -1.3559
  652TMC3    C1 9700   0.888   4.032  10.431  0.3237 -1.1633 -0.0945
  652TMC3    C2 9701   0.775   3.955  10.394  0.4256  0.4309 -0.6234
  652TMC3    C3 9702   0.661   3.969  10.464 -0.4069 -0.4142  0.0779
  652TMC3    C4 9703   0.885   4.129  10.526 -0.0574 -0.2387  0.1725
  652TMC3    C5 9704   0.757   4.138  10.583  0.8403  0.7539  0.3259
  652TMC3    C6 9705   0.653   4.050  10.573 -0.0839  0.3047 -0.1685
  652TMC3     C 9706   1.010   4.013  10.353  0.3877 -0.2977  0.4581
  652TMC3     O 9707   1.001   3.962  10.244  0.1459  0.8600 -0.1229
  652TMC3     H 9708   0.780   3.878  10.318  1.5832 -1.0423  0.9551
  652TMC3    H1 9709   0.964   4.199  10.552 -1.4301  1.7103 -0.8212
  652TMC3    H2 9710   0.561   4.077  10.624  0.4360 -0.0937  0.9795
  652TMC3    C7 9711   0.748   4.203  10.717 -0.5420  0.1967  0.9590
  652TMC3    C8 9712   0.552   3.879  10.433  0.1919  0.5297 -0.6851
  652TMC3    O1 9713   0.715   4.129  10.810 -0.8578 -0.1173  0.6528
  652TMC3    O2 9714   0.565   3.806  10.335 -0.0826 -0.5665 -0.4971
  653MPD2     C 9715   4.155   3.760  17.623  0.0117  0.5825 -0.0074
  653MPD2    C1 9716   4.076   3.857  17.564  0.5833 -0.1528  0.2846
  653MPD2    C2 9717   4.007   3.831  17.447 -0.6528 -0.4133  0.4292
  653MPD2    C3 9718   4.015   3.712  17.383 -0.1631  0.2901 -1.2575
  653MPD2    C4 9719   4.096   3.616  17.436 -0.0440 -0.2326 -0.4391
  653MPD2    C5 9720   4.160   3.639  17.557 -0.5284 -0.1279  0.2924
  653MPD2     H 9721   3.944   3.905  17.400 -0.3604  0.1840  0.9707
  653MPD2    H1 9722   4.108   3.518  17.390  2.3488 -1.2376  2.2467
  653MPD2    H2 9723   4.221   3.782  17.706 -1.1123  1.6759  0.5979
  653MPD2    H3 9724   4.224   3.559  17.593 -1.0660  0.1089  1.8152
  653MPD2     N 9725   3.928   3.691  17.273 -0.3834 -0.0950 -0.1948
  653MPD2    H5 9726   3.871   3.771  17.245 -1.2482 -1.2001 -1.6192
  653MPD2    N1 9727   4.061   3.983  17.620 -1.1370 -0.3894 -0.0864
  653MPD2    H7 9728   4.009   4.047  17.562  0.4518  0.2209 -0.8413
  654TMC3    C1 9729   3.844   3.587  17.077 -0.5577 -0.3779 -0.5075
  654TMC3    C2 9730   3.834   3.706  17.006 -0.4101 -0.2438 -0.0932
  654TMC3    C3 9731   3.806   3.699  16.872  0.0793 -0.7536 -0.0305
  654TMC3    C4 9732   3.814   3.471  17.012 -0.3037  0.7136 -0.3403
  654TMC3    C5 9733   3.795   3.470  16.878 -0.1447 -0.0828 -0.1888
  654TMC3    C6 9734   3.797   3.584  16.800  0.9351  0.2574  0.5222
  654TMC3     C 9735   3.903   3.574  17.208  0.8536  0.2297 -1.6398
  654TMC3     O 9736   3.950   3.466  17.235  0.4267  0.3627 -0.2482
  654TMC3     H 9737   3.844   3.804  17.053  0.4568 -0.6795  0.6363
  654TMC3    H1 9738   3.793   3.393  17.084  2.4143  0.3540  0.0410
  654TMC3    H2 9739   3.769   3.579  16.695  0.7295 -1.2198  0.6522
  654TMC3    C7 9740   3.745   3.345  16.822  0.1840 -0.2405  0.3867
  654TMC3    C8 9741   3.799   3.821  16.794 -0.2710  0.0771 -0.3971
  654TMC3    O1 9742   3.673   3.355  16.720  0.3745 -0.2685 -0.4269
  654TMC3    O2 9743   3.732   3.910  16.841 -0.4368 -0.1521 -0.1975
  655MPD2     C 9744   0.693   4.134  15.707  0.0561 -0.3077 -0.2212
  655MPD2    C1 9745   0.707   4.238  15.620  1.0650  0.1642 -0.6619
  655MPD2    C2 9746   0.761   4.216  15.494  0.0727 -0.1083  0.1179
  655MPD2    C3 9747   0.802   4.085  15.465 -0.2391  0.0920 -1.1676
  655MPD2    C4 9748   0.789   3.983  15.551  0.7890 -0.3020 -0.0490
  655MPD2    C5 9749   0.732   4.012  15.667  0.4027 -0.2100  0.1988
  655MPD2     H 9750   0.779   4.298  15.426 -0.3444 -0.2143 -0.1195
  655MPD2    H1 9751   0.802   3.878  15.526 -0.5339 -0.5170  0.1217
  655MPD2    H2 9752   0.645   4.134  15.805  0.5454  1.1390  0.0212
  655MPD2    H3 9753   0.701   3.938  15.740 -0.2653 -0.1516 -0.0320
  655MPD2     N 9754   0.865   4.052  15.340  0.2477 -0.5479 -0.1701
  655MPD2    H5 9755   0.888   3.954  15.329  1.4393 -0.5448  2.2998
  655MPD2    N1 9756   0.650   4.361  15.650 -0.4918 -0.1790 -0.1002
  655MPD2    H7 9757   0.629   4.417  15.568 -1.1447 -0.5258 -0.1729
  656TMC3    C1 9758   0.525   4.516  15.766 -0.4525  0.6229 -0.0457
  656TMC3    C2 9759   0.433   4.510  15.862 -0.1886  0.2084 -0.1069
  656TMC3    C3 9760   0.318   4.588  15.844  0.3937  0.1798  0.7971
  656TMC3    C4 9761   0.503   4.588  15.649  0.1333 -0.6628  0.4867
  656TMC3    C5 9762   0.390   4.662  15.632  0.4371 -0.4233  0.7181
  656TMC3    C6 9763   0.291   4.668  15.733  0.2418  0.7818 -0.2794
  656TMC3     C 9764   0.609   4.403  15.771  0.0770 -0.2549  1.1124
  656TMC3     O 9765   0.628   4.342  15.877  0.5586  0.2918  0.0544
  656TMC3     H 9766   0.446   4.445  15.948 -2.9267 -1.0475 -0.6507
  656TMC3    H1 9767   0.583   4.599  15.577  0.5290 -1.8615  0.7375
  656TMC3    H2 9768   0.195   4.711  15.709  0.2212  1.2080  0.5674
  656TMC3    C7 9769   0.387   0.003  15.512 -0.2709 -0.3882 -0.2750
  656TMC3    C8 9770   0.221   4.581  15.946 -0.0845  0.2767 -0.5085
  656TMC3    O1 9771   0.492   0.030  15.454 -0.5823  0.2657  0.2557
  656TMC3    O2 9772   0.240   4.500  16.039 -0.2510 -0.1567 -0.5900
  657TMC3    C1 9773   4.255   3.528  14.883 -0.6027 -0.0756 -0.1806
  657TMC3    C2 9774   4.240   3.496  15.015  0.2380  0.3568  0.4254
  657TMC3    C3 9775   4.208   3.599  15.096  1.1206  0.4710 -0.1969
  657TMC3    C4 9776   4.263   3.660  14.838 -0.8970 -0.6772 -0.2288
  657TMC3    C5 9777   4.228   3.760  14.921 -0.3897 -0.6305 -0.5267
  657TMC3    C6 9778   4.183   3.724  15.048 -0.1270 -0.4964  0.6499
  657TMC3     C 9779   4.216   3.440  14.772  0.1905  0.1259 -0.0496
  657TMC3     O 9780   4.153   3.502  14.685  0.0625 -0.0227 -0.0434
  657TMC3     H 9781   4.236   3.394  15.050 -4.4519  0.8261  1.3681
  657TMC3    H1 9782   4.291   3.674  14.734  1.8656  0.2395  0.6457
  657TMC3    H2 9783   4.151   3.800  15.119 -0.3021 -0.6903  0.7800
  657TMC3    C7 9784   4.195   3.891  14.875 -0.0184  0.7436 -0.4374
  657TMC3    C8 9785   4.164   3.569  15.231  1.1573  0.6137  0.8125
  657TMC3    O1 9786   4.091   3.934  14.928  0.5449 -0.2197 -0.2326
  657TMC3    O2 9787   4.067   3.638  15.269  0.4881 -0.0023  0.6136
  658MPD2     C 9788   1.296   4.434  14.778 -0.0114 -0.6041  0.8217
  658MPD2    C1 9789   1.208   4.335  14.733  0.4274  0.4067 -0.2565
  658MPD2    C2 9790   1.180   4.327  14.599 -0.1791  0.1936 -0.3571
  658MPD2    C3 9791   1.231   4.420  14.506 -1.0487  0.1828  0.4584
  658MPD2    C4 9792   1.309   4.522  14.554 -0.0924  0.3787  0.1667
  658MPD2    C5 9793   1.339   4.526  14.687  0.3475 -0.5116  0.3123
  658MPD2     H 9794   1.122   4.247  14.553 -1.6461  2.5961 -2.6822
  658MPD2    H1 9795   1.336   4.615  14.505  0.0785  0.8626  1.1722
  658MPD2    H2 9796   1.319   4.439  14.884  1.3206 -0.8514  0.5394
  658MPD2    H3 9797   1.404   4.608  14.716 -1.4821  0.5426  1.3951
  658MPD2     N 9798   1.215   4.411  14.365 -0.1105  0.3591 -0.0889
  658MPD2    H5 9799   1.159   4.333  14.332  2.0136 -1.4937  0.6859
  658MPD2    N1 9800   1.146   4.246  14.824 -0.0618  0.4477  0.1181
  658MPD2    H7 9801   1.183   4.245  14.919 -0.8520  0.7442  0.4337
  659TMC3    C1 9802   1.021   4.075  14.902 -0.7295  0.8022  0.3726
  659TMC3    C2 9803   1.021   4.126  15.032 -0.5001  0.1622 -0.8362
  659TMC3    C3 9804   0.923   4.076  15.113 -0.0050 -0.3736 -0.2826
  659TMC3    C4 9805   0.941   3.969  14.870 -0.0040  0.5438  0.3321
  659TMC3    C5 9806   0.842   3.929  14.958 -0.2949 -0.0375  0.0005
  659TMC3    C6 9807   0.836   3.972  15.083  0.8187  0.2689 -0.1734
  659TMC3     C 9808   1.047   4.162  14.793 -0.0059  0.7037  0.7982
  659TMC3     O 9809   0.980   4.151  14.690  0.9539  0.2098  0.0461
  659TMC3     H 9810   1.086   4.204  15.072  0.9464 -1.3634 -0.2266
  659TMC3    H1 9811   0.939   3.924  14.772  0.0657 -1.6811  1.3695
  659TMC3    H2 9812   0.752   3.954  15.149  0.2051 -0.4338 -1.1382
  659TMC3    C7 9813   0.713   3.928  14.892 -0.1379 -0.2906 -0.5269
  659TMC3    C8 9814   0.897   4.141  15.241 -0.2464  0.1065 -0.4513
  659TMC3    O1 9815   0.621   3.879  14.963  0.0649  0.2138 -0.0474
  659TMC3    O2 9816   0.905   4.262  15.248  0.2740  0.5258  0.4969
  660MPD2     C 9817   2.832   3.741  12.322  0.6100  0.4327  0.4421
  660MPD2    C1 9818   2.856   3.622  12.250  0.6224 -0.1891  0.6085
  660MPD2    C2 9819   2.833   3.494  12.304  0.3906 -0.5360  0.2812
  660MPD2    C3 9820   2.794   3.481  12.434  0.3433  0.2024 -0.3191
  660MPD2    C4 9821   2.765   3.597  12.503 -0.3316 -0.0503  0.2718
  660MPD2    C5 9822   2.777   3.725  12.448 -0.0251 -0.2220  0.1361
  660MPD2     H 9823   2.851   3.401  12.250 -0.5495  0.3187 -1.5214
  660MPD2    H1 9824   2.732   3.585  12.605 -1.6343  1.0458 -0.0078
  660MPD2    H2 9825   2.855   3.842  12.290  1.4844  0.0969 -0.0072
  660MPD2    H3 9826   2.779   3.809  12.516  0.8416  3.1298 -4.0556
  660MPD2     N 9827   2.789   3.348  12.481  0.2355  0.1745  0.3944
  660MPD2    H5 9828   2.798   3.272  12.414 -0.8696  1.6184 -1.3722
  660MPD2    N1 9829   2.893   3.636  12.116  0.4381 -0.4269 -0.1802
  660MPD2    H7 9830   2.897   3.733  12.084  0.9899 -1.1695 -2.3512
  661TMC3    C1 9831   2.984   3.591  11.905 -0.2908  0.2533 -0.1132
  661TMC3    C2 9832   3.049   3.495  11.831  0.1778 -0.0392 -0.4196
  661TMC3    C3 9833   3.019   3.489  11.696 -0.4312  0.5460 -0.1731
  661TMC3    C4 9834   2.884   3.671  11.846 -0.5014 -0.0685 -0.0455
  661TMC3    C5 9835   2.857   3.654  11.711 -0.1219 -0.8522  0.3189
  661TMC3    C6 9836   2.927   3.568  11.633 -0.4396  0.0259  0.1530
  661TMC3     C 9837   2.954   3.542  12.040 -0.6079  0.6631  0.7650
  661TMC3     O 9838   3.012   3.439  12.070  0.0123 -0.3050 -0.2373
  661TMC3     H 9839   3.124   3.431  11.876 -0.5589 -0.6471 -0.0605
  661TMC3    H1 9840   2.812   3.722  11.908  0.4655  3.4687 -1.8408
  661TMC3    H2 9841   2.908   3.555  11.527 -2.3730  0.0153  0.4894
  661TMC3    C7 9842   2.717   3.677  11.679  0.0448  0.0590  0.1841
  661TMC3    C8 9843   3.093   3.392  11.618 -0.0162 -0.6104  0.3288
  661TMC3    O1 9844   2.669   3.781  11.718  0.1602 -0.2936  0.4114
  661TMC3    O2 9845   3.149   3.309  11.687 -0.2329  0.2961  0.0881
  662MPD2     C 9846   3.421   2.652  17.053 -0.6438 -1.0120 -0.2325
  662MPD2    C1 9847   3.399   2.529  17.108  0.2353  0.3017 -1.3133
  662MPD2    C2 9848   3.365   2.520  17.240 -0.0751 -0.2701 -0.1306
  662MPD2    C3 9849   3.368   2.626  17.330  0.4232  0.0810 -0.0188
  662MPD2    C4 9850   3.418   2.742  17.271 -0.6844 -0.7738 -0.9216
  662MPD2    C5 9851   3.445   2.756  17.140 -0.5037  0.0861  0.6826
  662MPD2     H 9852   3.338   2.422  17.280  1.1163 -0.3257  0.5326
  662MPD2    H1 9853   3.436   2.829  17.333 -0.2334  0.3804 -2.6975
  662MPD2    H2 9854   3.457   2.660  16.951 -2.3139  1.5536 -0.6325
  662MPD2    H3 9855   3.502   2.844  17.115 -1.4036  0.0769 -1.4121
  662MPD2     N 9856   3.329   2.631  17.468  0.1695 -0.5381  0.4506
  662MPD2    H5 9857   3.331   2.724  17.509 -0.0190  0.8495 -2.7017
  662MPD2    N1 9858   3.410   2.405  17.037 -0.5223 -0.0085 -0.0284
  662MPD2    H7 9859   3.409   2.323  17.097 -0.5089 -0.6082 -0.8540
  663TMC3    C1 9860   3.458   2.269  16.852  0.0784  0.1876 -0.4476
  663TMC3    C2 9861   3.556   2.211  16.933 -0.1288 -0.2303  0.0671
  663TMC3    C3 9862   3.648   2.128  16.880  0.2660  0.3162  0.0422
  663TMC3    C4 9863   3.451   2.229  16.719  0.4019  0.1111 -1.0632
  663TMC3    C5 9864   3.539   2.129  16.678  0.3548 -0.0517 -0.1164
  663TMC3    C6 9865   3.646   2.097  16.753 -0.8099  0.1410 -0.1556
  663TMC3     C 9866   3.397   2.393  16.901  0.7044 -0.2104 -0.2633
  663TMC3     O 9867   3.364   2.475  16.816 -0.7672  0.3575  0.2658
  663TMC3     H 9868   3.584   2.246  17.032  2.2277  0.8874 -1.0132
  663TMC3    H1 9869   3.367   2.268  16.664 -0.6116  0.7487  0.9292
  663TMC3    H2 9870   3.726   2.030  16.722 -0.5181 -0.3566  1.7137
  663TMC3    C7 9871   3.483   2.024  16.588  0.4386  0.0633  0.0886
  663TMC3    C8 9872   3.642   1.996  16.942 -0.2670  0.0367 -0.7194
  663TMC3    O1 9873   3.390   2.065  16.521 -0.0986 -0.0624  0.2785
  663TMC3    O2 9874   3.682   1.892  16.889 -0.2971  0.1278  0.4832
  664MPD2     C 9875   1.557   1.388  17.009 -0.0019 -0.4887 -0.7172
  664MPD2    C1 9876   1.637   1.270  17.032 -0.5229 -0.1135 -0.2761
  664MPD2    C2 9877   1.576   1.166  17.087  0.3191  0.0449  0.2165
  664MPD2    C3 9878   1.445   1.170  17.132  0.2986 -0.4543 -0.2616
  664MPD2    C4 9879   1.368   1.281  17.107  0.6063  0.4309  0.4082
  664MPD2    C5 9880   1.423   1.389  17.046 -0.7578 -0.4820  0.1796
  664MPD2     H 9881   1.632   1.076  17.108 -0.6846 -0.7781 -0.6210
  664MPD2    H1 9882   1.261   1.281  17.120  0.6223  2.6540  0.5438
  664MPD2    H2 9883   1.597   1.475  16.958 -0.8342  0.5429  0.4005
  664MPD2    H3 9884   1.361   1.473  17.015  1.3251  1.4119  1.1339
  664MPD2     N 9885   1.397   1.050  17.200  0.1682 -0.1908  0.0216
  664MPD2    H5 9886   1.457   0.968  17.205 -1.6508 -1.3968  2.0127
  664MPD2    N1 9887   1.771   1.253  17.003 -0.0779  0.1448 -0.4345
  664MPD2    H7 9888   1.815   1.169  17.038  1.1744  1.3043  0.7710
  665TMC3    C1 9889   1.265   0.937  17.356 -0.1480  0.0850 -0.3041
  665TMC3    C2 9890   1.168   0.949  17.455  0.3186  0.7965  1.0258
  665TMC3    C3 9891   1.184   0.908  17.586 -0.0758  0.1635 -0.1725
  665TMC3    C4 9892   1.378   0.866  17.390  0.1655 -0.1893 -0.9330
  665TMC3    C5 9893   1.390   0.808  17.514 -0.4160  0.2120 -0.4768
  665TMC3    C6 9894   1.299   0.842  17.621 -0.6211  0.0666 -0.5584
  665TMC3     C 9895   1.267   1.033  17.249 -0.8432 -0.0228 -0.0240
  665TMC3     O 9896   1.170   1.100  17.227 -1.0826 -0.2761  0.1041
  665TMC3     H 9897   1.080   1.008  17.433  0.4169  0.9104  0.9343
  665TMC3    H1 9898   1.447   0.831  17.314  1.9251  2.1891 -0.4368
  665TMC3    H2 9899   1.297   0.773  17.705 -1.2033 -0.2591 -0.8421
  665TMC3    C7 9900   1.521   0.758  17.543 -0.1389 -0.7994  0.1098
  665TMC3    C8 9901   1.086   0.940  17.693 -0.3065  0.3006 -0.1544
  665TMC3    O1 9902   1.591   0.722  17.448  0.1915  0.4179 -0.1370
  665TMC3    O2 9903   1.089   0.873   0.037 -0.1991 -0.0728 -0.2820
  666TMC3    C1 9904   0.993   0.700   9.998  0.0090  0.0845  0.2352
  666TMC3    C2 9905   1.095   0.641  10.057  0.0899  0.3989  0.6077
  666TMC3    C3 9906   1.183   0.716  10.129 -0.1038 -0.4770  0.6761
  666TMC3    C4 9907   0.981   0.837  10.002 -0.5036  0.2642 -0.2706
  666TMC3    C5 9908   1.076   0.906  10.072  0.0371 -0.1550  1.3030
  666TMC3    C6 9909   1.186   0.852  10.139  0.0639 -0.2653  0.1158
  666TMC3     C 9910   0.871   0.628  10.025 -0.3453 -0.1747  0.6537
  666TMC3     O 9911   0.776   0.622   9.942  0.8398  0.4843  0.1748
  666TMC3     H 9912   1.102   0.533  10.055  0.4428  0.3761  2.8477
  666TMC3    H1 9913   0.889   0.889   9.975 -0.1967  0.9116 -0.0552
  666TMC3    H2 9914   1.251   0.907  10.206 -2.0074  0.5877  1.3820
  666TMC3    C7 9915   1.031   1.036  10.107 -0.0810 -0.8157  0.2471
  666TMC3    C8 9916   1.235   0.634  10.238  0.3710 -0.9716 -0.3217
  666TMC3    O1 9917   0.914   1.064  10.130 -0.9461 -0.1178 -0.2287
  666TMC3    O2 9918   1.157   0.550  10.285  0.6485 -0.2438 -0.4286
  667MPD2     C 9919   2.198   1.414  14.311 -0.4747  0.3933 -0.5305
  667MPD2    C1 9920   2.267   1.350  14.414  0.4027  0.4706 -0.0377
  667MPD2    C2 9921   2.236   1.221  14.450 -0.1101  0.6504  0.2834
  667MPD2    C3 9922   2.127   1.160  14.396 -0.3600 -0.0992  0.8556
  667MPD2    C4 9923   2.052   1.232  14.317 -0.0108 -0.2351  0.0843
  667MPD2    C5 9924   2.090   1.349  14.266  0.5838 -0.5931 -0.7471
  667MPD2     H 9925   2.291   1.163  14.523 -0.2200  0.3214  0.1055
  667MPD2    H1 9926   1.952   1.194  14.298  0.4364 -0.8025 -1.1394
  667MPD2    H2 9927   2.221   1.513  14.274  0.3323 -0.4838 -2.3936
  667MPD2    H3 9928   2.029   1.387  14.184 -1.2348 -1.2230  0.3167
  667MPD2     N 9929   2.089   1.022  14.419 -0.6788  0.2758  0.3524
  667MPD2    H5 9930   2.001   0.984  14.387  0.0103 -1.6784  0.7452
  667MPD2    N1 9931   2.370   1.414  14.482  0.7251 -0.0118 -0.7057
  667MPD2    H7 9932   2.413   1.363  14.559 -2.2444  0.2311  1.1448
  668TMC3    C1 9933   2.529   1.565  14.554  0.4404  0.3377  0.1195
  668TMC3    C2 9934   2.610   1.674  14.520  0.2228 -0.1103  0.4045
  668TMC3    C3 9935   2.677   1.725  14.628  0.2237  0.5687 -0.2973
  668TMC3    C4 9936   2.552   1.479  14.658 -0.2058 -0.6963  0.1290
  668TMC3    C5 9937   2.628   1.535  14.759 -0.2462 -0.6331  0.5131
  668TMC3    C6 9938   2.681   1.659  14.749 -0.1682 -0.4237  0.1684
  668TMC3     C 9939   2.430   1.533  14.452  0.1798  0.3764  0.6160
  668TMC3     O 9940   2.417   1.610  14.362 -0.0224 -0.1235 -0.2419
  668TMC3     H 9941   2.598   1.724  14.425 -0.9501 -0.3187  0.4360
  668TMC3    H1 9942   2.524   1.374  14.650  0.4585 -0.7782 -1.1495
  668TMC3    H2 9943   2.739   1.693  14.834 -1.0873  2.4276 -0.3417
  668TMC3    C7 9944   2.680   1.447  14.854  0.2589  0.1447  0.5721
  668TMC3    C8 9945   2.755   1.848  14.626 -0.2779 -0.3634  0.2485
  668TMC3    O1 9946   2.778   1.491  14.916  0.1248  0.7279 -0.4216
  668TMC3    O2 9947   2.827   1.877  14.723  0.3296  1.1124  0.3548
  669TMC3    C1 9948   0.565   0.844  14.768  0.5608  0.1039  0.8479
  669TMC3    C2 9949   0.461   0.846  14.685  0.1717 -0.5311  0.4700
  669TMC3    C3 9950   0.465   0.927  14.573  0.6478 -0.0346  0.8975
  669TMC3    C4 9951   0.680   0.921  14.745 -0.2947  0.4253 -0.1124
  669TMC3    C5 9952   0.682   0.991  14.624 -0.3505  0.3677 -0.1390
  669TMC3    C6 9953   0.580   0.995  14.536  0.1544 -0.3224 -0.1801
  669TMC3     C 9954   0.548   0.747  14.881  0.3148 -0.7316 -0.2960
  669TMC3     O 9955   0.427   0.741  14.910 -0.4641  0.3461  0.0965
  669TMC3     H 9956   0.368   0.800  14.716 -0.9608  2.2427  1.1766
  669TMC3    H1 9957   0.757   0.924  14.821  0.6308 -0.8963 -1.0029
  669TMC3    H2 9958   0.580   1.052  14.444 -0.3988 -0.4072 -0.2331
  669TMC3    C7 9959   0.804   1.058  14.595  0.1246  0.0863  0.1855
  669TMC3    C8 9960   0.355   0.921  14.490  0.0593 -0.3331 -0.2515
  669TMC3    O1 9961   0.878   1.076  14.691 -0.1910  0.2107 -0.1841
  669TMC3    O2 9962   0.302   0.815  14.496 -0.0482 -0.4407 -0.3424
  670MPD2     C 9963   4.293   3.444  13.264  0.5277  0.4460 -0.1294
  670MPD2    C1 9964   4.288   3.529  13.372 -0.5401  0.3761 -0.0766
  670MPD2    C2 9965   4.187   3.504  13.466  0.1903  0.0265  0.2661
  670MPD2    C3 9966   4.097   3.403  13.452  0.7091  0.4959  0.1026
  670MPD2    C4 9967   4.104   3.317  13.341  0.0836 -1.0034  1.0698
  670MPD2    C5 9968   4.207   3.339  13.242 -0.1736 -0.2194 -0.1839
  670MPD2     H 9969   4.180   3.569  13.552 -0.3700 -1.6594  1.5092
  670MPD2    H1 9970   4.038   3.237  13.311 -1.1420 -0.7118  3.0212
  670MPD2    H2 9971   4.361   3.473  13.185 -1.3900  2.4357 -1.0752
  670MPD2    H3 9972   4.213   3.281  13.150 -1.3081  0.3867 -0.6498
  670MPD2     N 9973   3.999   3.393  13.563  0.4332 -0.2317  0.0180
  670MPD2    H5 9974   4.004   3.471  13.626 -0.4408  0.6948 -1.0493
  670MPD2    N1 9975   4.379   3.638  13.388 -0.1886 -0.3117  0.6095
  670MPD2    H7 9976   4.359   3.708  13.458  0.9836 -1.2695  1.9013
  671TMC3    C1 9977   3.811   3.315  13.691 -0.3632 -0.6196 -0.2083
  671TMC3    C2 9978   3.867   3.341  13.816  0.2046  0.4232 -0.6821
  671TMC3    C3 9979   3.814   3.279  13.924  0.0075 -0.6135  0.2040
  671TMC3    C4 9980   3.690   3.245  13.679 -0.2431  0.2345  0.0789
  671TMC3    C5 9981   3.631   3.187  13.790  0.7333 -0.4368  0.2471
  671TMC3    C6 9982   3.689   3.213  13.919 -0.3936 -0.0319  0.4028
  671TMC3     C 9983   3.903   3.294  13.578  0.5260 -0.4716  0.3703
  671TMC3     O 9984   3.864   3.214  13.493  0.0202  0.1653  0.2031
  671TMC3     H 9985   3.965   3.388  13.821 -0.1798  1.0688  1.0439
  671TMC3    H1 9986   3.650   3.233  13.579 -0.4637 -0.8694  0.3047
  671TMC3    H2 9987   3.647   3.173  14.010  1.8345 -2.1442  0.5298
  671TMC3    C7 9988   3.515   3.092  13.769  0.6735 -0.2551  0.4400
  671TMC3    C8 9989   3.910   3.230  14.020  0.2090 -0.1294 -0.4360
  671TMC3    O1 9990   3.465   3.099  13.657  0.0804  0.2491 -0.1399
  671TMC3    O2 9991   4.026   3.217  13.983 -0.4418  0.4396  0.5120
  672MPD2     C 9992   3.372   2.863   0.476  0.0100 -0.3534 -0.2741
  672MPD2    C1 9993   3.503   2.817   0.508  0.2548  0.0166 -0.3813
  672MPD2    C2 9994   3.555   2.823   0.636  0.7465  0.4997 -0.0661
  672MPD2    C3 9995   3.478   2.884   0.733  0.5527  0.1068  0.4912
  672MPD2    C4 9996   3.354   2.934   0.695 -0.2308 -0.1500 -0.1087
  672MPD2    C5 9997   3.294   2.920   0.570  0.2731 -0.6058 -0.1944
  672MPD2     H 9998   3.653   2.782   0.658  0.4162 -0.8558 -1.0504
  672MPD2    H1 9999   3.288   2.976   0.770 -0.0873  0.1892 -0.1729
  672MPD2    H210000   3.329   2.850   0.377 -0.5584  1.5574 -0.2797
  672MPD2    H310001   3.192   2.953   0.554  0.3737 -1.4275 -2.4629
  672MPD2     N10002   3.517   2.895   0.870 -0.9917  0.1041 -0.7188
  672MPD2    H510003   3.452   2.952   0.924 -0.0137  1.3937 -0.9081
  672MPD2    N110004   3.577   2.762   0.400 -1.0088 -0.2742 -0.3697
  672MPD2    H710005   3.547   2.794   0.308  0.1320 -1.8968 -1.3030
  673TMC3    C110006   3.773   2.658   0.295 -0.0449 -0.4175 -0.5279
  673TMC3    C210007   3.852   2.544   0.306  0.5845  0.2368 -0.5121
  673TMC3    C310008   3.941   2.523   0.201 -0.5208 -0.0226  1.4794
  673TMC3    C410009   3.807   2.762   0.210 -0.4403  0.0347  0.3481
  673TMC3    C510010   3.903   2.742   0.118  0.1146 -0.0133  0.1025
  673TMC3    C610011   3.961   2.622   0.108  0.6145 -0.6907  0.5611
  673TMC3     C10012   3.698   2.694   0.418 -0.7754  0.4695 -0.4561
  673TMC3     O10013   3.741   2.630   0.516 -0.0797  0.1947  0.0587
  673TMC3     H10014   3.823   2.474   0.384 -0.7594  1.3623  0.0183
  673TMC3    H110015   3.758   2.858   0.220 -0.2891  0.3412 -1.8246
  673TMC3    H210016   4.033   2.592   0.032 -0.3392  1.8278 -1.3198
  673TMC3    C710017   3.949   2.840   0.027  0.1186  0.2819 -0.3279
  673TMC3    C810018   4.041   2.426   0.201  0.4369 -0.3527  0.2246
  673TMC3    O110019   4.027   2.806  17.694  0.0358  0.0249  0.0512
  673TMC3    O210020   4.100   2.399   0.098  0.3994  0.2971 -0.6549
  674MPD2     C10021   3.663   3.410  17.431 -0.2406 -0.3989  0.4056
  674MPD2    C110022   3.613   3.319  17.514  0.7470  0.1746 -0.3917
  674MPD2    C210023   3.527   3.360  17.622  0.1769  0.2624  0.0467
  674MPD2    C310024   3.505   3.497  17.643 -0.2013  0.2534 -0.1274
  674MPD2    C410025   3.560   3.591  17.560 -0.1194 -1.1757  0.0389
  674MPD2    C510026   3.637   3.546  17.453 -0.0508  0.1906  0.5811
  674MPD2     H10027   3.475   3.293  17.689  0.7683 -0.5929 -0.3460
  674MPD2    H110028   3.551   3.699  17.560  0.6935 -1.1108 -0.4970
  674MPD2    H210029   3.722   3.365  17.352  0.3738 -0.0380  0.6569
  674MPD2    H310030   3.686   3.611  17.381  2.2112 -2.3620 -0.2180
  674MPD2     N10031   3.436   3.528   0.001 -0.2708 -0.2181 -0.3184
  674MPD2    H510032   3.393   3.449   0.048  2.7371  0.2914  3.2242
  674MPD2    N110033   3.641   3.183  17.475 -0.7753 -0.3860 -0.1154
  674MPD2    H710034   3.679   3.168  17.382 -1.4915 -1.6061 -0.2111
  675TMC3    C110035   3.672   2.945  17.497  0.2533  0.1392 -0.1837
  675TMC3    C210036   3.634   2.830  17.570  0.3915  0.3135  0.1578
  675TMC3    C310037   3.708   2.720  17.540 -0.4712 -0.3140  0.1991
  675TMC3    C410038   3.777   2.946  17.409  0.0381 -0.5476 -0.3333
  675TMC3    C510039   3.839   2.828  17.382 -0.4569 -0.3992  0.6963
  675TMC3    C610040   3.803   2.718  17.444  0.6156 -0.2275  0.1743
  675TMC3     C10041   3.610   3.067  17.542  0.9760  0.2555 -0.6429
  675TMC3     O10042   3.536   3.055  17.640  0.0238  0.0753 -0.1404
  675TMC3     H10043   3.558   2.822  17.647 -1.9637  4.5743 -1.7236
  675TMC3    H110044   3.820   3.036  17.367  2.7834 -1.2668  0.9069
  675TMC3    H210045   3.862   2.628  17.433  0.1669 -0.4199 -0.6506
  675TMC3    C710046   3.974   2.829  17.329 -0.0635 -0.4703 -0.4250
  675TMC3    C810047   3.684   2.591  17.596 -0.1783  1.0749  0.5695
  675TMC3    O110048   3.976   2.861  17.210 -0.2559  0.3221 -0.3183
  675TMC3    O210049   3.703   2.492  17.530  0.0072 -0.4478 -0.6513
  676MPD2     C10050   1.396   2.092  11.047 -0.0944  0.3200  0.2457
  676MPD2    C110051   1.324   1.996  11.114  0.2684  0.0504 -0.4843
  676MPD2    C210052   1.306   1.874  11.059 -0.5409  0.1622  0.2487
  676MPD2    C310053   1.360   1.848  10.927  0.4699  0.5274 -0.2270
  676MPD2    C410054   1.431   1.946  10.859 -0.1361 -0.1188 -0.3819
  676MPD2    C510055   1.439   2.067  10.923 -0.9469 -0.5989  0.2862
  676MPD2     H10056   1.248   1.800  11.114 -1.8858  0.9694 -0.0741
  676MPD2    H110057   1.469   1.929  10.759 -0.1401 -0.7886 -0.2736
  676MPD2    H210058   1.396   2.194  11.085  1.9813  0.9040 -1.2832
  676MPD2    H310059   1.476   2.158  10.878 -0.9215 -0.4113  0.6876
  676MPD2     N10060   1.332   1.728  10.860  0.4161  0.4984  0.0706
  676MPD2    H510061   1.374   1.707  10.770  0.4097  0.7533  0.0107
  676MPD2    N110062   1.257   2.013  11.239 -0.1489  0.0519 -0.2875
  676MPD2    H710063   1.221   1.926  11.279  1.3552 -0.2622  0.3940
  677TMC3    C110064   1.223   2.105  11.457  0.1884  0.5736  0.2335
  677TMC3    C210065   1.126   2.010  11.475 -0.3920 -0.1582  0.4992
  677TMC3    C310066   1.066   2.000  11.595  0.0145 -0.1810 -0.2807
  677TMC3    C410067   1.240   2.203  11.550  0.1586 -0.4709  0.2042
  677TMC3    C510068   1.165   2.198  11.664 -0.0950  0.6713  1.0379
  677TMC3    C610069   1.084   2.093  11.692 -0.1548 -0.4280  0.1095
  677TMC3     C10070   1.283   2.122  11.325  0.7713 -0.7557  0.4155
  677TMC3     O10071   1.339   2.225  11.295  0.1025 -0.4272  0.0464
  677TMC3     H10072   1.106   1.933  11.402  0.2332  1.0663 -0.9506
  677TMC3    H110073   1.326   2.267  11.537 -0.3428  0.1006 -0.3063
  677TMC3    H210074   1.018   2.104  11.777 -1.1810  0.5492 -0.8081
  677TMC3    C710075   1.187   2.286  11.767 -0.2153  0.0649  0.2649
  677TMC3    C810076   0.942   1.922  11.594  0.0952  0.1322  0.3377
  677TMC3    O110077   1.126   2.261  11.870  0.0219  0.7096  0.3838
  677TMC3    O210078   0.886   1.926  11.489 -0.3594  0.5062  0.0317
  678MPD2     C10079   2.924   1.346   1.014  0.3224  0.0107 -0.6235
  678MPD2    C110080   2.945   1.293   0.889  0.1506 -0.5241 -0.6584
  678MPD2    C210081   2.838   1.271   0.808  0.5790 -0.1143  0.1402
  678MPD2    C310082   2.709   1.277   0.853 -0.3910  0.0058  0.1092
  678MPD2    C410083   2.694   1.320   0.981  0.4627  0.1468  0.2054
  678MPD2    C510084   2.792   1.354   1.061  0.6046 -0.0747 -0.2996
  678MPD2     H10085   2.855   1.231   0.709  3.3157 -0.6943  0.8347
  678MPD2    H110086   2.599   1.319   1.032  0.4659 -1.2722  0.1861
  678MPD2    H210087   3.010   1.375   1.072  0.3422 -2.3954  0.5264
  678MPD2    H310088   2.754   1.382   1.159 -2.7293 -0.4851 -1.4716
  678MPD2     N10089   2.611   1.241   0.766  0.0565 -0.1184 -0.3217
  678MPD2    H510090   2.635   1.225   0.669  2.0126  0.0664  0.1313
  678MPD2    N110091   3.075   1.269   0.842 -0.3999  0.9262 -1.1709
  678MPD2    H710092   3.093   1.273   0.742  1.2930 -5.3611 -1.1067
  679TMC3    C110093   3.470   1.146   0.725  0.1230 -0.0379 -0.2674
  679TMC3    C210094   3.385   1.165   0.828  0.2802 -0.3679  0.6367
  679TMC3    C310095   3.304   1.272   0.829 -0.3413 -0.2677  0.1975
  679TMC3    C410096   3.495   1.250   0.631 -0.3702  0.7323  0.5597
  679TMC3    C510097   3.406   1.358   0.642 -0.3443 -0.0735  0.3199
  679TMC3    C610098   3.315   1.371   0.738  0.0291 -0.1241  0.3656
  679TMC3     C10099   3.519   1.007   0.703  0.1247 -0.3061  0.3683
  679TMC3     O10100   3.617   0.996   0.625  0.5257 -0.2252  0.4424
  679TMC3     H10101   3.357   1.089   0.900  2.1747 -2.0449 -0.4222
  679TMC3    H110102   3.569   1.232   0.554  0.6749  2.2644  1.2090
  679TMC3    H210103   3.256   1.461   0.750 -1.7432 -1.0871 -1.0278
  679TMC3    C710104   3.406   1.481   0.558 -0.8856 -0.2932 -0.2374
  679TMC3    C810105   3.191   1.275   0.920  1.5694  0.6454 -0.2785
  679TMC3    O110106   3.302   1.539   0.530  0.1421 -0.3950 -0.1421
  679TMC3    O210107   3.205   1.248   1.037 -0.7813 -0.2018  0.6294
  680MPD2     C10108   2.856   0.286  13.507 -0.4310  0.3834 -0.2257
  680MPD2    C110109   2.976   0.275  13.582 -1.0288  0.0214  0.1387
  680MPD2    C210110   3.006   0.373  13.683 -0.0989  0.0663  0.9302
  680MPD2    C310111   2.919   0.481  13.696 -0.3730 -0.3370  0.1807
  680MPD2    C410112   2.806   0.484  13.616 -0.5260  0.3574 -0.2777
  680MPD2    C510113   2.770   0.386  13.522  0.7871 -0.9271  0.2860
  680MPD2     H10114   3.098   0.362  13.740 -0.2941 -1.3567  0.9857
  680MPD2    H110115   2.743   0.571  13.631  1.8310  1.8075  1.2566
  680MPD2    H210116   2.829   0.205  13.440  3.1331 -0.0705 -1.1389
  680MPD2    H310117   2.687   0.398  13.453 -0.0012 -2.6817  0.9134
  680MPD2     N10118   2.945   0.598  13.781 -0.0957  0.5789 -0.5799
  680MPD2    H510119   2.867   0.661  13.790  0.9537  1.6507  0.9849
  680MPD2    N110120   3.068   0.165  13.573 -0.5404  0.1156  0.5266
  680MPD2    H710121   3.149   0.170  13.633 -1.0188 -3.4407  1.4598
  681TMC3    C110122   3.170   4.711  13.547  0.3743 -0.1105  0.7610
  681TMC3    C210123   3.121   4.640  13.653  0.0604 -0.5272  0.4762
  681TMC3    C310124   3.183   4.641  13.771 -0.0967 -0.6097  0.0416
  681TMC3    C410125   3.293   0.028  13.549  0.1502 -0.5456  0.1313
  681TMC3    C510126   3.367   0.007  13.662  0.0609 -0.8220 -0.6079
  681TMC3    C610127   3.311   4.686  13.769  0.1712  0.4390  0.1475
  681TMC3     C10128   3.065   0.047  13.496 -0.2184  0.0560 -0.8282
  681TMC3     O10129   2.961   4.733  13.454  0.1847 -0.3384  0.6246
  681TMC3     H10130   3.019   4.606  13.641 -0.2056  0.4171  0.0762
  681TMC3    H110131   3.331   0.089  13.468 -1.0439  2.0079  1.5038
  681TMC3    H210132   3.370   4.687  13.860  0.2872  0.2289  0.0732
  681TMC3    C710133   3.505   0.055  13.676  0.0507 -0.1039  0.5559
  681TMC3    C810134   3.091   4.701  13.867 -0.5796  0.5070  0.2641
  681TMC3    O110135   3.574   4.739  13.761 -0.5598 -1.0545 -0.4481
  681TMC3    O210136   2.970   4.683  13.855 -0.2946 -0.4469  0.2522
  682MPD2     C10137   0.734   2.193  10.808  0.5669  0.6834 -0.2237
  682MPD2    C110138   0.657   2.076  10.836 -0.9876 -0.4609  0.3184
  682MPD2    C210139   0.584   2.081  10.953  0.2268  0.3840 -0.0936
  682MPD2    C310140   0.591   2.189  11.047  0.0782  0.0297 -0.1771
  682MPD2    C410141   0.674   2.297  11.014  0.2565  0.1232 -0.9263
  682MPD2    C510142   0.736   2.304  10.890  0.8732  0.2070  0.1167
  682MPD2     H10143   0.516   2.001  10.977  0.1885  0.3859 -0.1949
  682MPD2    H110144   0.681   2.384  11.079 -0.0139 -0.4345 -0.1567
  682MPD2    H210145   0.791   2.209  10.717 -1.0224  1.1445 -1.1626
  682MPD2    H310146   0.789   2.395  10.863  1.4016  0.2849  1.3932
  682MPD2     N10147   0.522   2.196  11.173 -0.2146 -0.3715 -0.0378
  682MPD2    H510148   0.553   2.272  11.232  0.0981 -0.1150 -0.5268
  682MPD2    N110149   0.644   1.961  10.752  0.7691 -0.4686  0.2809
  682MPD2    H710150   0.595   1.880  10.790 -0.9731  0.9841  1.0961
  683TMC3    C110151   0.441   2.154  11.580 -0.6659 -0.4438  0.2045
  683TMC3    C210152   0.323   2.105  11.624  0.5537  0.4461  0.3853
  683TMC3    C310153   0.258   2.031  11.529  0.4947  0.2129  0.4362
  683TMC3    C410154   0.476   2.148  11.449 -0.4569 -0.1500 -0.3749
  683TMC3    C510155   0.388   2.104  11.352 -1.1499  0.8312 -0.0662
  683TMC3    C610156   0.280   2.034  11.396 -1.0774  0.0951  1.2158
  683TMC3     C10157   0.545   2.169  11.681 -0.7391 -0.6956  0.3945
  683TMC3     O10158   0.659   2.154  11.644  0.2565 -0.2142 -0.7488
  683TMC3     H10159   0.305   2.079  11.727 -2.1187 -0.1171 -0.2206
  683TMC3    H110160   0.572   2.188  11.419 -0.2769  0.0201  0.4311
  683TMC3    H210161   0.221   1.984  11.320  3.1470 -0.0724 -1.9097
  683TMC3    C710162   0.420   2.106  11.210  1.1261 -0.4273  0.0110
  683TMC3    C810163   0.153   1.944  11.577  0.0823  0.1022  0.3548
  683TMC3    O110164   0.347   2.032  11.146 -0.0749 -0.0696 -0.2796
  683TMC3    O210165   0.079   1.973  11.666 -0.5475 -0.4331  0.2204
  684MPD2     C10166   3.718   0.809  16.365 -0.1500  0.1274 -0.0875
  684MPD2    C110167   3.648   0.870  16.262 -0.6119 -0.5047  0.4124
  684MPD2    C210168   3.641   1.004  16.262  0.8696 -0.1046  0.3681
  684MPD2    C310169   3.722   1.081  16.345  0.5483  0.1682  0.0638
  684MPD2    C410170   3.793   1.019  16.446  0.1679 -0.1550 -0.2081
  684MPD2    C510171   3.796   0.881  16.452  1.3062 -0.4296  0.6538
  684MPD2     H10172   3.598   1.047  16.172 -0.2977 -1.8475  0.0847
  684MPD2    H110173   3.853   1.070  16.520  0.2814 -1.6391  0.7093
  684MPD2    H210174   3.718   0.702  16.386  1.0181  0.1178 -0.1711
  684MPD2    H310175   3.852   0.831  16.531 -0.3441 -2.1809  0.7159
  684MPD2     N10176   3.738   1.222  16.337 -0.2464  0.7348 -0.4097
  684MPD2    H510177   3.802   1.257  16.408 -1.6087  0.8911  0.7343
  684MPD2    N110178   3.601   0.798  16.149  0.2418  0.2298  0.3605
  684MPD2    H710179   3.556   0.854  16.077  0.3474  0.0334  0.1421
  685TMC3    C110180   3.605   0.635  15.986 -0.6133 -0.2178  0.6034
  685TMC3    C210181   3.489   0.688  15.916  0.4170 -0.2475 -0.6587
  685TMC3    C310182   3.504   0.726  15.782  0.3999  0.6285 -0.4245
  685TMC3    C410183   3.721   0.623  15.914  0.2877 -0.0578 -0.2273
  685TMC3    C510184   3.726   0.659  15.782 -0.9594  0.2849 -0.3843
  685TMC3    C610185   3.622   0.719  15.719 -0.1492  0.2986 -0.3114
  685TMC3     C10186   3.634   0.672  16.119  0.4078  0.6908 -0.5323
  685TMC3     O10187   3.703   0.587  16.173  0.6782  0.3355  0.1029
  685TMC3     H10188   3.389   0.691  15.959  1.5450 -1.2955  2.0110
  685TMC3    H110189   3.803   0.576  15.966  0.2085 -0.4664 -0.4761
  685TMC3    H210190   3.634   0.771  15.625  0.8576 -0.2026 -0.4631
  685TMC3    C710191   3.865   0.654  15.733 -0.4588 -0.5823 -0.2504
  685TMC3    C810192   3.385   0.747  15.703 -0.6482  0.6240 -0.9454
  685TMC3    O110193   3.928   0.568  15.790 -0.3553  0.2007  0.1241
  685TMC3    O210194   3.391   0.723  15.581  0.3167 -0.1719 -0.1883
  686MPD2     C10195   0.124   1.451  15.284 -0.4969 -0.1383  0.9752
  686MPD2    C110196   0.213   1.360  15.335 -0.1056 -0.2090  0.2152
  686MPD2    C210197   0.285   1.282  15.247 -0.3086 -0.0607 -0.6709
  686MPD2    C310198   0.260   1.290  15.110  0.9584 -0.4384  0.0669
  686MPD2    C410199   0.175   1.387  15.057  0.5240  0.5620 -0.1180
  686MPD2    C510200   0.117   1.468  15.148 -0.4783 -0.0283  0.4510
  686MPD2     H10201   0.362   1.217  15.287  2.0966  2.4417 -1.1951
  686MPD2    H110202   0.170   1.399  14.950 -0.6810 -0.4146 -0.1730
  686MPD2    H210203   0.073   1.521  15.349 -0.2678 -0.5996  1.6593
  686MPD2    H310204   0.060   1.551  15.110 -0.2419 -0.3259 -0.5812
  686MPD2     N10205   0.327   1.203  15.020 -0.2625  0.7273 -0.1394
  686MPD2    H510206   0.309   1.216  14.921 -2.9861 -0.0912  0.2352
  686MPD2    N110207   0.224   1.345  15.477 -0.7214  0.2495 -0.3465
  686MPD2    H710208   0.159   1.402  15.530 -1.6907 -1.1792 -0.0004
  687TMC3    C110209   0.371   1.014  15.170 -0.4854 -0.0369  0.8897
  687TMC3    C210210   0.235   0.993  15.206  0.0778 -0.7371  0.3279
  687TMC3    C310211   0.213   0.910  15.315 -0.1753  0.1014  0.3541
  687TMC3    C410212   0.476   0.943  15.227  0.1976  0.1304  0.4755
  687TMC3    C510213   0.441   0.850  15.331  0.0200 -0.1573  0.1449
  687TMC3    C610214   0.316   0.849  15.381 -0.0062 -0.2268  0.0441
  687TMC3     C10215   0.398   1.091  15.050 -0.0288 -0.2523 -0.1176
  687TMC3     O10216   0.480   1.037  14.980 -0.3307 -0.5896 -0.8101
  687TMC3     H10217   0.153   1.046  15.157 -0.3751  0.4473  2.3942
  687TMC3    H110218   0.580   0.961  15.202 -0.2936 -1.4493 -2.7382
  687TMC3    H210219   0.295   0.784  15.466  1.9152 -0.5573  0.2614
  687TMC3    C710220   0.539   0.841  15.438  0.5213 -0.8824  0.4168
  687TMC3    C810221   0.086   0.912  15.369  0.1978 -0.5433 -0.3112
  687TMC3    O110222   0.550   0.736  15.491  0.6726  0.3712 -0.0249
  687TMC3    O210223   0.047   0.807  15.422  0.0190  0.3706 -0.5309
  688MPD2     C10224   4.111   4.704  17.489 -0.0429 -0.0626  0.5552
  688MPD2    C110225   4.164   4.580  17.481 -0.6664 -0.3289  0.5139
  688MPD2    C210226   4.275   4.558  17.400 -0.0938  0.0874 -0.0344
  688MPD2    C310227   4.315   4.664  17.314 -0.3372  0.1500  0.1898
  688MPD2    C410228   4.251   0.042  17.320 -0.0443  0.0523 -0.0884
  688MPD2    C510229   4.141   0.065  17.399  0.1002  0.2931 -0.5530
  688MPD2     H10230   4.329   4.464  17.399  0.3670  0.3647 -1.1515
  688MPD2    H110231   4.284   0.123  17.257  3.9925 -2.0055 -0.6586
  688MPD2    H210232   4.025   4.728  17.551 -1.4261 -2.5819 -0.3943
  688MPD2    H310233   4.095   0.163  17.397 -0.1293  0.1823 -0.7993
  688MPD2     N10234   4.430   4.661  17.231  0.1785  0.5761 -0.0947
  688MPD2    H510235   4.445   4.731  17.158 -1.0720  0.4663 -0.4532
  688MPD2    N110236   4.107   4.468  17.549  0.0148 -0.5933 -0.3216
  688MPD2    H710237   4.172   4.390  17.555 -0.1782 -0.7157  0.1426
  689TMC3    C110238   3.991   4.360  17.725  0.2735 -0.5216  0.2137
  689TMC3    C210239   3.894   4.363   0.061 -0.0093 -0.7787 -0.2401
  689TMC3    C310240   3.882   4.250   0.136  0.8798 -0.2524 -0.5090
  689TMC3    C410241   4.071   4.248  17.702  0.0366  0.1992 -0.7628
  689TMC3    C510242   4.059   4.147   0.037  0.3825  0.4968  0.0027
  689TMC3    C610243   3.965   4.145   0.135 -0.6918 -0.4017 -1.0211
  689TMC3     C10244   3.997   4.467  17.629 -0.2745 -0.4199  0.6766
  689TMC3     O10245   3.892   4.524  17.610  0.0755  0.0862  0.2802
  689TMC3     H10246   3.826   4.448   0.067  2.8942  1.6511 -1.5245
  689TMC3    H110247   4.149   4.239  17.627 -0.2366  0.0065 -1.0213
  689TMC3    H210248   3.954   4.053   0.192  0.9535 -0.2012 -0.3843
  689TMC3    C710249   4.098   4.015  17.752 -0.5843  0.0998  0.4212
  689TMC3    C810250   3.793   4.250   0.245  0.3106 -0.7458 -0.1984
  689TMC3    O110251   4.157   3.952   0.080 -0.4823 -0.0648  0.0263
  689TMC3    O210252   3.815   4.166   0.331  0.0822 -0.3350  0.0442
  690MPD2     C10253   1.641   2.239  15.733 -0.1319  0.2910  0.2364
  690MPD2    C110254   1.630   2.137  15.642  0.3074  0.4369  0.5342
  690MPD2    C210255   1.735   2.107  15.554  0.0900  0.6766 -0.1978
  690MPD2    C310256   1.852   2.185  15.549  0.2646 -0.5557  0.3646
  690MPD2    C410257   1.850   2.300  15.626  0.0534 -0.2776  0.1072
  690MPD2    C510258   1.746   2.323  15.709 -0.1838  0.2606 -0.5772
  690MPD2     H10259   1.733   2.013  15.501  0.3478 -0.2635  1.4864
  690MPD2    H110260   1.932   2.370  15.624 -0.7483  0.7123  2.6509
  690MPD2    H210261   1.571   2.261  15.813 -4.8727 -1.2357 -3.5085
  690MPD2    H310262   1.746   2.404  15.782  1.0255  1.1666 -1.5791
  690MPD2     N10263   1.958   2.147  15.463  0.7113  0.1051  0.3019
  690MPD2    H510264   1.943   2.067  15.402 -1.4383  1.6616 -1.2019
  690MPD2    N110265   1.529   2.038  15.646  0.3779 -0.4431 -0.2409
  690MPD2    H710266   1.541   1.945  15.607  0.8923 -0.0042 -1.1128
  691TMC3    C110267   1.351   1.913  15.738  0.3574  0.7322 -0.4425
  691TMC3    C210268   1.216   1.900  15.725 -0.5867 -0.4844  0.1713
  691TMC3    C310269   1.155   1.774  15.724  0.0112 -0.3218  0.7510
  691TMC3    C410270   1.433   1.802  15.749 -0.0535 -0.1557 -0.1437
  691TMC3    C510271   1.370   1.682  15.748  0.0022  0.2159 -0.1300
  691TMC3    C610272   1.233   1.668  15.724  0.2278  0.5746  0.5658
  691TMC3     C10273   1.414   2.044  15.724  0.9311  0.2018  0.3654
  691TMC3     O10274   1.374   2.140  15.784 -0.4035 -0.6716 -0.2824
  691TMC3     H10275   1.160   1.992  15.714  1.6641  1.1896  2.7053
  691TMC3    H110276   1.537   1.821  15.774 -0.8750  1.8898  1.7266
  691TMC3    H210277   1.179   1.575  15.733 -1.6532  1.6641  0.5939
  691TMC3    C710278   1.451   1.563  15.744  0.7279 -0.3339 -1.0971
  691TMC3    C810279   1.009   1.757  15.733 -0.6849  0.5546  0.6144
  691TMC3    O110280   1.571   1.587  15.757  0.1227 -0.3053  0.1029
  691TMC3    O210281   0.965   1.643  15.721  0.1636  0.2292  0.2987
  692TMC3    C110282   3.486   2.554  15.592  0.5452  0.1016  0.6770
  692TMC3    C210283   3.609   2.574  15.649 -0.4364  0.0302  0.0569
  692TMC3    C310284   3.671   2.476  15.719 -0.3172  0.1737  0.1056
  692TMC3    C410285   3.425   2.437  15.613 -0.3249 -0.1121 -0.1263
  692TMC3    C510286   3.491   2.334  15.674 -0.3416 -0.5591 -0.1219
  692TMC3    C610287   3.613   2.352  15.734 -0.2982  0.3142 -0.3602
  692TMC3     C10288   3.395   2.672  15.573  0.1462  0.6200  0.5917
  692TMC3     O10289   3.272   2.649  15.578  0.7281  0.2769  0.4026
  692TMC3     H10290   3.674   2.648  15.603 -1.7225 -0.4435 -2.4862
  692TMC3    H110291   3.321   2.425  15.584 -1.0734  1.8896  1.7413
  692TMC3    H210292   3.684   2.281  15.774  0.2457  1.0588  0.0026
  692TMC3    C710293   3.439   2.200  15.660  0.2368  0.5305  0.0357
  692TMC3    C810294   3.704   2.534  15.845  0.4190  0.3157 -0.0522
  692TMC3    O110295   3.372   2.184  15.557 -0.2589 -0.3246  0.5021
  692TMC3    O210296   3.724   2.441  15.924 -0.5856 -0.7054  0.3029
  693MPD2     C10297   2.740   0.865  10.532 -0.5856  0.9451 -0.2547
  693MPD2    C110298   2.685   0.864  10.659 -0.2712  0.5024  0.3243
  693MPD2    C210299   2.772   0.850  10.772  0.6017  0.0507  0.2743
  693MPD2    C310300   2.910   0.829  10.757  0.6651 -0.0378 -0.7476
  693MPD2    C410301   2.961   0.841  10.632  0.0219 -0.2169 -0.3260
  693MPD2    C510302   2.880   0.858  10.520 -0.3791  1.0364 -0.4836
  693MPD2     H10303   2.733   0.837  10.872 -0.0464 -0.7000 -0.0775
  693MPD2    H110304   3.069   0.829  10.627  0.1428 -0.2938  2.3287
  693MPD2    H210305   2.677   0.874  10.444 -3.2833  0.7033  1.6568
  693MPD2    H310306   2.936   0.853  10.428  0.0858 -2.5295 -0.0081
  693MPD2     N10307   2.996   0.799  10.873  0.1036  0.0975 -0.3558
  693MPD2    H510308   3.093   0.787  10.847 -0.4970 -2.3943 -1.4438
  693MPD2    N110309   2.549   0.869  10.684  0.1400 -0.4797  0.8747
  693MPD2    H710310   2.524   0.877  10.782  0.3825  2.4073  0.7055
  694TMC3    C110311   2.332   0.834  10.654  0.0689  0.5741 -0.2826
  694TMC3    C210312   2.277   0.714  10.623 -0.7334 -0.4923 -0.3645
  694TMC3    C310313   2.168   0.673  10.695  0.4903  0.2612  0.3287
  694TMC3    C410314   2.295   0.904  10.766 -0.2063 -0.3764 -0.0507
  694TMC3    C510315   2.188   0.858  10.833 -0.2557  0.1385 -0.6502
  694TMC3    C610316   2.119   0.744  10.800 -0.5985 -0.2034 -0.3738
  694TMC3     C10317   2.459   0.846  10.587  1.1173  0.4664  0.0358
  694TMC3     O10318   2.463   0.836  10.463 -0.9988  0.4176 -0.1316
  694TMC3     H10319   2.320   0.643  10.553 -2.2154 -0.9293 -0.8432
  694TMC3    H110320   2.339   1.001  10.787  0.7567 -1.0989  1.2228
  694TMC3    H210321   2.023   0.717  10.841 -0.1556 -1.0981  0.0847
  694TMC3    C710322   2.171   0.925  10.963 -0.6793 -0.0323 -0.2144
  694TMC3    C810323   2.101   0.552  10.660 -0.5513  0.3968  0.0578
  694TMC3    O110324   2.216   1.042  10.967  0.3132  0.0710 -0.0157
  694TMC3    O210325   2.030   0.504  10.750  0.0040  0.4572 -0.5556
  695MPD2     C10326   3.961   2.420  13.363  0.0125  0.2041  0.6871
  695MPD2    C110327   3.891   2.438  13.482 -0.5258  0.6447 -0.2407
  695MPD2    C210328   3.754   2.451  13.466 -0.3068  0.5145 -0.5253
  695MPD2    C310329   3.686   2.447  13.348  0.4171 -0.2216  0.2110
  695MPD2    C410330   3.763   2.434  13.232 -0.1678 -0.5584 -0.7685
  695MPD2    C510331   3.903   2.423  13.241 -0.0218  0.4161 -0.7599
  695MPD2     H10332   3.691   2.460  13.554 -0.2693  1.7384 -0.6245
  695MPD2    H110333   3.717   2.430  13.134 -1.2825 -0.7325 -0.2392
  695MPD2    H210334   4.066   2.395  13.367 -0.2043 -0.5959  1.3913
  695MPD2    H310335   3.964   2.396  13.156  1.1379  0.8553 -0.0738
  695MPD2     N10336   3.548   2.469  13.350 -0.1558  0.4625  0.7005
  695MPD2    H510337   3.511   2.502  13.439  0.0016 -0.4771  1.1106
  695MPD2    N110338   3.947   2.447  13.609 -0.2762  0.4971  0.0600
  695MPD2    H710339   3.883   2.462  13.687 -0.5542  1.2030 -0.3103
  696TMC3    C110340   3.326   2.498  13.283 -0.1512  0.4679 -0.2960
  696TMC3    C210341   3.294   2.548  13.409  0.6258 -0.3606 -0.0174
  696TMC3    C310342   3.202   2.650  13.418  0.2840  0.4136 -0.1432
  696TMC3    C410343   3.266   2.562  13.169  0.4262 -0.1219  0.8593
  696TMC3    C510344   3.191   2.673  13.184 -0.4854  0.3462  0.2750
  696TMC3    C610345   3.145   2.713  13.308 -0.3106 -0.1299  0.3306
  696TMC3     C10346   3.460   2.462  13.247  0.3269  0.7663 -0.1610
  696TMC3     O10347   3.485   2.423  13.136 -0.0215  0.0806 -0.5005
  696TMC3     H10348   3.341   2.504  13.497  0.4768  1.1317  0.8065
  696TMC3    H110349   3.293   2.543  13.066  0.0397 -0.2756  0.7853
  696TMC3    H210350   3.065   2.785  13.319 -2.0678 -1.9440 -0.5246
  696TMC3    C710351   3.209   2.789  13.096  0.6316  0.4194  0.1341
  696TMC3    C810352   3.229   2.739  13.521  0.0276  0.1302  1.0532
  696TMC3    O110353   3.237   2.775  12.978  0.1276  0.3780 -0.1338
  696TMC3    O210354   3.226   2.857  13.499  0.2918 -0.0460 -0.6488
  697MPD2     C10355   3.477   0.031  15.236  0.0215 -0.3108 -0.0233
  697MPD2    C110356   3.365   0.001  15.161 -0.8235  0.1204 -0.3182
  697MPD2    C210357   3.285   0.112  15.115  0.3842  0.1192  0.9726
  697MPD2    C310358   3.321   0.245  15.136 -0.6411 -0.2056 -0.0773
  697MPD2    C410359   3.431   0.269  15.216  0.1904 -1.2186 -0.3847
  697MPD2    C510360   3.505   0.166  15.271  0.6902 -0.1737  0.4393
  697MPD2     H10361   3.197   0.087  15.057 -1.3519  3.5172  2.1190
  697MPD2    H110362   3.461   0.372  15.234 -0.6194 -1.2702  1.3200
  697MPD2    H210363   3.534   4.691  15.281 -1.0016  0.1178  2.0820
  697MPD2    H310364   3.597   0.193  15.321 -0.1033  1.6830  0.8964
  697MPD2     N10365   3.241   0.341  15.076 -0.2532 -0.0796  0.2989
  697MPD2    H510366   3.178   0.312  15.003  0.2996  2.5673 -1.2303
  697MPD2    N110367   3.322   4.606  15.139 -0.2655 -0.9095 -0.1719
  697MPD2    H710368   3.231   4.592  15.095  0.1140  0.4367 -1.3920
  698TMC3    C110369   3.214   0.557  14.990  0.4946  0.6404  0.1207
  698TMC3    C210370   3.279   0.680  14.969 -0.1821 -0.7559  0.8274
  698TMC3    C310371   3.236   0.767  14.878 -0.7458  0.6499  0.1243
  698TMC3    C410372   3.105   0.525  14.910  0.6466 -0.0952  0.2548
  698TMC3    C510373   3.074   0.613  14.807  0.0913  0.2812  0.1100
  698TMC3    C610374   3.127   0.734  14.800  0.3834 -0.2361 -0.5114
  698TMC3     C10375   3.266   0.475  15.094 -0.0358 -0.2793 -0.0925
  698TMC3     O10376   3.336   0.541  15.171 -0.7230 -0.0618 -0.2339
  698TMC3     H10377   3.368   0.700  15.028  0.1111 -1.2549  0.5563
  698TMC3    H110378   3.049   0.433  14.924 -0.5850  0.6910  0.5575
  698TMC3    H210379   3.088   0.802  14.725 -0.2239  0.7778  0.7137
  698TMC3    C710380   3.048   0.553  14.685 -0.0706 -0.2631 -0.3753
  698TMC3    C810381   3.319   0.883  14.836  0.9229  0.6658  0.4188
  698TMC3    O110382   2.963   0.600  14.612 -0.1211  0.3916 -0.4963
  698TMC3    O210383   3.313   0.918  14.717 -0.0342 -0.9210  0.4129
  699TMC3    C110384   2.724   3.177  12.618  0.5561  0.4907 -0.3027
  699TMC3    C210385   2.773   3.117  12.727 -0.2287  0.7491  0.3676
  699TMC3    C310386   2.758   2.979  12.727 -0.1291 -0.5528 -0.2132
  699TMC3    C410387   2.662   3.116  12.517  0.2772 -0.3242  0.5942
  699TMC3    C510388   2.632   2.984  12.532  0.4161 -0.3281 -0.2772
  699TMC3    C610389   2.698   2.911  12.625  0.1226  0.5828  0.6343
  699TMC3     C10390   2.761   3.315  12.607  1.1516 -1.0259 -0.3253
  699TMC3     O10391   2.743   3.378  12.706  0.2981  0.5770 -0.2101
  699TMC3     H10392   2.829   3.172  12.801  0.2375 -1.0488  1.3578
  699TMC3    H110393   2.619   3.185  12.446  2.0966 -0.0803 -0.2874
  699TMC3    H210394   2.697   2.803  12.623  0.1087  0.5852  0.5076
  699TMC3    C710395   2.489   2.981  12.547  0.3489  0.0929 -0.1826
  699TMC3    C810396   2.737   2.903  12.851 -0.6167  0.4998 -0.4970
  699TMC3    O110397   2.427   3.084  12.566 -0.3310 -0.0444 -0.1763
  699TMC3    O210398   2.658   2.808  12.844  0.0457 -0.2246 -0.4102
  700TMC3    C110399   2.513   0.218  16.937 -0.2317 -0.3289  0.6125
  700TMC3    C210400   2.601   0.119  16.915 -0.1387  0.0508 -0.0387
  700TMC3    C310401   2.714   0.126  16.974  0.9933 -0.1812  0.2836
  700TMC3    C410402   2.527   0.315  17.030  0.5282 -0.2403 -0.1422
  700TMC3    C510403   2.645   0.306  17.103  0.1238 -0.6830 -0.4068
  700TMC3    C610404   2.742   0.215  17.075  0.7481  0.6108  0.3938
  700TMC3     C10405   2.425   0.250  16.823  0.2342  0.4318 -0.0552
  700TMC3     O10406   2.369   0.163  16.764  0.2651 -1.1067 -0.0072
  700TMC3     H10407   2.579   0.058  16.828 -3.1006  0.8525  0.1540
  700TMC3    H110408   2.469   0.405  17.048  0.4295 -0.3314 -0.0024
  700TMC3    H210409   2.833   0.222  17.133  0.7535 -0.3594  0.5012
  700TMC3    C710410   2.686   0.413  17.195  0.6970 -0.1818 -0.0540
  700TMC3    C810411   2.829   0.058  16.926  0.0017 -0.2449  0.2106
  700TMC3    O110412   2.807   0.425  17.220  0.0902  0.2354 -0.4614
  700TMC3    O210413   2.823   4.734  16.823 -0.6968 -0.0748  0.5091
  701TMC3    C110414   2.538   4.066  15.441  0.5176  0.4168  0.0582
  701TMC3    C210415   2.508   3.963  15.350  0.0181  0.1654 -0.5224
  701TMC3    C310416   2.532   3.993  15.220  0.1018 -0.4973 -0.4947
  701TMC3    C410417   2.586   4.185  15.395  0.2651 -0.0949  0.2846
  701TMC3    C510418   2.622   4.196  15.268 -0.7016 -0.0831 -0.1467
  701TMC3    C610419   2.593   4.103  15.173  0.0956  0.1207 -0.3457
  701TMC3     C10420   2.512   4.040  15.584  0.1285 -0.4320 -0.5848
  701TMC3     O10421   2.477   3.929  15.624  0.2185  0.1856 -0.2859
  701TMC3     H10422   2.469   3.868  15.386 -1.0737  1.1121  0.7904
  701TMC3    H110423   2.608   4.271  15.458 -1.1037 -0.1016  0.7648
  701TMC3    H210424   2.621   4.105  15.069 -2.2249 -1.0961 -0.9946
  701TMC3    C710425   2.675   4.326  15.221 -0.7077  0.2863  0.1981
  701TMC3    C810426   2.442   3.915  15.129  0.2559 -0.3593 -0.1168
  701TMC3    O110427   2.662   4.345  15.100  0.3232 -0.4079  0.2408
  701TMC3    O210428   2.401   3.806  15.167 -0.3497 -0.1457  0.0751
  702MPD2     C10429   1.464   1.434  10.236  0.2180 -0.3434  0.1070
  702MPD2    C110430   1.513   1.514  10.340 -0.5590 -0.3566 -0.5168
  702MPD2    C210431   1.581   1.630  10.296  0.1130 -0.9118  0.5872
  702MPD2    C310432   1.605   1.663  10.158  0.2780 -0.6629  0.5293
  702MPD2    C410433   1.565   1.568  10.060  0.4042  0.3329  0.6398
  702MPD2    C510434   1.502   1.456  10.106  0.4646 -0.0435  0.2183
  702MPD2     H10435   1.615   1.690  10.380  0.7147 -0.0203 -0.3046
  702MPD2    H110436   1.587   1.584   9.955  1.0396 -1.6834  0.4609
  702MPD2    H210437   1.409   1.341  10.251 -1.0150  0.5321  0.9959
  702MPD2    H310438   1.461   1.389  10.031 -0.4521 -0.1795  0.8492
  702MPD2     N10439   1.663   1.781  10.119 -0.1187 -0.0805  0.5375
  702MPD2    H510440   1.648   1.800  10.020  1.1881  0.3102  0.4108
  702MPD2    N110441   1.493   1.487  10.483 -0.6719 -0.2084 -0.1666
  702MPD2    H710442   1.511   1.569  10.540  0.6168 -0.7230  0.1564
  703TMC3    C110443   1.734   2.003  10.141  0.1682 -0.0323 -0.2432
  703TMC3    C210444   1.619   2.042  10.076  0.2579  0.1269 -0.2632
  703TMC3    C310445   1.570   2.163  10.111 -0.0658  0.0286 -0.2661
  703TMC3    C410446   1.809   2.089  10.208 -0.1943  0.5799 -0.4845
  703TMC3    C510447   1.764   2.211  10.237  0.6525  0.1998 -0.3700
  703TMC3    C610448   1.634   2.244  10.196  0.2289  0.3112  0.1491
  703TMC3     C10449   1.731   1.871  10.195 -0.2397 -0.3680  0.2335
  703TMC3     O10450   1.803   1.847  10.288  0.0350 -0.0229 -0.3426
  703TMC3     H10451   1.563   1.967  10.021 -1.7770  1.0958  0.5076
  703TMC3    H110452   1.904   2.051  10.245 -1.2769 -0.3644  1.3214
  703TMC3    H210453   1.581   2.331  10.233 -0.1524 -0.4293  1.3537
  703TMC3    C710454   1.850   2.301  10.303 -0.2521  0.1065 -0.4278
  703TMC3    C810455   1.433   2.134  10.146  0.3141  0.1385 -0.5855
  703TMC3    O110456   1.969   2.273  10.288 -0.4443 -0.2160 -0.6278
  703TMC3    O210457   1.352   2.101  10.058  0.0412  0.4211 -0.5039
  704TMC3    C110458   4.494   4.511  12.071 -0.6111 -0.5273  0.6066
  704TMC3    C210459   4.462   4.510  11.944  0.0851 -0.2685  0.7697
  704TMC3    C310460   4.505   4.408  11.868 -0.1757  0.3158 -0.1221
  704TMC3    C410461   4.577   4.423  12.134 -0.4536  0.2394 -0.4788
  704TMC3    C510462   4.623   4.318  12.058 -0.0873  0.1351 -0.0976
  704TMC3    C610463   4.575   4.308  11.929 -0.6561 -0.1726  0.4201
  704TMC3     C10464   4.410   4.574  12.165  0.2687 -0.2258  0.0096
  704TMC3     O10465   4.401   4.517  12.276 -0.3623  0.2889 -0.3498
  704TMC3     H10466   4.413   4.596  11.900 -0.0744 -1.5075 -1.4288
  704TMC3    H110467   4.599   4.431  12.240 -1.2508  0.8202 -0.3527
  704TMC3    H210468   4.599   4.218  11.873  2.6665 -0.3245  2.0693
  704TMC3    C710469   4.663   4.197  12.129  0.1343 -0.9532 -0.4267
  704TMC3    C810470   4.410   4.351  11.777 -0.3744  0.5418 -0.7394
  704TMC3    O110471   4.619   4.090  12.088 -0.4364 -0.1691 -0.5570
  704TMC3    O210472   4.386   4.229  11.788 -0.6682 -0.5738 -0.7748
  705MPD2     C10473   3.840   2.240  16.267 -0.6156  0.4792 -0.3291
  705MPD2    C110474   3.851   2.376  16.290 -0.5138 -0.1881  0.4189
  705MPD2    C210475   3.755   2.442  16.364  0.7424  0.5250  1.2882
  705MPD2    C310476   3.634   2.374  16.384 -0.1084  0.4859 -0.7725
  705MPD2    C410477   3.624   2.239  16.358 -0.5678  0.7663  0.0077
  705MPD2    C510478   3.732   2.171  16.313 -1.0965  1.1105  0.3099
  705MPD2     H10479   3.769   2.549  16.380  0.8517  1.1063 -2.4687
  705MPD2    H110480   3.543   2.172  16.386  0.1657  0.6131  1.7985
  705MPD2    H210481   3.910   2.172  16.221  1.5429  2.5894 -0.2253
  705MPD2    H310482   3.737   2.065  16.289  1.5959  1.8230 -2.2895
  705MPD2     N10483   3.519   2.436  16.425 -0.3034  0.3251 -0.3217
  705MPD2    H510484   3.436   2.380  16.409 -0.5634 -0.1380  2.6945
  705MPD2    N110485   3.956   2.455  16.243  0.1860  0.1961  0.1871
  705MPD2    H710486   3.965   2.551  16.275 -0.0515  0.3601 -0.2327
  706TMC3    C110487   4.202   2.541  15.869 -0.6977 -0.0563  0.0401
  706TMC3    C210488   4.139   2.661  15.850  0.0901  0.0830 -0.1285
  706TMC3    C310489   4.075   2.708  15.962 -0.2515 -0.3355  0.0775
  706TMC3    C410490   4.198   2.470  15.984 -0.5979  0.3852  0.3199
  706TMC3    C510491   4.125   2.520  16.090 -0.1100 -0.8394  0.1753
  706TMC3    C610492   4.060   2.637  16.082 -0.0220  0.1250  0.2063
  706TMC3     C10493   4.313   2.514  15.780  0.0041 -0.3619  0.1225
  706TMC3     O10494   4.399   2.433  15.817 -0.2806 -0.1294 -0.5582
  706TMC3     H10495   4.146   2.713  15.755 -1.3824  1.8013  0.6818
  706TMC3    H110496   4.253   2.377  15.993  0.2703  0.9472  0.8290
  706TMC3    H210497   3.998   2.679  16.160 -0.5448  0.1072 -0.1979
  706TMC3    C710498   4.056   2.414  16.160  0.5569  0.4003 -0.0442
  706TMC3    C810499   4.024   2.845  15.953  0.2875 -0.0511 -0.0666
  706TMC3    O110500   4.091   2.296  16.136  0.5420  0.1268  0.6457
  706TMC3    O210501   3.993   2.877  15.840  0.6858  0.7334 -0.3592
  707TMC3    C110502   0.184   1.450   0.991  0.5826  0.5320 -0.0039
  707TMC3    C210503   0.135   1.350   0.915 -0.0994  0.7467  0.6813
  707TMC3    C310504   4.739   1.335   0.900  0.2936 -0.4118 -0.8828
  707TMC3    C410505   0.106   1.546   1.054 -0.7114  0.1166 -0.3408
  707TMC3    C510506   4.710   1.538   1.031  0.0839  0.5737  0.1905
  707TMC3    C610507   4.658   1.438   0.954 -0.4094 -0.5800 -0.5574
  707TMC3     C10508   0.328   1.463   1.002 -0.6111 -0.9930  0.2240
  707TMC3     O10509   0.387   1.492   1.106  0.4768 -0.6910  0.2730
  707TMC3     H10510   0.205   1.273   0.883 -0.0360  0.5944  1.1846
  707TMC3    H110511   0.158   1.630   1.098 -1.6080 -0.1982  1.2799
  707TMC3    H210512   4.550   1.438   0.943 -0.4761 -2.1743  0.1111
  707TMC3    C710513   4.626   1.660   1.048  0.0206  0.0078  0.0495
  707TMC3    C810514   4.679   1.210   0.864 -0.7868  0.0557 -0.5418
  707TMC3    O110515   4.520   1.661   0.986 -0.2105  0.4135 -0.0358
  707TMC3    O210516   4.570   1.186   0.914 -0.5699  0.2206  0.6935
  708MPD2     C10517   1.793   0.422  13.886  0.1873  0.2448  0.7819
  708MPD2    C110518   1.807   0.550  13.932  0.0991  0.3377  0.5192
  708MPD2    C210519   1.747   0.587  14.047  0.2528  0.0472  0.9300
  708MPD2    C310520   1.658   0.511  14.118 -0.1859  1.4114 -0.4660
  708MPD2    C410521   1.630   0.395  14.058 -0.2033  0.2298  0.1079
  708MPD2    C510522   1.700   0.345  13.952 -0.2792 -0.1650 -0.0691
  708MPD2     H10523   1.759   0.688  14.085  2.7503  0.5771 -1.2591
  708MPD2    H110524   1.555   0.332  14.104  0.2754 -0.2791  0.1890
  708MPD2    H210525   1.844   0.383  13.798  1.6898  1.9428  0.9122
  708MPD2    H310526   1.665   0.245  13.930 -0.6256  0.0935 -0.7048
  708MPD2     N10527   1.591   0.548  14.244  0.0815 -0.3910  0.3303
  708MPD2    H510528   1.511   0.489  14.263  2.0895 -2.9368  0.8723
  708MPD2    N110529   1.881   0.627  13.845 -0.2711  0.5286  0.4700
  708MPD2    H710530   1.924   0.579  13.767 -0.5973  1.3309 -0.2098
  709TMC3    C110531   1.920   0.827  13.715 -0.1452 -0.2954 -0.0226
  709TMC3    C210532   1.968   0.744  13.610  0.1906  0.0851  0.5552
  709TMC3    C310533   1.965   0.797  13.482  0.1293 -0.5278 -0.8074
  709TMC3    C410534   1.845   0.937  13.686 -0.3327  0.6580  0.2541
  709TMC3    C510535   1.806   0.965  13.554  0.0432  0.1567  0.3246
  709TMC3    C610536   1.877   0.899  13.454 -0.0480 -0.2216  0.6226
  709TMC3     C10537   1.878   0.762  13.843  0.8424  0.0090 -0.0909
  709TMC3     O10538   1.840   0.842  13.929  0.0998  0.5422  0.5408
  709TMC3     H10539   2.021   0.651  13.626  0.6705  0.5611  1.7394
  709TMC3    H110540   1.807   0.991  13.772  2.0408 -0.9332  2.3080
  709TMC3    H210541   1.855   0.932  13.353 -3.1030 -0.9137  1.0512
  709TMC3    C710542   1.665   0.972  13.529  0.1992  0.4836  0.5952
  709TMC3    C810543   2.016   0.710  13.379  0.0917  1.2898 -0.3368
  709TMC3    O110544   1.638   0.909  13.427 -0.0930  0.0132 -0.7960
  709TMC3    O210545   2.053   0.597  13.410  1.0252  0.7498 -0.8955
  710TMC3    C110546   3.079   2.058  17.754 -0.9896 -0.4316  0.2875
  710TMC3    C210547   3.129   2.036  17.631  0.4047  0.0127 -0.1703
  710TMC3    C310548   3.232   1.951  17.610  0.1398 -0.5244 -0.3402
  710TMC3    C410549   3.139   1.995   0.108  0.1754 -0.2147  0.5891
  710TMC3    C510550   3.237   1.905   0.079  0.3562 -0.5717 -0.1889
  710TMC3    C610551   3.286   1.887  17.711  0.3236  0.5625  0.7743
  710TMC3     C10552   2.959   2.142   0.003 -0.3100  0.4112  0.3537
  710TMC3     O10553   2.926   2.186  17.650 -0.3540 -0.8295  0.7470
  710TMC3     H10554   3.073   2.072  17.546  1.1094  1.5019 -0.0012
  710TMC3    H110555   3.103   2.012   0.209 -1.1377  1.5372 -0.1524
  710TMC3    H210556   3.368   1.817  17.705  0.1244  0.5765 -2.2209
  710TMC3    C710557   3.313   1.864   0.192  0.3491  0.5109  0.2101
  710TMC3    C810558   3.294   1.948  17.479 -0.1809 -0.1520  0.2831
  710TMC3    O110559   3.249   1.853   0.292  0.2463  0.2768 -0.1237
  710TMC3    O210560   3.274   2.049  17.408  0.3379  0.7659  0.2930
  711TMC3    C110561   2.980   3.610  14.653 -0.8306  0.0072 -0.0849
  711TMC3    C210562   3.013   3.672  14.774 -0.2078  0.1158  0.2714
  711TMC3    C310563   3.132   3.642  14.832 -0.4546  0.2549 -0.0463
  711TMC3    C410564   3.069   3.530  14.590  0.2241 -0.0856  0.6058
  711TMC3    C510565   3.187   3.487  14.652  0.0934 -0.2363 -0.3625
  711TMC3    C610566   3.217   3.550  14.768  0.1929  0.1240 -0.8602
  711TMC3     C10567   2.860   3.528  14.664 -0.1004  0.5046  0.2624
  711TMC3     O10568   2.799   3.490  14.564  0.3225 -0.0140  0.1503
  711TMC3     H10569   2.941   3.719  14.841  2.2119  0.5853  2.5433
  711TMC3    H110570   3.047   3.495  14.489  2.5185  0.5697 -0.1204
  711TMC3    H210571   3.302   3.506  14.819  1.2811  0.6312 -2.2584
  711TMC3    C710572   3.207   3.342  14.661 -0.3280  0.1109 -0.2305
  711TMC3    C810573   3.118   3.607  14.971  0.3018  0.2921 -0.5128
  711TMC3    O110574   3.316   3.307  14.703  0.0549  0.3294  0.0402
  711TMC3    O210575   3.009   3.561  15.007 -0.7469  1.1271 -0.1043
  712MPD2     C10576   4.054   4.195  14.021 -0.3659 -0.4557 -0.2994
  712MPD2    C110577   3.987   4.293  13.954  0.3528  0.5211  0.1597
  712MPD2    C210578   4.041   4.419  13.952 -0.0359 -0.1359 -0.1244
  712MPD2    C310579   4.152   4.458  14.009 -0.5115 -0.3825  0.2614
  712MPD2    C410580   4.227   4.361  14.064  0.8395 -0.5302  0.5313
  712MPD2    C510581   4.173   4.237  14.078  0.2625  0.7070  0.4096
  712MPD2     H10582   3.974   4.489  13.904  1.4278  1.0771 -0.3915
  712MPD2    H110583   4.325   4.382  14.105  1.1694  1.3277 -1.2255
  712MPD2    H210584   4.009   4.102  14.053 -3.2541  1.7634  2.1531
  712MPD2    H310585   4.232   4.169  14.139  0.8241 -0.0399 -0.9851
  712MPD2     N10586   4.196   4.592  14.000  0.0528 -0.2351  0.7708
  712MPD2    H510587   4.297   4.603  13.998  0.0405 -0.2863 -0.6527
  712MPD2    N110588   3.866   4.275  13.891 -0.5053  0.2882  0.4611
  712MPD2    H710589   3.824   4.352  13.840 -1.1462 -1.1449 -1.1780
  713TMC3    C110590   4.179   0.058  13.886 -0.1669 -0.3632 -0.3441
  713TMC3    C210591   4.287   0.025  13.817  0.3437  0.4613 -0.2086
  713TMC3    C310592   4.339   0.115  13.736  0.5823 -0.0376  0.0548
  713TMC3    C410593   4.132   0.191  13.892  0.2504 -0.0905 -0.1762
  713TMC3    C510594   4.192   0.281  13.811 -0.0751  0.5819  0.0100
  713TMC3    C610595   4.294   0.240  13.730  0.2780 -0.4791  0.3041
  713TMC3     C10596   4.118   4.705  13.976  0.4166  0.1079  0.4179
  713TMC3     O10597   4.005   4.722  14.018  0.0803  0.0941  0.0763
  713TMC3     H10598   4.332   4.666  13.818 -0.7438  0.0082  2.1858
  713TMC3    H110599   4.043   0.211  13.949  1.5802  1.5029  1.3424
  713TMC3    H210600   4.343   0.314  13.667 -0.9312 -1.2484 -1.5473
  713TMC3    C710601   4.156   0.422  13.799 -0.2892  0.0186 -0.2744
  713TMC3    C810602   4.455   0.088  13.656 -0.1977  0.0063 -0.6965
  713TMC3    O110603   4.232   0.502  13.747  0.1166 -0.0347  0.3506
  713TMC3    O210604   4.473   0.170  13.566  0.6695  0.2183 -0.1714
  714MPD2     C10605   1.378   3.100   1.066 -0.0452  0.1057  0.0290
  714MPD2    C110606   1.364   2.986   0.994  0.0204  0.4531  0.3774
  714MPD2    C210607   1.247   2.964   0.926  0.4621 -0.3967 -0.1574
  714MPD2    C310608   1.152   3.061   0.913  0.1770 -0.1347 -0.3297
  714MPD2    C410609   1.179   3.188   0.961  0.0713  0.3672 -0.2238
  714MPD2    C510610   1.284   3.206   1.052  0.5349 -1.0040 -0.1908
  714MPD2     H10611   1.229   2.864   0.889  0.0741 -0.1368 -0.6716
  714MPD2    H110612   1.107   3.268   0.949 -0.5091 -0.2688 -1.0294
  714MPD2    H210613   1.456   3.108   1.141  0.1585  1.8139 -0.3713
  714MPD2    H310614   1.308   3.300   1.100 -0.9181 -0.6039 -0.2562
  714MPD2     N10615   1.029   3.031   0.855 -0.0755 -0.5752  0.3365
  714MPD2    H510616   1.041   2.945   0.802 -2.3441 -0.5752 -0.1870
  714MPD2    N110617   1.475   2.892   1.003 -0.0247 -0.1787  0.1929
  714MPD2    H710618   1.554   2.923   1.059  2.5433 -0.7754 -3.1302
  715TMC3    C110619   1.613   2.712   0.972 -0.4549 -0.3617  0.1667
  715TMC3    C210620   1.654   2.641   0.865  0.6492 -0.0016 -0.0036
  715TMC3    C310621   1.786   2.620   0.837  0.1574 -0.0676  0.3053
  715TMC3    C410622   1.701   2.769   1.066  0.1114 -0.9361 -0.2928
  715TMC3    C510623   1.832   2.741   1.038 -0.0096  0.4986 -0.1219
  715TMC3    C610624   1.876   2.679   0.925  0.3619  0.5518 -0.1081
  715TMC3     C10625   1.482   2.767   0.949  0.3685 -0.2970 -0.9637
  715TMC3     O10626   1.409   2.713   0.865 -0.0016 -0.3959 -0.1588
  715TMC3     H10627   1.586   2.591   0.797 -0.6273 -0.0022  1.2756
  715TMC3    H110628   1.670   2.827   1.152  0.0903 -0.8240 -0.3761
  715TMC3    H210629   1.981   2.657   0.911  0.2764 -0.7462  1.3454
  715TMC3    C710630   1.930   2.754   1.144 -0.5728 -0.0427 -0.6698
  715TMC3    C810631   1.821   2.486   0.804  0.2225 -0.2335 -0.4444
  715TMC3    O110632   1.990   2.650   1.165  0.4748 -0.1747  0.2563
  715TMC3    O210633   1.783   2.437   0.696  0.2555 -0.6552 -0.2628
  716MPD2     C10634   1.111   1.718   9.789 -0.0546 -0.1795 -1.0255
  716MPD2    C110635   0.977   1.685   9.780  0.2795 -0.4395  0.0112
  716MPD2    C210636   0.932   1.582   9.703  0.5160  0.4243  0.0811
  716MPD2    C310637   1.025   1.517   9.619 -0.0779  0.5969 -1.1816
  716MPD2    C410638   1.160   1.553   9.629  0.7872  0.0679  0.1421
  716MPD2    C510639   1.200   1.647   9.713  0.1854  0.5907 -0.0718
  716MPD2     H10640   0.833   1.538   9.706  1.3639 -1.5046 -0.0045
  716MPD2    H110641   1.238   1.499   9.576  0.0241 -0.1912 -0.7154
  716MPD2    H210642   1.151   1.799   9.849 -4.0734  2.3107 -1.7042
  716MPD2    H310643   1.303   1.680   9.717  0.3981 -0.0130 -0.5035
  716MPD2     N10644   0.983   1.417   9.530  0.9514 -0.2668 -0.5244
  716MPD2    H510645   0.883   1.397   9.529  0.4696  2.1948 -0.5415
  716MPD2    N110646   0.889   1.754   9.872  0.0242 -0.4249 -0.3515
  716MPD2    H710647   0.930   1.829   9.927 -3.0570 -0.3803  1.8638
  717TMC3    C110648   0.980   1.264   9.354 -0.0924 -0.4239  0.5986
  717TMC3    C210649   0.843   1.281   9.356 -0.2688 -0.6064 -0.2892
  717TMC3    C310650   0.763   1.175   9.317  0.3688  0.6898 -0.4019
  717TMC3    C410651   1.038   1.148   9.320  0.7178  0.6100 -0.3452
  717TMC3    C510652   0.963   1.044   9.288  0.2597  0.7809  0.0947
  717TMC3    C610653   0.827   1.055   9.292  0.3002  0.2424  0.0592
  717TMC3     C10654   1.060   1.349   9.437  0.2951  0.2233  0.1015
  717TMC3     O10655   1.180   1.334   9.410  0.0768 -0.1229  0.1928
  717TMC3     H10656   0.798   1.375   9.386 -0.8571 -0.4226 -1.7102
  717TMC3    H110657   1.146   1.142   9.329  0.7723  2.1816 -0.0039
  717TMC3    H210658   0.771   0.966   9.263  1.3123 -0.1504 -0.6720
  717TMC3    C710659   1.020   0.908   9.268  0.7109  0.0154 -0.4924
  717TMC3    C810660   0.620   1.194   9.315  0.3542 -0.8608 -0.9843
  717TMC3    O110661   0.940   0.813   9.263 -0.0475 -0.1217 -0.1549
  717TMC3    O210662   0.582   1.291   9.376 -0.3217  0.2210 -0.1276
  718MPD2     C10663   0.440   0.539  12.818  0.0829  0.1413  0.0874
  718MPD2    C110664   0.498   0.450  12.736  0.2720 -0.2630 -0.1041
  718MPD2    C210665   0.522   0.320  12.778 -0.0231  0.0030  0.2462
  718MPD2    C310666   0.476   0.279  12.902 -0.4741 -0.1230 -0.4422
  718MPD2    C410667   0.415   0.371  12.987  0.4846  0.0593 -0.7061
  718MPD2    C510668   0.409   0.503  12.948 -0.0279 -0.0848 -0.5478
  718MPD2     H10669   0.571   0.250  12.712  0.3479 -1.8973  2.5607
  718MPD2    H110670   0.363   0.339  13.077 -1.6694  0.9474 -1.6185
  718MPD2    H210671   0.415   0.633  12.770  2.9464  1.0599  0.3763
  718MPD2    H310672   0.362   0.571  13.019 -0.5070  0.0383 -0.9806
  718MPD2     N10673   0.486   0.140  12.922  0.0266 -0.2417 -0.9477
  718MPD2    H510674   0.552   0.093  12.860 -0.6954 -1.9738 -0.4091
  718MPD2    N110675   0.518   0.489  12.602 -0.7256  0.3215  0.8651
  718MPD2    H710676   0.524   0.586  12.574  1.3361  0.0659  0.4081
  719TMC3    C110677   0.563   0.454  12.367  0.2663  0.1403 -0.2080
  719TMC3    C210678   0.535   0.353  12.278  0.2630 -0.0757  0.4444
  719TMC3    C310679   0.625   0.328  12.176  0.3820  0.1048  0.1818
  719TMC3    C410680   0.682   0.523  12.363 -0.6394  0.1832 -0.7162
  719TMC3    C510681   0.767   0.486  12.272 -0.0753  0.5373  0.5302
  719TMC3    C610682   0.744   0.395  12.171  0.0088 -0.0522 -0.1943
  719TMC3     C10683   0.530   0.400  12.495  1.2820 -0.1757  0.3162
  719TMC3     O10684   0.519   0.282  12.492 -0.6983 -0.5734  0.1898
  719TMC3     H10685   0.442   0.297  12.279 -0.0831  0.5203  1.3400
  719TMC3    H110686   0.686   0.616  12.419  1.0700 -0.6342  0.5156
  719TMC3    H210687   0.812   0.362  12.094 -0.3467 -1.1146 -0.0484
  719TMC3    C710688   0.901   0.550  12.266  0.7492  0.1531  0.4813
  719TMC3    C810689   0.647   0.186  12.166  0.0427  0.7403 -0.4373
  719TMC3    O110690   0.953   0.545  12.155 -0.5256  0.3932 -0.4060
  719TMC3    O210691   0.722   0.149  12.074 -0.0622 -0.5512  0.9276
  720MPD2     C10692   4.083   1.705  14.494  0.2733  0.2244 -0.0792
  720MPD2    C110693   4.154   1.688  14.374  0.2483 -0.1433 -0.4428
  720MPD2    C210694   4.290   1.671  14.381 -0.1069  0.0627  0.5252
  720MPD2    C310695   4.350   1.659  14.510 -0.4084 -0.7426 -0.3642
  720MPD2    C410696   4.279   1.673  14.625  0.1265  1.0927 -0.0207
  720MPD2    C510697   4.148   1.699  14.614  0.5315  1.1893  0.6181
  720MPD2     H10698   4.343   1.685  14.288 -1.0084 -0.2828 -0.0372
  720MPD2    H110699   4.320   1.670  14.725 -0.0528 -0.0376  0.0146
  720MPD2    H210700   3.976   1.716  14.484  0.1631 -1.0284 -0.3458
  720MPD2    H310701   4.102   1.719  14.710  0.8075 -0.5403  1.1097
  720MPD2     N10702   4.490   1.638  14.509  0.0382 -0.2911 -0.1748
  720MPD2    H510703   4.532   1.639  14.417 -0.5189 -2.3486 -0.4450
  720MPD2    N110704   4.093   1.686  14.245  0.6656 -0.1774  0.3681
  720MPD2    H710705   4.158   1.650  14.176 -0.4413  0.5266 -1.0406
  721TMC3    C110706   4.707   1.645  14.595 -0.1446  0.3837  0.3539
  721TMC3    C210707   0.038   1.694  14.702  0.3035 -0.0509  1.5623
  721TMC3    C310708   0.180   1.704  14.689  0.6330  0.1094 -0.6831
  721TMC3    C410709   0.034   1.611  14.483 -0.0326  0.1745  0.2679
  721TMC3    C510710   0.171   1.626  14.479  0.3174 -0.4315 -0.4892
  721TMC3    C610711   0.247   1.661  14.585 -0.5474  0.0904  0.1910
  721TMC3     C10712   4.573   1.628  14.618  0.6043  0.3628  0.1028
  721TMC3     O10713   4.544   1.619  14.736 -0.3122  0.2050 -0.0258
  721TMC3     H10714   4.722   1.743  14.781  0.4427  1.1228  0.9402
  721TMC3    H110715   4.727   1.538  14.417  2.4020 -0.7411 -0.4265
  721TMC3    H210716   0.355   1.651  14.584 -0.3609  2.2529  0.3465
  721TMC3    C710717   0.237   1.563  14.367 -0.4402  0.2019  0.0483
  721TMC3    C810718   0.260   1.738  14.806  0.0185  0.3660 -0.2408
  721TMC3    O110719   0.343   1.503  14.390 -0.1494  0.6392 -0.2915
  721TMC3    O210720   0.380   1.751  14.798  0.0277  0.6202 -0.4081
  722MPD2     C10721   3.148   0.256  13.205 -0.3178 -0.2768 -0.4151
  722MPD2    C110722   3.082   0.362  13.266  0.4900 -0.0043  0.2688
  722MPD2    C210723   2.950   0.380  13.223  0.4652  0.1393 -0.1335
  722MPD2    C310724   2.876   0.297  13.149  0.6629  0.3455  0.1461
  722MPD2    C410725   2.944   0.176  13.120 -0.7430  0.7161  0.4268
  722MPD2    C510726   3.081   0.168  13.133  0.6307 -0.8518  0.2229
  722MPD2     H10727   2.897   0.465  13.266  0.7956 -0.4490  1.4370
  722MPD2    H110728   2.892   0.104  13.057 -2.9019  0.2451  2.7175
  722MPD2    H210729   3.254   0.237  13.221 -0.7481  0.1077  2.8896
  722MPD2    H310730   3.130   0.080  13.094  2.8941  0.1676  0.7791
  722MPD2     N10731   2.746   0.330  13.111  0.0694  0.0466 -0.0759
  722MPD2    H510732   2.708   0.424  13.122 -0.9899 -0.3428 -0.3990
  722MPD2    N110733   3.133   0.457  13.348  0.1856 -0.2917 -0.1515
  722MPD2    H710734   3.074   0.540  13.354  0.9856  0.2308  0.4448
  723TMC3    C110735   2.557   0.313  12.990  1.2863  0.4857  0.6987
  723TMC3    C210736   2.449   0.241  12.971  0.5982  0.5295 -0.3800
  723TMC3    C310737   2.359   0.286  12.874 -0.3424  0.4112 -0.1795
  723TMC3    C410738   2.565   0.443  12.940 -0.2026 -0.1504  0.6257
  723TMC3    C510739   2.472   0.491  12.858  0.2186 -0.2405  0.7719
  723TMC3    C610740   2.361   0.411  12.816  0.2982  0.3668  0.2663
  723TMC3     C10741   2.664   0.241  13.054 -0.4499  0.1175 -0.0491
  723TMC3     O10742   2.664   0.120  13.043 -0.4365 -0.1413 -0.0100
  723TMC3     H10743   2.439   0.142  13.013  2.2915  0.9682  1.0576
  723TMC3    H110744   2.642   0.510  12.977  0.4647 -0.9280  0.6687
  723TMC3    H210745   2.300   0.454  12.737  0.6957  0.2643 -0.0969
  723TMC3    C710746   2.458   0.632  12.843  0.0489 -0.1650  0.2515
  723TMC3    C810747   2.249   0.208  12.825  0.7572 -0.0922  0.1713
  723TMC3    O110748   2.531   0.702  12.910 -0.1822 -0.1361  0.2122
  723TMC3    O210749   2.158   0.265  12.766  0.1527 -0.3353  0.5064
  724TMC3    C110750   3.176   2.751  10.275  0.7733  0.2919 -0.9581
  724TMC3    C210751   3.105   2.851  10.210 -0.4606 -0.4144  0.4896
  724TMC3    C310752   3.170   2.967  10.199  0.1519 -0.2307  0.1437
  724TMC3    C410753   3.300   2.770  10.325  0.5093 -0.3391 -0.1888
  724TMC3    C510754   3.363   2.890  10.309  0.0414  0.1994  0.1825
  724TMC3    C610755   3.301   2.984  10.233 -0.3005  0.5512 -0.4058
  724TMC3     C10756   3.113   2.630  10.307  0.0148 -0.4145 -0.0799
  724TMC3     O10757   3.171   2.540  10.357 -0.2018  0.0772 -0.3846
  724TMC3     H10758   2.999   2.856  10.190 -0.2403 -0.0002 -0.5489
  724TMC3    H110759   3.347   2.683  10.369  1.2699  0.1411 -0.0700
  724TMC3    H210760   3.352   3.076  10.207  0.5112 -0.4994 -2.5892
  724TMC3    C710761   3.503   2.914  10.323  0.3642 -0.0901 -0.1673
  724TMC3    C810762   3.112   3.051  10.098  0.0946 -0.4749 -0.5347
  724TMC3    O110763   3.550   3.013  10.267  0.5842 -0.0954 -0.6788
  724TMC3    O210764   2.999   3.024  10.070  0.5006 -0.9177 -0.0266
  725TMC3    C110765   0.300   1.833  13.173 -0.4159  0.3967  0.7880
  725TMC3    C210766   0.196   1.850  13.088 -0.2286  0.4745  0.5137
  725TMC3    C310767   0.117   1.738  13.073 -0.6069 -0.0333 -0.5761
  725TMC3    C410768   0.339   1.703  13.212  0.4355  0.5296  0.0764
  725TMC3    C510769   0.266   1.595  13.181 -0.5111  0.1514 -0.2167
  725TMC3    C610770   0.141   1.609  13.123 -0.1365 -0.4456  0.1580
  725TMC3     C10771   0.366   1.946  13.236 -0.7686  0.2345 -0.7079
  725TMC3     O10772   0.360   2.056  13.187  0.3157 -0.5366  0.0313
  725TMC3     H10773   0.165   1.950  13.059  0.6885  0.8769  0.9200
  725TMC3    H110774   0.426   1.693  13.275  0.8351 -0.0787 -0.5714
  725TMC3    H210775   0.082   1.528  13.083  0.0744 -0.3637 -0.3226
  725TMC3    C710776   0.339   1.498  13.116 -0.2711 -0.3861 -0.6354
  725TMC3    C810777   0.008   1.742  12.978  0.8164  0.6205 -0.1346
  725TMC3    O110778   0.459   1.521  13.099  0.1169  0.3511 -0.1543
  725TMC3    O210779   4.664   1.654  12.986 -0.5512  0.3571 -0.6556
  726MPD2     C10780   2.541   3.553  10.423  0.9111 -0.5117 -0.3240
  726MPD2    C110781   2.419   3.598  10.381 -0.0061  0.6100  0.5620
  726MPD2    C210782   2.308   3.537  10.436  0.2489  0.6030  0.7115
  726MPD2    C310783   2.320   3.444  10.538  0.3332  0.2367  0.5077
  726MPD2    C410784   2.447   3.402  10.581  0.5911 -0.5616 -0.3497
  726MPD2    C510785   2.554   3.449  10.512  0.3776  0.5653  0.4483
  726MPD2     H10786   2.213   3.570  10.396  0.7425  1.8935  0.6005
  726MPD2    H110787   2.458   3.336  10.667  1.3967 -1.1448 -0.8944
  726MPD2    H210788   2.634   3.593  10.386 -0.1435 -0.5793 -3.0650
  726MPD2    H310789   2.653   3.423  10.547  0.5920  0.9129  0.0948
  726MPD2     N10790   2.207   3.391  10.602 -0.4032  0.0082 -0.8527
  726MPD2    H510791   2.223   3.341  10.688  0.6856 -1.5436 -1.9555
  726MPD2    N110792   2.406   3.705  10.287 -0.9029  0.0331  0.3263
  726MPD2    H710793   2.311   3.736  10.271 -1.8614 -2.4579  1.2607
  727TMC3    C110794   2.461   3.890  10.151 -0.3079  0.3329  0.2524
  727TMC3    C210795   2.546   3.999  10.158 -0.1404 -0.8562 -0.0442
  727TMC3    C310796   2.497   4.124  10.120 -0.5754 -0.0563  0.1377
  727TMC3    C410797   2.335   3.900  10.105  0.1894  0.2304 -0.4706
  727TMC3    C510798   2.284   4.023  10.077  0.2901  0.1422 -0.2910
  727TMC3    C610799   2.363   4.133  10.085  0.2111 -0.5410 -0.3809
  727TMC3     C10800   2.511   3.770  10.217 -0.0323 -0.3765  0.2284
  727TMC3     O10801   2.635   3.753  10.213 -0.1051  0.4925  0.8876
  727TMC3     H10802   2.649   3.990  10.190 -0.1549  1.4715  0.6253
  727TMC3    H110803   2.268   3.816  10.091  1.0187 -0.5739  0.3758
  727TMC3    H210804   2.321   4.232  10.078  0.3296 -0.4303  0.4477
  727TMC3    C710805   2.153   4.040  10.014  0.4584 -0.3127  0.3783
  727TMC3    C810806   2.565   4.236  10.166 -0.0029  0.1378 -0.0375
  727TMC3    O110807   2.126   4.148   9.971  0.3179 -0.3285  0.3536
  727TMC3    O210808   2.659   4.213  10.242  0.2955 -0.2164  0.0337
  728TMC3    C110809   2.159   2.143  15.360  0.7676 -0.3569 -0.0799
  728TMC3    C210810   2.287   2.170  15.353 -0.3373  0.0415 -0.4098
  728TMC3    C310811   2.365   2.138  15.244  0.7472  0.9729  0.3676
  728TMC3    C410812   2.100   2.100  15.242 -0.0423 -0.1530  0.3946
  728TMC3    C510813   2.169   2.073  15.131  0.4097  0.1323 -0.1175
  728TMC3    C610814   2.308   2.085  15.132 -0.4963 -0.0219  0.6037
  728TMC3     C10815   2.078   2.209  15.456 -0.7433 -0.5108 -0.0720
  728TMC3     O10816   2.116   2.304  15.528 -0.7371  0.2380  0.0703
  728TMC3     H10817   2.343   2.184  15.445  1.2868  1.5002 -1.6001
  728TMC3    H110818   1.993   2.093  15.233 -0.0399  0.4850 -0.0766
  728TMC3    H210819   2.357   2.072  15.037 -1.3887 -2.8365  0.5382
  728TMC3    C710820   2.109   2.081  15.004  0.4329 -0.0703 -0.1483
  728TMC3    C810821   2.507   2.182  15.238 -0.1479  0.2498 -0.1294
  728TMC3    O110822   2.009   2.011  14.982  0.5294  0.3388  0.1131
  728TMC3    O210823   2.546   2.269  15.313 -0.0515 -0.3582 -0.6466
  729MPD2     C10824   4.646   3.019  17.015 -0.1525 -0.0636  0.2640
  729MPD2    C110825   4.639   3.150  16.974  0.7901 -0.6347  0.5947
  729MPD2    C210826   4.627   3.247  17.066  0.2310  0.5440  0.8901
  729MPD2    C310827   4.640   3.213  17.201  0.3435  0.8709  0.2976
  729MPD2    C410828   4.651   3.079  17.237  0.5075  0.5660 -0.4094
  729MPD2    C510829   4.656   2.985  17.145 -0.3522  0.0279 -0.1662
  729MPD2     H10830   4.614   3.348  17.027  0.2958  0.7273  1.3446
  729MPD2    H110831   4.672   3.050  17.339 -0.4901  0.9121 -0.1120
  729MPD2    H210832   4.637   2.946  16.935  0.3283  0.6602 -0.4486
  729MPD2    H310833   4.678   2.883  17.173  0.8230 -0.1360 -1.6883
  729MPD2     N10834   4.646   3.307  17.304  0.1223  0.8066  1.0088
  729MPD2    H510835   4.672   3.274  17.396  2.3882 -0.0048  0.0670
  729MPD2    N110836   4.630   3.165  16.835 -1.0611  0.0804  0.1097
  729MPD2    H710837   4.649   3.087  16.773  1.9886  0.8965  0.0358
  730TMC3    C110838   4.607   3.508  17.425  0.1241 -0.7966 -0.6943
  730TMC3    C210839   4.605   3.444  17.544 -0.3394  0.6450 -0.0316
  730TMC3    C310840   4.589   3.523  17.658 -0.7675 -0.8631 -0.3959
  730TMC3    C410841   4.628   3.644  17.418 -0.2278 -0.2017 -0.0625
  730TMC3    C510842   4.634   3.720  17.533  0.4119 -0.1254  0.0737
  730TMC3    C610843   4.618   3.656  17.656  0.1526 -0.3608 -0.1775
  730TMC3     C10844   4.611   3.440  17.293  0.2168 -0.0390  0.6435
  730TMC3     O10845   4.623   3.502  17.188  0.1252 -0.4084 -0.3725
  730TMC3     H10846   4.593   3.336  17.551 -1.0404  0.8118  1.5443
  730TMC3    H110847   4.644   3.697  17.325  0.0527  0.1313  0.1748
  730TMC3    H210848   4.637   3.716  17.745  0.5446  0.8525 -1.0885
  730TMC3    C710849   4.581   3.855  17.526 -0.2126 -0.3453 -0.1894
  730TMC3    C810850   4.479   3.483  17.753 -0.6767  0.5962  0.4225
  730TMC3    O110851   4.532   3.897  17.627  0.1381  0.3596 -0.0326
  730TMC3    O210852   4.430   3.372  17.747  0.3163 -0.1040  0.5735
  731MPD2     C10853   4.261   1.286  12.443  0.1382 -0.8469 -0.4221
  731MPD2    C110854   4.380   1.313  12.511 -0.0413 -0.2040  0.0955
  731MPD2    C210855   4.414   1.233  12.618  0.2556 -0.3524 -0.8729
  731MPD2    C310856   4.321   1.145  12.672  0.0357  0.1383  0.2225
  731MPD2    C410857   4.201   1.120  12.602  0.4364 -0.2418 -0.7149
  731MPD2    C510858   4.183   1.183  12.486 -0.5625  0.0136  0.4940
  731MPD2     H10859   4.507   1.248  12.672 -0.3504 -1.7125  0.5408
  731MPD2    H110860   4.123   1.059  12.645  2.2024  0.4930  3.6481
  731MPD2    H210861   4.244   1.326  12.344  3.8332 -1.2127 -1.2119
  731MPD2    H310862   4.095   1.152  12.430 -0.7867 -0.4180  1.0968
  731MPD2     N10863   4.342   1.085  12.801 -0.1874 -0.0132  0.1730
  731MPD2    H510864   4.437   1.103  12.830 -0.4483  0.2260  0.8819
  731MPD2    N110865   4.452   1.421  12.462  0.4032 -0.7558 -0.0181
  731MPD2    H710866   4.402   1.484  12.401 -0.8002 -0.9132  0.8082
  732TMC3    C110867   4.622   1.568  12.410  0.9481  0.3377 -0.1685
  732TMC3    C210868   4.566   1.582  12.282  0.4041  0.3581 -0.2077
  732TMC3    C310869   4.596   1.699  12.211  0.1627 -0.3404  0.4688
  732TMC3    C410870   4.731   1.649  12.443 -0.4305  0.0500 -0.5880
  732TMC3    C510871   0.016   1.764  12.378 -1.0896 -0.3212 -0.4776
  732TMC3    C610872   4.689   1.784  12.261  0.5812  0.3063  0.5845
  732TMC3     C10873   4.580   1.463  12.500 -0.0458  0.3053 -0.4306
  732TMC3     O10874   4.663   1.408  12.573 -0.0317  0.0925 -0.1476
  732TMC3     H10875   4.505   1.502  12.243  0.2764  1.0053 -1.3221
  732TMC3    H110876   0.030   1.641  12.544 -0.2209 -2.1142 -0.8394
  732TMC3    H210877   4.714   1.869  12.198 -1.1334 -1.2259 -2.1561
  732TMC3    C710878   0.148   1.832  12.387  0.2548 -0.4743  0.0156
  732TMC3    C810879   4.535   1.727  12.077  0.1630  0.6181 -0.0110
  732TMC3    O110880   0.146   1.950  12.356  0.1369  0.4272 -0.1146
  732TMC3    O210881   4.592   1.790  11.994  0.6271  0.2320 -0.0035
  733TMC3    C110882   0.393   4.445  13.007 -0.2068  0.5968 -0.0380
  733TMC3    C210883   0.394   4.571  13.063 -0.2764  0.2377 -0.2525
  733TMC3    C310884   0.478   4.669  13.021 -0.5062  0.2010  0.5205
  733TMC3    C410885   0.482   4.408  12.911  0.2301  0.2450 -0.7631
  733TMC3    C510886   0.573   4.511  12.874 -0.5574 -0.0772  0.2151
  733TMC3    C610887   0.572   4.639  12.921  0.0027 -0.1059  0.0182
  733TMC3     C10888   0.277   4.363  13.041 -0.0355  0.0877 -0.6425
  733TMC3     O10889   0.191   4.395  13.125 -0.1734 -0.3135  0.1054
  733TMC3     H10890   0.310   4.591  13.129 -0.4598 -1.0915 -0.0813
  733TMC3    H110891   0.479   4.312  12.861  2.3727 -0.3024  0.1558
  733TMC3    H210892   0.655   4.707  12.903  0.3927 -0.4580  0.4593
  733TMC3    C710893   0.617   4.488  12.737 -0.4246  0.6262 -0.8707
  733TMC3    C810894   0.427   0.066  13.025 -0.1837  0.2895  0.3103
  733TMC3    O110895   0.639   4.369  12.711  0.5981  0.2427 -0.4765
  733TMC3    O210896   0.340   0.098  13.099 -0.0213  0.4175 -0.3603
  734MPD2     C10897   2.172   2.457  12.285 -0.5469 -0.2253 -0.2287
  734MPD2    C110898   2.106   2.353  12.225  0.0222  0.1071 -0.3523
  734MPD2    C210899   2.105   2.354  12.086 -0.1018 -0.2592  0.1113
  734MPD2    C310900   2.155   2.459  12.009  0.5106  1.1691  0.1652
  734MPD2    C410901   2.214   2.558  12.072 -0.0359  0.2475  0.2838
  734MPD2    C510902   2.236   2.552  12.211 -0.2543  0.6832 -0.7482
  734MPD2     H10903   2.067   2.266  12.036 -1.8732  0.3675  0.3596
  734MPD2    H110904   2.253   2.649  12.027  0.8122 -0.4090 -0.3136
  734MPD2    H210905   2.184   2.454  12.393 -0.8088  1.6409 -0.1379
  734MPD2    H310906   2.301   2.626  12.257 -1.2018  1.3989 -0.5573
  734MPD2     N10907   2.146   2.442  11.871  0.3738  0.2179  0.3538
  734MPD2    H510908   2.114   2.348  11.850  0.3978  0.1478  0.6388
  734MPD2    N110909   2.040   2.254  12.304  0.1086  0.1689 -0.1178
  734MPD2    H710910   2.065   2.236  12.401  0.8483  1.9957  0.0309
  735TMC3    C110911   1.942   2.036  12.324  0.3948  0.1779  0.4123
  735TMC3    C210912   1.833   1.960  12.272  0.4207  0.2589 -0.2778
  735TMC3    C310913   1.849   1.832  12.222 -0.5358 -0.4037  0.3925
  735TMC3    C410914   2.060   1.980  12.343 -0.3174  1.3149 -0.4937
  735TMC3    C510915   2.069   1.846  12.294 -1.1124 -0.1899 -0.8425
  735TMC3    C610916   1.964   1.770  12.253  1.1619 -0.1451 -0.6032
  735TMC3     C10917   1.946   2.165  12.247 -0.3051 -0.3754  0.0785
  735TMC3     O10918   1.897   2.159  12.135 -0.3721 -0.0442 -0.2120
  735TMC3     H10919   1.751   2.018  12.230  0.1523 -0.0846 -0.2281
  735TMC3    H110920   2.143   2.027  12.395 -0.9981  0.4158  1.3873
  735TMC3    H210921   1.964   1.664  12.229  0.9491 -0.4217  0.6440
  735TMC3    C710922   2.200   1.789  12.302  0.0483 -0.6639 -0.0002
  735TMC3    C810923   1.790   1.801  12.098 -0.6905 -0.6154 -0.2109
  735TMC3    O110924   2.298   1.860  12.285 -0.1208  0.1533  0.0587
  735TMC3    O210925   1.769   1.684  12.073  0.2633  0.5755  0.1827
  736MPD2     C10926   2.296   1.435  12.341 -0.4227 -0.7292  0.4340
  736MPD2    C110927   2.312   1.566  12.296 -0.2596 -0.3625  0.0769
  736MPD2    C210928   2.437   1.609  12.265  0.3615 -0.8976 -0.6315
  736MPD2    C310929   2.547   1.526  12.268  0.0361  0.2353  1.1126
  736MPD2    C410930   2.529   1.403  12.316 -0.3408  0.2345 -0.5935
  736MPD2    C510931   2.408   1.358  12.354 -0.7903 -0.7175  0.0779
  736MPD2     H10932   2.450   1.712  12.233 -0.1871 -0.8359 -0.6531
  736MPD2    H110933   2.614   1.337  12.325 -1.0176 -0.9049 -2.6096
  736MPD2    H210934   2.205   1.392  12.380 -0.6531 -0.9270 -0.3172
  736MPD2    H310935   2.408   1.257  12.393 -2.6475 -0.9756 -0.5965
  736MPD2     N10936   2.674   1.561  12.213  0.0156 -0.0481 -0.3362
  736MPD2    H510937   2.747   1.491  12.215 -1.2103 -1.3423 -1.0691
  736MPD2    N110938   2.205   1.655  12.314  0.2265  0.5392 -0.2525
  736MPD2    H710939   2.114   1.613  12.329  0.2480  0.1760 -1.1399
  737TMC3    C110940   2.840   1.694  12.103 -0.3608  0.0282 -0.1391
  737TMC3    C210941   2.887   1.819  12.092  0.7486 -0.0916 -0.1208
  737TMC3    C310942   2.978   1.858  11.993 -0.0808 -0.5873  0.1610
  737TMC3    C410943   2.890   1.592  12.024  0.3068  0.1372 -0.2019
  737TMC3    C510944   2.975   1.631  11.919  0.1996  0.0879 -0.0937
  737TMC3    C610945   3.020   1.761  11.902 -0.0845  0.1899  0.4639
  737TMC3     C10946   2.713   1.684  12.171  0.0127  0.0074 -0.1414
  737TMC3     O10947   2.648   1.787  12.178  0.1876  0.1499  0.0547
  737TMC3     H10948   2.848   1.899  12.154 -0.0875  0.1729 -0.9820
  737TMC3    H110949   2.857   1.490  12.034  0.1902 -0.1051 -3.0046
  737TMC3    H210950   3.104   1.779  11.834  0.3533  1.0638  1.2363
  737TMC3    C710951   3.019   1.529  11.822 -0.5252  0.2586  0.4725
  737TMC3    C810952   2.967   1.998  11.959 -0.3942 -0.2507 -0.0728
  737TMC3    O110953   3.069   1.427  11.864 -0.2809 -0.1208  0.1615
  737TMC3    O210954   2.928   2.074  12.046  0.4562  0.2557  0.2954
  738MPD2     C10955   3.592   1.039  15.033  0.0618  0.3320  0.1638
  738MPD2    C110956   3.528   0.986  14.924  0.2647 -0.4790  0.0895
  738MPD2    C210957   3.593   0.994  14.804 -0.2038  0.3751 -0.8066
  738MPD2    C310958   3.719   1.057  14.789 -0.5859 -0.0466  0.1216
  738MPD2    C410959   3.775   1.109  14.906  0.6032  0.5212  0.4970
  738MPD2    C510960   3.712   1.092  15.028 -0.4208  0.7416  0.5552
  738MPD2     H10961   3.538   0.954  14.719  0.4568  1.0640 -1.5705
  738MPD2    H110962   3.873   1.154  14.911  0.8681 -0.0891  0.8044
  738MPD2    H210963   3.540   1.034  15.128 -0.7248 -1.2936 -0.3665
  738MPD2    H310964   3.757   1.132  15.118  1.8774  0.1858 -0.3487
  738MPD2     N10965   3.801   1.061  14.672  0.2108 -0.5022  0.0899
  738MPD2    H510966   3.892   1.104  14.684 -1.1512  2.0904  1.0370
  738MPD2    N110967   3.401   0.929  14.943  0.5793  0.5562  0.6287
  738MPD2    H710968   3.371   0.896  15.034  0.8406 -1.1902  0.0801
  739TMC3    C110969   3.862   1.037  14.448 -0.0795  0.4970 -0.6408
  739TMC3    C210970   3.811   1.024  14.321  0.7378  1.2428 -0.0129
  739TMC3    C310971   3.897   1.025  14.215 -0.3497  0.2842 -0.3976
  739TMC3    C410972   3.994   1.050  14.474  0.6570 -0.3449  0.0934
  739TMC3    C510973   4.076   1.044  14.365  0.3704  0.2056 -0.6892
  739TMC3    C610974   4.033   1.031  14.237 -0.2943 -0.7356  0.4177
  739TMC3     C10975   3.766   1.013  14.547  0.5948  0.8001  0.4207
  739TMC3     O10976   3.653   0.985  14.509  0.2382  0.6975 -0.2265
  739TMC3     H10977   3.709   1.000  14.295  0.6787  1.4418  0.0328
  739TMC3    H110978   4.029   1.074  14.574 -1.8877  2.8609  0.2262
  739TMC3    H210979   4.097   1.019  14.151 -0.4537 -0.2798  0.2364
  739TMC3    C710980   4.214   1.009  14.391 -0.0680 -0.5689 -0.2349
  739TMC3    C810981   3.837   0.989  14.089 -0.2341  0.2227  0.0808
  739TMC3    O110982   4.252   0.895  14.366 -0.1119 -0.0601  0.3342
  739TMC3    O210983   3.778   0.881  14.085 -0.3185 -0.2704  0.3108
  740TMC3    C110984   4.111   2.195  14.226 -1.2706  0.1652 -0.0577
  740TMC3    C210985   4.155   2.151  14.349  0.0861 -0.1630  0.4048
  740TMC3    C310986   4.241   2.049  14.362  0.8719  0.0760  0.4162
  740TMC3    C410987   4.169   2.143  14.114 -0.7195 -0.8592  0.2969
  740TMC3    C510988   4.259   2.043  14.120  0.5042 -0.4773  0.1239
  740TMC3    C610989   4.302   2.003  14.249 -0.0597  0.1229 -0.3148
  740TMC3     C10990   3.976   2.239  14.204  0.3955 -0.1373  0.0937
  740TMC3     O10991   3.959   2.326  14.119 -0.1040 -0.0683  0.0205
  740TMC3     H10992   4.100   2.179  14.438 -2.4959  1.5986 -1.7399
  740TMC3    H110993   4.123   2.167  14.019 -1.0187  1.2543  0.9592
  740TMC3    H210994   4.368   1.918  14.260 -1.2361 -0.8267 -0.5661
  740TMC3    C710995   4.285   1.959  14.006 -0.0311  0.0644  0.6611
  740TMC3    C810996   4.313   2.035  14.495 -0.2608  0.6872  0.1539
  740TMC3    O110997   4.342   1.851  14.017  0.7347  0.0640 -0.2471
  740TMC3    O210998   4.427   1.993  14.481  0.4810 -0.1434  0.5579
  741TMC3    C110999   3.541   1.505  13.896 -0.0184 -0.1104  0.4954
  741TMC3    C211000   3.427   1.443  13.921 -0.4686  0.1839  0.0207
  741TMC3    C311001   3.429   1.348  14.024 -0.1689  0.5024 -0.8792
  741TMC3    C411002   3.660   1.461  13.955 -0.2011  0.3788 -0.4660
  741TMC3    C511003   3.654   1.364  14.043  0.1468 -0.1981 -0.0656
  741TMC3    C611004   3.540   1.306  14.085  0.4143 -0.1287  0.0230
  741TMC3     C11005   3.558   1.576  13.768 -0.4672 -0.5555  0.3964
  741TMC3     O11006   3.671   1.569  13.722 -0.3381  0.7406  0.1287
  741TMC3     H11007   3.337   1.456  13.861 -0.4071  2.8233  0.5070
  741TMC3    H111008   3.753   1.510  13.928 -0.6680  1.3733 -0.2910
  741TMC3    H211009   3.547   1.217  14.145  0.6344  0.1180  0.3652
  741TMC3    C711010   3.769   1.356  14.133  0.2880  0.1292 -0.7851
  741TMC3    C811011   3.298   1.287  14.052  0.1826 -0.0553 -0.9604
  741TMC3    O111012   3.880   1.388  14.092  0.3147 -0.3942  0.4312
  741TMC3    O211013   3.207   1.325  13.979  0.1628 -0.7478 -0.4875
  742TMC3    C111014   3.916   4.441  15.310  0.5738  0.5549 -0.1232
  742TMC3    C211015   3.851   4.467  15.196  0.2742 -0.1965  0.0708
  742TMC3    C311016   3.922   4.453  15.081 -0.3419 -0.5977 -0.0094
  742TMC3    C411017   4.039   4.387  15.314 -0.4862  0.1898 -0.2515
  742TMC3    C511018   4.097   4.358  15.193 -0.1124 -0.2535  0.4609
  742TMC3    C611019   4.042   4.391  15.078  0.1460 -0.8271  0.0319
  742TMC3     C11020   3.841   4.436  15.437 -0.5876  0.2387  0.5652
  742TMC3     O11021   3.901   4.384  15.530  0.1522  0.1318 -0.1170
  742TMC3     H11022   3.769   4.537  15.203 -2.5083 -3.5182  0.7051
  742TMC3    H111023   4.081   4.350  15.407 -0.0387 -0.0935 -0.5590
  742TMC3    H211024   4.080   4.363  14.981  1.1359  1.9008 -0.3621
  742TMC3    C711025   4.200   4.251  15.180 -0.4407 -0.7738 -0.1464
  742TMC3    C811026   3.844   4.451  14.962  0.1376 -0.7350  0.1323
  742TMC3    O111027   4.263   4.249  15.077  0.2927  0.3582 -0.1461
  742TMC3    O211028   3.872   4.356  14.884  0.1916 -0.1775  0.7166
  743MPD2     C11029   0.404   0.167   0.715 -0.1344  0.8689  0.6742
  743MPD2    C111030   0.522   0.227   0.680 -0.2063  0.2252 -0.1092
  743MPD2    C211031   0.645   0.176   0.728  1.0311 -0.6995  0.0347
  743MPD2    C311032   0.641   0.054   0.790  0.6466  0.0089 -0.3646
  743MPD2    C411033   0.526   4.718   0.810  0.3673  0.1944  0.2987
  743MPD2    C511034   0.408   0.033   0.758  0.0363  0.7040 -0.2557
  743MPD2     H11035   0.733   0.237   0.717 -0.8364  2.0087  0.0736
  743MPD2    H111036   0.520   4.619   0.852  0.3414  0.1025  0.0826
  743MPD2    H211037   0.310   0.214   0.688 -0.5693 -1.6564 -2.1878
  743MPD2    H311038   0.312   4.724   0.771  0.5244  0.1811  1.3719
  743MPD2     N11039   0.774   0.006   0.835 -0.3021 -0.6344 -0.0102
  743MPD2    H511040   0.858   0.063   0.835  0.1010 -1.1894  3.8049
  743MPD2    N111041   0.496   0.355   0.611  0.2749 -0.5183  0.1102
  743MPD2    H711042   0.402   0.387   0.590 -0.0566 -0.8874  1.0631
  744TMC3    C111043   0.557   0.543   0.485  0.7085  0.3335 -0.0106
  744TMC3    C211044   0.442   0.602   0.526  0.3846 -0.3882  0.1558
  744TMC3    C311045   0.400   0.720   0.467  0.3436 -0.2594  0.1502
  744TMC3    C411046   0.634   0.592   0.383  0.5770 -0.8113 -0.0416
  744TMC3    C511047   0.591   0.710   0.330  0.0134  0.7083 -0.2526
  744TMC3    C611048   0.477   0.774   0.367 -0.4580 -0.4556 -0.1418
  744TMC3     C11049   0.604   0.430   0.556 -0.1301  0.6617  0.9350
  744TMC3     O11050   0.725   0.409   0.557  0.2940 -0.4177  0.1929
  744TMC3     H11051   0.398   0.568   0.619  0.4243 -0.3269  0.1969
  744TMC3    H111052   0.728   0.545   0.356  0.2564  0.4132 -3.3157
  744TMC3    H211053   0.443   0.870   0.329  0.6442 -0.0549 -0.1108
  744TMC3    C711054   0.680   0.792   0.252  0.3179  0.4571 -0.4550
  744TMC3    C811055   0.299   0.802   0.517  0.0476  0.5447 -0.0063
  744TMC3    O111056   0.801   0.768   0.264 -0.1668 -0.0819 -0.0459
  744TMC3    O211057   0.295   0.916   0.474 -0.2798  0.3028 -0.1055
  745TMC3    C111058   3.664   4.188  13.831 -0.0211 -0.1881 -0.4813
  745TMC3    C211059   3.566   4.210  13.929  0.1030 -0.5638  0.6260
  745TMC3    C311060   3.468   4.298  13.901 -0.1189 -0.5737 -0.0415
  745TMC3    C411061   3.659   4.243  13.710  1.0339  0.4761 -0.0715
  745TMC3    C511062   3.548   4.321  13.680 -0.2769 -0.3079  0.0787
  745TMC3    C611063   3.459   4.357  13.777  0.2650 -0.0682  0.7116
  745TMC3     C11064   3.789   4.161  13.892  0.0785  0.7235  0.1575
  745TMC3     O11065   3.807   4.055  13.952  0.3572 -0.2051  0.2809
  745TMC3     H11066   3.576   4.153  14.020  1.3750 -1.7193 -0.2379
  745TMC3    H111067   3.741   4.231  13.640 -0.3908  0.4850 -1.7694
  745TMC3    H211068   3.366   4.409  13.758 -0.0302 -1.0205 -0.4490
  745TMC3    C711069   3.554   4.406  13.567  0.2567 -0.2560 -0.0870
  745TMC3    C811070   3.450   4.399  14.001 -0.0163  0.0020 -0.0538
  745TMC3    O111071   3.467   4.489  13.559 -0.1813 -0.0317  0.2408
  745TMC3    O211072   3.355   4.479  13.982 -0.5886  0.7081  0.1951
  746TMC3    C111073   1.297   1.489  10.832  0.1458  0.2591  0.7964
  746TMC3    C211074   1.364   1.492  10.713  0.5413  0.6603  0.5669
  746TMC3    C311075   1.402   1.375  10.662 -0.7072  0.3813 -0.3656
  746TMC3    C411076   1.267   1.379  10.898 -0.0643  0.1837 -0.4830
  746TMC3    C511077   1.309   1.260  10.843 -0.6173 -0.5638  0.3073
  746TMC3    C611078   1.378   1.248  10.724 -0.3693  0.1229 -0.4603
  746TMC3     C11079   1.273   1.610  10.908  0.3030  0.2752 -0.1282
  746TMC3     O11080   1.204   1.596  11.013  0.8170 -0.0547  0.6259
  746TMC3     H11081   1.378   1.584  10.656 -0.7583  0.1179 -0.6304
  746TMC3    H111082   1.190   1.382  10.975  1.1228 -1.5379  0.7901
  746TMC3    H211083   1.404   1.152  10.681 -2.1783  0.0938 -1.4878
  746TMC3    C711084   1.203   1.167  10.850  0.2146  0.9124  0.0476
  746TMC3    C811085   1.434   1.365  10.526 -0.3674  0.4105  0.1252
  746TMC3    O111086   1.115   1.191  10.768 -0.6208  0.1152  0.3649
  746TMC3    O211087   1.415   1.257  10.474 -0.2750  0.0073  0.0897
  747TMC3    C111088   3.456   1.860  10.995 -0.0832 -0.3034  0.0366
  747TMC3    C211089   3.424   1.733  11.028  0.3537  0.3040 -0.0745
  747TMC3    C311090   3.458   1.690  11.146 -0.5801 -0.5711 -0.1007
  747TMC3    C411091   3.528   1.938  11.079  0.1865 -0.4798 -0.1125
  747TMC3    C511092   3.561   1.889  11.205  0.1957 -0.5533  0.3614
  747TMC3    C611093   3.517   1.771  11.246 -0.4004 -0.2681 -0.8001
  747TMC3     C11094   3.471   1.901  10.857 -0.5921  0.0966 -0.0679
  747TMC3     O11095   3.446   2.014  10.822 -0.1323  0.6395  0.5752
  747TMC3     H11096   3.363   1.679  10.957  0.4051  0.6555 -0.3851
  747TMC3    H111097   3.569   2.033  11.047  0.9303 -0.7063  0.1773
  747TMC3    H211098   3.541   1.725  11.341  0.4574  0.1863 -0.7956
  747TMC3    C711099   3.667   1.959  11.285 -0.0544  0.5392  0.0778
  747TMC3    C811100   3.377   1.581  11.191 -0.0854 -0.1038  0.2715
  747TMC3    O111101   3.667   2.081  11.293 -0.1675  0.2363  0.3045
  747TMC3    O211102   3.350   1.488  11.116  0.9001 -0.0925  0.7035
  748MPD2     C11103   0.031   1.871   0.850 -0.1167  0.8069  1.2368
  748MPD2    C111104   0.054   1.771   0.755  0.3727  0.6245 -0.5630
  748MPD2    C211105   0.189   1.733   0.716 -0.7214 -0.3195  0.1301
  748MPD2    C311106   0.296   1.793   0.785 -0.3068 -0.3498  0.0273
  748MPD2    C411107   0.269   1.892   0.882  0.0636 -0.6174 -0.0609
  748MPD2    C511108   0.137   1.926   0.913  0.1348  0.0887 -0.6145
  748MPD2     H11109   0.212   1.653   0.647  0.7414  0.1202  0.1230
  748MPD2    H111110   0.349   1.950   0.925 -0.2407  1.3585 -2.1491
  748MPD2    H211111   4.670   1.906   0.871  0.9557  2.4731  3.6398
  748MPD2    H311112   0.122   2.008   0.983  1.9734  0.4755 -0.6656
  748MPD2     N11113   0.426   1.755   0.748  0.0477 -0.0237  0.0247
  748MPD2    H511114   0.446   1.697   0.667 -0.1111  0.0686 -0.0806
  748MPD2    N111115   4.681   1.712   0.699  0.3663 -0.2212  0.3182
  748MPD2    H711116   4.593   1.761   0.710  0.1244 -0.8633  1.1975
  749TMC3    C111117   0.656   1.721   0.772 -0.0086 -0.1412  0.1156
  749TMC3    C211118   0.752   1.696   0.861  0.5131  0.9597 -0.3350
  749TMC3    C311119   0.874   1.668   0.807  0.9492  0.1064 -0.1554
  749TMC3    C411120   0.688   1.746   0.641 -0.1000 -0.5275 -0.5754
  749TMC3    C511121   0.809   1.719   0.588  0.2003  0.6166 -0.4875
  749TMC3    C611122   0.908   1.671   0.674 -0.1965 -0.1629  0.5502
  749TMC3     C11123   0.537   1.786   0.822  0.0103 -0.2383  0.5723
  749TMC3     O11124   0.555   1.852   0.923  0.4969 -0.0902  0.3352
  749TMC3     H11125   0.726   1.666   0.962 -0.6184  1.6474 -0.4276
  749TMC3    H111126   0.610   1.781   0.574 -0.2668 -1.5718 -0.9159
  749TMC3    H211127   1.013   1.659   0.650 -0.3725 -0.2020 -0.2098
  749TMC3    C711128   0.859   1.789   0.470  0.3029  0.1340  0.3070
  749TMC3    C811129   0.979   1.627   0.902  0.4656 -0.3568  0.6416
  749TMC3    O111130   0.793   1.881   0.431  0.5418 -0.2033 -0.0773
  749TMC3    O211131   0.956   1.653   1.019 -0.1000  0.1725  0.0319
  750MPD2     C11132   1.681   3.651  11.514 -0.2465  0.2508  0.1118
  750MPD2    C111133   1.586   3.566  11.575  0.3518 -0.6564  0.1311
  750MPD2    C211134   1.547   3.450  11.510  0.6208 -0.4130 -0.3588
  750MPD2    C311135   1.611   3.415  11.387 -0.6914 -0.1988 -0.5965
  750MPD2    C411136   1.714   3.491  11.337  1.4668  0.8921  0.1762
  750MPD2    C511137   1.747   3.610  11.398 -0.2582  0.0462 -0.7215
  750MPD2     H11138   1.472   3.388  11.557 -0.8000  0.2649 -1.6964
  750MPD2    H111139   1.763   3.471  11.243 -0.7624  1.9194 -1.2101
  750MPD2    H211140   1.694   3.753  11.547 -0.4399 -0.3307  1.9912
  750MPD2    H311141   1.815   3.684  11.357  0.8407 -0.0521  0.9253
  750MPD2     N11142   1.581   3.299  11.314 -0.3060 -0.0572  0.1234
  750MPD2    H511143   1.652   3.278  11.244 -1.2406 -0.0545 -0.8250
  750MPD2    N111144   1.533   3.618  11.693  0.0069 -0.3349  0.0102
  750MPD2    H711145   1.563   3.710  11.722  2.1856 -0.5015 -1.7118
  751TMC3    C111146   1.496   3.076  11.274 -0.4826 -0.2640  0.4424
  751TMC3    C211147   1.463   2.959  11.347  0.0278 -0.2149 -0.2558
  751TMC3    C311148   1.511   2.838  11.296  0.0111 -0.3701 -0.7018
  751TMC3    C411149   1.559   3.077  11.158  0.3394 -0.2415  0.3710
  751TMC3    C511150   1.608   2.957  11.111  0.0575  0.0785  0.1399
  751TMC3    C611151   1.593   2.849  11.181 -0.0536 -0.3069  0.8302
  751TMC3     C11152   1.485   3.205  11.342 -0.7059 -0.6858  0.2512
  751TMC3     O11153   1.404   3.208  11.438 -0.0568  0.2507 -0.6743
  751TMC3     H11154   1.402   2.969  11.436  0.4918  0.5825 -0.0278
  751TMC3    H111155   1.582   3.166  11.102 -0.9651 -0.6646 -0.8374
  751TMC3    H211156   1.631   2.757  11.137  0.6248  0.4425 -0.1630
  751TMC3    C711157   1.599   2.944  10.963  0.4263  0.3154 -0.3079
  751TMC3    C811158   1.429   2.726  11.284 -0.2180 -0.1587 -0.8537
  751TMC3    O111159   1.627   3.034  10.886 -0.2126 -0.2772 -0.0981
  751TMC3    O211160   1.437   2.670  11.173 -0.6580  0.1366 -0.0935
  752TMC3    C111161   0.417   2.437  16.820 -0.5918  0.0971  0.1848
  752TMC3    C211162   0.422   2.301  16.825 -0.7993 -0.3418  0.6454
  752TMC3    C311163   0.402   2.238  16.943 -0.2645 -0.7822 -0.8877
  752TMC3    C411164   0.370   2.519  16.923 -0.3034 -0.3112 -0.3102
  752TMC3    C511165   0.337   2.447  17.038  0.0594  0.5532  0.7213
  752TMC3    C611166   0.350   2.307  17.052  0.7404 -0.6025  0.6447
  752TMC3     C11167   0.425   2.491  16.687 -0.1251 -0.6787 -0.0299
  752TMC3     O11168   0.485   2.424  16.604  0.2602  0.5280 -0.7479
  752TMC3     H11169   0.450   2.240  16.740 -0.1677 -0.5392  0.9948
  752TMC3    H111170   0.379   2.627  16.917 -1.1472 -0.2052  0.3778
  752TMC3    H211171   0.315   2.251  17.138  1.3017 -0.0109  1.2591
  752TMC3    C711172   0.271   2.525  17.137 -0.0424  0.8918  0.5765
  752TMC3    C811173   0.440   2.098  16.967 -0.3435 -0.0034 -0.1249
  752TMC3    O111174   0.220   2.626  17.091  0.7485  0.1668  0.7630
  752TMC3    O211175   0.396   2.062  17.071 -0.7806 -0.5446  0.2831
  753TMC3    C111176   2.189   4.361  13.161  0.3414  0.1496 -0.0680
  753TMC3    C211177   2.269   4.367  13.273  0.0983 -0.4691 -0.0654
  753TMC3    C311178   2.337   4.257  13.304 -0.3463  0.0007 -0.2007
  753TMC3    C411179   2.172   4.245  13.087 -0.5302 -0.2357  0.5570
  753TMC3    C511180   2.226   4.132  13.137 -0.1991  0.8080 -1.0967
  753TMC3    C611181   2.316   4.138  13.241 -0.8656 -0.7102 -0.6134
  753TMC3     C11182   2.111   4.476  13.123  0.5410 -0.6282 -0.1608
  753TMC3     O11183   2.006   4.447  13.063  0.1953  0.5397 -0.1708
  753TMC3     H11184   2.266   4.455  13.336 -0.9857 -1.4428  1.2581
  753TMC3    H111185   2.108   4.240  12.999 -0.1996 -0.3799  0.3267
  753TMC3    H211186   2.377   4.051  13.263 -0.4063 -0.4838 -0.9817
  753TMC3    C711187   2.205   4.003  13.070 -0.0582 -0.6642  0.2541
  753TMC3    C811188   2.439   4.251  13.411 -0.1227 -0.3008 -0.5538
  753TMC3    O111189   2.125   4.001  12.975 -0.0376 -0.4929  0.3967
  753TMC3    O211190   2.512   4.155  13.392 -0.8651 -0.5235  0.1641
  754MPD2     C11191   1.578   2.697  13.124  0.3578 -0.6263 -0.6871
  754MPD2    C111192   1.509   2.567  13.113 -0.2888  0.0944 -0.6877
  754MPD2    C211193   1.371   2.559  13.134  0.3841 -0.1142 -0.3395
  754MPD2    C311194   1.308   2.675  13.181  0.1932  0.4190  0.6532
  754MPD2    C411195   1.379   2.793  13.189 -0.1060 -0.4876 -0.1427
  754MPD2    C511196   1.508   2.808  13.159 -0.1047 -0.6940  0.3321
  754MPD2     H11197   1.314   2.468  13.124  0.4421 -0.0835 -0.9908
  754MPD2    H111198   1.329   2.888  13.205  0.1503 -0.9992  3.8291
  754MPD2    H211199   1.682   2.707  13.094  0.1733  3.8847  0.2419
  754MPD2    H311200   1.559   2.904  13.167  0.0126 -0.6094 -1.5147
  754MPD2     N11201   1.172   2.679  13.198  0.1106 -0.2982 -0.2832
  754MPD2    H511202   1.141   2.771  13.229  1.1516  0.0991 -0.4143
  754MPD2    N111203   1.594   2.461  13.081 -0.0193  0.6050 -0.3362
  754MPD2    H711204   1.681   2.494  13.040 -1.3379  2.9226 -1.2517
  755MPD2     C11205   0.679   3.356  13.267 -0.2579  0.7466  0.1472
  755MPD2    C111206   0.584   3.255  13.293 -0.3523 -0.3164  0.1717
  755MPD2    C211207   0.619   3.125  13.260 -0.3486  0.5208 -1.0587
  755MPD2    C311208   0.743   3.093  13.206  0.4084  0.0386  0.0322
  755MPD2    C411209   0.831   3.196  13.181  0.0142 -0.1742 -1.0895
  755MPD2    C511210   0.805   3.327  13.220  0.1834  0.4345 -0.5332
  755MPD2     H11211   0.539   3.055  13.280  2.3004 -2.8374 -2.2357
  755MPD2    H111212   0.934   3.184  13.150  0.4872 -0.8092  0.7159
  755MPD2    H211213   0.656   3.461  13.273 -1.8857  0.1991  3.6983
  755MPD2    H311214   0.876   3.407  13.199  0.5090  0.1883 -0.3643
  755MPD2     N11215   0.782   2.959  13.180  0.2580 -0.7802  0.7213
  755MPD2    H511216   0.869   2.943  13.131  0.0157  1.8027 -0.5204
  755MPD2    N111217   0.450   3.277  13.343  1.1201 -0.8079  0.0132
  755MPD2    H711218   0.385   3.200  13.350  0.7912 -0.7876 -2.9092
  756MPD2     C11219   1.249   3.663   9.768 -0.3122  0.1885 -0.3888
  756MPD2    C111220   1.166   3.614   9.861 -0.1739 -0.0359  0.6103
  756MPD2    C211221   1.042   3.563   9.819  0.2283 -0.3298  0.6502
  756MPD2    C311222   1.001   3.574   9.685  0.5965 -0.4912  0.7044
  756MPD2    C411223   1.091   3.622   9.590  0.4493  0.5331 -0.2409
  756MPD2    C511224   1.216   3.665   9.633  0.5003 -0.6499  0.0178
  756MPD2     H11225   0.971   3.538   9.897 -1.0542 -1.5738 -0.9326
  756MPD2    H111226   1.086   3.631   9.482 -0.1265 -1.9153 -0.4132
  756MPD2    H211227   1.347   3.705   9.789 -0.5407 -0.2141  1.4427
  756MPD2    H311228   1.292   3.689   9.560  0.5778  0.1311  0.3482
  756MPD2     N11229   0.872   3.537   9.650 -0.4305 -0.7911  0.1402
  756MPD2    H511230   0.812   3.491   9.718 -1.4149 -0.5257 -0.5593
  756MPD2    N111231   1.194   3.609   9.994  0.7112 -0.1394  0.7606
  756MPD2    H711232   1.115   3.571  10.045 -0.3153 -0.5176 -1.1133
  757MPD2     C11233   0.485   2.739   9.809  0.8465 -0.1986 -0.3741
  757MPD2    C111234   0.615   2.776   9.786 -0.7219  0.1170  0.1501
  757MPD2    C211235   0.640   2.901   9.730  0.4871  0.7376 -0.6305
  757MPD2    C311236   0.539   2.986   9.702  0.0400 -0.2224  0.4101
  757MPD2    C411237   0.410   2.940   9.713 -0.3399 -0.1477  0.1511
  757MPD2    C511238   0.382   2.820   9.775 -0.5974 -0.4341 -0.5290
  757MPD2     H11239   0.741   2.927   9.698  1.0817 -1.4352 -0.5611
  757MPD2    H111240   0.323   2.995   9.680 -0.2544 -0.3586 -0.4282
  757MPD2    H211241   0.455   2.647   9.856  0.5988  0.5472  0.9252
  757MPD2    H311242   0.283   2.790   9.806  0.0999 -1.6632  0.5350
  757MPD2     N11243   0.565   3.115   9.647  0.1005  0.7097 -0.1334
  757MPD2    H511244   0.664   3.139   9.644  0.0958  1.1239  2.7009
  757MPD2    N111245   0.705   2.674   9.815 -0.3752 -0.4594  0.8746
  757MPD2    H711246   0.656   2.586   9.829 -1.8532  0.1997 -0.2157
  758MPD2     C11247   1.791   3.405  15.448  0.0541 -0.0315 -0.3507
  758MPD2    C111248   1.841   3.325  15.554  0.8022 -0.1942 -0.1083
  758MPD2    C211249   1.763   3.278  15.655  1.2182 -0.7327  0.1485
  758MPD2    C311250   1.625   3.307  15.646 -0.3988  0.1804  0.3544
  758MPD2    C411251   1.577   3.389  15.545 -0.0142  0.5130  0.1015
  758MPD2    C511252   1.662   3.439  15.448  0.1939  0.1232  0.1418
  758MPD2     H11253   1.819   3.221  15.728  0.4526  2.2814  3.1259
  758MPD2    H111254   1.473   3.415  15.534  0.2636  1.6442  0.1572
  758MPD2    H211255   1.849   3.441  15.363  0.8351  0.9419  0.5827
  758MPD2    H311256   1.624   3.494  15.363  0.8690 -1.2712 -1.0924
  758MPD2     N11257   1.536   3.254  15.738  0.2041 -0.1788 -0.1421
  758MPD2    H511258   1.438   3.279  15.734  0.4585  0.9089  0.4747
  758MPD2    N111259   1.978   3.275  15.543  0.2133 -0.2941 -0.1667
  758MPD2    H711260   2.021   3.299  15.455  2.2538  1.0598  1.1894
  759MPD2     C11261   4.191   1.201  10.858  0.3076  0.1967 -0.6796
  759MPD2    C111262   4.209   1.149  10.729 -0.4830  0.0949  0.0275
  759MPD2    C211263   4.178   1.228  10.619  0.0269  0.6818 -0.0102
  759MPD2    C311264   4.106   1.349  10.639  0.7969  0.1323 -0.6037
  759MPD2    C411265   4.086   1.399  10.767  0.0873  0.1555 -0.3892
  759MPD2    C511266   4.137   1.328  10.869 -0.4746  0.1975 -0.6236
  759MPD2     H11267   4.198   1.195  10.518  1.6467  1.0032  0.2138
  759MPD2    H111268   4.040   1.492  10.798  0.5271  0.1332  0.3440
  759MPD2    H211269   4.235   1.147  10.941 -0.6807  1.9964  1.0077
  759MPD2    H311270   4.136   1.353  10.974  0.7437  0.3145 -0.6420
  759MPD2     N11271   4.081   1.423  10.518  0.1142  0.8227 -0.2255
  759MPD2    H511272   4.114   1.380  10.432 -1.5092  1.2070 -1.0347
  759MPD2    N111273   4.279   1.030  10.691 -0.3576 -0.7629  0.1169
  759MPD2    H711274   4.280   1.013  10.591 -1.9788 -0.2406  0.0146
  760MPD2     C11275   3.982   2.750  12.197 -0.2194 -0.3358  0.1680
  760MPD2    C111276   4.107   2.814  12.209 -0.3853  0.0801 -0.1611
  760MPD2    C211277   4.221   2.739  12.191  0.1977 -0.2107 -0.3551
  760MPD2    C311278   4.212   2.599  12.172 -0.6125 -0.6470 -0.2153
  760MPD2    C411279   4.092   2.540  12.160 -0.2871 -0.6512 -0.7424
  760MPD2    C511280   3.973   2.613  12.167 -0.3507  0.1572  0.8571
  760MPD2     H11281   4.314   2.790  12.213 -0.7265  1.0422  0.6187
  760MPD2    H111282   4.076   2.433  12.146 -0.6236 -1.0150  2.4785
  760MPD2    H211283   3.887   2.800  12.208 -0.4153 -0.8702  0.8780
  760MPD2    H311284   3.876   2.568  12.155  1.0978 -2.5606 -0.5528
  760MPD2     N11285   4.331   2.518  12.167 -0.4586 -0.3463  0.9885
  760MPD2    H511286   4.313   2.420  12.146  2.2626 -0.3810 -1.1526
  760MPD2    N111287   4.130   2.953  12.229  0.2691 -0.3317  0.6931
  760MPD2    H711288   4.228   2.976  12.228  0.4498 -1.0612  1.2094
  761MPD2     C11289   1.027   2.467  11.481 -0.2141 -0.3706  1.2963
  761MPD2    C111290   1.090   2.456  11.357 -0.2716 -0.1383 -0.1804
  761MPD2    C211291   1.191   2.545  11.325 -0.2174 -0.6462 -0.3869
  761MPD2    C311292   1.236   2.629  11.420  0.0650  0.1884 -0.2809
  761MPD2    C411293   1.179   2.637  11.539  0.2708  0.0348 -0.6176
  761MPD2    C511294   1.072   2.552  11.579 -0.4112 -0.5796  0.8390
  761MPD2     H11295   1.232   2.557  11.226  3.9291  0.0907  1.4283
  761MPD2    H111296   1.214   2.704  11.617 -1.1829  0.6069 -0.4426
  761MPD2    H211297   0.944   2.404  11.511 -1.0398 -0.1439 -0.5572
  761MPD2    H311298   1.014   2.571  11.669  2.1823 -0.5926  2.5337
  761MPD2     N11299   1.346   2.717  11.394  0.9710 -0.5322 -0.1925
  761MPD2    H511300   1.391   2.757  11.475  0.4425 -0.8067  0.2328
  761MPD2    N111301   1.031   2.368  11.268 -0.6001  0.6689 -0.0728
  761MPD2    H711302   0.984   2.285  11.304 -0.2223  1.2525  1.7241
  762MPD2     C11303   1.161   1.869  10.478  0.1249 -0.5398 -0.0871
  762MPD2    C111304   1.201   1.987  10.543 -0.0102 -0.9806 -0.2690
  762MPD2    C211305   1.286   2.073  10.479  0.1571 -0.1274 -0.4353
  762MPD2    C311306   1.332   2.044  10.351 -0.0012 -0.1299  0.4994
  762MPD2    C411307   1.281   1.934  10.283 -0.3934  0.1654 -0.5103
  762MPD2    C511308   1.193   1.848  10.346 -0.0697  0.8546 -0.4464
  762MPD2     H11309   1.345   2.141  10.539  3.5701 -3.5793  0.1491
  762MPD2    H111310   1.306   1.911  10.180 -0.7088 -2.1128 -0.0885
  762MPD2    H211311   1.090   1.808  10.532  1.4555 -1.0211  1.1223
  762MPD2    H311312   1.164   1.762  10.286  1.5662 -0.2387  0.3380
  762MPD2     N11313   1.426   2.124  10.282 -0.1182  0.7397 -0.3048
  762MPD2    H511314   1.482   2.190  10.333  2.3321 -0.2831 -1.6573
  762MPD2    N111315   1.152   1.998  10.671 -0.1671  0.5642 -0.1514
  762MPD2    H711316   1.106   1.918  10.712  2.1622 -0.2037  0.8773
  763MPD2     C11317   3.313   2.544  16.062 -0.1974  0.0384 -0.1953
  763MPD2    C111318   3.212   2.603  15.995  0.6404  0.4750 -0.4228
  763MPD2    C211319   3.180   2.733  16.029  0.1294  0.1637  0.4211
  763MPD2    C311320   3.255   2.812  16.114 -0.1070 -0.0104 -0.2472
  763MPD2    C411321   3.357   2.748  16.176 -0.0942 -0.2735  0.1888
  763MPD2    C511322   3.390   2.614  16.147 -0.2343 -0.1159  0.3715
  763MPD2     H11323   3.097   2.782  15.978 -0.0666 -0.7832 -0.1763
  763MPD2    H111324   3.429   2.812  16.225  1.8583 -1.4393 -1.1531
  763MPD2    H211325   3.353   2.452  16.023 -0.9850 -0.3383 -0.1081
  763MPD2    H311326   3.479   2.567  16.187 -0.1100 -0.2003 -0.0067
  763MPD2     N11327   3.246   2.954  16.117 -0.3410  0.1229  0.5383
  763MPD2    H511328   3.316   3.004  16.171 -0.4556 -0.1636  0.9571
  763MPD2    N111329   3.142   2.537  15.891 -0.3871 -0.3158 -0.3350
  763MPD2    H711330   3.071   2.593  15.845 -1.3258 -0.6185  0.7418
  764MPD2     C11331   1.047   4.235   0.361  0.4384 -0.0213  0.3614
  764MPD2    C111332   0.955   4.264   0.263 -0.3047 -0.0476 -0.6001
  764MPD2    C211333   0.825   4.228   0.284 -0.3365 -0.3147 -0.1345
  764MPD2    C311334   0.788   4.163   0.405  0.6431  0.5085  0.3133
  764MPD2    C411335   0.881   4.129   0.500 -0.6530  0.2795  0.2527
  764MPD2    C511336   1.012   4.170   0.478  0.7633  0.4238  0.2783
  764MPD2     H11337   0.753   4.260   0.209 -0.4810  1.1705  0.6206
  764MPD2    H111338   0.845   4.080   0.590 -0.0487 -2.6344 -1.1116
  764MPD2    H211339   1.142   4.287   0.355  1.3503 -1.7593 -0.5338
  764MPD2    H311340   1.083   4.152   0.557  2.1770  0.7870 -0.9078
  764MPD2     N11341   0.656   4.113   0.422 -0.4345 -0.1449  0.1921
  764MPD2    H511342   0.640   4.063   0.509  1.5559 -0.3722  0.4287
  764MPD2    N111343   0.991   4.306   0.133 -0.1620  0.2840 -0.2420
  764MPD2    H711344   0.916   4.304   0.065  0.2718 -1.3472 -0.6711
  765MPD2     C11345   0.528   1.932  15.789 -0.1059 -0.6102 -0.0149
  765MPD2    C111346   0.610   2.017  15.860  0.2917 -0.5847  0.1982
  765MPD2    C211347   0.746   1.996  15.849 -0.0770 -0.2521  0.3808
  765MPD2    C311348   0.804   1.878  15.789 -0.1738  0.0422 -0.3040
  765MPD2    C411349   0.717   1.798  15.723  0.7332 -0.1798  0.4303
  765MPD2    C511350   0.585   1.821  15.725 -0.4965 -0.2646 -0.2627
  765MPD2     H11351   0.818   2.054  15.907  0.7241  0.7889 -1.6751
  765MPD2    H111352   0.746   1.707  15.672 -2.0801  1.0674 -3.4594
  765MPD2    H211353   0.422   1.950  15.776  0.0754 -0.8494 -1.7658
  765MPD2    H311354   0.513   1.766  15.665  0.9325 -1.9334 -0.4487
  765MPD2     N11355   0.943   1.865  15.782  0.0885 -0.1966  0.6015
  765MPD2    H511356   0.999   1.943  15.815 -0.2861 -0.3116  1.5236
  765MPD2    N111357   0.555   2.131  15.928  0.8666 -0.1403 -0.4479
  765MPD2    H711358   0.460   2.159  15.907  0.9302  0.9397  0.7172
  766MPD2     C11359   0.112   2.268  15.698  0.0687  0.0030  0.9200
  766MPD2    C111360   0.249   2.290  15.698  0.1954  0.3086  0.2280
  766MPD2    C211361   0.328   2.247  15.597 -0.1984 -0.4539  0.3244
  766MPD2    C311362   0.281   2.187  15.487  0.2379  0.7850 -0.5594
  766MPD2    C411363   0.145   2.161  15.482 -0.1124 -0.1302 -0.0402
  766MPD2    C511364   0.059   2.209  15.584 -0.0847  0.2572 -0.3360
  766MPD2     H11365   0.434   2.255  15.621 -0.0608 -0.5061 -0.2762
  766MPD2    H111366   0.102   2.119  15.392  0.3634 -1.3855  0.3134
  766MPD2    H211367   0.042   2.302  15.774  0.4612 -2.1657  2.2559
  766MPD2    H311368   4.694   2.182  15.582  0.1269 -0.8071  2.0432
  766MPD2     N11369   0.363   2.130  15.388 -0.5076 -0.3837 -0.0707
  766MPD2    H511370   0.318   2.063  15.325  1.7492 -0.7272 -1.3359
  766MPD2    N111371   0.315   2.363  15.799  0.2223  0.4395  0.4310
  766MPD2    H711372   0.414   2.380  15.785  0.2972 -1.7081 -1.5620
  767MPD2     C11373   0.095   2.357  15.222 -0.0152  0.1251 -0.1348
  767MPD2    C111374   0.224   2.373  15.170 -0.4149  0.1301  0.3457
  767MPD2    C211375   0.257   2.317  15.040  0.0720 -0.0532 -0.6769
  767MPD2    C311376   0.165   2.241  14.968  0.4587 -0.2412  0.0430
  767MPD2    C411377   0.043   2.217  15.035  0.9434 -0.6816  0.1353
  767MPD2    C511378   0.006   2.275  15.156 -0.3051 -0.4653 -0.0532
  767MPD2     H11379   0.356   2.320  14.997 -0.3806 -0.7368 -1.7683
  767MPD2    H111380   4.714   2.148  14.986  0.7860 -0.6869  0.3677
  767MPD2    H211381   0.074   2.411  15.313 -1.3671  1.8570 -1.4720
  767MPD2    H311382   4.646   2.263  15.196 -0.3077  1.8265  0.5935
  767MPD2     N11383   0.202   2.176  14.846  0.3950  0.6241  0.6705
  767MPD2    H511384   0.295   2.199  14.810 -0.7049  0.8606 -1.9872
  767MPD2    N111385   0.304   2.459  15.247 -0.2340  0.6653 -0.7813
  767MPD2    H711386   0.265   2.485  15.337  4.7781  1.5051  1.1217
  768MPD2     C11387   1.046   0.933  10.451 -0.6034  0.3915  0.3772
  768MPD2    C111388   1.028   0.861  10.564  0.2749  0.0757  0.3190
  768MPD2    C211389   1.131   0.847  10.655  0.6656 -0.0181  0.7122
  768MPD2    C311390   1.260   0.880  10.627  0.1065  0.4604  0.6088
  768MPD2    C411391   1.270   0.960  10.510 -0.7462 -0.0878  0.4731
  768MPD2    C511392   1.164   0.991  10.428 -0.0792 -0.2944  0.5440
  768MPD2     H11393   1.107   0.775  10.732 -0.2981  0.3050  0.7203
  768MPD2    H111394   1.368   0.989  10.476 -1.2704  1.7152  0.4983
  768MPD2    H211395   0.964   0.946  10.380  1.2855  2.5643 -1.4022
  768MPD2    H311396   1.186   1.046  10.338 -0.2849  1.4077  1.5481
  768MPD2     N11397   1.374   0.852  10.703  0.3816  0.5606 -0.1978
  768MPD2    H511398   1.462   0.889  10.670 -0.4364  2.4248 -0.2983
  768MPD2    N111399   0.909   0.794  10.589  0.1587 -0.1177  0.0146
  768MPD2    H711400   0.897   0.752  10.680  1.7626 -0.5460  0.0204
  769MPD2     C11401   2.148   3.893  14.706 -0.4553 -0.7142  0.3593
  769MPD2    C111402   2.163   3.797  14.808 -0.3271 -0.0699 -0.1825
  769MPD2    C211403   2.243   3.831  14.922  0.5484  0.6862 -0.1244
  769MPD2    C311404   2.307   3.954  14.925 -0.0086  0.1711 -0.3814
  769MPD2    C411405   2.287   4.046  14.825  0.5346 -0.1120  0.8671
  769MPD2    C511406   2.209   4.011  14.719 -0.7142  0.9944 -0.3850
  769MPD2     H11407   2.256   3.760  15.004 -4.2447 -0.8929 -0.7639
  769MPD2    H111408   2.342   4.139  14.819 -1.2694  0.9073  0.2061
  769MPD2    H211409   2.095   3.885  14.611  0.7864  1.2635 -0.5116
  769MPD2    H311410   2.196   4.079  14.636 -0.9615  1.0348 -0.3129
  769MPD2     N11411   2.400   3.990  15.025 -0.1769 -0.1863  0.6326
  769MPD2    H511412   2.445   4.081  15.024  0.6718 -0.6166 -0.5216
  769MPD2    N111413   2.084   3.678  14.805  0.1283  0.1825 -0.0431
  769MPD2    H711414   2.034   3.672  14.716  0.4727  0.3249 -0.2438
  770MPD2     C11415   1.357   3.061  15.294 -0.9722  0.3212 -0.3507
  770MPD2    C111416   1.423   2.960  15.217  0.0586  0.9680 -1.0432
  770MPD2    C211417   1.528   3.006  15.146 -0.0179  0.0147 -0.3469
  770MPD2    C311418   1.576   3.137  15.149 -0.6849  0.1584 -0.1520
  770MPD2    C411419   1.507   3.225  15.225  0.4509  0.1973 -0.4733
  770MPD2    C511420   1.398   3.192  15.298  0.3893  0.3538  0.1536
  770MPD2     H11421   1.584   2.941  15.080 -2.2048 -0.9784 -1.2445
  770MPD2    H111422   1.521   3.333  15.231 -1.2117  0.3553  0.7600
  770MPD2    H211423   1.273   3.035  15.358 -0.8982  1.5787  0.2499
  770MPD2    H311424   1.354   3.269  15.359 -0.6055  0.1085 -0.2498
  770MPD2     N11425   1.688   3.174  15.068  0.2907  0.3473 -0.2334
  770MPD2    H511426   1.722   3.091  15.021  2.2544  1.0414 -0.0365
  770MPD2    N111427   1.383   2.826  15.229  0.7302  0.2195 -0.0166
  770MPD2    H711428   1.319   2.806  15.305 -1.7718  1.6316 -1.7801
  771MPD2     C11429   2.460   1.832  13.550 -0.4351  0.0343  0.1294
  771MPD2    C111430   2.372   1.883  13.453  0.7066 -0.0654 -0.1789
  771MPD2    C211431   2.303   1.791  13.372  0.1992 -0.1178 -0.6122
  771MPD2    C311432   2.342   1.656  13.382  0.4411 -0.1628 -0.3391
  771MPD2    C411433   2.429   1.609  13.483  0.0154  0.2885 -0.5001
  771MPD2    C511434   2.482   1.701  13.566  0.0021  0.0204 -0.2616
  771MPD2     H11435   2.245   1.831  13.290  0.7192 -0.0883 -0.9720
  771MPD2    H111436   2.456   1.505  13.491 -1.0329  0.1003  0.4735
  771MPD2    H211437   2.507   1.898  13.622 -0.4781 -0.1875  0.3600
  771MPD2    H311438   2.551   1.668  13.643  1.1239  0.1754 -1.1973
  771MPD2     N11439   2.281   1.567  13.285  0.4009 -0.6958 -1.4479
  771MPD2    H511440   2.217   1.613  13.221  1.4542  2.6969 -0.0612
  771MPD2    N111441   2.344   2.021  13.442 -0.0269 -0.3271  0.7453
  771MPD2    H711442   2.268   2.043  13.379  1.9255  0.5277 -1.3244
  772MPD2     C11443   1.816   2.524  13.413 -0.1736 -0.6114 -0.4248
  772MPD2    C111444   1.911   2.457  13.493 -0.3674  0.1293  0.1565
  772MPD2    C211445   1.871   2.419  13.621  0.5643  0.5354  0.2531
  772MPD2    C311446   1.754   2.459  13.679 -0.0261 -0.1256 -0.5420
  772MPD2    C411447   1.673   2.537  13.598 -0.4896  0.6564  0.5482
  772MPD2    C511448   1.695   2.558  13.466 -0.1322 -0.1610 -0.2035
  772MPD2     H11449   1.939   2.360  13.681  2.2664  0.8091 -1.3928
  772MPD2    H111450   1.575   2.562  13.639 -1.8092  2.0034 -3.4439
  772MPD2    H211451   1.841   2.559  13.313  0.8015 -0.4484 -0.1308
  772MPD2    H311452   1.619   2.607  13.407 -1.7077 -1.3476  0.8421
  772MPD2     N11453   1.711   2.420  13.810  0.6303 -0.2861  0.4237
  772MPD2    H511454   1.616   2.449  13.830  0.9504  0.6067  0.6399
  772MPD2    N111455   2.037   2.416  13.449  0.2546 -0.2255  0.2592
  772MPD2    H711456   2.090   2.352  13.507  1.5089  0.2450 -0.3597
  773MPD2     C11457   1.752   2.363   0.264 -0.0538  0.2448  0.2654
  773MPD2    C111458   1.738   2.311   0.139  0.9690 -0.9841 -0.2500
  773MPD2    C211459   1.825   2.207   0.108  0.4053  1.1415  0.2120
  773MPD2    C311460   1.923   2.158   0.191 -0.4714  0.1685  0.5082
  773MPD2    C411461   1.920   2.204   0.322 -0.4445  0.2492  0.2200
  773MPD2    C511462   1.833   2.305   0.352 -0.1195 -0.6546  0.2276
  773MPD2     H11463   1.825   2.164   0.009 -0.6047 -1.0526  1.1537
  773MPD2    H111464   1.982   2.168   0.403 -0.1410 -0.8835 -0.5158
  773MPD2    H211465   1.700   2.445   0.313 -0.3693  0.6955 -0.8235
  773MPD2    H311466   1.840   2.339   0.455  2.2682  0.7432 -0.3884
  773MPD2     N11467   2.013   2.058   0.149 -0.1675 -0.4561 -0.6793
  773MPD2    H511468   2.010   2.023   0.054  1.0657  0.5471 -1.0885
  773MPD2    N111469   1.639   2.370   0.054 -0.2376 -0.6255 -0.2436
  773MPD2    H711470   1.634   2.338  17.714 -0.4719  1.1321 -0.8286
  774MPD2     C11471   1.072   1.492  13.312  0.4076 -0.1321  0.2926
  774MPD2    C111472   1.096   1.564  13.426 -0.2121 -0.7137 -0.0267
  774MPD2    C211473   1.165   1.683  13.420 -0.1950 -0.0496 -0.7506
  774MPD2    C311474   1.207   1.734  13.303 -0.4877  0.3361  0.4861
  774MPD2    C411475   1.193   1.656  13.190 -0.1180 -0.1168 -0.2988
  774MPD2    C511476   1.121   1.538  13.190  0.3264  0.5474 -0.3124
  774MPD2     H11477   1.169   1.737  13.514  3.1584  3.0200 -2.6501
  774MPD2    H111478   1.228   1.689  13.093  2.1229  0.0577  0.5663
  774MPD2    H211479   1.012   1.402  13.308 -1.3036  0.9272  1.9040
  774MPD2    H311480   1.089   1.487  13.100  1.9061  1.2606 -1.2796
  774MPD2     N11481   1.265   1.860  13.304 -0.1635 -0.1967 -0.0031
  774MPD2    H511482   1.273   1.902  13.395 -3.0774  0.5988 -0.1071
  774MPD2    N111483   1.047   1.525  13.556 -0.2104 -0.1305 -0.7669
  774MPD2    H711484   1.059   1.586  13.636  0.0108  4.2002 -4.0788
  775MPD2     C11485   2.787   3.745  15.327  0.3215  0.6256  0.1997
  775MPD2    C111486   2.850   3.843  15.403 -0.3041  0.0521 -0.4302
  775MPD2    C211487   2.914   3.947  15.347 -0.0867 -0.6678 -0.2118
  775MPD2    C311488   2.912   3.958  15.204  0.1554 -0.0354 -0.7023
  775MPD2    C411489   2.858   3.859  15.129 -0.1568  0.0422 -0.3108
  775MPD2    C511490   2.801   3.749  15.191  0.4888 -0.7296  0.0348
  775MPD2     H11491   2.967   4.017  15.410  1.6417 -0.1782 -2.2005
  775MPD2    H111492   2.847   3.863  15.021  2.3495 -1.8035 -0.6206
  775MPD2    H211493   2.726   3.668  15.372 -0.5040 -0.1076 -2.1994
  775MPD2    H311494   2.751   3.674  15.131 -0.8444  1.2154 -1.2855
  775MPD2     N11495   2.978   4.060  15.134 -0.5956  0.6662  0.0860
  775MPD2    H511496   2.982   4.051  15.032  1.2614  0.8439  0.1409
  775MPD2    N111497   2.840   3.827  15.547 -0.6431  0.3903  0.8556
  775MPD2    H711498   2.787   3.750  15.587 -1.4041 -0.1436 -1.2080
  776MPD2     C11499   0.954   4.142  11.608 -0.2126  0.7530 -0.2565
  776MPD2    C111500   1.092   4.137  11.637  0.3400 -0.4739 -0.3110
  776MPD2    C211501   1.179   4.193  11.549 -0.0530  1.3054 -0.4949
  776MPD2    C311502   1.137   4.257  11.428 -0.3312 -0.0830  0.1087
  776MPD2    C411503   0.999   4.260  11.407 -0.6999  0.7184 -0.3590
  776MPD2    C511504   0.906   4.201  11.492  0.1897  0.3111 -0.2446
  776MPD2     H11505   1.285   4.188  11.568 -0.1877  0.6881  0.1018
  776MPD2    H111506   0.961   4.300  11.314  1.2708  0.9577 -1.0634
  776MPD2    H211507   0.885   4.102  11.681 -0.2397 -0.4749 -0.9510
  776MPD2    H311508   0.798   4.207  11.486  0.0464 -2.3899 -0.2083
  776MPD2     N11509   1.224   4.292  11.322 -0.3099 -0.7342  0.2148
  776MPD2    H511510   1.180   4.292  11.230  0.1026 -0.6728  0.0162
  776MPD2    N111511   1.139   4.065  11.754  0.4907 -0.0645 -0.0092
  776MPD2    H711512   1.067   4.043  11.822 -0.4517  0.7864 -0.7382
  777MPD2     C11513   1.900   0.769   0.142  0.4097  0.2493  0.1000
  777MPD2    C111514   1.799   0.858   0.174 -0.2366 -0.1563  0.1397
  777MPD2    C211515   1.682   0.841   0.103  0.2993  0.0271 -0.5032
  777MPD2    C311516   1.668   0.770  17.743  0.0179 -0.0230  0.2767
  777MPD2    C411517   1.768   0.686  17.708 -0.2150 -0.3784  0.2693
  777MPD2    C511518   1.881   0.689   0.032 -0.7161 -0.3059 -0.7903
  777MPD2     H11519   1.594   0.896   0.131  0.4281  1.0642 -2.1299
  777MPD2    H111520   1.771   0.631  17.615  0.7865 -2.3627  1.4601
  777MPD2    H211521   1.996   0.760   0.191 -0.1095  3.2631  1.6657
  777MPD2    H311522   1.963   0.622   0.007  0.6831  0.8000  0.8214
  777MPD2     N11523   1.551   0.795  17.672 -0.8580  1.0017  0.4076
  777MPD2    H511524   1.475   0.844  17.718  1.1154  2.3057  2.2801
  777MPD2    N111525   1.794   0.932   0.297  0.0645 -0.3280  0.0801
  777MPD2    H711526   1.866   0.902   0.361  1.3376 -0.9858 -1.6809
  778MPD2     C11527   2.835   2.123  14.574 -0.2583 -0.9603 -0.6440
  778MPD2    C111528   2.776   2.048  14.479 -0.4854 -0.0061 -0.6136
  778MPD2    C211529   2.764   2.102  14.353  1.1317  0.1596 -0.0621
  778MPD2    C311530   2.807   2.226  14.317  0.2328 -0.5871  0.3767
  778MPD2    C411531   2.854   2.305  14.415  0.1259 -0.5252 -0.4440
  778MPD2    C511532   2.865   2.256  14.546 -0.5749 -0.5108 -1.2005
  778MPD2     H11533   2.730   2.034  14.275 -1.1454  2.7601 -1.3159
  778MPD2    H111534   2.878   2.408  14.393 -0.1326 -0.4496 -0.3751
  778MPD2    H211535   2.852   2.090  14.676 -1.2305  0.1191 -0.1407
  778MPD2    H311536   2.913   2.319  14.620  1.4527 -4.4307  0.8281
  778MPD2     N11537   2.797   2.260  14.179  0.2435  0.1477 -0.5731
  778MPD2    H511538   2.753   2.188  14.123 -1.7311 -0.0035  1.1905
  778MPD2    N111539   2.734   1.915  14.502  0.3788  0.4287 -0.3059
  778MPD2    H711540   2.670   1.872  14.436  0.4994  0.5530 -0.5048
  779MPD2     C11541   2.169   0.546  14.144 -0.2850  0.0640 -0.6493
  779MPD2    C111542   2.306   0.552  14.175  0.7877 -0.2962  0.7521
  779MPD2    C211543   2.363   0.676  14.163 -0.4965  0.1864 -0.5440
  779MPD2    C311544   2.293   0.793  14.131  0.2315 -0.2632  0.0662
  779MPD2    C411545   2.156   0.786  14.111  0.8854  0.2198 -0.3824
  779MPD2    C511546   2.102   0.658  14.116 -1.0093 -0.4127  0.2490
  779MPD2     H11547   2.471   0.686  14.173 -0.4064  0.4410 -1.8084
  779MPD2    H111548   2.097   0.869  14.073 -0.8857  0.1574  2.2641
  779MPD2    H211549   2.118   0.452  14.127  0.5333 -0.6664  0.9342
  779MPD2    H311550   2.000   0.663  14.080  0.2777  3.6987 -2.9262
  779MPD2     N11551   2.369   0.910  14.118  0.0339 -0.1496 -0.6084
  779MPD2    H511552   2.464   0.908  14.154 -0.9508 -1.6326  1.8652
  779MPD2    N111553   2.390   0.436  14.188 -0.3967 -0.2957  0.0878
  779MPD2    H711554   2.489   0.456  14.197 -0.5504  1.0174 -1.2152
  780MPD2     C11555   1.630   0.136   0.272  0.3752  0.4888 -0.2768
  780MPD2    C111556   1.702   0.056   0.184 -1.0288 -0.2104 -0.3192
  780MPD2    C211557   1.826   0.109   0.146  0.1502  0.1840  0.1911
  780MPD2    C311558   1.877   0.226   0.188  0.0807  0.3716 -0.2263
  780MPD2    C411559   1.798   0.306   0.269 -0.6047 -0.6553 -0.1720
  780MPD2    C511560   1.679   0.254   0.314 -0.4835 -0.3042 -0.4810
  780MPD2     H11561   1.881   0.059   0.067 -1.0587  0.8973 -1.1075
  780MPD2    H111562   1.827   0.406   0.299  1.1690 -1.8496  2.0961
  780MPD2    H211563   1.529   0.113   0.306  1.4349 -1.1778  1.7088
  780MPD2    H311564   1.606   0.309   0.373  0.9926 -0.4242  1.4386
  780MPD2     N11565   2.004   0.264   0.147  0.2114  0.1784 -1.0212
  780MPD2    H511566   2.051   0.207   0.078 -2.1111 -2.0301 -0.7914
  780MPD2    N111567   1.626   4.679   0.137  0.2970 -0.0040 -0.7569
  780MPD2    H711568   1.530   4.657   0.162  0.5577  1.6110  1.6629
  781MPD2     C11569   3.482   2.769  12.189 -0.0394  0.6049 -0.1717
  781MPD2    C111570   3.540   2.645  12.180  0.5309 -0.0091  0.6816
  781MPD2    C211571   3.625   2.617  12.073  0.1267  1.1171  0.0227
  781MPD2    C311572   3.659   2.713  11.977 -0.5624  0.4452 -0.0730
  781MPD2    C411573   3.602   2.836  11.989 -0.1188  0.1281 -0.1589
  781MPD2    C511574   3.517   2.867  12.091  0.4490  0.0357 -0.2839
  781MPD2     H11575   3.663   2.516  12.065  0.6866  1.3333 -0.0384
  781MPD2    H111576   3.626   2.910  11.914  0.8279  0.5142  0.5334
  781MPD2    H211577   3.411   2.792  12.268  1.0203 -0.3100  1.0385
  781MPD2    H311578   3.491   2.972  12.099  2.9880  0.6689 -0.1368
  781MPD2     N11579   3.741   2.686  11.861 -0.9129 -0.6355  0.1500
  781MPD2    H511580   3.743   2.748  11.781  2.0558  0.1212  0.8156
  781MPD2    N111581   3.527   2.542  12.268  0.3643  0.6581 -0.2806
  781MPD2    H711582   3.590   2.463  12.259  0.2038  0.7750 -2.4390
  782MPD2     C11583   1.319   3.306  10.170 -0.5166  0.5231 -0.4742
  782MPD2    C111584   1.444   3.281  10.148  0.2143 -0.4304  0.1707
  782MPD2    C211585   1.531   3.276  10.254 -0.1539 -0.0931 -0.6537
  782MPD2    C311586   1.497   3.298  10.386 -0.1268 -0.3210 -0.6616
  782MPD2    C411587   1.370   3.332  10.407 -0.0295  0.7083  0.0825
  782MPD2    C511588   1.285   3.335  10.302 -0.1869 -0.2086 -0.0616
  782MPD2     H11589   1.632   3.242  10.236 -0.2287  0.1238 -1.4936
  782MPD2    H111590   1.335   3.359  10.506 -2.1491  0.1787 -0.5273
  782MPD2    H211591   1.247   3.315  10.089 -0.8485 -0.6698 -0.3136
  782MPD2    H311592   1.179   3.351  10.319 -0.2257  1.0295 -1.4397
  782MPD2     N11593   1.605   3.299  10.480 -0.1354  0.3519 -0.2182
  782MPD2    H511594   1.690   3.263  10.439 -0.1240  0.8511 -0.6298
  782MPD2    N111595   1.481   3.249  10.016 -0.5535  0.1947 -0.4202
  782MPD2    H711596   1.413   3.271   9.944 -1.4871 -1.7799 -0.1385
  783MPD2     C11597   1.373   2.715  10.786 -0.3493 -0.5830 -0.1576
  783MPD2    C111598   1.481   2.803  10.803 -0.1953  0.0824  0.1602
  783MPD2    C211599   1.534   2.866  10.690 -0.5782  0.1958  0.0186
  783MPD2    C311600   1.494   2.827  10.562  0.8665 -0.0398  0.1385
  783MPD2    C411601   1.387   2.735  10.548  0.0131 -0.6773  0.1985
  783MPD2    C511602   1.329   2.683  10.662 -0.0944  0.0231 -0.3250
  783MPD2     H11603   1.625   2.925  10.696  0.6473 -1.8576  1.7589
  783MPD2    H111604   1.344   2.706  10.452 -0.0538 -0.1008  0.0513
  783MPD2    H211605   1.321   2.669  10.869  0.4957  2.0849  1.8812
  783MPD2    H311606   1.255   2.605  10.656 -2.9312  2.4560  2.8090
  783MPD2     N11607   1.558   2.876  10.446  0.4434  0.1609 -0.2187
  783MPD2    H511608   1.643   2.929  10.460  0.8025 -0.4875  0.0671
  783MPD2    N111609   1.524   2.835  10.932  0.1848 -0.5029  0.5611
  783MPD2    H711610   1.476   2.790  11.010 -1.3367 -0.6762 -0.4814
  784MPD2     C11611   4.418   2.197   0.450 -0.5220 -0.4822  0.6038
  784MPD2    C111612   4.372   2.298   0.534  0.1744  0.1169  0.3287
  784MPD2    C211613   4.264   2.379   0.486  0.2229  0.0458  0.6120
  784MPD2    C311614   4.209   2.353   0.363  0.0484 -0.0304  0.2328
  784MPD2    C411615   4.266   2.254   0.280 -0.2513 -0.1800 -0.4898
  784MPD2    C511616   4.371   2.177   0.324 -0.1588 -0.1237  0.4138
  784MPD2     H11617   4.236   2.464   0.546 -1.0778  0.0211  0.0236
  784MPD2    H111618   4.226   2.236   0.181 -0.9482  1.1606 -0.4496
  784MPD2    H211619   4.497   2.128   0.477 -0.0552  0.6524  2.1080
  784MPD2    H311620   4.424   2.106   0.262 -0.1181  0.5160 -0.2825
  784MPD2     N11621   4.091   2.419   0.328  0.8399 -0.4394 -0.1033
  784MPD2    H511622   4.050   2.473   0.403 -2.7969 -0.2562 -2.2028
  784MPD2    N111623   4.412   2.313   0.666  0.0004  0.2343 -0.2102
  784MPD2    H711624   4.370   2.388   0.719  0.9871  0.1520  0.6930
  785MPD2     C11625   4.341   1.632  11.200 -0.5252 -0.2769 -0.3449
  785MPD2    C111626   4.345   1.767  11.183 -0.2857 -0.3370  0.8036
  785MPD2    C211627   4.238   1.840  11.121 -0.4089 -1.1575 -0.3401
  785MPD2    C311628   4.128   1.775  11.073  0.2299 -0.1839 -0.0254
  785MPD2    C411629   4.129   1.632  11.089 -0.1770  0.1910  0.1072
  785MPD2    C511630   4.229   1.567  11.154  0.5237 -0.2125  0.1138
  785MPD2     H11631   4.237   1.948  11.108 -0.8588 -1.0283  0.7537
  785MPD2    H111632   4.050   1.568  11.051  0.4592  0.0785 -1.0254
  785MPD2    H211633   4.419   1.580  11.254  0.7827  1.3223 -0.6999
  785MPD2    H311634   4.243   1.459  11.151 -0.9540 -0.5232  3.7167
  785MPD2     N11635   4.035   1.856  11.013 -0.3751  0.1552 -0.1973
  785MPD2    H511636   4.050   1.956  11.018 -0.3950  0.1916 -0.8014
  785MPD2    N111637   4.460   1.850  11.214  0.0111 -0.2178 -0.2285
  785MPD2    H711638   4.442   1.950  11.207 -2.3079 -0.5473  1.1545
  786MPD2     C11639   3.437   4.596  14.677 -0.5286  0.6443 -0.4351
  786MPD2    C111640   3.511   4.483  14.680 -0.0189 -0.2790 -0.6799
  786MPD2    C211641   3.620   4.470  14.766  1.3105  0.6807  0.0286
  786MPD2    C311642   3.650   4.567  14.854  0.6751  0.2364 -1.0499
  786MPD2    C411643   3.566   4.677  14.861  0.5364  0.1081 -0.2039
  786MPD2    C511644   3.462   4.687  14.777 -0.2923  0.0037  0.5581
  786MPD2     H11645   3.678   4.380  14.775  2.8088  1.5332 -1.1633
  786MPD2    H111646   3.569   0.011  14.941  1.2540 -1.2268  0.9898
  786MPD2    H211647   3.354   4.621  14.611 -1.7337  1.0378  1.2206
  786MPD2    H311648   3.396   0.033  14.794 -0.7557 -0.4874  1.2070
  786MPD2     N11649   3.753   4.556  14.954 -0.8829  0.3984  0.4387
  786MPD2    H511650   3.748   4.625  15.028 -1.2757  1.1479 -0.2802
  786MPD2    N111651   3.479   4.368  14.599 -0.4874 -0.1219 -0.0762
  786MPD2    H711652   3.549   4.294  14.604 -1.4809 -1.1960 -2.1753
  787MPD2     C11653   3.890   3.880  14.514 -0.0414 -0.4207  0.1694
  787MPD2    C111654   3.824   3.898  14.398 -0.2508 -0.7023 -0.3577
  787MPD2    C211655   3.877   3.847  14.280  0.2062 -0.1834  0.2247
  787MPD2    C311656   3.983   3.758  14.292 -0.4032  0.0214 -0.0798
  787MPD2    C411657   4.043   3.736  14.415 -0.7415 -0.2690  0.2425
  787MPD2    C511658   4.000   3.803  14.520  0.2046 -0.3637  0.3709
  787MPD2     H11659   3.827   3.864  14.186  0.1065  0.8379  0.4547
  787MPD2    H111660   4.129   3.674  14.441 -1.5132 -0.9547  1.1867
  787MPD2    H211661   3.856   3.914  14.611  1.9924 -1.2373  1.1788
  787MPD2    H311662   4.047   3.784  14.616  0.2397 -1.2474  0.1821
  787MPD2     N11663   4.035   3.701  14.179  0.2702 -0.4867 -0.3290
  787MPD2    H511664   3.987   3.738  14.096 -0.4139  0.9995  0.7233
  787MPD2    N111665   3.705   3.973  14.391  0.0746 -0.2756 -0.2643
  787MPD2    H711666   3.682   4.010  14.483  0.0966  1.0819 -0.8052
  788MPD2     C11667   0.396   2.551   0.822  0.7951  0.4488  0.5219
  788MPD2    C111668   0.418   2.528   0.689 -0.2326 -0.1722  0.2635
  788MPD2    C211669   0.387   2.631   0.596 -0.3197 -0.2608 -0.0776
  788MPD2    C311670   0.333   2.755   0.629  0.7069  0.3143  0.3411
  788MPD2    C411671   0.307   2.776   0.761  0.5985 -0.3998 -0.3539
  788MPD2    C511672   0.338   2.674   0.856 -0.5884 -0.3781 -0.7018
  788MPD2     H11673   0.410   2.609   0.492  1.9686  0.4556  0.2736
  788MPD2    H111674   0.287   2.875   0.799  1.4473  0.7850 -2.9707
  788MPD2    H211675   0.414   2.477   0.899  1.3900  0.7466  0.6758
  788MPD2    H311676   0.325   2.706   0.958 -1.2917 -1.0575 -0.5774
  788MPD2     N11677   0.301   2.859   0.541  0.2169  0.1397  0.7014
  788MPD2    H511678   0.250   2.941   0.572 -0.2765  0.4341 -0.9185
  788MPD2    N111679   0.466   2.404   0.636 -0.0650  0.2527  0.0719
  788MPD2    H711680   0.489   2.402   0.537 -1.5079  1.1646 -0.2812
  789MPD2     C11681   0.581   1.932  16.405 -0.0222  0.6600 -0.0180
  789MPD2    C111682   0.444   1.928  16.368 -0.5323 -1.1544 -0.0263
  789MPD2    C211683   0.383   2.053  16.355 -0.1032 -0.1323  0.1820
  789MPD2    C311684   0.445   2.169  16.399 -0.6353  0.3175  0.0613
  789MPD2    C411685   0.585   2.170  16.420  0.0002 -0.0841  0.1111
  789MPD2    C511686   0.646   2.047  16.419  0.0076  0.3816  0.5524
  789MPD2     H11687   0.277   2.056  16.335  0.0168  0.9262 -0.3293
  789MPD2    H111688   0.645   2.257  16.441  0.8003 -1.4655  3.5733
  789MPD2    H211689   0.640   1.841  16.400  0.5028  1.0662 -1.1558
  789MPD2    H311690   0.752   2.054  16.441 -0.3944  1.1329  2.2500
  789MPD2     N11691   0.374   2.291  16.398  0.5517 -0.0188  0.0517
  789MPD2    H511692   0.410   2.362  16.461  0.1279  0.3155 -0.0788
  789MPD2    N111693   0.377   1.810  16.341 -0.6642  0.0144  0.1540
  789MPD2    H711694   0.281   1.834  16.317 -0.6017 -0.1104 -0.2283
  790MPD2     C11695   1.877   3.807  13.699 -0.2875 -0.6080 -0.1905
  790MPD2    C111696   1.918   3.715  13.609 -0.6836  0.5680 -0.2901
  790MPD2    C211697   1.846   3.699  13.489 -0.0156  0.3312 -0.0458
  790MPD2    C311698   1.730   3.764  13.465 -0.2754 -0.0715  0.0346
  790MPD2    C411699   1.696   3.867  13.553 -0.2826 -0.5607 -0.6207
  790MPD2    C511700   1.770   3.886  13.668 -0.6610 -0.0044 -0.0877
  790MPD2     H11701   1.893   3.636  13.414 -1.2337 -1.3400  0.5949
  790MPD2    H111702   1.613   3.936  13.540 -0.6229 -0.6807  0.9103
  790MPD2    H211703   1.913   3.816  13.801  1.6261  2.4580 -1.1300
  790MPD2    H311704   1.740   3.963  13.737 -2.3005  0.1795 -1.0043
  790MPD2     N11705   1.660   3.737  13.341  0.1772  0.1887  0.2156
  790MPD2    H511706   1.699   3.667  13.278  1.2123  0.1288  0.9313
  790MPD2    N111707   2.035   3.642  13.646 -0.1314  0.0419 -0.1537
  790MPD2    H711708   2.080   3.671  13.733  0.0530 -0.6261 -0.0297
  791MPD2     C11709   0.904   3.824  12.902  0.2159  0.4495 -0.2493
  791MPD2    C111710   0.959   3.715  12.950 -0.0570 -0.4986 -0.1773
  791MPD2    C211711   0.882   3.597  12.956 -0.3506 -0.1112 -0.5100
  791MPD2    C311712   0.758   3.593  12.904 -0.9026  0.4604  0.1629
  791MPD2    C411713   0.707   3.708  12.847  0.2801 -0.2233  0.3496
  791MPD2    C511714   0.780   3.824  12.846  0.6539  0.3443 -0.0660
  791MPD2     H11715   0.917   3.512  13.013 -2.9210 -0.9416 -0.1857
  791MPD2    H111716   0.609   3.714  12.800  0.5882  0.1461 -0.2438
  791MPD2    H211717   0.967   3.911  12.910  0.1171  0.4398  0.6800
  791MPD2    H311718   0.742   3.917  12.806 -2.6925 -0.6632  0.8329
  791MPD2     N11719   0.687   3.473  12.930  0.1313 -0.0817 -0.2818
  791MPD2    H511720   0.740   3.399  12.974 -0.6597 -0.3683  0.1920
  791MPD2    N111721   1.087   3.732  13.006 -0.2820  0.3419 -0.0753
  791MPD2    H711722   1.130   3.823  13.003  0.8982 -0.2092  0.0018
  792MPD2     C11723   1.780   4.023  11.302  0.3348  0.2907 -0.4292
  792MPD2    C111724   1.705   3.990  11.189  0.1632  0.9481  0.7515
  792MPD2    C211725   1.576   3.960  11.216 -0.3532 -0.2619 -0.0829
  792MPD2    C311726   1.526   3.966  11.350 -0.0277  0.7428  0.2568
  792MPD2    C411727   1.607   4.006  11.454 -0.3537  0.3101  0.0590
  792MPD2    C511728   1.737   4.039  11.428 -0.6402  0.5418  0.2281
  792MPD2     H11729   1.514   3.922  11.136 -2.9933  0.8543  1.4424
  792MPD2    H111730   1.574   4.006  11.557  1.0758  1.2458  0.5284
  792MPD2    H211731   1.884   4.045  11.281  0.6706 -0.6583  0.2379
  792MPD2    H311732   1.804   4.074  11.505 -2.0641  2.3038  0.6716
  792MPD2     N11733   1.392   3.957  11.381 -0.6795  0.5710 -0.0058
  792MPD2    H511734   1.356   3.962  11.476  0.5922  1.5055  0.4165
  792MPD2    N111735   1.761   4.000  11.061 -0.1171 -0.1855 -0.3176
  792MPD2    H711736   1.860   4.015  11.049 -0.5253  1.1174 -2.1669
  793MPD2     C11737   0.842   3.756  10.666 -0.1938  0.3687  0.0207
  793MPD2    C111738   0.974   3.749  10.705 -0.3557 -0.8520 -0.2296
  793MPD2    C211739   1.004   3.771  10.836  0.5036 -0.0425 -0.1901
  793MPD2    C311740   0.910   3.801  10.928  0.0959 -0.6891  0.6299
  793MPD2    C411741   0.778   3.795  10.889 -0.1285 -0.1773 -0.6734
  793MPD2    C511742   0.742   3.780  10.760  0.1050 -0.0542 -0.5635
  793MPD2     H11743   1.107   3.775  10.871  0.0250  1.0682  1.0955
  793MPD2    H111744   0.693   3.804  10.956  0.8343  1.6817  0.2875
  793MPD2    H211745   0.809   3.738  10.564  0.0420  3.0391 -0.5120
  793MPD2    H311746   0.639   3.775  10.728 -0.3292  0.4810  0.7685
  793MPD2     N11747   0.950   3.836  11.064 -0.3843  0.5122  0.1335
  793MPD2    H511748   1.050   3.833  11.082 -0.6369 -1.4528  1.2366
  793MPD2    N111749   1.081   3.732  10.612 -0.1679  0.2174  0.0993
  793MPD2    H711750   1.177   3.723  10.641  0.0543  0.8876 -0.4455
  794MPD2     C11751   1.080   3.061  17.716 -0.0140 -0.1142  0.0595
  794MPD2    C111752   1.114   3.003  17.595 -0.2693 -0.4307 -0.3805
  794MPD2    C211753   1.091   3.074  17.473  0.7597  0.4037 -0.0890
  794MPD2    C311754   1.022   3.194  17.477 -0.0358  0.2321  0.4826
  794MPD2    C411755   0.975   3.241  17.599  0.6553  0.2804  0.2014
  794MPD2    C511756   0.999   3.170  17.713  0.0485  0.0653 -0.0045
  794MPD2     H11757   1.141   3.039  17.383  2.0456 -0.0580  0.7971
  794MPD2    H111758   0.912   3.329  17.594  0.3371 -0.0577 -1.6928
  794MPD2    H211759   1.107   3.015   0.055 -0.0795 -3.2800 -1.4716
  794MPD2    H311760   0.958   3.208   0.050  3.4750  2.1018  0.6771
  794MPD2     N11761   1.014   3.273  17.364  0.0235  0.4011 -0.5119
  794MPD2    H511762   0.967   3.363  17.368 -2.1081 -0.6902 -0.9845
  794MPD2    N111763   1.189   2.883  17.589 -0.1505 -0.8580  0.6531
  794MPD2    H711764   1.212   2.846  17.498  0.2498 -0.5668  0.6355
  795MPD2     C11765   3.844   0.804  13.681 -0.1318  0.1158 -0.9793
  795MPD2    C111766   3.773   0.684  13.696  0.0895 -0.1293  0.3490
  795MPD2    C211767   3.828   0.571  13.745  0.5071  0.2091  0.6003
  795MPD2    C311768   3.962   0.572  13.777 -0.3541 -0.0109  0.0493
  795MPD2    C411769   4.031   0.689  13.772 -1.0909 -0.2434  0.0994
  795MPD2    C511770   3.974   0.800  13.717  0.6991  0.3477  0.4449
  795MPD2     H11771   3.763   0.485  13.754 -1.4401  1.6501  0.2828
  795MPD2    H111772   4.136   0.687  13.801 -0.8595 -0.4857 -0.7455
  795MPD2    H211773   3.794   0.890  13.636 -0.4371 -0.2719 -1.3762
  795MPD2    H311774   4.026   0.895  13.725 -2.0634  1.7540  1.6148
  795MPD2     N11775   4.018   0.448  13.812  0.4427 -0.0846 -0.5207
  795MPD2    H511776   3.954   0.376  13.844  0.9634 -0.3375 -0.0265
  795MPD2    N111777   3.635   0.686  13.660  0.0753 -0.0410  0.2665
  795MPD2    H711778   3.590   0.598  13.683  0.2214 -0.3521 -0.6073
  796MPD2     C11779   3.398   1.716  15.809  0.2957  0.0355  0.5145
  796MPD2    C111780   3.491   1.776  15.886  0.3408  0.4938 -0.3196
  796MPD2    C211781   3.514   1.914  15.866  0.1797 -0.0798 -0.4660
  796MPD2    C311782   3.458   1.980  15.770 -0.1311 -0.4454 -0.0522
  796MPD2    C411783   3.357   1.920  15.691 -0.7123  0.0974 -0.2607
  796MPD2    C511784   3.332   1.788  15.712  0.0471 -0.2927 -0.0265
  796MPD2     H11785   3.579   1.969  15.933 -0.1990 -0.3169  0.0933
  796MPD2    H111786   3.288   1.975  15.628 -1.0287  0.6958  0.6093
  796MPD2    H211787   3.368   1.613  15.823  0.3216 -0.1378 -0.6768
  796MPD2    H311788   3.245   1.744  15.665  0.0113  0.3170 -0.5381
  796MPD2     N11789   3.488   2.118  15.753 -0.0759  0.5341 -0.4766
  796MPD2    H511790   3.549   2.168  15.817 -1.4785 -0.0826  1.3382
  796MPD2    N111791   3.553   1.696  15.990  0.4581 -0.5043  0.4719
  796MPD2    H711792   3.535   1.597  15.996  1.9181 -0.8593 -0.8679
  797MPD2     C11793   4.499   1.403  17.225  0.5039 -0.6435 -0.1417
  797MPD2    C111794   4.533   1.525  17.284  0.4955  0.2998  0.0206
  797MPD2    C211795   4.435   1.625  17.300 -0.1959  0.7841 -0.0193
  797MPD2    C311796   4.311   1.599  17.241  0.5003 -0.3177 -0.5126
  797MPD2    C411797   4.282   1.480  17.179  0.7769  0.3827  0.5255
  797MPD2    C511798   4.379   1.386  17.160  0.0175  0.2150  0.0796
  797MPD2     H11799   4.463   1.717  17.349  0.4506  1.2012 -1.1811
  797MPD2    H111800   4.188   1.467  17.127  0.7140 -0.8658  0.9554
  797MPD2    H211801   4.570   1.321  17.228 -0.3092 -1.3270  0.2146
  797MPD2    H311802   4.355   1.291  17.113  1.7274 -1.3260  2.3493
  797MPD2     N11803   4.212   1.694  17.276 -0.3454 -0.6831  0.2195
  797MPD2    H511804   4.241   1.780  17.322 -1.6989  0.3424 -0.8555
  797MPD2    N111805   4.661   1.552  17.338 -0.0574 -0.4844  0.2829
  797MPD2    H711806   4.659   1.641  17.386  0.6513 -0.6586  0.6375
  798MPD2     C11807   4.543   2.268  17.434  0.5857 -0.4347 -0.2917
  798MPD2    C111808   4.491   2.144  17.390  0.4215 -0.7578  0.4630
  798MPD2    C211809   4.574   2.035  17.378 -0.4811 -0.3535  0.4354
  798MPD2    C311810   4.706   2.047  17.408 -0.2824  0.1761  0.8247
  798MPD2    C411811   0.011   2.166  17.463  0.1693  0.3192  0.5839
  798MPD2    C511812   4.676   2.281  17.468 -0.1419  0.1247  0.0460
  798MPD2     H11813   4.537   1.940  17.342  1.0138 -0.0295 -1.9054
  798MPD2    H111814   0.116   2.178  17.483 -0.1199  0.7912  1.7880
  798MPD2    H211815   4.484   2.358  17.436  0.2266 -0.6710 -0.2024
  798MPD2    H311816   4.720   2.373  17.504  0.2821 -0.1058  0.1128
  798MPD2     N11817   0.044   1.930  17.395 -0.8506 -0.2131 -0.5173
  798MPD2    H511818   4.732   1.855  17.350  0.7501 -1.6111 -0.0025
  798MPD2    N111819   4.353   2.136  17.356  0.2331  0.1248 -0.0450
  798MPD2    H711820   4.303   2.224  17.359 -1.0640 -0.6649  1.9155
  799MPD2     C11821   3.674   3.386  14.324  0.4303 -0.2494 -0.9945
  799MPD2    C111822   3.558   3.335  14.275 -0.1761 -0.6527 -0.1443
  799MPD2    C211823   3.508   3.382  14.154 -0.7211 -0.2022 -0.1179
  799MPD2    C311824   3.572   3.488  14.083  0.5837  0.7641 -0.4914
  799MPD2    C411825   3.683   3.545  14.144 -0.4712  0.6458 -0.0568
  799MPD2    C511826   3.732   3.488  14.257  0.0472  0.5400  0.0895
  799MPD2     H11827   3.413   3.340  14.123 -1.1339  0.2335  0.5552
  799MPD2    H111828   3.741   3.625  14.101 -0.8013  0.4471 -0.8602
  799MPD2    H211829   3.712   3.356  14.420 -3.6232 -0.6947  0.4773
  799MPD2    H311830   3.827   3.528  14.290  0.3441 -1.5778  1.8101
  799MPD2     N11831   3.530   3.543  13.962 -0.0964  0.4430 -0.3198
  799MPD2    H511832   3.575   3.627  13.925 -0.2718  0.0816 -1.3424
  799MPD2    N111833   3.475   3.239  14.340 -0.0499  0.9148  0.2155
  799MPD2    H711834   3.400   3.193  14.291 -0.5203  0.4986  1.3191
  800MPD2     C11835   3.664   4.720  14.334  0.0553  0.0899  0.7965
  800MPD2    C111836   3.759   4.629  14.300 -0.0999 -0.7965 -0.0293
  800MPD2    C211837   3.731   4.517  14.221  0.1726 -0.1168  0.0066
  800MPD2    C311838   3.602   4.511  14.166  0.1389 -0.4006 -0.4450
  800MPD2    C411839   3.509   4.599  14.207 -0.3954  0.2186  0.7883
  800MPD2    C511840   3.534   4.698  14.292 -0.4092  0.3005  0.0360
  800MPD2     H11841   3.807   4.445  14.195 -1.5743 -2.8093  2.2492
  800MPD2    H111842   3.408   4.599  14.169  0.0562  0.4297 -0.4305
  800MPD2    H211843   3.682   0.061  14.403 -0.4041 -0.1594  1.2135
  800MPD2    H311844   3.470   0.044  14.315 -0.8271 -0.2733  0.9797
  800MPD2     N11845   3.571   4.409  14.071 -0.0255  0.1150  0.5815
  800MPD2    H511846   3.642   4.336  14.064  1.9128  2.0198  0.3282
  800MPD2    N111847   3.890   4.655  14.343 -0.0395 -0.0975  0.3231
  800MPD2    H711848   3.902   0.002  14.395 -0.7937  0.1435  0.1080
  801MPD2     C11849   4.158   0.501  14.226 -0.3318  0.1156 -0.2101
  801MPD2    C111850   4.062   0.415  14.279 -0.7199  0.4898 -0.2809
  801MPD2    C211851   3.928   0.456  14.280 -1.0908 -0.4772  0.4515
  801MPD2    C311852   3.889   0.581  14.229 -0.1585 -0.5232  0.5566
  801MPD2    C411853   3.987   0.663  14.186 -0.1347  0.5234  0.3424
  801MPD2    C511854   4.116   0.621  14.175  0.3956  0.0821 -0.2351
  801MPD2     H11855   3.857   0.382  14.316 -1.8791 -0.0367 -0.2053
  801MPD2    H111856   3.966   0.761  14.145 -1.6620  0.1601  0.2778
  801MPD2    H211857   4.263   0.478  14.214 -0.5211 -1.5645  1.4370
  801MPD2    H311858   4.187   0.698  14.146  0.7326 -0.0730  0.1891
  801MPD2     N11859   3.753   0.629  14.215 -0.1072  0.2091  0.3468
  801MPD2    H511860   3.752   0.725  14.181  2.0495 -0.6921 -2.2568
  801MPD2    N111861   4.098   0.288  14.334 -0.1915 -0.1563 -0.6002
  801MPD2    H711862   4.026   0.228  14.371 -1.0318 -0.4839 -2.7930
  802MPD2     C11863   3.867   0.589   0.109 -0.0007  0.1607 -0.3294
  802MPD2    C111864   3.737   0.549   0.114 -0.4641 -0.1090  0.2249
  802MPD2    C211865   3.695   0.463   0.012 -0.3209  0.0269 -0.8935
  802MPD2    C311866   3.775   0.436  17.659  0.1157  0.5591 -0.7510
  802MPD2    C411867   3.902   0.491  17.657 -0.6814  0.1607  0.5919
  802MPD2    C511868   3.952   0.554   0.009 -0.2734  0.3667  0.3414
  802MPD2     H11869   3.597   0.417   0.005 -0.3791  0.1751 -1.0471
  802MPD2    H111870   3.969   0.453  17.581 -1.8089 -0.7587  0.0498
  802MPD2    H211871   3.898   0.673   0.169 -1.3527  0.8264 -0.5603
  802MPD2    H311872   4.054   0.590   0.004  0.0694 -0.5094  0.9497
  802MPD2     N11873   3.725   0.368  17.546 -0.3340 -0.1485 -0.1222
  802MPD2    H511874   3.637   0.324  17.573 -0.4075 -0.9536 -1.7160
  802MPD2    N111875   3.655   0.588   0.218  0.0659 -0.5232 -0.0213
  802MPD2    H711876   3.687   0.666   0.274 -3.1298  0.4401  0.4377
  803MPD2     C11877   3.751   3.491  12.114 -0.5471 -0.5954 -0.1006
  803MPD2    C111878   3.808   3.619  12.136  0.8284  0.0440  0.2643
  803MPD2    C211879   3.898   3.642  12.237 -0.3377 -0.0895  0.4566
  803MPD2    C311880   3.925   3.537  12.328  0.1736 -0.9732 -0.1043
  803MPD2    C411881   3.866   3.410  12.309 -0.3555  0.3417 -0.5190
  803MPD2    C511882   3.780   3.392  12.204  0.0935  0.0495 -0.2376
  803MPD2     H11883   3.929   3.743  12.260 -2.3893  0.7157 -0.2680
  803MPD2    H111884   3.879   3.323  12.373  2.2419  1.2766  0.2449
  803MPD2    H211885   3.696   3.461  12.026  0.5131  2.2445 -1.7359
  803MPD2    H311886   3.750   3.290  12.181 -3.5423  1.0012  0.3002
  803MPD2     N11887   4.018   3.555  12.434 -0.0593 -0.0992  0.6026
  803MPD2    H511888   4.030   3.471  12.490  1.0093 -0.1013  0.3755
  803MPD2    N111889   3.789   3.726  12.041 -0.3047 -0.4616 -0.4505
  803MPD2    H711890   3.826   3.818  12.061  2.1470 -1.5491  0.0292
  804MPD2     C11891   3.743   0.077  16.973 -0.1048  0.5917  0.0922
  804MPD2    C111892   3.860   0.048  17.044 -0.3652 -0.1624 -0.2262
  804MPD2    C211893   3.934   0.149  17.083 -0.5270  0.0866  0.1542
  804MPD2    C311894   3.901   0.283  17.047 -0.4557  0.4310  0.1325
  804MPD2    C411895   3.787   0.306  16.980  0.0036  0.3177  0.9353
  804MPD2    C511896   3.709   0.204  16.945 -0.4486  0.4496 -0.1778
  804MPD2     H11897   4.033   0.132  17.123  1.0278  1.7540 -2.9656
  804MPD2    H111898   3.760   0.402  16.937  0.1301  0.4792  1.2193
  804MPD2    H211899   3.671   4.738  16.954  0.1629  0.8738 -2.1071
  804MPD2    H311900   3.617   0.216  16.889 -0.0821 -1.9955 -1.2702
  804MPD2     N11901   3.989   0.388  17.083 -0.0737 -0.2574 -0.4917
  804MPD2    H511902   4.061   0.357  17.147 -1.8271  0.2437  1.7534
  804MPD2    N111903   3.899   4.659  17.078  0.1077 -0.3014 -0.0185
  804MPD2    H711904   3.962   4.658  17.158  1.4319  2.4725 -1.0182
  805MPD2     C11905   3.168   3.571  15.260 -0.1147  0.5428  1.0192
  805MPD2    C111906   3.267   3.591  15.163  0.2112  0.1835  1.1407
  805MPD2    C211907   3.400   3.587  15.206  0.3814  0.1071 -0.0740
  805MPD2    C311908   3.428   3.568  15.338 -0.4363 -0.0155 -0.6446
  805MPD2    C411909   3.332   3.549  15.436  0.1560  0.3450 -0.7211
  805MPD2    C511910   3.203   3.554  15.390  0.7954  0.3936 -0.0255
  805MPD2     H11911   3.478   3.608  15.134 -0.3458 -1.9907 -1.4843
  805MPD2    H111912   3.350   3.531  15.542  0.1035 -0.9060 -0.9220
  805MPD2    H211913   3.061   3.572  15.241  0.8540 -0.7977 -4.3706
  805MPD2    H311914   3.124   3.548  15.464  1.3567  2.8527  0.7694
  805MPD2     N11915   3.561   3.539  15.373  0.0867  0.7920  0.3750
  805MPD2    H511916   3.634   3.574  15.312  1.2276 -1.1045  0.6578
  805MPD2    N111917   3.237   3.611  15.032 -0.3020 -0.3881 -0.0361
  805MPD2    H711918   3.315   3.639  14.974  0.6046  1.1115  1.8887
  806MPD2     C11919   3.560   2.293   0.234 -0.3370 -0.1128 -0.1362
  806MPD2    C111920   3.501   2.411   0.257 -0.2401 -0.7900  0.9517
  806MPD2    C211921   3.524   2.515   0.168  0.3603 -0.7708 -0.1136
  806MPD2    C311922   3.604   2.494   0.056 -0.6033 -0.1398  0.0919
  806MPD2    C411923   3.658   2.369   0.037  0.7126  0.2376 -0.4489
  806MPD2    C511924   3.641   2.272   0.129  1.1836 -0.3719  0.9543
  806MPD2     H11925   3.473   2.610   0.183  1.0160 -0.4306 -0.0257
  806MPD2    H111926   3.734   2.345  17.720  0.6413  0.0992 -0.4773
  806MPD2    H211927   3.534   2.205   0.291  0.6948  1.0204  2.0795
  806MPD2    H311928   3.684   2.175   0.107 -1.7284 -1.1496 -1.3799
  806MPD2     N11929   3.628   2.602  17.725  0.3161 -0.0401 -0.3590
  806MPD2    H511930   3.615   2.691   0.016 -1.0978  0.3705 -1.5623
  806MPD2    N111931   3.425   2.425   0.376 -0.9743 -0.5261  0.0138
  806MPD2    H711932   3.453   2.361   0.449  1.5298  2.6804  1.8567
  807MPD2     C11933   2.765   2.533   0.920 -0.3508  0.0310 -1.1772
  807MPD2    C111934   2.891   2.490   0.968 -0.1550 -0.3411 -0.1673
  807MPD2    C211935   2.895   2.438   1.097  0.0427 -0.5815 -0.4044
  807MPD2    C311936   2.784   2.443   1.178 -0.1901  0.6430  0.3348
  807MPD2    C411937   2.661   2.479   1.122 -0.6613  0.4963  0.2061
  807MPD2    C511938   2.651   2.517   0.994 -0.0638 -0.1363  0.0829
  807MPD2     H11939   2.987   2.410   1.147 -0.9456  3.8547  3.9848
  807MPD2    H111940   2.569   2.460   1.177  0.2047 -1.4236  0.9735
  807MPD2    H211941   2.756   2.564   0.816  0.2732  0.0311 -1.2299
  807MPD2    H311942   2.550   2.547   0.967  0.5800  3.5996  1.8499
  807MPD2     N11943   2.788   2.389   1.305 -0.2700 -0.5747  0.1012
  807MPD2    H511944   2.876   2.346   1.332  0.4939 -0.9293 -2.9503
  807MPD2    N111945   3.005   2.488   0.887  0.3061 -0.5920  0.4199
  807MPD2    H711946   3.095   2.465   0.929 -0.2245 -0.9100  1.3692
  808MPD2     C11947   3.500   4.338   9.990 -0.7606  0.2315 -0.6943
  808MPD2    C111948   3.589   4.240  10.025 -0.3853 -0.5055 -1.0458
  808MPD2    C211949   3.698   4.267  10.111  0.8877 -0.1770  0.7314
  808MPD2    C311950   3.722   4.397  10.152 -0.6680 -0.0938 -0.0068
  808MPD2    C411951   3.620   4.485  10.140 -0.4887 -0.2625  0.0383
  808MPD2    C511952   3.515   4.459  10.051  0.1458 -0.3826 -0.6723
  808MPD2     H11953   3.771   4.190  10.137  2.4716  1.0201 -0.1447
  808MPD2    H111954   3.624   4.583  10.186 -1.9899 -0.8071  1.3199
  808MPD2    H211955   3.422   4.317   9.918  0.3064  1.0071 -2.0497
  808MPD2    H311956   3.441   4.537  10.036 -0.2196 -0.4197  0.8494
  808MPD2     N11957   3.836   4.441  10.222  0.5318  0.5798  0.2593
  808MPD2    H511958   3.826   4.529  10.271  0.3024  0.9804 -0.5094
  808MPD2    N111959   3.564   4.114   9.969  0.0963  0.5991 -0.4520
  808MPD2    H711960   3.485   4.107   9.905  0.9622  1.3576 -1.6085
  809MPD2     C11961   4.663   3.931  10.202 -0.3571  0.7997  0.0363
  809MPD2    C111962   4.706   4.055  10.241 -0.1861 -0.6830 -0.0136
  809MPD2    C211963   4.621   4.147  10.299 -0.1033 -0.3652  0.3353
  809MPD2    C311964   4.488   4.113  10.322  0.1564  0.0367 -0.5881
  809MPD2    C411965   4.447   3.987  10.291  0.3866 -0.1120 -0.5987
  809MPD2    C511966   4.536   3.894  10.236  0.9252  0.5977  0.3161
  809MPD2     H11967   4.658   4.245  10.328 -1.5150  0.1299  0.4676
  809MPD2    H111968   4.343   3.957  10.302  1.0282 -2.4117 -0.7468
  809MPD2    H211969   4.733   3.857  10.167 -1.6917 -0.9469  1.0564
  809MPD2    H311970   4.513   3.788  10.231 -0.1932  0.7421  2.4045
  809MPD2     N11971   4.399   4.204  10.375 -0.3743 -0.2612 -0.3900
  809MPD2    H511972   4.307   4.170  10.398  0.1430 -1.5780 -0.2677
  809MPD2    N111973   0.101   4.094  10.239  0.1521 -0.7326  0.0452
  809MPD2    H711974   0.122   4.183  10.284  0.2624 -0.9256  0.3764
  810MPD2     C11975   3.580   4.003  10.385 -0.2442 -0.3968  0.3108
  810MPD2    C111976   3.477   4.039  10.302  0.1119  1.7226 -0.4279
  810MPD2    C211977   3.424   4.163  10.316  0.1826  0.5055  0.0646
  810MPD2    C311978   3.463   4.254  10.411  0.3421 -0.2676 -0.6242
  810MPD2    C411979   3.576   4.221  10.487  0.4714  0.2650  0.0996
  810MPD2    C511980   3.638   4.102  10.468  0.4133 -0.7117 -0.0106
  810MPD2     H11981   3.336   4.187  10.258  0.3408  0.3028 -0.2647
  810MPD2    H111982   3.616   4.298  10.552  0.3521  1.0510 -0.7502
  810MPD2    H211983   3.621   3.903  10.378 -0.2432 -0.3109 -0.9208
  810MPD2    H311984   3.723   4.071  10.527  0.3662 -0.1082  0.3702
  810MPD2     N11985   3.401   4.379  10.433 -0.0109 -0.0102 -0.0981
  810MPD2    H511986   3.436   4.442  10.505  2.0466  0.3375 -1.3990
  810MPD2    N111987   3.409   3.946  10.221 -0.1101  0.1397  0.0147
  810MPD2    H711988   3.324   3.980  10.178  1.3341  1.4566 -1.7777
  811MPD2     C11989   2.691   3.910   9.889  0.3724 -0.1119  0.6750
  811MPD2    C111990   2.820   3.938   9.906 -0.6068  0.4615 -0.2282
  811MPD2    C211991   2.865   4.068   9.888  0.2340 -0.2312  0.3052
  811MPD2    C311992   2.784   4.171   9.846 -0.2940  0.5739  0.0111
  811MPD2    C411993   2.657   4.130   9.809 -0.3614 -0.4656  0.4760
  811MPD2    C511994   2.613   4.004   9.827  0.0154 -0.2207  0.1353
  811MPD2     H11995   2.965   4.092   9.922  0.3708  2.5748 -2.0570
  811MPD2    H111996   2.598   4.207   9.760  0.9571 -0.1006 -0.5534
  811MPD2    H211997   2.646   3.815   9.917 -2.2583  1.0175  0.2903
  811MPD2    H311998   2.509   3.984   9.803  0.0038 -1.0363  0.8915
  811MPD2     N11999   2.825   4.301   9.858  0.2645 -0.1829 -0.3053
  811MPD2    H512000   2.910   4.320   9.909 -0.1315  0.2168  0.2127
  811MPD2    N112001   2.903   3.834   9.954 -0.3014  0.1520 -0.8608
  811MPD2    H712002   2.864   3.745   9.983  2.1406  0.3978  3.1846
  812MPD2     C12003   2.088   3.709  11.963 -0.7106 -0.1062 -0.2026
  812MPD2    C112004   2.169   3.801  12.023  0.3417  0.1430 -0.8486
  812MPD2    C212005   2.229   3.769  12.145  0.4990  0.1337  0.1892
  812MPD2    C312006   2.217   3.642  12.197  0.0901  0.4937 -0.0361
  812MPD2    C412007   2.124   3.554  12.149  0.1366  0.4463 -0.6060
  812MPD2    C512008   2.059   3.595  12.039 -0.8522  0.7391 -0.0038
  812MPD2     H12009   2.297   3.832  12.201 -0.7223  1.9244 -0.3483
  812MPD2    H112010   2.097   3.461  12.199 -2.8433  1.1178 -1.0165
  812MPD2    H212011   2.030   3.731  11.874 -2.3043  0.8767  1.0739
  812MPD2    H312012   1.982   3.529  12.001  0.6814 -0.9324 -0.2489
  812MPD2     N12013   2.291   3.607  12.316  0.4998  0.0364  0.2457
  812MPD2    H512014   2.350   3.678  12.358 -1.0018  0.5335  1.4628
  812MPD2    N112015   2.179   3.933  11.968 -0.6514 -0.2996 -0.0436
  812MPD2    H712016   2.145   3.935  11.872 -0.2636 -1.2076 -0.2011
  813MPD2     C12017   1.339   0.647  12.681 -0.0271  0.5602  0.0436
  813MPD2    C112018   1.443   0.711  12.745  1.0929  0.0223 -0.2410
  813MPD2    C212019   1.451   0.699  12.883  0.2090 -0.2310 -1.2450
  813MPD2    C312020   1.353   0.642  12.960  0.0255  0.0647 -0.3621
  813MPD2    C412021   1.245   0.582  12.895  0.3660  0.6289  0.2264
  813MPD2    C512022   1.238   0.592  12.758 -0.6120 -0.2636 -0.0623
  813MPD2     H12023   1.538   0.734  12.937 -0.3197 -1.3911  0.3893
  813MPD2    H112024   1.153   0.545  12.938  0.1103  0.1997 -0.6806
  813MPD2    H212025   1.328   0.660  12.574 -0.7111  1.6353  0.2394
  813MPD2    H312026   1.162   0.541  12.700  0.2015  1.5563 -2.7139
  813MPD2     N12027   1.361   0.655  13.098 -0.3116  0.3680  0.2328
  813MPD2    H512028   1.446   0.696  13.135 -0.7588 -1.8480  3.7422
  813MPD2    N112029   1.544   0.781  12.670 -0.4263 -0.1868  0.4782
  813MPD2    H712030   1.528   0.787  12.570 -0.5456  1.0129  0.5717
  814MPD2     C12031   1.621   2.338  12.489  0.0306 -0.6423 -0.4362
  814MPD2    C112032   1.659   2.381  12.360  0.1128 -0.7306 -0.7289
  814MPD2    C212033   1.745   2.493  12.356 -0.1399 -0.4086 -0.0381
  814MPD2    C312034   1.777   2.565  12.470 -0.5757 -0.4064  0.6521
  814MPD2    C412035   1.731   2.528  12.592 -0.4089 -0.3575  0.8085
  814MPD2    C512036   1.658   2.410  12.597  0.2071 -0.0333 -0.0872
  814MPD2     H12037   1.771   2.519  12.255  0.7383  3.3439  1.1652
  814MPD2    H112038   1.766   2.570  12.686  0.3294 -0.1917  0.4640
  814MPD2    H212039   1.556   2.253  12.502  0.5209 -0.5104  3.0010
  814MPD2    H312040   1.640   2.372  12.698 -1.7862  1.1085 -0.0056
  814MPD2     N12041   1.853   2.686  12.462  0.4694 -0.3375 -0.3559
  814MPD2    H512042   1.866   2.732  12.552  0.9327  0.5569 -0.8851
  814MPD2    N112043   1.611   2.322  12.236  0.4627 -0.0318 -0.4734
  814MPD2    H712044   1.625   2.376  12.151  1.2836  1.7042  0.7626
  815MPD2     C12045   2.294   0.400  11.979 -0.1533  0.2022  0.3814
  815MPD2    C112046   2.204   0.438  11.883 -0.2025 -0.4120  0.4679
  815MPD2    C212047   2.095   0.516  11.918 -0.6141 -0.0908 -0.4598
  815MPD2    C312048   2.074   0.555  12.049 -0.3865 -0.1118  0.3073
  815MPD2    C412049   2.178   0.527  12.145  0.1707  0.1353  0.0147
  815MPD2    C512050   2.280   0.441  12.112 -0.1229 -0.1354 -0.1490
  815MPD2     H12051   2.018   0.547  11.849  0.0900 -2.5197 -2.3236
  815MPD2    H112052   2.164   0.555  12.249 -2.8270 -2.9225  0.4698
  815MPD2    H212053   2.386   0.354  11.944 -1.5391 -1.5967 -0.8629
  815MPD2    H312054   2.348   0.405  12.188  1.9518  1.0061 -1.4599
  815MPD2     N12055   1.955   0.630  12.067  0.2018 -0.0863 -0.2039
  815MPD2    H512056   1.892   0.622  11.987 -0.0433  1.0746 -0.1296
  815MPD2    N112057   2.223   0.389  11.752  0.1663  0.3138 -0.4921
  815MPD2    H712058   2.305   0.330  11.736 -0.5542 -0.7973 -0.0961
  816MPD2     C12059   3.090   4.647  17.137  0.4550  0.3370 -0.0062
  816MPD2    C112060   3.036   4.698  17.022 -0.6585  0.1360  0.9354
  816MPD2    C212061   3.105   4.689  16.902 -0.2350 -0.1479  0.3122
  816MPD2    C312062   3.232   4.621  16.895 -0.4306  0.7631 -0.1615
  816MPD2    C412063   3.280   4.578  17.014 -0.0404  0.6174 -0.0982
  816MPD2    C512064   3.210   4.585  17.137  0.0614  0.9898  0.7178
  816MPD2     H12065   3.063   0.002  16.817  3.1728  0.9205 -0.6860
  816MPD2    H112066   3.380   4.536  17.020  0.6669  2.4329  0.6183
  816MPD2    H212067   3.040   4.652  17.233  1.3305  0.5177  0.4440
  816MPD2    H312068   3.250   4.550  17.231 -1.0131  1.3031  1.2878
  816MPD2     N12069   3.290   4.601  16.767  0.4040  0.1476 -0.0976
  816MPD2    H512070   3.226   4.628  16.692  1.0062 -1.9638 -1.3542
  816MPD2    N112071   2.917   0.031  17.029 -0.1060  0.9608  0.4381
  816MPD2    H712072   2.876   0.036  17.121 -0.2055 -1.0156  0.5054
  817MPD2     C12073   2.005   1.973   9.909 -0.4094 -0.0788 -0.5010
  817MPD2    C112074   1.930   1.863   9.864  0.4703  0.5017  0.6830
  817MPD2    C212075   1.819   1.874   9.772 -0.5404  0.0910 -0.4299
  817MPD2    C312076   1.791   2.004   9.729  0.0993 -0.4845  0.0615
  817MPD2    C412077   1.878   2.107   9.766  1.4748  0.2030  0.3515
  817MPD2    C512078   1.979   2.092   9.854 -0.2454 -0.4930 -0.7829
  817MPD2     H12079   1.764   1.786   9.741  0.6952 -1.4183  1.6450
  817MPD2    H112080   1.860   2.207   9.730 -0.4702  0.0925  1.0302
  817MPD2    H212081   2.079   1.966   9.987  0.2894  0.5640 -1.0996
  817MPD2    H312082   2.030   2.179   9.894 -1.0582 -1.2616  1.9528
  817MPD2     N12083   1.667   2.019   9.652 -0.0613  0.4391 -0.0900
  817MPD2    H512084   1.619   1.931   9.633 -0.9584  0.5631  1.6019
  817MPD2    N112085   1.969   1.734   9.895 -0.3373 -0.4552 -0.2710
  817MPD2    H712086   1.923   1.659   9.844  1.8414 -0.9895 -1.4439
  818MPD2     C12087   1.082   1.539  10.103 -0.0252  0.2225  0.8252
  818MPD2    C112088   0.995   1.463  10.181 -0.2371  0.6951 -0.2711
  818MPD2    C212089   1.013   1.326  10.182  0.0853  0.1420 -0.2670
  818MPD2    C312090   1.111   1.270  10.099  0.2783 -0.1226 -0.0091
  818MPD2    C412091   1.193   1.345  10.024 -0.8273  0.0543 -0.6018
  818MPD2    C512092   1.184   1.480  10.031 -0.1403 -0.2931  0.3414
  818MPD2     H12093   0.947   1.262  10.240  1.1895 -0.8517 -0.1158
  818MPD2    H112094   1.265   1.297   9.959 -0.6780  1.5068 -1.4975
  818MPD2    H212095   1.063   1.645  10.091 -0.3885  0.4365  3.3370
  818MPD2    H312096   1.242   1.542   9.963 -1.9227  1.6949  0.6210
  818MPD2     N12097   1.133   1.128  10.084 -0.2767 -0.7385 -0.2289
  818MPD2    H512098   1.227   1.096  10.062  0.6056  2.2810 -0.7880
  818MPD2    N112099   0.893   1.523  10.265  0.6910  0.0842 -0.7296
  818MPD2    H712100   0.826   1.463  10.313  0.4538  0.5493 -0.4852
  819MPD2     C12101   3.727   3.163  15.177  0.2878 -0.0964 -0.3868
  819MPD2    C112102   3.755   3.043  15.241  0.2022 -0.4273  0.1843
  819MPD2    C212103   3.867   3.018  15.320 -0.5461 -0.0949 -0.3265
  819MPD2    C312104   3.962   3.113  15.335 -0.6466 -0.6472  0.8295
  819MPD2    C412105   3.938   3.236  15.267 -0.2003  0.8480  0.1828
  819MPD2    C512106   3.828   3.258  15.188  0.0474  1.1106  1.2164
  819MPD2     H12107   3.871   2.920  15.365 -2.0683 -0.7181 -1.5383
  819MPD2    H112108   4.014   3.313  15.275  0.5164 -0.0751  2.1430
  819MPD2    H212109   3.643   3.175  15.109 -0.5397 -0.9346  0.4823
  819MPD2    H312110   3.823   3.350  15.131  0.2735  0.0350 -0.5371
  819MPD2     N12111   4.079   3.098  15.410 -0.1725  0.6318  0.0960
  819MPD2    H512112   4.136   3.182  15.406  0.6717  0.0798  0.3243
  819MPD2    N112113   3.657   2.946  15.209  0.2407 -0.2848  0.1232
  819MPD2    H712114   3.593   2.972  15.135 -1.4637  1.4310  2.1718
  820MPD2     C12115   2.930   3.104  14.652 -0.8830  0.0432  0.8516
  820MPD2    C112116   3.057   3.138  14.678 -0.2261 -1.0406 -0.5457
  820MPD2    C212117   3.141   3.065  14.765  0.7164  0.1620 -0.2701
  820MPD2    C312118   3.104   2.947  14.817 -0.2166  0.6505 -0.1983
  820MPD2    C412119   2.981   2.905  14.781  0.2320  0.1746  0.7926
  820MPD2    C512120   2.894   2.987  14.710 -0.0126  0.0058  0.1836
  820MPD2     H12121   3.237   3.107  14.793  0.3823  1.1046 -0.5303
  820MPD2    H112122   2.939   2.817  14.829  0.5903  0.1182  0.9980
  820MPD2    H212123   2.865   3.161  14.587  1.8329  1.3728 -0.7150
  820MPD2    H312124   2.795   2.946  14.696 -0.2934 -0.2591  2.9311
  820MPD2     N12125   3.181   2.861  14.904 -0.4147 -0.0962  0.3373
  820MPD2    H512126   3.143   2.778  14.949 -2.4299 -0.3238 -1.7637
  820MPD2    N112127   3.086   3.272  14.633  0.3003 -0.5111  0.6625
  820MPD2    H712128   3.015   3.326  14.584 -0.8028 -1.5065  1.1728
  821MPD2     C12129   3.720   4.596  13.432  0.7621  0.0860  0.0807
  821MPD2    C112130   3.732   4.459  13.412  0.3279 -0.3069 -0.1675
  821MPD2    C212131   3.826   4.410  13.327  0.0311 -0.1858 -0.2668
  821MPD2    C312132   3.921   4.496  13.273  0.6286 -0.5787 -0.5237
  821MPD2    C412133   3.896   4.633  13.272  0.0038  0.4973  0.6891
  821MPD2    C512134   3.799   4.683  13.358  0.1699 -0.4857 -0.1566
  821MPD2     H12135   3.827   4.304  13.306  0.0949  0.0703 -1.5585
  821MPD2    H112136   3.969   4.702  13.232  0.2273 -1.0125 -1.4755
  821MPD2    H212137   3.664   4.627  13.520 -0.5045  0.5177 -0.8851
  821MPD2    H312138   3.800   0.051  13.373  1.0565 -0.5555  0.2722
  821MPD2     N12139   4.034   4.458  13.198  0.3725  0.3143 -0.0676
  821MPD2    H512140   4.074   4.538  13.149  1.3535  0.1552  0.4621
  821MPD2    N112141   3.651   4.365  13.478  0.2784 -0.5680  0.2967
  821MPD2    H712142   3.660   4.264  13.473 -3.5059 -0.8733 -0.5549
  822MPD2     C12143   0.061   4.379  15.620  0.5838 -0.5691  0.0171
  822MPD2    C112144   4.735   4.356  15.734  0.2801  0.0150  0.2998
  822MPD2    C212145   4.633   4.443  15.769  0.2864  0.7367  0.2386
  822MPD2    C312146   4.602   4.554  15.690 -0.1669  0.4914 -0.2765
  822MPD2    C412147   4.667   4.567  15.571 -0.1596  0.9588  0.0744
  822MPD2    C512148   0.023   4.477  15.533  0.4029 -0.5826  0.5231
  822MPD2     H12149   4.584   4.437  15.866 -2.7873  1.3669 -1.2589
  822MPD2    H112150   4.627   4.642  15.503 -1.3120  0.2483 -0.0253
  822MPD2    H212151   0.143   4.320  15.581  0.4290 -0.6010 -0.2641
  822MPD2    H312152   0.064   4.496  15.435  0.8284 -0.6064  0.6937
  822MPD2     N12153   4.494   4.636  15.734 -0.2658 -0.0246 -0.0171
  822MPD2    H512154   4.449   4.615  15.822 -1.2064 -0.4559 -0.6071
  822MPD2    N112155   0.038   4.265  15.833  0.2425  0.0638  0.2897
  822MPD2    H712156   0.010   4.263  15.930 -0.2489 -1.9485  0.1149
  823MPD2     C12157   4.074   0.180  16.412 -0.7466  0.2950  0.3252
  823MPD2    C112158   4.137   0.093  16.333 -0.4876  0.1566 -0.7957
  823MPD2    C212159   4.196   4.724  16.388 -0.0779 -0.3404  0.1777
  823MPD2    C312160   4.197   4.700  16.528 -0.3838  0.1654 -0.3970
  823MPD2    C412161   4.142   0.058  16.607  0.3228 -0.4259  0.4346
  823MPD2    C512162   4.064   0.156  16.545  0.7022  0.1171  0.3640
  823MPD2     H12163   4.234   4.647  16.323 -1.6216 -0.4678 -0.5665
  823MPD2    H112164   4.146   0.048  16.715 -3.5807  1.1491  0.7211
  823MPD2    H212165   4.015   0.257  16.364  0.4699  0.9358 -0.1277
  823MPD2    H312166   4.010   0.228  16.606  1.3304 -0.3820  1.5272
  823MPD2     N12167   4.257   4.584  16.586  0.0533  0.1523  0.0285
  823MPD2    H512168   4.250   4.595  16.687 -0.3065  2.5440 -0.2516
  823MPD2    N112169   4.145   0.116  16.191  0.6435  0.4432 -0.5074
  823MPD2    H712170   4.105   0.204  16.158 -2.6038 -0.4653  1.0811
  824MPD2     C12171   0.240   3.452  15.876  0.2321 -0.0877 -0.5150
  824MPD2    C112172   0.317   3.568  15.846 -0.3997  0.5443  0.2336
  824MPD2    C212173   0.438   3.555  15.773 -0.0719  0.1165  0.1866
  824MPD2    C312174   0.492   3.429  15.750 -0.0819 -0.2792 -0.7298
  824MPD2    C412175   0.418   3.320  15.782 -0.2364  0.0137  0.4431
  824MPD2    C512176   0.287   3.328  15.829 -0.1623  0.5522  1.0194
  824MPD2     H12177   0.498   3.645  15.761  0.0636 -0.0900 -0.7040
  824MPD2    H112178   0.455   3.219  15.772  1.2783  0.4999  1.2328
  824MPD2    H212179   0.143   3.458  15.925  1.2840  2.0952  1.2836
  824MPD2    H312180   0.227   3.244  15.861  1.0721 -1.5658 -2.2014
  824MPD2     N12181   0.625   3.407  15.697 -0.0335 -0.0983 -1.0062
  824MPD2    H512182   0.663   3.314  15.682 -0.1325 -0.1361 -1.0225
  824MPD2    N112183   0.277   3.698  15.886  0.1886  0.1301 -0.2976
  824MPD2    H712184   0.323   3.776  15.840  1.6731 -0.5711  0.0056
  825MPD2     C12185   1.313   3.740  15.281  0.4382 -0.8629 -0.1633
  825MPD2    C112186   1.216   3.765  15.374  0.4795  0.0846 -0.2003
  825MPD2    C212187   1.196   3.891  15.408  0.5235 -0.0446 -0.0568
  825MPD2    C312188   1.274   3.990  15.361 -0.5163 -0.6652 -0.3173
  825MPD2    C412189   1.371   3.972  15.264 -0.5650 -0.2577 -0.0697
  825MPD2    C512190   1.392   3.842  15.227 -0.1929  0.2606 -0.0566
  825MPD2     H12191   1.107   3.900  15.470  2.2099  0.3451  2.3039
  825MPD2    H112192   1.435   4.053  15.230 -0.9551  0.3778  0.7064
  825MPD2    H212193   1.333   3.639  15.245  1.4292 -1.8337  3.0823
  825MPD2    H312194   1.470   3.822  15.155  1.8887  2.8638  1.4880
  825MPD2     N12195   1.270   4.121  15.411  0.1340 -0.1905  0.5110
  825MPD2    H512196   1.326   4.183  15.354 -0.2957  1.2482  1.6400
  825MPD2    N112197   1.129   3.676  15.442 -0.3635 -0.1655 -0.0889
  825MPD2    H712198   1.067   3.721  15.509  0.2714  0.6368 -0.0424
  826MPD2     C12199   0.444   3.171  13.648  0.1136  0.5929  0.3357
  826MPD2    C112200   0.551   3.252  13.682  0.0640  0.2665  0.1595
  826MPD2    C212201   0.535   3.355  13.768 -0.7665  0.0557  0.1878
  826MPD2    C312202   0.408   3.396  13.811  0.1330 -0.7766  1.0889
  826MPD2    C412203   0.301   3.325  13.780  0.9582 -0.3128 -1.1875
  826MPD2    C512204   0.321   3.211  13.702  0.3796  0.1428  0.3280
  826MPD2     H12205   0.618   3.421  13.788 -1.6983  2.0631 -2.5686
  826MPD2    H112206   0.202   3.345  13.819  0.8521 -1.2840 -0.9658
  826MPD2    H212207   0.453   3.083  13.586  3.0943  2.3089 -1.7116
  826MPD2    H312208   0.239   3.141  13.687 -2.0802  2.8613  1.1638
  826MPD2     N12209   0.400   3.504  13.899  0.4955  0.1726 -0.0762
  826MPD2    H512210   0.488   3.549  13.923 -0.4672  2.9417 -1.8111
  826MPD2    N112211   0.678   3.220  13.622 -0.4123  0.2740 -0.2134
  826MPD2    H712212   0.670   3.135  13.567  1.1358  0.7441 -1.1864
  827MPD2     C12213   1.411   0.349  10.171  0.3225 -0.1026 -0.0211
  827MPD2    C112214   1.348   0.241  10.221 -0.0988 -1.1273 -0.1461
  827MPD2    C212215   1.233   0.194  10.165 -0.3809  0.0629 -0.4148
  827MPD2    C312216   1.188   0.254  10.048  0.2179 -0.2857 -1.3298
  827MPD2    C412217   1.268   0.346   9.979 -0.1177 -0.0110 -0.0206
  827MPD2    C512218   1.379   0.396  10.041 -0.5078  0.0615  0.5704
  827MPD2     H12219   1.181   0.116  10.219  1.3527 -0.0059  1.1341
  827MPD2    H112220   1.251   0.385   9.880 -1.3710 -0.4730  0.0209
  827MPD2    H212221   1.497   0.386  10.225 -0.8795  0.6499  1.3930
  827MPD2    H312222   1.443   0.470   9.996 -1.5520  0.5820 -0.0467
  827MPD2     N12223   1.063   0.212   9.997 -0.2204  0.0514  0.1015
  827MPD2    H512224   1.015   0.137  10.045 -1.4999  0.3564 -0.7182
  827MPD2    N112225   1.400   0.176  10.340  0.1930 -0.1057 -0.1513
  827MPD2    H712226   1.478   0.217  10.390  0.6994 -2.0609  0.6639
  828MPD2     C12227   0.017   0.019  12.159 -0.2104  0.7082 -0.1882
  828MPD2    C112228   4.681   0.132  12.154 -0.0368  0.3632 -0.2665
  828MPD2    C212229   4.674   0.192  12.033 -0.4032  0.2635  0.1456
  828MPD2    C312230   4.729   0.139  11.916 -0.9098 -0.0451  0.1937
  828MPD2    C412231   0.055   0.016  11.924 -0.3874 -0.1398 -1.0258
  828MPD2    C512232   0.070   4.692  12.052  0.5378  0.1812 -0.0256
  828MPD2     H12233   4.621   0.287  12.031  0.5957  0.8054 -0.3453
  828MPD2    H112234   0.106   4.711  11.840 -1.4871  0.4504 -1.9950
  828MPD2    H212235   0.051   4.705  12.247 -2.6674 -0.8693 -0.2051
  828MPD2    H312236   0.122   4.598  12.066  1.1548  0.8185  1.9272
  828MPD2     N12237   4.739   0.216  11.797 -0.3700  0.8476 -0.1519
  828MPD2    H512238   0.024   0.173  11.707  2.0039  1.2453  0.2981
  828MPD2    N112239   4.606   0.192  12.259 -0.3847  0.2890  0.1609
  828MPD2    H712240   4.564   0.282  12.236 -0.4246 -0.0029 -0.9020
  829MPD2     C12241   4.030   0.762  12.046  0.4040  0.3085 -0.2456
  829MPD2    C112242   3.959   0.700  12.151 -0.3511  0.5623  0.0121
  829MPD2    C212243   4.035   0.614  12.238  0.2011 -0.6835  0.2075
  829MPD2    C312244   4.162   0.577  12.209 -0.6954  0.2071  0.8710
  829MPD2    C412245   4.228   0.632  12.100 -0.3624 -0.0189  0.7882
  829MPD2    C512246   4.155   0.710  12.016 -0.3629 -0.3149 -0.6185
  829MPD2     H12247   3.988   0.560  12.319  2.5562  0.5375  2.3721
  829MPD2    H112248   4.322   0.589  12.066 -0.2828  1.4354 -0.8713
  829MPD2    H212249   3.981   0.830  11.978 -0.2334  0.7634  0.6705
  829MPD2    H312250   4.206   0.739  11.925 -1.8104  1.2739 -0.9321
  829MPD2     N12251   4.241   0.491  12.290 -0.1081 -0.7689 -0.1700
  829MPD2    H512252   4.322   0.451  12.243  0.5591 -0.9290  1.1131
  829MPD2    N112253   3.831   0.732  12.177 -0.1373 -0.6572  0.4918
  829MPD2    H712254   3.788   0.799  12.113  0.7655 -0.0230  0.5417
  830MPD2     C12255   0.170   2.861  15.328 -0.1100  0.2141 -0.1011
  830MPD2    C112256   0.037   2.862  15.289 -0.1288  0.4363  0.6368
  830MPD2    C212257   0.009   2.819  15.163 -0.3474  0.3287 -0.6507
  830MPD2    C312258   0.109   2.762  15.082 -0.0437  0.4913 -0.1352
  830MPD2    C412259   0.240   2.768  15.123 -0.0410 -1.0325  0.6121
  830MPD2    C512260   0.271   2.814  15.249 -0.2653 -0.1085  0.6041
  830MPD2     H12261   4.646   2.830  15.129 -0.5128 -2.6020 -1.1352
  830MPD2    H112262   0.317   2.713  15.070  1.9312  4.3727 -2.1612
  830MPD2    H212263   0.197   2.882  15.431  2.1559  0.6744 -0.7932
  830MPD2    H312264   0.376   2.816  15.276  0.1336 -1.1082 -0.8500
  830MPD2     N12265   0.091   2.697  14.963 -0.1875  0.4995 -0.0623
  830MPD2    H512266   0.171   2.666  14.909 -1.2104 -0.4969 -0.9944
  830MPD2    N112267   4.681   2.908  15.380  0.1576 -0.1376 -0.3067
  830MPD2    H712268   4.714   2.919  15.475  0.4806  0.4516 -0.4875
  831MPD2     C12269   4.700   0.058  16.066 -0.1734  0.7016 -0.1569
  831MPD2    C112270   0.018   4.676  16.036  0.0133  0.3165  0.1952
  831MPD2    C212271   4.703   4.559  16.073 -0.0906  0.6806  1.0907
  831MPD2    C312272   4.571   4.564  16.128  0.3772 -0.4323  0.4207
  831MPD2    C412273   4.520   4.689  16.168  0.3672 -0.4439  0.2017
  831MPD2    C512274   4.585   0.061  16.139  0.0870 -0.6232 -0.6209
  831MPD2     H12275   0.008   4.471  16.028  1.5394  1.9369  0.2483
  831MPD2    H112276   4.426   4.691  16.222 -1.2332  2.0631 -2.6889
  831MPD2    H212277   0.001   0.153  16.035  3.5543 -0.7023  0.4662
  831MPD2    H312278   4.543   0.154  16.174 -0.3510 -0.3773 -1.8209
  831MPD2     N12279   4.492   4.446  16.152 -0.1945 -0.1847 -0.0010
  831MPD2    H512280   4.396   4.456  16.183 -0.3471  0.3720 -0.6393
  831MPD2    N112281   0.126   4.683  15.946 -0.5598 -0.0621  0.5150
  831MPD2    H712282   0.133   0.023  15.884  1.4184 -0.5192  0.1614
  832MPD2     C12283   2.962   0.848  17.072 -0.0835  0.4137 -0.0834
  832MPD2    C112284   2.997   0.949  16.991  0.2466  0.2193 -0.1622
  832MPD2    C212285   2.898   1.027  16.931 -0.2011  0.1529  0.0877
  832MPD2    C312286   2.773   0.973  16.923  0.9764 -0.4070 -0.0860
  832MPD2    C412287   2.745   0.854  16.979  0.4029 -0.7548  0.5471
  832MPD2    C512288   2.830   0.800  17.072 -0.7849  0.0528 -0.6167
  832MPD2     H12289   2.925   1.113  16.871 -0.0834 -0.7331 -1.1303
  832MPD2    H112290   2.642   0.821  16.966  0.1648  0.5157 -0.7997
  832MPD2    H212291   3.034   0.795  17.133  1.2555 -0.1949 -2.1777
  832MPD2    H312292   2.811   0.705  17.120 -0.0963  0.7693  1.0733
  832MPD2     N12293   2.675   1.026  16.834  0.2608  0.1859 -0.3507
  832MPD2    H512294   2.598   0.963  16.814  1.1904 -1.8216  2.3430
  832MPD2    N112295   3.137   0.982  16.974 -0.0257 -0.6214  0.1285
  832MPD2    H712296   3.201   0.923  17.026 -1.0129 -0.5197  1.4789
  833MPD2     C12297   4.699   2.458  13.052  0.3324 -0.0453 -0.1649
  833MPD2    C112298   4.720   2.547  12.945 -1.0611 -0.0188  0.3737
  833MPD2    C212299   0.105   2.551  12.887 -0.6277 -0.8095 -0.5608
  833MPD2    C312300   0.208   2.473  12.932 -0.4823 -0.5227  0.0624
  833MPD2    C412301   0.189   2.394  13.043 -0.3522 -0.4130 -0.3288
  833MPD2    C512302   0.064   2.386  13.101 -0.3663 -0.6159  0.5622
  833MPD2     H12303   0.119   2.597  12.790  1.1535  0.4579  0.2994
  833MPD2    H112304   0.265   2.330  13.085  1.3465  1.8465  0.0276
  833MPD2    H212305   4.606   2.457  13.107 -0.2100 -1.8740 -1.0903
  833MPD2    H312306   0.051   2.333  13.195 -3.1450  1.2967  1.2334
  833MPD2     N12307   0.326   2.477  12.858 -0.0547  0.1605  0.0349
  833MPD2    H512308   0.334   2.549  12.786 -0.8579 -0.7871 -0.9966
  833MPD2    N112309   4.609   2.609  12.897  0.0267 -0.3035  0.2322
  833MPD2    H712310   4.519   2.581  12.934 -0.6086  1.5502  0.0937
  834MPD2     C12311   0.724   2.166  11.925  0.1780 -0.0660 -0.0735
  834MPD2    C112312   0.590   2.204  11.932 -0.4871  0.0440  0.5329
  834MPD2    C212313   0.537   2.238  12.054 -0.6106 -0.4168  0.0434
  834MPD2    C312314   0.610   2.240  12.171 -0.5332  0.6041  0.5162
  834MPD2    C412315   0.744   2.209  12.160 -0.1267 -0.0846  0.1271
  834MPD2    C512316   0.793   2.175  12.038  0.1358  0.4510  0.2400
  834MPD2     H12317   0.438   2.282  12.054  0.3771  1.8366  0.4674
  834MPD2    H112318   0.817   2.223  12.239 -0.1686 -0.0274  0.1560
  834MPD2    H212319   0.765   2.139  11.828  0.1287  1.5949 -0.5751
  834MPD2    H312320   0.897   2.145  12.035  0.9218  3.1161  0.5633
  834MPD2     N12321   0.549   2.299  12.278  0.0392  0.3136 -0.7603
  834MPD2    H512322   0.453   2.334  12.273  0.3556  1.1204 -1.2118
  834MPD2    N112323   0.503   2.192  11.811 -0.7986  0.4289  0.2811
  834MPD2    H712324   0.405   2.217  11.819 -1.0449 -0.6185  0.5610
  835MPD2     C12325   0.142   0.212  10.928  0.0434  0.6073 -0.2833
  835MPD2    C112326   0.080   0.283  11.034 -0.2855 -0.3656  0.9782
  835MPD2    C212327   0.138   0.282  11.159 -0.3628  0.3058 -0.0846
  835MPD2    C312328   0.249   0.207  11.187  0.2708 -0.4908 -0.1668
  835MPD2    C412329   0.304   0.130  11.084  0.2682 -1.1765  0.4773
  835MPD2    C512330   0.252   0.132  10.960 -0.1018 -0.3202  0.4199
  835MPD2     H12331   0.085   0.329  11.240 -1.4055 -1.2757  0.1707
  835MPD2    H112332   0.386   0.064  11.107 -0.1429 -1.1352  2.0225
  835MPD2    H212333   0.102   0.218  10.828 -2.8254 -0.7097  0.7830
  835MPD2    H312334   0.302   0.075  10.882  2.2143  2.0822  0.1525
  835MPD2     N12335   0.291   0.177  11.324 -0.3809  0.3303 -0.5512
  835MPD2    H512336   0.355   0.099  11.339  0.8365  1.6478  1.1525
  835MPD2    N112337   4.696   0.345  11.020 -0.4459 -0.1539  0.0995
  835MPD2    H712338   4.653   0.386  11.103  1.0874  0.6336  0.5101
  836MPD2     C12339   0.311   0.615  11.963 -0.2771 -0.2129  0.1088
  836MPD2    C112340   0.303   0.485  12.001  0.6359 -0.2923  0.0033
  836MPD2    C212341   0.263   0.450  12.132  0.7607 -0.2723 -0.6097
  836MPD2    C312342   0.226   0.551  12.221 -0.8768  0.5895  0.1219
  836MPD2    C412343   0.246   0.685  12.180  0.5246  0.2844 -0.3812
  836MPD2    C512344   0.280   0.717  12.051  0.1226 -0.3950 -0.8250
  836MPD2     H12345   0.261   0.351  12.178 -0.0397 -0.8422 -1.8707
  836MPD2    H112346   0.226   0.770  12.244 -1.7027 -0.4135 -0.1656
  836MPD2    H212347   0.356   0.634  11.866  1.2751 -3.4244  0.2196
  836MPD2    H312348   0.293   0.819  12.020  0.1051 -0.0694  0.2175
  836MPD2     N12349   0.187   0.528  12.354 -0.0573 -0.7406  0.2689
  836MPD2    H512350   0.166   0.604  12.418  3.4946 -0.5843  1.2713
  836MPD2    N112351   0.335   0.387  11.900 -0.1913 -0.0954  0.3072
  836MPD2    H712352   0.370   0.421  11.810  0.5358  0.8288  0.9360
  837MPD2     C12353   3.330   0.050  10.199  0.4886 -0.6792  0.1302
  837MPD2    C112354   3.219   0.117  10.141 -0.0079 -0.0147 -0.0172
  837MPD2    C212355   3.198   0.251  10.169 -0.0823 -0.0020  0.1125
  837MPD2    C312356   3.277   0.322  10.250 -0.1970 -0.0522 -0.3385
  837MPD2    C412357   3.396   0.260  10.297  0.0193  0.2818  0.2648
  837MPD2    C512358   3.410   0.126  10.278  0.0177 -0.6970 -0.3164
  837MPD2     H12359   3.113   0.297  10.120 -0.4455 -0.2474  0.5121
  837MPD2    H112360   3.461   0.316  10.363  1.2903 -1.0731  0.1552
  837MPD2    H212361   3.346   4.683  10.186 -0.0339 -0.7585  0.1478
  837MPD2    H312362   3.488   0.077  10.336  0.0799 -0.6012 -0.3197
  837MPD2     N12363   3.242   0.458  10.276  0.1132 -0.3632  0.3820
  837MPD2    H512364   3.150   0.486  10.244  0.7835  1.0249 -0.3348
  837MPD2    N112365   3.124   0.050  10.060 -0.1731 -0.2789 -0.2400
  837MPD2    H712366   3.042   0.105  10.039  1.1706  1.8956  0.2021
  838MPD2     C12367   1.750   3.302  12.254  0.1075 -0.4121 -0.5446
  838MPD2    C112368   1.742   3.172  12.214  0.3743 -0.2598  0.1327
  838MPD2    C212369   1.680   3.082  12.298  0.3826  1.0621 -0.1102
  838MPD2    C312370   1.613   3.133  12.408 -0.4059 -0.1384 -0.3117
  838MPD2    C412371   1.634   3.263  12.448  0.5216 -0.3843  0.4267
  838MPD2    C512372   1.706   3.347  12.373 -0.2193 -0.0502  0.5088
  838MPD2     H12373   1.649   2.982  12.270  1.3312  0.5937  0.4900
  838MPD2    H112374   1.594   3.304  12.540 -1.0011 -0.1400 -0.3291
  838MPD2    H212375   1.789   3.382  12.192 -0.1260 -0.1224 -0.3204
  838MPD2    H312376   1.715   3.451  12.405  1.4929  0.4663 -1.6036
  838MPD2     N12377   1.513   3.051  12.473 -0.0340  0.6457  0.5132
  838MPD2    H512378   1.509   2.955  12.439 -0.6485  0.8758 -0.0554
  838MPD2    N112379   1.755   3.133  12.078  0.3010 -0.4047  0.2320
  838MPD2    H712380   1.747   3.032  12.064 -0.6820  0.4143 -5.1843
  839MPD2     C12381   1.338   2.441  11.964 -0.4328 -0.2676  0.1141
  839MPD2    C112382   1.336   2.474  11.831 -0.1228  0.0132  0.7633
  839MPD2    C212383   1.419   2.575  11.786 -0.3961  0.0064 -0.3350
  839MPD2    C312384   1.472   2.665  11.882  0.5445 -0.4960 -0.6848
  839MPD2    C412385   1.469   2.637  12.013 -0.0324 -0.2371 -0.0065
  839MPD2    C512386   1.405   2.522  12.053  0.3970  0.1424 -0.3087
  839MPD2     H12387   1.427   2.603  11.681 -0.9328  1.8809  0.1150
  839MPD2    H112388   1.516   2.696  12.091 -0.3204  1.6456 -1.2527
  839MPD2    H212389   1.279   2.359  12.002 -1.9837  1.0690  0.5905
  839MPD2    H312390   1.397   2.493  12.157  0.6244 -2.1382 -0.9278
  839MPD2     N12391   1.539   2.779  11.848  0.6159  0.8563  0.6588
  839MPD2    H512392   1.602   2.809  11.922  2.3013 -0.6122 -0.1821
  839MPD2    N112393   1.279   2.387  11.739  0.0402  0.1867 -0.0418
  839MPD2    H712394   1.306   2.402  11.642 -1.0239 -1.3197 -0.5843
  840MPD2     C12395   1.987   0.161  10.346 -0.2168 -0.5494  0.3023
  840MPD2    C112396   1.939   0.198  10.474  0.6798  0.2104  0.2502
  840MPD2    C212397   1.980   0.316  10.532  0.1295  0.0674  0.5593
  840MPD2    C312398   2.075   0.396  10.470  0.2718 -0.0912  0.4851
  840MPD2    C412399   2.115   0.360  10.343  0.1308 -0.0352 -0.2974
  840MPD2    C512400   2.075   0.245  10.283 -0.8301  0.2132  0.7116
  840MPD2     H12401   1.935   0.337  10.629  0.5301 -0.7103  0.9114
  840MPD2    H112402   2.176   0.432  10.289 -2.2179  1.8561 -0.4421
  840MPD2    H212403   1.959   0.068  10.297  1.3427 -0.7516 -0.2360
  840MPD2    H312404   2.118   0.212  10.189 -0.3316 -1.5610  1.5547
  840MPD2     N12405   2.126   0.512  10.532  0.4558 -0.2061  0.0636
  840MPD2    H512406   2.179   0.570  10.467  0.0701 -0.0886 -0.1447
  840MPD2    N112407   1.837   0.117  10.514  0.1451  0.5516  0.3734
  840MPD2    H712408   1.799   0.056  10.442  2.1802 -1.4603  0.9979
  841MPD2     C12409   1.725   0.258  14.930  0.1684  1.3229 -0.2882
  841MPD2    C112410   1.819   0.205  14.837 -0.1067 -0.3236  0.0954
  841MPD2    C212411   1.861   0.290  14.733  0.3831 -0.0627 -0.7795
  841MPD2    C312412   1.804   0.417  14.724 -0.8043 -0.5426  1.2605
  841MPD2    C412413   1.716   0.462  14.815  0.4050 -0.1404 -0.4097
  841MPD2    C512414   1.670   0.388  14.917 -0.3972 -0.7391 -0.1174
  841MPD2     H12415   1.934   0.260  14.658 -0.1265 -1.8730 -0.5367
  841MPD2    H112416   1.685   0.566  14.821  1.7837  0.0215  4.0673
  841MPD2    H212417   1.694   0.201  15.017 -1.5907  0.7564 -1.2888
  841MPD2    H312418   1.596   0.430  14.985  0.7617  0.3698  0.4600
  841MPD2     N12419   1.859   0.485  14.609 -0.0659  0.0185  0.1981
  841MPD2    H512420   1.942   0.442  14.569  0.1988  0.4945  0.2285
  841MPD2    N112421   1.868   0.076  14.832  0.2554 -0.1763 -0.0065
  841MPD2    H712422   1.935   0.054  14.759 -0.1876  2.3928 -1.1963
  842MPD2     C12423   1.815   0.975  16.270 -0.2184 -0.0506  0.3126
  842MPD2    C112424   1.867   1.101  16.293 -0.0140 -0.6458  0.2505
  842MPD2    C212425   1.951   1.122  16.396  0.1856  0.8204  0.3445
  842MPD2    C312426   1.963   1.029  16.497 -0.2463 -0.2451  0.8746
  842MPD2    C412427   1.912   0.904  16.475  0.2066  0.3242  0.3156
  842MPD2    C512428   1.839   0.876  16.356  0.0543 -0.0189 -0.0193
  842MPD2     H12429   1.968   1.227  16.413  0.0180  1.0226 -0.7387
  842MPD2    H112430   1.916   0.829  16.553 -0.9525 -0.9465 -0.8381
  842MPD2    H212431   1.748   0.948  16.189  0.5219  0.2966 -0.4098
  842MPD2    H312432   1.802   0.776  16.340  1.7203 -0.1628 -2.7970
  842MPD2     N12433   2.023   1.062  16.619  0.0315  0.2362 -0.1184
  842MPD2    H512434   2.011   1.000  16.698 -0.2283  0.4709  0.0240
  842MPD2    N112435   1.829   1.209  16.209  0.2701  0.1306 -0.8035
  842MPD2    H712436   1.749   1.197  16.148 -0.1705 -0.0335 -0.1864
  843MPD2     C12437   4.304   1.449  17.584 -0.7305 -0.3749  0.0833
  843MPD2    C112438   4.440   1.444  17.602 -0.1828 -0.5085 -0.4074
  843MPD2    C212439   4.501   1.560  17.641 -0.0474  0.0387 -0.4609
  843MPD2    C312440   4.431   1.685  17.647 -0.3968 -0.2513 -0.1746
  843MPD2    C412441   4.299   1.685  17.625  0.2170  0.0927  0.9100
  843MPD2    C512442   4.241   1.569  17.589  0.4746 -0.3980 -1.0574
  843MPD2     H12443   4.606   1.557  17.666  0.0199  2.3765 -0.4910
  843MPD2    H112444   4.239   1.774  17.635  0.1239  0.2305 -0.8878
  843MPD2    H212445   4.244   1.363  17.557  0.6568 -1.6387  1.0321
  843MPD2    H312446   4.134   1.567  17.572  0.0733  0.6517  1.4460
  843MPD2     N12447   4.487   1.812  17.679  0.2924 -0.2766 -0.4931
  843MPD2    H512448   4.415   1.881  17.697  1.5055  1.0958 -0.8928
  843MPD2    N112449   4.494   1.307  17.610 -0.3926 -0.6720  0.6702
  843MPD2    H712450   4.433   1.228  17.590 -0.1702  0.1672 -3.3003
  844MPD2     C12451   2.559   0.339  16.200  0.1754 -0.5147 -0.2861
  844MPD2    C112452   2.694   0.340  16.170 -0.1431  0.8271  0.3038
  844MPD2    C212453   2.784   0.420  16.242  0.5681 -0.1019 -0.0175
  844MPD2    C312454   2.728   0.504  16.338  0.4868 -0.2234 -0.6593
  844MPD2    C412455   2.595   0.496  16.376  0.5553 -0.5276  0.2467
  844MPD2    C512456   2.511   0.425  16.295  0.5434  0.1547 -0.0788
  844MPD2     H12457   2.888   0.428  16.215  0.4302  1.1119 -0.1804
  844MPD2    H112458   2.540   0.559  16.445 -0.7569 -1.1056 -0.2650
  844MPD2    H212459   2.486   0.277  16.151 -1.0789 -0.2923  1.2764
  844MPD2    H312460   2.403   0.430  16.298  0.5340 -1.1433  2.0170
  844MPD2     N12461   2.821   0.587  16.404  0.2899 -0.5015  0.6442
  844MPD2    H512462   2.921   0.565  16.400  0.7479  2.1857 -2.0048
  844MPD2    N112463   2.744   0.270  16.052  0.0381 -0.0730 -0.0259
  844MPD2    H712464   2.844   0.252  16.049 -0.6813 -4.2797  1.1708
  845MPD2     C12465   3.030   1.653  16.575  0.2114  0.1059 -0.7905
  845MPD2    C112466   3.105   1.575  16.660 -0.3855 -0.3188 -0.4998
  845MPD2    C212467   3.102   1.436  16.648 -0.8286 -0.5390  0.2565
  845MPD2    C312468   3.028   1.370  16.555  0.4103  0.3885  0.4077
  845MPD2    C412469   2.942   1.446  16.475 -0.3353 -0.3640  0.4278
  845MPD2    C512470   2.944   1.592  16.484 -0.5233  0.4998  1.0434
  845MPD2     H12471   3.158   1.376  16.719 -1.2476  0.4325  1.4337
  845MPD2    H112472   2.868   1.409  16.406  0.3450 -2.6276  0.9354
  845MPD2    H212473   3.018   1.759  16.588 -0.1010 -0.0372  0.0595
  845MPD2    H312474   2.875   1.642  16.417 -0.0901  0.6160  0.6780
  845MPD2     N12475   3.035   1.230  16.560 -0.2990 -0.5494  0.5423
  845MPD2    H512476   3.073   1.191  16.646 -0.2737 -1.5493  0.0780
  845MPD2    N112477   3.175   1.632  16.775 -0.6634  0.2079  0.5226
  845MPD2    H712478   3.181   1.734  16.776 -0.9118  0.2319 -0.1086
  846MPD2     C12479   4.210   1.875  13.497 -0.2386 -0.2980 -0.0296
  846MPD2    C112480   4.169   2.006  13.529  0.3371 -0.8530 -1.2252
  846MPD2    C212481   4.180   2.039  13.664 -0.1952 -0.0710  0.4586
  846MPD2    C312482   4.234   1.962  13.761  0.7100 -0.3183  0.1017
  846MPD2    C412483   4.271   1.836  13.733 -0.3060 -0.1749  0.0496
  846MPD2    C512484   4.266   1.797  13.598  0.1970 -0.6189 -0.0384
  846MPD2     H12485   4.152   2.143  13.675  0.6024  0.3251 -1.2617
  846MPD2    H112486   4.317   1.770  13.805  1.1131 -1.7523 -2.3105
  846MPD2    H212487   4.210   1.836  13.396 -1.1455  0.7150 -0.4194
  846MPD2    H312488   4.296   1.698  13.569  1.4516 -0.7092  1.5658
  846MPD2     N12489   4.238   2.018  13.889 -0.1201 -0.3555 -0.0483
  846MPD2    H512490   4.204   2.114  13.896  1.2970  0.2945 -1.9072
  846MPD2    N112491   4.140   2.111  13.433 -0.8492 -0.3948 -0.2968
  846MPD2    H712492   4.140   2.203  13.475 -3.7264 -0.4899 -0.1032
  847MPD2     C12493   4.608   2.866  14.154  0.2548  0.5924 -0.5212
  847MPD2    C112494   4.734   2.915  14.134  1.1291 -0.1560 -0.7007
  847MPD2    C212495   0.098   2.828  14.120 -0.3242  0.4285 -0.0010
  847MPD2    C312496   0.071   2.692  14.110 -0.4647  0.1677 -0.0279
  847MPD2    C412497   4.682   2.642  14.122  0.2535 -1.0405  0.2770
  847MPD2    C512498   4.583   2.728  14.148 -0.2656  0.1534 -0.8017
  847MPD2     H12499   0.199   2.867  14.118  0.6558 -2.0591  1.3878
  847MPD2    H112500   4.662   2.536  14.115  1.3860 -1.1560 -1.1356
  847MPD2    H212501   4.519   2.924  14.177 -0.3488 -0.9734  1.0189
  847MPD2    H312502   4.486   2.684  14.165  1.4972 -3.2593  0.3862
  847MPD2     N12503   0.191   2.614  14.107 -0.0388 -0.3107 -0.5333
  847MPD2    H512504   0.276   2.668  14.100 -1.7665  2.7485  2.5331
  847MPD2    N112505   0.022   3.055  14.111 -0.0347  0.2514 -0.0682
  847MPD2    H712506   0.120   3.081  14.108 -0.1018  0.6133  0.9491
  848MPD2     C12507   2.629   1.347  16.109  1.4798  0.3423 -0.3931
  848MPD2    C112508   2.620   1.410  16.224 -0.8345 -0.3413 -1.1067
  848MPD2    C212509   2.657   1.542  16.243 -0.0047 -0.0412 -0.7351
  848MPD2    C312510   2.700   1.616  16.133  0.6613  0.2037 -0.1118
  848MPD2    C412511   2.728   1.546  16.018  1.0057 -1.0672  0.2171
  848MPD2    C512512   2.683   1.413  16.009 -0.1333 -0.9829  0.9707
  848MPD2     H12513   2.633   1.584  16.340  0.7940 -1.7761  0.2083
  848MPD2    H112514   2.787   1.573  15.931  2.0430 -1.4365  0.8195
  848MPD2    H212515   2.604   1.244  16.088  1.5859  0.1665  0.3586
  848MPD2    H312516   2.693   1.372  15.909 -0.1853  2.7454 -0.5651
  848MPD2     N12517   2.718   1.757  16.144  0.3784 -0.4982  0.8401
  848MPD2    H512518   2.734   1.814  16.061  0.2215 -4.1008 -1.6408
  848MPD2    N112519   2.569   1.333  16.339  0.0102  0.3894 -0.1572
  848MPD2    H712520   2.566   1.374  16.432  0.6194  0.1926 -0.0516
  849MPD2     C12521   1.523   0.737  13.638 -0.1365 -0.0319  0.1133
  849MPD2    C112522   1.524   0.858  13.699 -0.1975  0.5482  0.2686
  849MPD2    C212523   1.457   0.875  13.818  0.3715  0.2494  0.2437
  849MPD2    C312524   1.389   0.767  13.881 -0.3188  0.7421  0.3289
  849MPD2    C412525   1.387   0.647  13.807 -0.1805 -0.1728  0.6516
  849MPD2    C512526   1.451   0.636  13.687 -0.0465  0.7791 -0.3632
  849MPD2     H12527   1.466   0.970  13.868  0.3536  0.2868  0.1765
  849MPD2    H112528   1.348   0.550  13.835  0.9490 -1.0592 -0.8573
  849MPD2    H212529   1.592   0.710  13.559  1.1543 -0.1450  1.2692
  849MPD2    H312530   1.453   0.537  13.643 -2.6657 -0.3072  1.9513
  849MPD2     N12531   1.327   0.772  14.011  0.0030  0.6254  0.2272
  849MPD2    H512532   1.294   0.678  14.030 -1.4144  0.4952 -2.8089
  849MPD2    N112533   1.603   0.967  13.651  0.6629 -0.0121  0.6341
  849MPD2    H712534   1.632   1.038  13.717  0.5672  0.8961 -0.2976
  850MPD2     C12535   0.413   3.924  14.490  0.7251 -0.4598  0.0972
  850MPD2    C112536   0.378   3.922  14.620  0.6598 -0.6865  0.1385
  850MPD2    C212537   0.481   3.947  14.716 -0.5848 -0.3195 -0.4177
  850MPD2    C312538   0.608   3.976  14.678 -0.2046  0.3177 -0.1907
  850MPD2    C412539   0.633   3.998  14.542  0.2869  0.5201  0.2093
  850MPD2    C512540   0.532   3.974  14.452  0.0101  0.5532 -0.2572
  850MPD2     H12541   0.457   3.942  14.822  0.6596 -0.0711 -0.1263
  850MPD2    H112542   0.725   4.039  14.502  0.7455 -1.6787 -1.0128
  850MPD2    H212543   0.334   3.909  14.416 -1.8353 -0.4999  2.8300
  850MPD2    H312544   0.550   3.980  14.346 -2.3284  1.5506 -0.6034
  850MPD2     N12545   0.717   3.987  14.770  0.8943 -0.8553 -1.0245
  850MPD2    H512546   0.800   4.026  14.727  1.2589 -0.1450  0.2983
  850MPD2    N112547   0.249   3.886  14.655 -0.2123 -0.5829 -0.1759
  850MPD2    H712548   0.185   3.869  14.578  0.2353  0.7827 -0.8483
  851MPD2     C12549   0.334   3.299  14.723 -0.1385 -0.1820 -0.7041
  851MPD2    C112550   0.202   3.316  14.687  0.0833 -0.1954  0.4052
  851MPD2    C212551   0.130   3.204  14.638 -0.4983 -0.2531  0.0209
  851MPD2    C312552   0.199   3.086  14.616 -0.1202  0.5569 -0.5312
  851MPD2    C412553   0.334   3.066  14.668  0.0054 -0.0701 -0.0824
  851MPD2    C512554   0.396   3.179  14.725 -0.2132 -0.0788  0.7401
  851MPD2     H12555   0.030   3.213  14.599 -0.1730  1.0588 -0.5141
  851MPD2    H112556   0.384   2.970  14.666  0.4772  0.1699  0.2190
  851MPD2    H212557   0.382   3.382  14.773  0.9914  0.0537 -2.1786
  851MPD2    H312558   0.489   3.166  14.780 -0.3102 -2.3513  0.3898
  851MPD2     N12559   0.127   2.975  14.565 -0.6632 -1.0023  0.0139
  851MPD2    H512560   0.033   2.998  14.533 -0.5525  1.1441  1.2297
  851MPD2    N112561   0.147   3.440  14.707 -0.1431 -0.3459 -0.2876
  851MPD2    H712562   0.213   3.517  14.717  0.3318 -0.6962 -0.6563
  852MPD2     C12563   3.943   1.997  10.246  0.0024 -0.0576  0.0448
  852MPD2    C112564   4.030   2.001  10.354  0.1533  0.3463 -0.2801
  852MPD2    C212565   4.163   1.966  10.324 -1.5522 -0.1222 -0.3146
  852MPD2    C312566   4.209   1.957  10.195 -0.6107  0.3248 -0.1788
  852MPD2    C412567   4.121   1.952  10.086 -0.5035  0.8349  0.2429
  852MPD2    C512568   3.994   1.989  10.116  0.0785  0.9494 -0.4677
  852MPD2     H12569   4.237   1.964  10.403 -1.5350  1.9499 -0.2865
  852MPD2    H112570   4.154   1.949   9.983 -2.3058  0.4504 -0.3241
  852MPD2    H212571   3.841   2.034  10.258  0.2599  0.6311  0.0692
  852MPD2    H312572   3.920   1.992  10.038 -0.4560  1.4069  0.0582
  852MPD2     N12573   4.354   1.945  10.190  0.8807 -0.0213  0.0606
  852MPD2    H512574   4.400   1.936  10.280  2.8869 -2.5327 -1.2352
  852MPD2    N112575   3.992   2.013  10.490  0.1559  0.6630 -0.3681
  852MPD2    H712576   4.073   2.021  10.552 -0.4284 -0.0593  0.4895
  853MPD2     C12577   1.655   1.238  12.133  0.1063 -0.3237  0.0114
  853MPD2    C112578   1.518   1.225  12.138  0.6314  0.7150  0.0057
  853MPD2    C212579   1.449   1.190  12.027 -0.4867 -0.3458 -0.5109
  853MPD2    C312580   1.520   1.169  11.906 -0.4312  0.1641  0.8554
  853MPD2    C412581   1.660   1.180  11.910 -0.5517  0.4312  0.1082
  853MPD2    C512582   1.722   1.215  12.024 -0.1136 -0.3161 -0.1425
  853MPD2     H12583   1.341   1.192  12.016 -0.7622 -0.8460  2.1436
  853MPD2    H112584   1.727   1.160  11.827 -0.1579  0.2487  0.4715
  853MPD2    H212585   1.712   1.279  12.215  3.3772  1.5076 -3.2087
  853MPD2    H312586   1.830   1.214  12.025 -0.1104  0.2390 -0.0424
  853MPD2     N12587   1.470   1.152  11.775  0.3400  0.3654 -0.1461
  853MPD2    H512588   1.540   1.154  11.702  2.2323  0.6957  1.6696
  853MPD2    N112589   1.454   1.278  12.254  0.2714 -0.2888 -0.1550
  853MPD2    H712590   1.515   1.312  12.328  0.3417  1.0493 -0.8212
  854MPD2     C12591   2.439   1.662  12.666 -0.4805  0.4888 -0.3149
  854MPD2    C112592   2.559   1.708  12.623 -0.4001  0.6084  0.5921
  854MPD2    C212593   2.670   1.665  12.697  0.3962 -0.7029  0.5568
  854MPD2    C312594   2.655   1.565  12.794  0.6076  0.8024 -0.1748
  854MPD2    C412595   2.530   1.526  12.830 -0.1125  0.5488 -0.8641
  854MPD2    C512596   2.422   1.564  12.761 -0.2405  0.3186 -0.2070
  854MPD2     H12597   2.769   1.702  12.674  0.3514 -1.5444 -1.0255
  854MPD2    H112598   2.526   1.451  12.908  1.3919  2.7399  1.3011
  854MPD2    H212599   2.347   1.701  12.622 -1.9469 -1.3510  1.1102
  854MPD2    H312600   2.325   1.516  12.771 -0.5435  1.2513  1.3740
  854MPD2     N12601   2.762   1.523  12.873  0.3893 -0.0389 -0.1014
  854MPD2    H512602   2.734   1.485  12.962 -2.4074  2.3286  0.0178
  854MPD2    N112603   2.571   1.812  12.524  0.1099 -0.4634  0.3782
  854MPD2    H712604   2.479   1.838  12.489  1.0280  1.2803 -0.7458
  855MPD2     C12605   2.768   1.323  13.708 -0.4142  0.5802  0.2778
  855MPD2    C112606   2.881   1.270  13.650 -0.3090 -0.0617  0.5345
  855MPD2    C212607   2.936   1.316  13.536 -0.0446  0.8202  0.2980
  855MPD2    C312608   2.862   1.392  13.450 -0.1828  0.0766 -0.0711
  855MPD2    C412609   2.736   1.429  13.493  0.1948  0.3871  0.5963
  855MPD2    C512610   2.690   1.403  13.624  0.1421 -0.3121 -0.0674
  855MPD2     H12611   3.026   1.268  13.500  0.4622  1.1865  1.0666
  855MPD2    H112612   2.677   1.497  13.432 -1.5020 -1.7860 -0.1609
  855MPD2    H212613   2.738   1.305  13.811  2.6916 -0.1580  1.0792
  855MPD2    H312614   2.605   1.454  13.669 -0.3461  0.3933 -1.7961
  855MPD2     N12615   2.911   1.435  13.322 -0.0731  0.7680  0.3555
  855MPD2    H512616   2.845   1.476  13.256  1.0714  1.0745 -0.5795
  855MPD2    N112617   2.960   1.170  13.719 -0.0983  0.7710 -0.4049
  855MPD2    H712618   3.054   1.155  13.682 -1.3272  1.7742 -3.9471
  856MPD2     C12619   0.757   1.696  14.347 -0.1148  0.5094 -0.2710
  856MPD2    C112620   0.798   1.807  14.279 -0.1065 -0.2727 -0.2635
  856MPD2    C212621   0.709   1.875  14.200  0.1011 -0.0649  0.2675
  856MPD2    C312622   0.576   1.833  14.188 -1.1430  0.5528  0.1148
  856MPD2    C412623   0.538   1.721  14.256 -0.0481 -0.4421  0.1542
  856MPD2    C512624   0.625   1.660  14.341  0.1603 -0.0542  0.0178
  856MPD2     H12625   0.746   1.967  14.158 -0.5256  1.0222  2.0811
  856MPD2    H112626   0.433   1.698  14.271 -0.4041  1.1644  0.1707
  856MPD2    H212627   0.823   1.637  14.410 -0.0075  0.5913 -0.3055
  856MPD2    H312628   0.598   1.572  14.398  1.5071  0.1085  0.9227
  856MPD2     N12629   0.487   1.895  14.103  0.4620  0.5016  0.4807
  856MPD2    H512630   0.389   1.870  14.096 -0.0491  2.5638  0.0759
  856MPD2    N112631   0.927   1.867  14.286 -0.7016 -0.0552  0.4354
  856MPD2    H712632   0.927   1.950  14.228 -0.8301 -1.0998 -1.0616
  857MPD2     C12633   2.047   4.475  12.718  0.0078 -0.6021  0.1484
  857MPD2    C112634   2.178   4.461  12.744 -0.3849  0.1814  0.6237
  857MPD2    C212635   2.240   4.576  12.794  0.0860 -0.3870  0.1387
  857MPD2    C312636   2.191   4.704  12.787 -0.5959  0.5567 -0.1925
  857MPD2    C412637   2.063   4.713  12.746  0.4650 -0.2243 -0.3748
  857MPD2    C512638   1.995   4.603  12.708 -0.1589 -0.0548  0.2534
  857MPD2     H12639   2.342   4.565  12.830  0.4143  2.0538 -0.0836
  857MPD2    H112640   2.005   0.063  12.729 -0.6434 -0.5831  1.4561
  857MPD2    H212641   1.978   4.396  12.690  0.5268 -1.2602  0.7201
  857MPD2    H312642   1.889   4.618  12.687 -0.3176  1.2806  1.9933
  857MPD2     N12643   2.269   0.075  12.830 -0.0776 -0.2808  0.2507
  857MPD2    H512644   2.366   0.060  12.856  0.0889  2.1433  1.1201
  857MPD2    N112645   2.235   4.328  12.739 -0.8273  0.4986 -0.0851
  857MPD2    H712646   2.180   4.255  12.696 -1.7188  0.4220  1.1848
  858MPD2     C12647   3.475   3.746  16.302 -0.5254  0.0190  0.0439
  858MPD2    C112648   3.407   3.628  16.334  0.8231 -0.2208  0.4397
  858MPD2    C212649   3.375   3.604  16.472  0.1844 -0.3904 -0.1041
  858MPD2    C312650   3.433   3.686  16.570  0.4948 -0.6202 -0.0880
  858MPD2    C412651   3.499   3.796  16.534  0.1785 -0.4701  0.0696
  858MPD2    C512652   3.516   3.829  16.398  0.3638 -0.0422  0.1918
  858MPD2     H12653   3.322   3.519  16.515 -2.4263  1.0416 -0.5183
  858MPD2    H112654   3.527   3.867  16.611 -1.3518  0.2108 -0.0142
  858MPD2    H212655   3.491   3.779  16.200  0.9880 -0.4881  0.1161
  858MPD2    H312656   3.577   3.912  16.365 -2.1090  0.9243 -1.9641
  858MPD2     N12657   3.419   3.664  16.712 -0.2039 -0.1386  0.2064
  858MPD2    H512658   3.442   3.743  16.771 -0.7723 -1.9359  2.8194
  858MPD2    N112659   3.388   3.529  16.235 -0.2710 -0.0055 -0.4168
  858MPD2    H712660   3.429   3.534  16.142 -0.9105 -0.2395 -0.7119
  859MPD2     C12661   1.574   0.459  15.324 -0.8218 -0.6510 -0.2206
  859MPD2    C112662   1.696   0.514  15.360  0.7155  0.3584 -0.1698
  859MPD2    C212663   1.806   0.432  15.355 -0.3396 -0.9817 -0.3543
  859MPD2    C312664   1.799   0.297  15.315  0.7130 -0.4250 -0.4556
  859MPD2    C412665   1.674   0.247  15.293 -0.0195 -0.5018 -1.2204
  859MPD2    C512666   1.565   0.326  15.302  0.1242 -0.7181 -0.6108
  859MPD2     H12667   1.909   0.464  15.365 -0.3527 -0.5512 -1.6601
  859MPD2    H112668   1.658   0.143  15.265 -2.1163 -0.2782 -0.8486
  859MPD2    H212669   1.486   0.521  15.311 -1.3412 -1.2210  0.6088
  859MPD2    H312670   1.465   0.288  15.285  0.0819 -1.3034  0.9791
  859MPD2     N12671   1.905   0.209  15.283 -0.2688  0.0387  0.1388
  859MPD2    H512672   1.882   0.127  15.227  1.6981 -0.4250  0.0236
  859MPD2    N112673   1.708   0.659  15.381 -0.6913  0.3378 -0.2528
  859MPD2    H712674   1.638   0.723  15.345 -0.2033  0.8040 -0.3876
  860MPD2     C12675   4.337   1.696  11.854  0.4917 -0.6271 -0.1134
  860MPD2    C112676   4.317   1.655  11.978 -0.1842 -0.2396 -0.0735
  860MPD2    C212677   4.196   1.601  12.016 -0.1221  0.6328  0.7998
  860MPD2    C312678   4.097   1.591  11.922  0.7081 -0.1522  0.8543
  860MPD2    C412679   4.119   1.633  11.789 -0.0438 -0.5359 -0.0956
  860MPD2    C512680   4.245   1.676  11.755  0.2044  0.5746  0.8033
  860MPD2     H12681   4.188   1.562  12.117 -0.4333  1.6589  1.1732
  860MPD2    H112682   4.049   1.633  11.707  0.7631 -0.8656 -0.7874
  860MPD2    H212683   4.432   1.737  11.823  0.0381 -0.4948 -1.3349
  860MPD2    H312684   4.267   1.697  11.651  0.9012  1.6011  1.1499
  860MPD2     N12685   3.983   1.523  11.965  0.0327 -0.2413 -0.2413
  860MPD2    H512686   3.970   1.503  12.064  0.0904  0.2701 -0.1328
  860MPD2    N112687   4.414   1.665  12.084 -0.2072  0.0787  0.4517
  860MPD2    H712688   4.394   1.616  12.171 -3.8607 -1.3230 -1.1860
  861MPD2     C12689   3.066   4.630  11.049 -1.0541  0.8423  0.0924
  861MPD2    C112690   2.977   4.529  11.011 -0.1791 -0.0388 -0.4956
  861MPD2    C212691   2.886   4.550  10.909  0.2867 -0.0118 -0.2031
  861MPD2    C312692   2.888   4.662  10.839  0.7327  0.1536 -0.2298
  861MPD2    C412693   2.983   0.020  10.870  0.1541  0.0717 -0.4764
  861MPD2    C512694   3.071   0.002  10.972 -0.4427  0.0707 -0.1231
  861MPD2     H12695   2.809   4.473  10.901 -1.4353  1.6564  0.2582
  861MPD2    H112696   2.976   0.112  10.813  1.1497  0.0187 -0.6881
  861MPD2    H212697   3.134   4.625  11.133 -1.2832 -0.7958  0.1788
  861MPD2    H312698   3.135   0.086  10.996 -1.7472  0.7221  1.0638
  861MPD2     N12699   2.801   4.691  10.732 -0.4665 -0.0572  0.3218
  861MPD2    H512700   2.794   0.048  10.702 -0.0545 -0.0807  0.1420
  861MPD2    N112701   2.956   4.417  11.093  0.1029  0.7281 -0.1772
  861MPD2    H712702   2.875   4.358  11.073  1.9796 -2.5176  1.8967
  862MPD2     C12703   2.104   4.351  10.330 -0.0972 -0.1012  0.8246
  862MPD2    C112704   2.218   4.331  10.398  0.5997 -0.4148 -0.3985
  862MPD2    C212705   2.275   4.212  10.417 -0.0795 -0.6830  0.3855
  862MPD2    C312706   2.205   4.103  10.378  0.6233  0.2725  0.2030
  862MPD2    C412707   2.082   4.119  10.316  1.2454  0.1801 -0.0296
  862MPD2    C512708   2.034   4.241  10.284  0.1306  0.1235  0.4694
  862MPD2     H12709   2.368   4.206  10.472  0.1527  0.5913  0.1354
  862MPD2    H112710   2.017   4.034  10.297  1.8933 -0.2766 -0.2381
  862MPD2    H212711   2.077   4.453  10.309  0.1542 -0.2476 -0.1719
  862MPD2    H312712   1.948   4.258  10.220  1.3908  1.5529 -0.8191
  862MPD2     N12713   2.253   3.976  10.418 -0.3700 -0.3578  0.4634
  862MPD2    H512714   2.193   3.896  10.401 -2.4357  0.7689  2.3921
  862MPD2    N112715   2.302   4.439  10.452 -0.4394  0.2587 -0.1907
  862MPD2    H712716   2.382   4.409  10.507 -1.4379  0.8046  1.5518
  863MPD2     C12717   1.271   2.637  16.369 -0.0544 -0.1310 -0.0354
  863MPD2    C112718   1.378   2.717  16.342  0.3633  0.0893 -0.1833
  863MPD2    C212719   1.495   2.684  16.410 -0.1087 -0.6444  1.2006
  863MPD2    C312720   1.508   2.590  16.509  0.4321  0.2100 -0.2070
  863MPD2    C412721   1.395   2.519  16.539 -0.3813 -0.1971 -0.8854
  863MPD2    C512722   1.277   2.550  16.474  0.3885 -0.0843  0.3403
  863MPD2     H12723   1.588   2.734  16.383 -0.0175 -2.0002 -1.0228
  863MPD2    H112724   1.391   2.433  16.604 -0.0812 -0.7656 -1.6213
  863MPD2    H212725   1.175   2.672  16.331  1.0707  2.5637 -0.3544
  863MPD2    H312726   1.189   2.491  16.494  1.1347 -1.8488 -1.6505
  863MPD2     N12727   1.627   2.550  16.571  0.4146 -0.0066  0.0283
  863MPD2    H512728   1.631   2.480  16.644 -0.8991  0.6179  0.6992
  863MPD2    N112729   1.367   2.829  16.251  0.5633  0.3129  0.1436
  863MPD2    H712730   1.274   2.841  16.211 -0.0764  2.0892  2.1417
  864MPD2     C12731   2.844   3.604  17.090 -0.2457  0.1310 -0.1065
  864MPD2    C112732   2.842   3.559  16.962 -0.3354 -0.2930 -0.8293
  864MPD2    C212733   2.906   3.625  16.859 -0.9646  0.3493 -1.0583
  864MPD2    C312734   2.978   3.733  16.875  0.6394  0.6487 -0.8883
  864MPD2    C412735   2.985   3.776  17.005 -0.3114  0.2286 -0.3739
  864MPD2    C512736   2.921   3.711  17.112 -0.2266 -0.1789 -0.1077
  864MPD2     H12737   2.893   3.579  16.762  0.0462 -0.6810 -0.7010
  864MPD2    H112738   3.045   3.862  17.033 -0.7574 -0.2278  2.0078
  864MPD2    H212739   2.798   3.553  17.174  2.1138 -0.7787  0.6119
  864MPD2    H312740   2.926   3.750  17.213  1.7897  1.2167 -0.7422
  864MPD2     N12741   3.057   3.801  16.780 -0.1662 -0.0938 -0.5178
  864MPD2    H512742   3.100   3.890  16.803 -4.1007  1.2037  1.7295
  864MPD2    N112743   2.755   3.445  16.950 -1.0384 -0.7667 -0.7379
  864MPD2    H712744   2.712   3.412  17.036 -0.1477 -1.3284 -0.5041
  865MPD2     C12745   3.030   4.370  16.079  0.3571 -0.1759  0.5343
  865MPD2    C112746   2.993   4.255  16.138 -0.7020 -0.1755 -1.0731
  865MPD2    C212747   3.010   4.240  16.281  1.1049 -0.8009  0.3129
  865MPD2    C312748   3.079   4.341  16.349  0.0668  0.2085  0.3892
  865MPD2    C412749   3.096   4.461  16.286 -0.5321 -0.5859 -0.0299
  865MPD2    C512750   3.068   4.474  16.157  0.0995 -0.0373  0.5184
  865MPD2     H12751   2.978   4.148  16.329  0.3122  0.0378  1.3904
  865MPD2    H112752   3.113   4.552  16.343 -1.2654 -0.6143  0.2402
  865MPD2    H212753   3.015   4.383  15.972 -0.2285 -2.3436  0.3440
  865MPD2    H312754   3.092   4.567  16.106  1.3566 -0.8481 -0.3442
  865MPD2     N12755   3.110   4.348  16.491 -0.1982  0.3738 -0.0984
  865MPD2    H512756   3.127   4.440  16.531  2.1735  0.4366 -1.2419
  865MPD2    N112757   2.946   4.151  16.057  0.1553  0.1885  0.0717
  865MPD2    H712758   2.959   4.163  15.957  1.8947 -1.0684  0.1482
  866MPD2     C12759   3.030   0.015  11.827  0.6549  0.3678 -0.1034
  866MPD2    C112760   3.069   0.118  11.746  0.2179 -0.3590  0.5536
  866MPD2    C212761   3.010   0.143  11.625  0.0573 -0.5869  0.0250
  866MPD2    C312762   2.896   0.057  11.593 -0.7800  0.0134 -1.0379
  866MPD2    C412763   2.850   4.709  11.692 -0.4179  0.0511  0.5602
  866MPD2    C512764   2.915   4.688  11.808  0.8150 -0.4992  0.7040
  866MPD2     H12765   3.048   0.218  11.557 -1.5520 -0.4680 -0.7221
  866MPD2    H112766   2.761   4.647  11.680 -1.9748  2.4718 -0.2934
  866MPD2    H212767   3.080   4.731  11.921 -0.1272  0.8648  0.4374
  866MPD2    H312768   2.893   4.612  11.882  1.6270 -0.5214  0.9220
  866MPD2     N12769   2.830   0.050  11.465 -0.5787 -0.0676 -0.6804
  866MPD2    H512770   2.755   4.723  11.454  0.2326 -1.1209  0.1526
  866MPD2    N112771   3.193   0.180  11.788  0.1717  0.0887 -0.4654
  866MPD2    H712772   3.210   0.161  11.886 -0.2069 -0.4337 -0.4990
  867MPD2     C12773   1.114   4.020  16.937 -0.1987 -0.3591 -0.0302
  867MPD2    C112774   1.110   3.949  17.055  0.2650 -0.2477  0.3506
  867MPD2    C212775   1.100   4.020  17.171 -0.7511  0.5294 -0.2576
  867MPD2    C312776   1.132   4.161  17.167 -0.5320  0.1159  0.5700
  867MPD2    C412777   1.165   4.213  17.048 -0.0058 -0.0354 -0.3395
  867MPD2    C512778   1.147   4.150  16.929  0.5426  0.5127  0.1516
  867MPD2     H12779   1.092   3.966  17.264 -0.7941  0.0380 -0.5477
  867MPD2    H112780   1.181   4.320  17.045 -0.1404 -0.0269 -0.8841
  867MPD2    H212781   1.089   3.963  16.848  0.2267  4.0839 -2.9964
  867MPD2    H312782   1.169   4.206  16.839  2.1388 -0.5853 -0.1386
  867MPD2     N12783   1.138   4.241  17.281  0.2694  0.0234  0.2106
  867MPD2    H512784   1.173   4.337  17.273 -0.1986  0.1701 -0.0560
  867MPD2    N112785   1.097   3.812  17.044 -0.2718  0.1144 -0.2519
  867MPD2    H712786   1.108   3.776  16.949 -0.6591 -0.3871 -0.1043
  868MPD2     C12787   2.252   2.710  12.585 -0.2433 -0.4041  0.1595
  868MPD2    C112788   2.312   2.830  12.614 -0.3567 -0.0795  0.3387
  868MPD2    C212789   2.261   2.913  12.713  0.0333 -0.5531 -0.6526
  868MPD2    C312790   2.148   2.871  12.783  0.1754  0.3612 -0.5818
  868MPD2    C412791   2.073   2.757  12.738 -0.5999 -0.2891  0.0851
  868MPD2    C512792   2.130   2.678  12.647  0.8028 -0.7477  0.4861
  868MPD2     H12793   2.320   2.997  12.749  0.5223 -1.2462  0.1396
  868MPD2    H112794   1.978   2.726  12.780  0.6963 -2.0543  1.6861
  868MPD2    H212795   2.286   2.641  12.509  2.6073  0.2379  0.8727
  868MPD2    H312796   2.084   2.584  12.620  0.5268 -0.2473 -0.8028
  868MPD2     N12797   2.105   2.949  12.891  0.2798 -0.1777 -0.2131
  868MPD2    H512798   2.161   3.031  12.911 -2.7912  2.0750 -0.8056
  868MPD2    N112799   2.440   2.857  12.556 -0.5887  0.2963 -0.6818
  868MPD2    H712800   2.499   2.783  12.519  0.7789  0.5151  1.0252
  869MPD2     C12801   3.456   4.666  17.723 -0.2182  0.0525  0.6453
  869MPD2    C112802   3.397   0.027   0.048  0.6934 -0.0125 -0.0838
  869MPD2    C212803   3.480   0.105   0.118 -0.9415  0.0142  0.1678
  869MPD2    C312804   3.622   0.089   0.111  0.2439  0.0910 -0.4533
  869MPD2    C412805   3.678   4.731   0.025 -0.1569 -0.0651  0.6026
  869MPD2    C512806   3.593   4.652  17.717 -1.1150  0.2569 -0.2182
  869MPD2     H12807   3.443   0.182   0.183  1.3946  1.4374 -0.1986
  869MPD2    H112808   3.784   4.709   0.013 -0.8452 -1.8885 -2.2710
  869MPD2    H212809   3.388   4.601  17.668  0.5419  0.5427 -0.8820
  869MPD2    H312810   3.634   4.578  17.649 -0.9058  0.2099 -0.0393
  869MPD2     N12811   3.695   0.175   0.192  0.1021 -0.5176  0.2683
  869MPD2    H512812   3.635   0.245   0.233  0.8432  0.7843 -0.8782
  869MPD2    N112813   3.254   0.032   0.055  0.3508  0.1690  0.2007
  869MPD2    H712814   3.206   4.689   0.020 -1.9539  0.7386  2.0333
  870MPD2     C12815   2.604   3.437   1.303  0.1268  0.2385  0.4570
  870MPD2    C112816   2.737   3.441   1.277  0.0348 -0.2596  0.4314
  870MPD2    C212817   2.783   3.529   1.181 -0.0707  0.7889 -0.3762
  870MPD2    C312818   2.701   3.614   1.103  0.4262 -0.4847  0.8842
  870MPD2    C412819   2.563   3.614   1.143  0.4730  0.2035  0.0091
  870MPD2    C512820   2.523   3.529   1.240 -0.6312  0.4948 -1.0775
  870MPD2     H12821   2.888   3.544   1.156 -0.3360 -0.7437 -2.4701
  870MPD2    H112822   2.491   3.685   1.106  0.1525  0.1267  0.4913
  870MPD2    H212823   2.574   3.377   1.388  1.1803 -1.7760 -0.6019
  870MPD2    H312824   2.421   3.527   1.278 -0.3614  2.0906 -0.2690
  870MPD2     N12825   2.756   3.690   1.001  0.0855 -0.1880  0.4301
  870MPD2    H512826   2.857   3.698   0.995  0.2159 -1.1432  1.2790
  870MPD2    N112827   2.816   3.347   1.349  0.0947  0.0117  0.3087
  870MPD2    H712828   2.756   3.292   1.409  0.5404 -0.8478 -0.0348
  871MPD2     C12829   4.599   3.961  16.234 -0.0368 -0.6268 -0.3497
  871MPD2    C112830   4.576   3.937  16.369  0.0096 -0.3941 -0.2116
  871MPD2    C212831   4.566   3.813  16.411 -0.0232  0.0292 -0.2022
  871MPD2    C312832   4.575   3.706  16.330  0.7197 -0.3087  0.2005
  871MPD2    C412833   4.608   3.733  16.194 -0.5516 -0.0920  0.0591
  871MPD2    C512834   4.611   3.859  16.150  0.0734 -0.2269 -0.2157
  871MPD2     H12835   4.561   3.786  16.516 -0.4227 -2.3369 -0.8404
  871MPD2    H112836   4.621   3.654  16.121  0.9419  0.5481 -0.3587
  871MPD2    H212837   4.608   4.063  16.197  2.1115 -0.5729  0.3492
  871MPD2    H312838   4.631   3.875  16.044 -3.5006  3.4300 -0.3757
  871MPD2     N12839   4.575   3.575  16.394 -0.0836  0.2636  0.0877
  871MPD2    H512840   4.567   3.575  16.495 -0.6241 -1.1116  0.0493
  871MPD2    N112841   4.551   4.050  16.447 -0.7462 -0.3374 -0.1060
  871MPD2    H712842   4.545   4.135  16.393  2.4682  0.2916  0.5715
  872MPD2     C12843   0.311   1.610  13.871 -0.3781 -0.1279  0.2586
  872MPD2    C112844   0.389   1.548  13.967 -0.2793  0.5122 -0.6188
  872MPD2    C212845   0.336   1.538  14.093 -0.8659 -0.2689  0.3885
  872MPD2    C312846   0.216   1.591  14.125 -0.3885 -0.6088  0.3347
  872MPD2    C412847   0.139   1.646  14.028  0.2003 -0.5725  0.2436
  872MPD2    C512848   0.183   1.649  13.900  0.3617  0.0782  0.1659
  872MPD2     H12849   0.389   1.481  14.169  3.1836 -1.8484 -3.5913
  872MPD2    H112850   0.038   1.679  14.051  0.8094  2.3649 -1.2527
  872MPD2    H212851   0.341   1.626  13.768  0.3332  0.2592  0.5201
  872MPD2    H312852   0.119   1.693  13.824  0.1912  1.6053  1.1916
  872MPD2     N12853   0.161   1.581  14.253 -0.3923 -0.3689 -0.4265
  872MPD2    H512854   0.070   1.625  14.265  0.8023  1.1211  3.2336
  872MPD2    N112855   0.523   1.503  13.940  0.0552  0.4722  0.5434
  872MPD2    H712856   0.557   1.456  14.024  1.1157  0.9297  0.3674
  873MPD2     C12857   2.652   0.718   0.460  0.4736  0.0514  0.6707
  873MPD2    C112858   2.521   0.765   0.456  0.4571 -0.0079  0.4889
  873MPD2    C212859   2.418   0.674   0.440 -0.6443 -0.5652  0.1191
  873MPD2    C312860   2.434   0.541   0.472  1.0792  0.0460  0.4546
  873MPD2    C412861   2.566   0.495   0.474 -0.3824 -0.2024  0.1054
  873MPD2    C512862   2.672   0.581   0.471  0.0672 -0.5321  0.1010
  873MPD2     H12863   2.315   0.708   0.433 -0.7140 -0.7535  0.2291
  873MPD2    H112864   2.573   0.391   0.504 -0.7399 -0.3395 -0.2824
  873MPD2    H212865   2.733   0.791   0.463  0.0475  0.4793  2.1574
  873MPD2    H312866   2.766   0.535   0.496 -0.2770 -1.4958 -0.3812
  873MPD2     N12867   2.332   0.439   0.499 -0.3794 -0.1367  0.6650
  873MPD2    H512868   2.353   0.341   0.516  2.7584  0.1630 -1.5243
  873MPD2    N112869   2.488   0.898   0.466  0.0702  0.6878  1.0273
  873MPD2    H712870   2.564   0.960   0.492 -1.3390  2.1639  1.6654
  874MPD2     C12871   1.958   2.099  15.941 -0.3526  0.4926  0.6816
  874MPD2    C112872   2.006   1.980  15.988 -0.3426 -0.5329 -0.3253
  874MPD2    C212873   2.127   1.990  16.045  0.2885  0.0153  0.5887
  874MPD2    C312874   2.205   2.103  16.064 -0.1891 -1.0082 -0.8959
  874MPD2    C412875   2.143   2.221  16.025 -0.2340  0.2695 -0.4508
  874MPD2    C512876   2.019   2.217  15.963  0.5878  0.4006 -0.4266
  874MPD2     H12877   2.159   1.900  16.096  3.1138 -0.2962 -1.7737
  874MPD2    H112878   2.191   2.316  16.044 -2.0640  1.6435 -2.6787
  874MPD2    H212879   1.852   2.104  15.916 -0.8202 -1.3031  2.2809
  874MPD2    H312880   1.970   2.312  15.942 -0.1491  0.2126  0.4545
  874MPD2     N12881   2.339   2.083  16.109 -0.1516 -0.6295 -0.2279
  874MPD2    H512882   2.368   1.990  16.138  0.0332 -0.7468 -0.8085
  874MPD2    N112883   1.930   1.861  15.983 -0.1351  0.0799  0.0818
  874MPD2    H712884   1.838   1.877  15.943 -0.8558 -1.2347  1.2192
  875MPD2     C12885   3.067   0.151  14.362 -0.2144 -0.9507 -0.3792
  875MPD2    C112886   2.957   0.229  14.398  0.3390 -0.8893  0.3501
  875MPD2    C212887   2.978   0.327  14.487 -0.5418 -1.2575 -0.4717
  875MPD2    C312888   3.096   0.340  14.551 -0.2551  0.1187  0.6099
  875MPD2    C412889   3.200   0.249  14.527 -0.0550  0.1368 -0.7047
  875MPD2    C512890   3.186   0.164  14.431 -0.6184 -0.1471 -0.3940
  875MPD2     H12891   2.894   0.389  14.515 -0.7761 -2.4375  1.4731
  875MPD2    H112892   3.301   0.278  14.553 -1.2881  2.9380  0.9197
  875MPD2    H212893   3.066   0.077  14.283  1.0610  0.1748 -1.4484
  875MPD2    H312894   3.276   0.120  14.391 -0.4418  1.0453 -1.3128
  875MPD2     N12895   3.124   0.439  14.655 -0.3447 -0.3129 -0.3306
  875MPD2    H512896   3.214   0.425  14.701 -0.8141 -0.3325  0.5821
  875MPD2    N112897   2.834   0.219  14.332  0.1561  0.5143  0.2630
  875MPD2    H712898   2.765   0.293  14.338  1.3822  1.4544  2.5816
  876MPD2     C12899   2.200   1.050  16.151  0.5371  0.2086 -1.1514
  876MPD2    C112900   2.231   1.031  16.017 -0.4481 -0.4057  0.2821
  876MPD2    C212901   2.225   0.904  15.962 -0.1966  0.7585  0.0008
  876MPD2    C312902   2.189   0.791  16.042 -0.2142 -0.1863  0.2590
  876MPD2    C412903   2.164   0.812  16.175  0.5272 -0.3690 -0.6628
  876MPD2    C512904   2.174   0.937  16.232 -0.6682 -0.5146 -0.3393
  876MPD2     H12905   2.258   0.882  15.861 -1.9227 -0.9871 -0.1854
  876MPD2    H112906   2.147   0.732  16.245  0.4614 -1.7959 -2.3028
  876MPD2    H212907   2.201   1.144  16.203 -1.4160  0.5272 -1.6818
  876MPD2    H312908   2.170   0.951  16.340 -1.5665 -1.2064 -0.2886
  876MPD2     N12909   2.194   0.662  15.981 -0.0872 -0.0382  0.3007
  876MPD2    H512910   2.254   0.661  15.899  0.8769 -1.5079  1.0273
  876MPD2    N112911   2.281   1.151  15.954  0.4313  0.3023  0.2383
  876MPD2    H712912   2.288   1.238  16.006 -0.8622  0.4141  0.2248
  877MPD2     C12913   1.856   1.472  15.505  0.4427 -0.6669 -0.5016
  877MPD2    C112914   1.975   1.517  15.458 -0.1042  0.3964  0.0584
  877MPD2    C212915   1.985   1.546  15.321 -0.0445  0.2091 -0.6671
  877MPD2    C312916   1.873   1.553  15.237  0.0285 -0.3307 -0.1043
  877MPD2    C412917   1.756   1.514  15.291  0.0991 -0.5700  0.2384
  877MPD2    C512918   1.747   1.475  15.421 -0.7317  0.1691 -0.5771
  877MPD2     H12919   2.083   1.543  15.275 -0.0455 -0.4331 -0.6321
  877MPD2    H112920   1.663   1.525  15.236  1.3457 -2.0244 -2.1534
  877MPD2    H212921   1.852   1.439  15.609  2.4365  3.1099  0.7998
  877MPD2    H312922   1.653   1.443  15.466  0.1114 -3.0149 -1.1045
  877MPD2     N12923   1.889   1.579  15.098 -0.0606  0.9766 -0.1759
  877MPD2    H512924   1.806   1.572  15.041  2.4011 -1.4685 -3.4997
  877MPD2    N112925   2.096   1.520  15.535 -0.2786 -0.5078 -0.5141
  877MPD2    H712926   2.173   1.565  15.486  1.4541  0.3036  2.8964
  878MPD2     C12927   2.083   0.577  12.903  0.1483  0.3164  0.1500
  878MPD2    C112928   2.056   0.712  12.904  0.2734 -0.6935 -0.1690
  878MPD2    C212929   2.049   0.779  13.019 -0.7316 -0.1623 -0.5510
  878MPD2    C312930   2.051   0.709  13.139  0.6422 -0.2618 -0.0405
  878MPD2    C412931   2.086   0.573  13.141  0.3561 -0.6254 -0.2918
  878MPD2    C512932   2.107   0.509  13.019  0.0349 -0.3162 -0.3945
  878MPD2     H12933   2.030   0.886  13.022  1.7865  0.1448  3.6513
  878MPD2    H112934   2.116   0.513  13.226 -0.6406 -1.8133 -0.7881
  878MPD2    H212935   2.105   0.530  12.807 -1.1212 -2.3668  1.1721
  878MPD2    H312936   2.141   0.406  13.023  0.4679 -0.1437  0.4868
  878MPD2     N12937   2.026   0.774  13.257 -0.4379 -0.1893  0.2064
  878MPD2    H512938   2.004   0.872  13.245 -1.2103 -0.5791 -1.4945
  878MPD2    N112939   2.032   0.775  12.778 -0.1459 -0.4355 -0.2037
  878MPD2    H712940   2.048   0.708  12.703  2.1282 -1.8127  1.4987
  879MPD2     C12941   2.480   2.664  16.993  0.7301  0.2063  0.2410
  879MPD2    C112942   2.408   2.548  16.994  0.8048  0.5037 -0.1857
  879MPD2    C212943   2.390   2.488  16.871  1.1881 -0.8475 -0.5724
  879MPD2    C312944   2.433   2.547  16.754 -0.6150 -0.8779  0.5553
  879MPD2    C412945   2.501   2.667  16.759  0.7763  0.1815 -0.0307
  879MPD2    C512946   2.524   2.727  16.880 -0.6698 -0.1314 -0.4525
  879MPD2     H12947   2.339   2.393  16.868  0.3526 -0.4115 -0.2939
  879MPD2    H112948   2.532   2.725  16.673  1.4077 -0.2721 -0.1069
  879MPD2    H212949   2.503   2.716  17.086 -0.1696  1.0649 -0.0076
  879MPD2    H312950   2.578   2.820  16.893 -0.8894 -0.0533 -0.1071
  879MPD2     N12951   2.413   2.488  16.631 -0.3587  0.7072 -0.0447
  879MPD2    H512952   2.424   2.550  16.551 -0.6959  0.0489 -0.5934
  879MPD2    N112953   2.376   2.492  17.120 -0.1150  0.1965  0.7687
  879MPD2    H712954   2.404   2.541  17.204 -1.1591 -0.2386  1.3694
  880MPD2     C12955   3.967   3.322  17.603  0.1035 -0.2987  0.5584
  880MPD2    C112956   3.902   3.331  17.724  0.3493 -0.0597  0.3518
  880MPD2    C212957   3.887   3.212   0.038  0.0879 -0.6379 -0.5052
  880MPD2    C312958   3.938   3.091  17.743  0.8506  0.1505 -0.2274
  880MPD2    C412959   4.004   3.085  17.623  0.0526 -0.1457 -1.2255
  880MPD2    C512960   4.020   3.206  17.555 -0.2107 -0.2725  0.7726
  880MPD2     H12961   3.841   3.211   0.136 -0.4729 -2.2544 -0.7892
  880MPD2    H112962   4.054   3.000  17.579 -0.0382 -0.1593 -1.3034
  880MPD2    H212963   3.979   3.415  17.548 -0.0229 -0.4070  0.3471
  880MPD2    H312964   4.080   3.213  17.465 -0.3247 -3.0210  0.4773
  880MPD2     N12965   3.905   2.969   0.057  0.1995 -0.4497 -0.4514
  880MPD2    H512966   3.867   2.993   0.148 -2.0647  2.4696 -2.1546
  880MPD2    N112967   3.851   3.458   0.014 -0.0405  0.2398 -0.2621
  880MPD2    H712968   3.877   3.543  17.722 -0.8739  0.1677 -0.8295
  881MPD2     C12969   3.539   4.342  17.527  0.0148 -0.2741 -0.7445
  881MPD2    C112970   3.655   4.268  17.505 -0.3477 -0.5641  0.2241
  881MPD2    C212971   3.675   4.170  17.602  0.6572  0.7900 -0.3501
  881MPD2    C312972   3.594   4.136  17.709 -0.1101 -0.5630 -0.0153
  881MPD2    C412973   3.487   4.221  17.729  0.2772  0.0458 -0.5348
  881MPD2    C512974   3.465   4.327  17.640 -0.2124  0.4047 -0.3065
  881MPD2     H12975   3.762   4.107  17.586 -0.3797 -1.1795  1.8457
  881MPD2    H112976   3.420   4.204   0.057 -0.7827  1.8747 -1.0297
  881MPD2    H212977   3.513   4.427  17.464 -1.9995  0.0267  0.4994
  881MPD2    H312978   3.380   4.394  17.644  0.7863  1.7640 -1.8343
  881MPD2     N12979   3.619   4.027   0.038  0.9997  0.4775 -0.3113
  881MPD2    H512980   3.554   4.002   0.112 -0.4699 -0.1886 -1.8360
  881MPD2    N112981   3.750   4.303  17.408  0.2483  0.2308  0.0129
  881MPD2    H712982   3.730   4.384  17.350 -1.5316 -0.2910 -0.0832
  882MPD2     C12983   2.098   1.795  14.305 -0.1092 -0.2425  0.8250
  882MPD2    C112984   2.085   1.793  14.444  0.5237  0.2287 -0.2928
  882MPD2    C212985   1.955   1.800  14.499  0.3148 -0.2963  0.0841
  882MPD2    C312986   1.845   1.793  14.424  0.2075 -0.1528  0.2953
  882MPD2    C412987   1.856   1.808  14.288 -0.2771  0.1788 -0.8403
  882MPD2    C512988   1.981   1.801  14.228  0.7953  0.0860 -0.0235
  882MPD2     H12989   1.936   1.804  14.606  2.0184 -0.9591  0.4213
  882MPD2    H112990   1.767   1.805  14.227 -0.1703  0.5662 -1.0154
  882MPD2    H212991   2.193   1.783  14.254  0.3011 -1.4521  1.8893
  882MPD2    H312992   1.991   1.785  14.122 -2.7269  0.9789 -0.4674
  882MPD2     N12993   1.709   1.776  14.476  0.3853 -0.0844  0.7238
  882MPD2    H512994   1.631   1.763  14.413  2.4386 -0.6319 -1.7269
  882MPD2    N112995   2.210   1.786  14.516 -0.7914 -0.0175  0.3986
  882MPD2    H712996   2.281   1.806  14.446 -0.5774 -1.7339  0.1195
  883MPD2     C12997   3.400   1.206  15.453 -0.3701  0.8893 -0.0460
  883MPD2    C112998   3.526   1.251  15.422  0.5619 -1.0508  0.1611
  883MPD2    C212999   3.629   1.240  15.521  0.3374 -0.3312 -0.0970
  883MPD2    C313000   3.606   1.170  15.637  0.6600 -0.3079 -0.4165
  883MPD2    C413001   3.486   1.106  15.654 -0.1036 -0.1991  0.4109
  883MPD2    C513002   3.380   1.131  15.567  0.3921 -0.1515 -0.1387
  883MPD2     H13003   3.730   1.273  15.497  0.1501  0.3830  0.1058
  883MPD2    H113004   3.441   1.057  15.739 -1.6368 -0.3025 -0.4641
  883MPD2    H213005   3.313   1.235  15.397  0.4610  2.6804 -0.3934
  883MPD2    H313006   3.277   1.097  15.577  0.6971 -1.0164  0.0108
  883MPD2     N13007   3.715   1.142  15.718  0.0634 -0.1246  0.2876
  883MPD2    H513008   3.797   1.195  15.691 -0.4690  0.3280 -0.4536
  883MPD2    N113009   3.551   1.322  15.307  0.3900 -0.1317 -0.8431
  883MPD2    H713010   3.642   1.365  15.292  1.0041 -0.2624  2.4934
  884MPD2     C13011   1.075   2.407  15.716 -0.1498 -0.0689 -0.4306
  884MPD2    C113012   1.080   2.516  15.627 -0.1427 -0.4653  0.1840
  884MPD2    C213013   0.961   2.578  15.593  0.7215  0.4275  0.1246
  884MPD2    C313014   0.844   2.543  15.655  0.1831 -0.0468 -0.8162
  884MPD2    C413015   0.840   2.438  15.742  0.2432  0.0785  0.1914
  884MPD2    C513016   0.951   2.378  15.773 -0.2658  0.3599 -0.2199
  884MPD2     H13017   0.950   2.644  15.507 -0.7611  0.3205  0.2313
  884MPD2    H113018   0.750   2.414  15.797 -0.1453 -1.8864 -1.2977
  884MPD2    H213019   1.158   2.340  15.736  0.0775  0.6623  1.1120
  884MPD2    H313020   0.941   2.309  15.856 -0.4688  1.3508  0.5877
  884MPD2     N13021   0.728   2.600  15.600 -0.2020 -0.4332 -0.0972
  884MPD2    H513022   0.738   2.682  15.541 -0.9072 -1.0826 -1.1337
  884MPD2    N113023   1.190   2.552  15.542  0.4203  0.3034  0.0132
  884MPD2    H713024   1.183   2.638  15.487  0.4427 -0.0862 -0.5930
  885MPD2     C13025   3.819   1.866  17.620 -0.1588  0.2392 -0.0272
  885MPD2    C113026   3.883   1.964  17.686 -0.0542 -0.0062  0.1089
  885MPD2    C213027   3.891   2.090  17.618  0.8732 -0.5198 -0.9554
  885MPD2    C313028   3.843   2.112  17.491 -0.2218  0.1879  0.2204
  885MPD2    C413029   3.770   2.013  17.428 -0.5880 -0.4004 -0.0005
  885MPD2    C513030   3.765   1.891  17.493  0.2933  0.2093 -0.7598
  885MPD2     H13031   3.948   2.163  17.674 -1.9064  1.0163 -0.1425
  885MPD2    H113032   3.742   2.010  17.323 -1.0591  0.1164  0.1125
  885MPD2    H213033   3.810   1.764  17.655  2.7554 -0.2472 -0.7280
  885MPD2    H313034   3.715   1.807  17.447  0.4393 -0.7556  0.8177
  885MPD2     N13035   3.855   2.246  17.443  0.4558 -0.5182  0.0350
  885MPD2    H513036   3.913   2.311  17.496  0.3279 -1.6710  1.5719
  885MPD2    N113037   3.937   1.933   0.052 -0.7175 -0.0797  0.5356
  885MPD2    H713038   3.946   1.834   0.077 -0.2919 -0.2845 -0.4423
  886MPD2     C13039   0.848   1.009  15.104 -0.1492 -0.1098 -0.2144
  886MPD2    C113040   0.882   1.037  15.231  0.1549 -0.5184  0.1948
  886MPD2    C213041   0.843   1.159  15.291  0.0674 -0.8101  0.5117
  886MPD2    C313042   0.764   1.250  15.231  0.6183  0.2714  0.4674
  886MPD2    C413043   0.723   1.218  15.107  0.7336 -0.0002 -0.8384
  886MPD2    C513044   0.762   1.101  15.050 -0.3457 -1.2762 -0.2471
  886MPD2     H13045   0.871   1.174  15.395 -1.7580 -4.9100  1.6121
  886MPD2    H113046   0.652   1.284  15.058 -0.5497 -1.0112 -0.3295
  886MPD2    H213047   0.866   0.917  15.050  1.2108  0.4640 -0.7301
  886MPD2    H313048   0.708   1.068  14.962 -0.3875  0.8900 -1.0157
  886MPD2     N13049   0.723   1.370  15.285 -0.2194  0.1982  0.3572
  886MPD2    H513050   0.656   1.422  15.230  0.3347  1.7948  1.1737
  886MPD2    N113051   0.965   0.944  15.307  0.0335  0.0788 -0.5959
  886MPD2    H713052   0.982   0.975  15.402  1.4129 -0.1124 -0.7902
  887MPD2     C13053   1.559   1.073  15.659 -0.0416  0.4586  0.1665
  887MPD2    C113054   1.427   1.093  15.617 -0.8060 -0.2954 -0.1647
  887MPD2    C213055   1.375   1.220  15.625 -0.3899 -0.1186 -0.8371
  887MPD2    C313056   1.452   1.323  15.677 -0.6869 -0.1441 -0.9426
  887MPD2    C413057   1.580   1.295  15.713 -0.3542  0.4711  0.2055
  887MPD2    C513058   1.639   1.172  15.698  0.2923 -0.3651  0.0594
  887MPD2     H13059   1.271   1.235  15.598 -0.1060 -0.6306 -2.1858
  887MPD2    H113060   1.646   1.379  15.729 -2.7587  2.5617 -0.8576
  887MPD2    H213061   1.613   0.980  15.644 -1.3511 -0.0103 -1.6446
  887MPD2    H313062   1.743   1.160  15.727  1.0841  1.4411 -2.0037
  887MPD2     N13063   1.390   1.446  15.694  0.6381  0.1315 -0.0110
  887MPD2    H513064   1.289   1.457  15.685  0.5446 -2.0314 -1.5569
  887MPD2    N113065   1.341   0.989  15.573  0.1339 -0.0227  0.1888
  887MPD2    H713066   1.243   0.996  15.548 -0.2486  1.7029  2.2002
  888MPD2     C13067   2.781   1.334  14.430 -1.0705  0.1795 -0.0452
  888MPD2    C113068   2.834   1.313  14.558 -0.1474 -0.1616  0.0205
  888MPD2    C213069   2.937   1.399  14.602 -0.3356  0.1194 -0.6567
  888MPD2    C313070   2.968   1.514  14.536  0.4449 -0.6229  0.0577
  888MPD2    C413071   2.907   1.536  14.414 -0.2162 -0.4319 -0.3829
  888MPD2    C513072   2.826   1.441  14.360  0.0482  0.0950 -0.0701
  888MPD2     H13073   2.982   1.386  14.699 -1.9163  0.0022  0.0563
  888MPD2    H113074   2.927   1.625  14.354  1.6624 -0.7503 -0.2312
  888MPD2    H213075   2.721   1.259  14.379  0.7611 -1.8778  0.8267
  888MPD2    H313076   2.797   1.461  14.258 -0.5902  1.7125  0.4199
  888MPD2     N13077   3.058   1.606  14.596  0.1737  0.1503  0.4875
  888MPD2    H513078   3.091   1.573  14.686 -0.5660  0.4408  0.8658
  888MPD2    N113079   2.782   1.216  14.637  0.2737 -0.3006 -0.0520
  888MPD2    H713080   2.834   1.205  14.724  1.5907  1.4025 -0.6034
  889MPD2     C13081   2.340   0.820  12.567  0.0624 -0.7606 -0.9472
  889MPD2    C113082   2.363   0.801  12.699  0.1316 -0.1364  0.2349
  889MPD2    C213083   2.336   0.900  12.795  0.5962 -0.5860  0.1427
  889MPD2    C313084   2.310   1.031  12.755  0.1418  0.0024  0.2487
  889MPD2    C413085   2.313   1.054  12.619  0.0084  0.2012 -0.3226
  889MPD2    C513086   2.322   0.955  12.527 -0.6107  0.4848  0.0899
  889MPD2     H13087   2.348   0.866  12.897 -2.0349 -0.5399  0.4835
  889MPD2    H113088   2.302   1.150  12.569 -1.3310  0.9016  1.3023
  889MPD2    H213089   2.354   0.750  12.485 -1.1848 -1.1153 -0.8508
  889MPD2    H313090   2.323   0.986  12.423  3.3144 -0.0611 -0.0492
  889MPD2     N13091   2.267   1.118  12.850 -0.0995  0.1078  0.1887
  889MPD2    H513092   2.262   1.092  12.948 -0.0171  1.8811  0.6534
  889MPD2    N113093   2.390   0.671  12.731 -0.6276 -0.7586  0.2916
  889MPD2    H713094   2.388   0.596  12.663  0.0886 -0.7322  0.2411
  890MPD2     C13095   2.115   2.311  14.533  0.0086  0.1654 -0.5408
  890MPD2    C113096   2.153   2.401  14.630  0.7412 -0.0305 -0.5636
  890MPD2    C213097   2.169   2.360  14.764 -0.0958 -0.2818 -0.2760
  890MPD2    C313098   2.125   2.234  14.803 -0.5669  0.2881  0.0689
  890MPD2    C413099   2.080   2.148  14.708  0.8126  0.0100 -0.2533
  890MPD2    C513100   2.064   2.190  14.576 -0.3093 -0.1432  0.2578
  890MPD2     H13101   2.210   2.425  14.840  1.6243 -0.2527 -1.2195
  890MPD2    H113102   2.066   2.045  14.741  1.6989  0.3791  1.2698
  890MPD2    H213103   2.107   2.336  14.428 -1.5904  1.8882 -0.0248
  890MPD2    H313104   2.028   2.116  14.506 -0.3040 -0.5030  0.6340
  890MPD2     N13105   2.153   2.192  14.932  0.1421  0.4121  0.3027
  890MPD2    H513106   2.216   2.251  14.986 -2.6517  3.5635  0.1154
  890MPD2    N113107   2.209   2.520  14.580 -0.8849  0.4042  0.0224
  890MPD2    H713108   2.181   2.536  14.484 -1.4051 -0.0007  0.1029
  891MPD2     C13109   0.255   0.768  16.352 -0.0003  0.4738  0.2197
  891MPD2    C113110   0.150   0.696  16.393 -0.0796 -0.2410  0.2018
  891MPD2    C213111   0.174   0.578  16.465  0.5119  0.5013 -0.0950
  891MPD2    C313112   0.299   0.534  16.494 -0.0496 -0.0298  0.0953
  891MPD2    C413113   0.413   0.596  16.437  0.1754  0.8722 -0.1798
  891MPD2    C513114   0.385   0.718  16.370  0.5515  0.1095  0.1725
  891MPD2     H13115   0.090   0.541  16.522 -0.6190 -0.4810 -2.3716
  891MPD2    H113116   0.517   0.566  16.442  0.4279  1.5596 -1.2379
  891MPD2    H213117   0.244   0.863  16.302  0.4181 -0.0661 -0.9157
  891MPD2    H313118   0.467   0.771  16.325  0.9701 -0.3604  0.3827
  891MPD2     N13119   0.308   0.419  16.580  0.4513 -0.2151  0.6775
  891MPD2    H513120   0.224   0.388  16.626  1.2549 -0.6561  1.8545
  891MPD2    N113121   0.025   0.750  16.356 -0.1427  0.7117  0.3211
  891MPD2    H713122   0.023   0.811  16.275  0.5866  0.2315 -0.0557
  892MPD2     C13123   1.199   1.847  15.332  0.7920 -0.1401  0.4429
  892MPD2    C113124   1.131   1.864  15.216  0.0768 -0.0317  0.0021
  892MPD2    C213125   1.193   1.808  15.107  0.7717  0.4004  0.7544
  892MPD2    C313126   1.317   1.745  15.111  0.2185 -0.8806  0.2761
  892MPD2    C413127   1.387   1.737  15.228 -0.2407 -0.4666 -0.6887
  892MPD2    C513128   1.319   1.780  15.339 -0.5281  0.2764  0.2501
  892MPD2     H13129   1.137   1.826  15.015  2.5762  1.4835 -0.1247
  892MPD2    H113130   1.489   1.702  15.234 -0.2907 -0.0356  2.5226
  892MPD2    H213131   1.156   1.876  15.427  0.7549  1.0014  0.0772
  892MPD2    H313132   1.367   1.785  15.436  0.9933  0.8577 -0.5156
  892MPD2     N13133   1.373   1.691  14.993 -0.2947 -0.0451 -0.5103
  892MPD2    H513134   1.473   1.672  14.989 -0.3587 -0.0968 -1.7501
  892MPD2    N113135   1.006   1.928  15.210  0.7332  0.1643 -0.4882
  892MPD2    H713136   0.983   1.941  15.112  0.2895 -0.2471 -0.4361
  893MPD2     C13137   2.211   0.373   0.890 -0.3225 -0.8985 -0.5324
  893MPD2    C113138   2.137   0.263   0.936  0.6112 -0.5848  0.3481
  893MPD2    C213139   2.007   0.277   0.974 -0.2870 -0.5006 -0.6909
  893MPD2    C313140   1.947   0.392   0.962 -0.8150  0.0368 -0.2845
  893MPD2    C413141   2.014   0.503   0.921  1.1396 -0.0210 -0.2404
  893MPD2    C513142   2.151   0.496   0.895  0.7264  0.0654 -1.0789
  893MPD2     H13143   1.948   0.188   0.988 -0.1573 -0.2139  1.7323
  893MPD2    H113144   1.979   0.605   0.908  0.9475 -0.0940 -0.2808
  893MPD2    H213145   2.316   0.369   0.862 -0.7686  0.0176 -2.3538
  893MPD2    H313146   2.212   0.577   0.856 -0.0017  0.1622 -2.0403
  893MPD2     N13147   1.813   0.420   0.997  0.1780 -0.4263  0.2876
  893MPD2    H513148   1.785   0.517   0.995 -1.5131 -0.9665 -2.9517
  893MPD2    N113149   2.204   0.136   0.930  0.0914 -0.1572 -0.7189
  893MPD2    H713150   2.296   0.139   0.886 -0.3791 -0.0855 -1.6904
  894MPD2     C13151   0.908   2.212   0.716 -0.7373  0.6012  0.4129
  894MPD2    C113152   0.861   2.273   0.830 -0.0930  0.8810 -0.6377
  894MPD2    C213153   0.823   2.409   0.828 -0.1132  0.4547 -0.4523
  894MPD2    C313154   0.831   2.480   0.707  0.3329 -0.6642  0.0285
  894MPD2    C413155   0.876   2.415   0.593 -0.0295  0.2257 -0.5286
  894MPD2    C513156   0.916   2.280   0.602  0.4474 -0.0410  0.1641
  894MPD2     H13157   0.784   2.471   0.908  0.0539 -1.5864  1.2177
  894MPD2    H113158   0.890   2.471   0.501 -1.3456  1.3024 -0.0772
  894MPD2    H213159   0.913   2.103   0.714 -0.8222  0.6088 -0.2367
  894MPD2    H313160   0.947   2.242   0.505 -1.2012  0.7153 -0.6605
  894MPD2     N13161   0.802   2.620   0.717  0.4436 -0.2724  0.1656
  894MPD2    H513162   0.756   2.665   0.796  2.0621  0.0825  0.9043
  894MPD2    N113163   0.840   2.193   0.950 -0.5685 -0.0791  0.2372
  894MPD2    H713164   0.783   2.239   1.020 -0.1863  0.9106 -0.1007
  895MPD2     C13165   0.390   0.893  14.045 -0.9897  0.3008 -0.5156
  895MPD2    C113166   0.305   0.910  13.935  0.4874  0.0015  0.8645
  895MPD2    C213167   0.310   0.810  13.838 -0.3452 -0.3903 -0.8246
  895MPD2    C313168   0.397   0.701  13.845  0.3966  0.0123  0.4604
  895MPD2    C413169   0.478   0.688  13.957 -0.1817  0.2451  0.2397
  895MPD2    C513170   0.469   0.786  14.051  0.4104  0.3495 -0.2738
  895MPD2     H13171   0.251   0.827  13.748 -1.0352 -1.0912 -0.5023
  895MPD2    H113172   0.543   0.603  13.976  1.0309  1.2766  0.6601
  895MPD2    H213173   0.405   0.969  14.121  2.3207  0.8156 -1.6539
  895MPD2    H313174   0.524   0.777  14.144 -0.0845  3.8569  0.3669
  895MPD2     N13175   0.409   0.613  13.733  0.0312 -0.3651  0.8096
  895MPD2    H513176   0.483   0.545  13.746 -0.5711 -1.5398 -1.9870
  895MPD2    N113177   0.237   1.025  13.901 -0.2971  0.2466  0.8410
  895MPD2    H713178   0.176   1.020  13.820 -0.4408 -1.9154  1.0723
  896MPD2     C13179   1.958   3.876   0.952  0.6156 -0.3706  0.1843
  896MPD2    C113180   1.984   3.739   0.931 -0.3014  1.1349 -0.1492
  896MPD2    C213181   1.877   3.654   0.905 -1.1500  0.1737 -0.3620
  896MPD2    C313182   1.747   3.705   0.906 -0.3701 -0.1272 -0.2660
  896MPD2    C413183   1.722   3.833   0.930  0.1212  0.2894 -0.0415
  896MPD2    C513184   1.827   3.920   0.959 -0.0909  0.1079 -0.5752
  896MPD2     H13185   1.896   3.549   0.883  0.4611  0.2880  0.4929
  896MPD2    H113186   1.625   3.881   0.920  0.0145  0.3469  1.3432
  896MPD2    H213187   2.038   3.948   0.967  0.5937 -0.5899  1.3750
  896MPD2    H313188   1.817   4.025   0.984  1.7087  0.9186 -3.1668
  896MPD2     N13189   1.644   3.614   0.874 -0.1036  0.4781 -0.4594
  896MPD2    H513190   1.677   3.519   0.862  1.2195  0.9679 -0.6494
  896MPD2    N113191   2.118   3.693   0.943  0.3001  0.1780  0.4130
  896MPD2    H713192   2.195   3.757   0.953  0.7543 -0.4135  0.7521
  897MPD2     C13193   3.697   0.705  10.638  0.3813 -0.9624  1.0584
  897MPD2    C113194   3.623   0.827  10.653  0.4936 -0.3753 -0.5055
  897MPD2    C213195   3.559   0.850  10.777 -0.4922  0.1789 -0.5766
  897MPD2    C313196   3.566   0.755  10.877 -0.3886 -0.4413  0.1057
  897MPD2    C413197   3.645   0.643  10.863 -0.4803 -0.5074  0.3170
  897MPD2    C513198   3.713   0.622  10.744 -0.0560  0.3742  0.0736
  897MPD2     H13199   3.495   0.936  10.791 -0.5826  0.0341 -0.1209
  897MPD2    H113200   3.673   0.569  10.937 -1.5919 -1.3214 -0.0749
  897MPD2    H213201   3.742   0.687  10.541  1.6871 -0.6619  1.6128
  897MPD2    H313202   3.767   0.530  10.725 -1.4190 -0.2025 -1.0665
  897MPD2     N13203   3.473   0.765  10.982 -0.1289 -0.2437  0.3841
  897MPD2    H513204   3.396   0.831  10.975  0.1569  0.4164  3.3231
  897MPD2    N113205   3.620   0.920  10.543 -0.5611 -0.3208  0.2580
  897MPD2    H713206   3.653   0.898  10.450  1.4460 -0.2095  0.9284
  898MPD2     C13207   0.742   1.502  17.676 -0.8511  0.8563  1.0464
  898MPD2    C113208   0.872   1.547  17.671 -0.7446 -0.5646  0.1223
  898MPD2    C213209   0.909   1.651  17.581  0.8133  0.4194 -0.0042
  898MPD2    C313210   0.807   1.713  17.505  0.1384  0.0384  0.9649
  898MPD2    C413211   0.672   1.665  17.520 -0.6030 -0.3221  0.5171
  898MPD2    C513212   0.647   1.559  17.597  0.8885 -0.5967  0.1664
  898MPD2     H13213   1.012   1.684  17.579  1.2375 -1.0854 -3.4520
  898MPD2    H113214   0.587   1.702  17.463  0.2103 -0.7436 -0.9884
  898MPD2    H213215   0.706   1.428  17.746 -1.1929 -0.7921 -0.8752
  898MPD2    H313216   0.548   1.515  17.592 -0.5878  2.5456  1.8079
  898MPD2     N13217   0.839   1.827  17.434 -0.3039 -0.7256 -0.2070
  898MPD2    H513218   0.938   1.845  17.422 -0.5605 -0.0227 -1.2305
  898MPD2    N113219   0.969   1.481  17.747 -0.1519  0.8528 -0.1074
  898MPD2    H713220   1.063   1.514  17.727 -0.1814  0.4168 -0.9686
  899MPD2     C13221   2.212   2.003  16.900  0.0620 -0.3622  0.0479
  899MPD2    C113222   2.087   2.062  16.880  0.7204 -0.4802  0.0271
  899MPD2    C213223   1.980   1.998  16.952  0.3877 -0.2438 -0.1824
  899MPD2    C313224   1.998   1.874  17.016  0.0318 -0.2823  0.2508
  899MPD2    C413225   2.128   1.821  17.023 -0.2824  0.7561  0.5235
  899MPD2    C513226   2.233   1.891  16.973 -0.1773  0.4013 -0.5729
  899MPD2     H13227   1.877   2.031  16.952  0.2752 -0.5946  1.0329
  899MPD2    H113228   2.143   1.729  17.078 -0.6381  0.5788  0.3203
  899MPD2    H213229   2.300   2.045  16.853 -1.4986  0.0771 -2.4958
  899MPD2    H313230   2.333   1.863  17.002 -0.7654  0.1342  1.1875
  899MPD2     N13231   1.884   1.803  17.067 -0.0668 -0.2363  0.3372
  899MPD2    H513232   1.792   1.844  17.061  0.2471 -0.0203 -2.6913
  899MPD2    N113233   2.064   2.181  16.813  0.3469  0.5075 -0.1558
  899MPD2    H713234   2.148   2.236  16.802  1.2299 -0.6128  1.0826
  900MPD2     C13235   1.148   3.501  12.594  0.1768 -0.2440 -0.3775
  900MPD2    C113236   1.049   3.437  12.661 -0.0737  0.6553 -0.4938
  900MPD2    C213237   0.914   3.474  12.648  0.3952  0.3513 -0.4606
  900MPD2    C313238   0.884   3.586  12.563  0.3521  0.5767 -0.6994
  900MPD2    C413239   0.982   3.653  12.500  0.4715 -0.9836 -0.3381
  900MPD2    C513240   1.109   3.597  12.505 -0.2521 -0.1240 -0.3921
  900MPD2     H13241   0.829   3.435  12.702  0.1812  3.2133  1.2523
  900MPD2    H113242   0.959   3.738  12.436  1.6149 -0.4660 -0.0661
  900MPD2    H213243   1.254   3.478  12.591  0.3562  0.4003  0.9172
  900MPD2    H313244   1.185   3.637  12.439 -0.3547  0.4213 -0.1801
  900MPD2     N13245   0.748   3.622  12.554 -0.4057  0.4030  0.1079
  900MPD2    H513246   0.687   3.565  12.612 -1.1811 -0.4234 -1.5277
  900MPD2    N113247   1.096   3.329  12.746 -0.9936 -0.4104 -0.6413
  900MPD2    H713248   1.197   3.320  12.738 -0.6633  0.4448  2.4872
  901MPD2     C13249   0.996   2.262  12.905 -0.3566  0.1225 -0.1051
  901MPD2    C113250   1.123   2.291  12.855  0.2392 -0.3313  0.8390
  901MPD2    C213251   1.166   2.423  12.843  0.1806  0.6057  0.3022
  901MPD2    C313252   1.077   2.524  12.881 -0.1716  0.1340  0.4910
  901MPD2    C413253   0.949   2.500  12.932 -0.5423  0.8163  0.2834
  901MPD2    C513254   0.911   2.369  12.940  0.0423  0.0055  0.8653
  901MPD2     H13255   1.266   2.454  12.815  0.4439  1.6886  2.4284
  901MPD2    H113256   0.874   2.573  12.958  1.3905  3.7600 -2.5498
  901MPD2    H213257   0.960   2.160  12.908  0.6270 -0.3094 -2.3311
  901MPD2    H313258   0.808   2.344  12.962 -0.3384  0.9195  0.1041
  901MPD2     N13259   1.129   2.660  12.884 -0.1801 -0.3981 -0.1294
  901MPD2    H513260   1.223   2.674  12.847 -0.3940  0.7865 -0.2492
  901MPD2    N113261   1.197   2.182  12.807  0.7155 -0.0455  0.1481
  901MPD2    H713262   1.152   2.091  12.803 -1.9481  1.2491  0.8811
  902MPD2     C13263   0.228   1.160  12.990  0.6162 -0.6708 -0.0693
  902MPD2    C113264   0.311   1.271  13.000 -0.5534 -0.2218 -0.0054
  902MPD2    C213265   0.434   1.260  12.931  0.5503  0.7211 -0.6223
  902MPD2    C313266   0.471   1.152  12.854 -0.4916  0.0944  0.5272
  902MPD2    C413267   0.393   1.042  12.863  0.6211 -0.1143 -0.0885
  902MPD2    C513268   0.272   1.047  12.930 -0.0726 -0.0708  0.0378
  902MPD2     H13269   0.503   1.341  12.949  2.1825 -0.8977  0.4489
  902MPD2    H113270   0.414   0.947  12.815  1.7805 -1.0478  2.2595
  902MPD2    H213271   0.138   1.160  13.051  0.0129 -2.4945 -0.9482
  902MPD2    H313272   0.218   0.953  12.939  0.7704 -0.5380  0.2832
  902MPD2     N13273   0.587   1.147  12.772  0.3292  0.1119 -0.1702
  902MPD2    H513274   0.593   1.057  12.725  0.5804 -0.5417  1.0976
  902MPD2    N113275   0.268   1.380  13.085 -0.5445  0.2826  0.5755
  902MPD2    H713276   0.176   1.366  13.124 -0.4056 -1.3001  0.3044
  903MPD2     C13277   0.654   1.817  12.393  0.2141 -0.9876 -0.9863
  903MPD2    C113278   0.604   1.694  12.412  0.0734  0.1522  0.4221
  903MPD2    C213279   0.469   1.674  12.421 -0.3405  0.1582  0.4166
  903MPD2    C313280   0.387   1.779  12.398 -1.0722 -0.0027  0.3841
  903MPD2    C413281   0.438   1.907  12.374  0.0099  0.6196 -0.4762
  903MPD2    C513282   0.569   1.918  12.374  0.6017  0.3535 -0.2303
  903MPD2     H13283   0.436   1.573  12.444  1.6746 -1.1614 -2.5303
  903MPD2    H113284   0.370   1.989  12.353 -0.8843  0.3051  1.2134
  903MPD2    H213285   0.760   1.818  12.368  0.0955  2.2313 -1.4036
  903MPD2    H313286   0.606   2.017  12.352  1.0262  0.0152 -1.0740
  903MPD2     N13287   0.254   1.748  12.404 -0.3411 -0.0007  0.1324
  903MPD2    H513288   0.238   1.650  12.422  1.0942 -0.5248 -1.4795
  903MPD2    N113289   0.693   1.578  12.402  0.0000 -0.0731 -0.0703
  903MPD2    H713290   0.793   1.595  12.414 -0.4017 -0.0478  3.3769
  904MPD2     C13291   4.662   0.279  14.267  0.4429  0.1701  0.2196
  904MPD2    C113292   4.727   0.389  14.218  0.5356 -1.0184  0.8461
  904MPD2    C213293   0.121   0.400  14.234  0.4780  0.0029  0.0762
  904MPD2    C313294   0.200   0.292  14.276  0.0103 -0.9618  0.2210
  904MPD2    C413295   0.136   0.180  14.320  0.3982  0.5215  0.0343
  904MPD2    C513296   4.733   0.177  14.324 -0.0087  0.1825 -0.5035
  904MPD2     H13297   0.168   0.490  14.197  0.5549 -0.3061 -0.5672
  904MPD2    H113298   0.183   0.099  14.375  1.9960  1.1981 -0.3569
  904MPD2    H213299   4.555   0.266  14.277  0.4570 -1.3049 -1.6237
  904MPD2    H313300   4.674   0.098  14.368  1.2658  1.1194  2.8672
  904MPD2     N13301   0.344   0.314  14.276 -0.3053  0.0300  0.1609
  904MPD2    H513302   0.372   0.412  14.274 -0.2958  0.0858  2.5109
  904MPD2    N113303   4.661   0.496  14.161 -0.5537 -0.2009  0.6634
  904MPD2    H713304   4.705   0.586  14.147 -2.6012  0.7282  0.1361
  905MPD2     C13305   4.406   0.558  13.447  0.0036  0.3584  1.5556
  905MPD2    C113306   4.504   0.612  13.532 -0.2602  0.0497  0.5721
  905MPD2    C213307   4.634   0.618  13.494  0.6826 -0.5023 -1.0626
  905MPD2    C313308   4.668   0.565  13.376 -0.0042 -0.2353 -0.4082
  905MPD2    C413309   4.574   0.518  13.286  0.4402 -0.7254 -0.4240
  905MPD2    C513310   4.445   0.518  13.325  0.1546  0.1934 -0.1436
  905MPD2     H13311   4.703   0.637  13.576  2.8034  0.2746 -3.0304
  905MPD2    H113312   4.594   0.506  13.180 -0.9986 -1.5983 -0.5949
  905MPD2    H213313   4.303   0.544  13.475 -0.8380  2.1435 -0.7162
  905MPD2    H313314   4.370   0.483  13.254  0.9492 -1.7751 -0.0020
  905MPD2     N13315   0.067   0.541  13.351 -0.1774 -0.6170  0.2649
  905MPD2    H513316   0.130   0.590  13.414 -2.1634  0.7868  1.1753
  905MPD2    N113317   4.465   0.641  13.663  0.0904 -0.1211 -0.0489
  905MPD2    H713318   4.380   0.596  13.694  0.5322 -0.6627  0.3727
  906MPD2     C13319   2.160   0.964  11.267  0.3995  0.3591  0.4920
  906MPD2    C113320   2.080   0.883  11.192 -0.0073  0.6175 -0.4674
  906MPD2    C213321   2.002   0.793  11.266  0.8303 -1.4586  0.3037
  906MPD2    C313322   1.981   0.808  11.399  0.0628 -0.1303 -0.1846
  906MPD2    C413323   2.045   0.904  11.467  0.1496 -1.0047  0.4527
  906MPD2    C513324   2.139   0.978  11.403  0.6771  0.7480 -0.0403
  906MPD2     H13325   1.943   0.723  11.207 -0.7646 -0.3753  0.6149
  906MPD2    H113326   2.031   0.914  11.574 -2.0047 -0.5978  0.1358
  906MPD2    H213327   2.235   1.027  11.222  0.2008 -0.0956 -0.4781
  906MPD2    H313328   2.196   1.058  11.451 -2.3549  2.3531  0.8725
  906MPD2     N13329   1.892   0.724  11.470 -0.4163 -0.1802 -0.2839
  906MPD2    H513330   1.890   0.740  11.570  0.4420  0.9235 -0.4409
  906MPD2    N113331   2.103   0.846  11.053 -0.2357 -0.2238 -0.8249
  906MPD2    H713332   2.060   0.758  11.028 -0.2489 -0.6264  0.5900
  907MPD2     C13333   0.792   4.666  15.898  0.8478 -0.0134  0.6673
  907MPD2    C113334   0.895   4.570  15.911  0.2460  0.4877  0.6845
  907MPD2    C213335   0.917   4.515  16.035 -0.0626 -0.0822 -0.3361
  907MPD2    C313336   0.840   4.547  16.149  0.9328 -0.3515 -0.1747
  907MPD2    C413337   0.745   4.644  16.128 -0.2973  0.4620  0.5772
  907MPD2    C513338   0.710   4.700  16.007  0.9403 -0.1473 -0.5462
  907MPD2     H13339   0.991   4.438  16.052 -1.1824 -1.0418  0.2071
  907MPD2    H113340   0.677   4.672  16.209  0.8152  2.7574  0.6949
  907MPD2    H213341   0.770   4.715  15.804  1.8127  0.9976  0.9732
  907MPD2    H313342   0.632   0.035  16.009  0.4884 -0.6374  0.2286
  907MPD2     N13343   0.870   4.475  16.266 -0.1174  0.8395  0.1948
  907MPD2    H513344   0.943   4.404  16.267  0.0737  1.0279 -0.5058
  907MPD2    N113345   0.968   4.517  15.806 -0.1761 -0.4221  0.1489
  907MPD2    H713346   1.045   4.454  15.821  2.0280  1.8441 -1.5806
  908MPD2     C13347   3.326   0.604   9.806 -0.0806 -0.6120  0.1988
  908MPD2    C113348   3.420   0.569   9.900 -0.8037 -0.5150  0.2734
  908MPD2    C213349   3.473   0.666   9.981 -0.4888  0.0464  0.0459
  908MPD2    C313350   3.423   0.795   9.977  0.7623  0.8609  0.8494
  908MPD2    C413351   3.308   0.822   9.898 -0.2875  0.6290  0.0437
  908MPD2    C513352   3.277   0.735   9.800  0.1371  0.2845 -0.2097
  908MPD2     H13353   3.541   0.642  10.062 -0.5304  1.2318  0.4328
  908MPD2    H113354   3.259   0.918   9.890  0.3306  1.0504  1.2983
  908MPD2    H213355   3.279   0.539   9.733  0.7218  0.1670 -0.9968
  908MPD2    H313356   3.209   0.760   9.720 -1.3701 -0.1181  0.9260
  908MPD2     N13357   3.478   0.891  10.072  0.8354  0.1325 -0.6038
  908MPD2    H513358   3.559   0.858  10.124 -1.2067  0.0078  2.4685
  908MPD2    N113359   3.452   0.430   9.909  0.7326  0.2030  0.4600
  908MPD2    H713360   3.409   0.366   9.842  1.0530  0.7044 -0.2317
  909MPD2     C13361   3.485   3.092  11.692 -0.5154 -0.3694  1.2558
  909MPD2    C113362   3.529   3.222  11.676 -0.2021  0.1794  0.0855
  909MPD2    C213363   3.487   3.317  11.762 -0.2418  0.4915 -0.5816
  909MPD2    C313364   3.419   3.281  11.875 -0.3907  0.2205 -0.3998
  909MPD2    C413365   3.379   3.150  11.895  0.1319  0.4023  0.0841
  909MPD2    C513366   3.409   3.057  11.800 -0.0091  0.8396  0.0941
  909MPD2     H13367   3.510   3.421  11.747  3.7874 -0.4810 -1.2840
  909MPD2    H113368   3.324   3.111  11.980  0.7450  2.6889  1.5454
  909MPD2    H213369   3.508   3.019  11.616  1.4570  1.2389  0.2953
  909MPD2    H313370   3.369   2.957  11.813 -0.1772  0.8396 -0.4296
  909MPD2     N13371   3.375   3.385  11.958 -0.0540  0.5687  0.2998
  909MPD2    H513372   3.409   3.471  11.918 -0.0730  0.7275  0.6196
  909MPD2    N113373   3.615   3.265  11.579 -0.6149  0.1605  0.8668
  909MPD2    H713374   3.608   3.365  11.565 -1.8838 -0.0033  0.4023
  910MPD2     C13375   0.497   0.291  16.182  0.2323 -0.0637  0.0552
  910MPD2    C113376   0.427   0.187  16.123 -0.2650  0.2616 -0.3919
  910MPD2    C213377   0.365   0.214  16.004 -0.1513  0.7062  0.0981
  910MPD2    C313378   0.382   0.338  15.942 -0.0730  0.5301  0.2049
  910MPD2    C413379   0.447   0.439  16.003  0.1392 -0.4748 -0.1692
  910MPD2    C513380   0.507   0.406  16.117  0.1636  0.0776 -0.0829
  910MPD2     H13381   0.313   0.137  15.947  2.1115 -0.2363 -0.6833
  910MPD2    H113382   0.462   0.537  15.961 -0.7204 -0.8188 -1.2665
  910MPD2    H213383   0.536   0.284  16.283 -0.2834  0.0195  0.2638
  910MPD2    H313384   0.571   0.478  16.166  1.7619  0.2552 -2.4840
  910MPD2     N13385   0.323   0.366  15.814 -0.1260  0.4420  0.4384
  910MPD2    H513386   0.351   0.455  15.775  0.2701 -0.0857 -0.4859
  910MPD2    N113387   0.401   0.062  16.189 -0.4507 -0.3727 -0.1982
  910MPD2    H713388   0.364   4.727  16.131 -1.5700  1.5901 -1.9962
  911MPD2     C13389   3.172   0.496  15.742  0.0518  0.2838 -0.5117
  911MPD2    C113390   3.188   0.497  15.878  0.2886  0.0473 -0.2590
  911MPD2    C213391   3.085   0.544  15.954 -0.4842 -0.1433 -0.0094
  911MPD2    C313392   2.958   0.582  15.903  0.4931 -0.8844 -0.1500
  911MPD2    C413393   2.954   0.582  15.769 -0.4469 -0.2236  0.1257
  911MPD2    C513394   3.052   0.528  15.690 -0.4498  0.7120  0.1367
  911MPD2     H13395   3.101   0.560  16.060  1.0586 -1.6141 -0.0220
  911MPD2    H113396   2.865   0.610  15.714 -0.2211  0.8925  0.3430
  911MPD2    H213397   3.238   0.452  15.668 -1.3621  1.0642 -2.2389
  911MPD2    H313398   3.044   0.514  15.583  1.5901 -3.3419  0.5292
  911MPD2     N13399   2.853   0.643  15.979  0.8123 -0.1542 -0.7724
  911MPD2    H513400   2.767   0.675  15.936 -1.0719 -3.4096  0.5601
  911MPD2    N113401   3.304   0.428  15.921  0.2105  0.0037 -0.0318
  911MPD2    H713402   3.367   0.383  15.855  1.3958  3.1280 -1.0120
  912MPD2     C13403   2.609   0.794  15.573 -0.3481  0.0804 -0.7954
  912MPD2    C113404   2.572   0.728  15.694  0.1015  0.2672 -0.3102
  912MPD2    C213405   2.600   0.594  15.703 -0.1245  1.0157  0.1151
  912MPD2    C313406   2.654   0.527  15.592 -0.0902  0.2026 -0.0835
  912MPD2    C413407   2.683   0.584  15.470  0.0294  0.6951 -0.4008
  912MPD2    C513408   2.662   0.719  15.466  0.0814  0.1081  0.8991
  912MPD2     H13409   2.582   0.541  15.796  0.5378 -1.9329 -1.4417
  912MPD2    H113410   2.729   0.535  15.385  0.9353 -3.1163  2.2747
  912MPD2    H213411   2.601   0.902  15.570  0.7052  0.1018 -2.6876
  912MPD2    H313412   2.710   0.770  15.384 -1.7221  1.6503  0.8113
  912MPD2     N13413   2.670   0.392  15.616  0.0346  0.3762  0.1205
  912MPD2    H513414   2.626   0.368  15.705  1.1469 -0.5789  0.4208
  912MPD2    N113415   2.538   0.802  15.808  0.3459  0.2564 -0.3435
  912MPD2    H713416   2.560   0.901  15.807  0.4599  0.2422  0.7243
  913MPD2     C13417   2.925   1.793  10.779 -0.2577 -0.5193 -0.3055
  913MPD2    C113418   3.009   1.896  10.763  0.6499  0.0242 -0.0241
  913MPD2    C213419   3.015   1.946  10.635  1.0247 -0.5454  0.2283
  913MPD2    C313420   2.941   1.890  10.528 -0.5498 -0.3831  0.0515
  913MPD2    C413421   2.871   1.771  10.545  0.1416 -0.8107  0.4852
  913MPD2    C513422   2.867   1.729  10.673  0.4686 -0.1802  0.5991
  913MPD2     H13423   3.091   2.020  10.612 -0.2093  0.9005  0.7602
  913MPD2    H113424   2.814   1.717  10.470  0.9652 -1.3661  0.2504
  913MPD2    H213425   2.926   1.740  10.874 -1.4668  2.5644  1.4019
  913MPD2    H313426   2.823   1.631  10.691 -2.9503  1.4005  0.9505
  913MPD2     N13427   2.941   1.937  10.389 -0.7905 -0.2728  0.4945
  913MPD2    H513428   2.884   1.891  10.319  1.6430 -1.1480 -0.8929
  913MPD2    N113429   3.082   1.945  10.873  0.1538  1.0252  0.6782
  913MPD2    H713430   3.072   1.900  10.963 -1.2062  0.3311  0.1913
  914MPD2     C13431   1.062   2.476  12.203  1.6068 -0.0394 -0.1155
  914MPD2    C113432   1.133   2.494  12.320  0.1648 -0.7090 -0.0075
  914MPD2    C213433   1.177   2.383  12.387 -0.4243 -0.1424  0.0146
  914MPD2    C313434   1.165   2.256  12.336 -0.3131  0.1978  0.0845
  914MPD2    C413435   1.111   2.240  12.206 -0.0558  0.4110 -0.4363
  914MPD2    C513436   1.057   2.349  12.144 -0.2680 -0.2857 -0.4991
  914MPD2     H13437   1.206   2.391  12.491  0.5424  0.9630 -0.3399
  914MPD2    H113438   1.089   2.142  12.166 -0.0292 -0.3506  1.4025
  914MPD2    H213439   1.025   2.563  12.151  0.6242 -1.5322 -1.9341
  914MPD2    H313440   1.016   2.338  12.044 -0.8406  3.1185 -0.6620
  914MPD2     N13441   1.200   2.155  12.422 -0.4841  0.1095  0.0698
  914MPD2    H513442   1.230   2.179  12.516  2.0197 -0.2289 -0.6228
  914MPD2    N113443   1.133   2.630  12.367 -0.5106  0.4921  0.3754
  914MPD2    H713444   1.080   2.706  12.328  1.2600  0.4953 -2.0243
  915MPD2     C13445   4.565   2.566  15.330  0.0593 -0.3270  0.2876
  915MPD2    C113446   4.431   2.593  15.314 -0.3051 -0.0722  0.3166
  915MPD2    C213447   4.343   2.594  15.421 -0.0959  0.5375  0.2500
  915MPD2    C313448   4.386   2.560  15.547  0.1655 -0.5292  0.5700
  915MPD2    C413449   4.517   2.519  15.560  0.6164 -0.4644 -0.4870
  915MPD2    C513450   4.604   2.515  15.450  0.2065  1.0043 -0.3395
  915MPD2     H13451   4.238   2.620  15.412 -0.2258 -0.2379 -0.4121
  915MPD2    H113452   4.558   2.493  15.657 -2.1719  0.7500  1.0139
  915MPD2    H213453   4.640   2.575  15.252 -1.7503  1.4101 -1.2418
  915MPD2    H313454   4.706   2.478  15.456 -0.1485  0.0343 -0.4058
  915MPD2     N13455   4.293   2.571  15.656 -0.0754  0.2966 -0.5436
  915MPD2    H513456   4.201   2.607  15.633 -1.0726 -1.2084  1.1164
  915MPD2    N113457   4.393   2.614  15.177  0.2364 -0.0187 -0.4279
  915MPD2    H713458   4.461   2.599  15.103  0.4917 -2.3716  0.2715
  916MPD2     C13459   2.248   0.618  15.394  0.1087 -0.2624  0.9338
  916MPD2    C113460   2.306   0.504  15.432 -0.3895  0.4823  0.2601
  916MPD2    C213461   2.396   0.446  15.339  0.1809  0.0955  0.4212
  916MPD2    C313462   2.408   0.500  15.211 -0.9702 -0.7090  0.3961
  916MPD2    C413463   2.345   0.618  15.181  0.4541 -0.7543 -0.2168
  916MPD2    C513464   2.263   0.677  15.271  0.5170  0.6926  1.0506
  916MPD2     H13465   2.445   0.352  15.359 -1.6731 -1.1816 -1.0060
  916MPD2    H113466   2.360   0.669  15.087 -2.9430  0.7519  0.0578
  916MPD2    H213467   2.193   0.684  15.461  0.2482 -1.7201  2.4742
  916MPD2    H313468   2.210   0.770  15.257  2.1159  1.3392 -0.6897
  916MPD2     N13469   2.490   0.435  15.111  0.1713  0.3785 -0.0033
  916MPD2    H513470   2.534   0.348  15.139 -2.0089 -1.3030 -1.8234
  916MPD2    N113471   2.287   0.467  15.565  0.1518  0.5736 -0.4281
  916MPD2    H713472   2.232   0.536  15.615 -2.0247 -0.1966 -1.7803
  917MPD2     C13473   2.738   2.734  11.730 -0.5257  0.1993  0.1960
  917MPD2    C113474   2.658   2.801  11.642 -1.2508 -0.3510 -0.3636
  917MPD2    C213475   2.723   2.881  11.549  1.0173 -0.9083 -0.4355
  917MPD2    C313476   2.860   2.894  11.550 -0.0064 -0.4684  0.1819
  917MPD2    C413477   2.935   2.824  11.630  0.2710 -0.2820 -0.0827
  917MPD2    C513478   2.875   2.749  11.723  0.1618 -0.8314 -0.6621
  917MPD2     H13479   2.666   2.913  11.462 -0.5514  1.0511  1.2993
  917MPD2    H113480   3.042   2.840  11.633  0.2025  0.3328 -0.8901
  917MPD2    H213481   2.696   2.682  11.814  1.3318  0.0164  1.0196
  917MPD2    H313482   2.942   2.699  11.793  1.2327 -1.2348 -1.9778
  917MPD2     N13483   2.931   2.960  11.451  0.3919  0.0813 -0.4309
  917MPD2    H513484   3.029   2.973  11.474  1.0243 -0.7420 -2.6506
  917MPD2    N113485   2.518   2.792  11.662 -0.9190 -0.3879  0.4463
  917MPD2    H713486   2.490   2.759  11.754  0.2057 -1.2499  0.4751
  918MPD2     C13487   2.426   3.621  11.670 -0.1646 -0.0877 -0.8453
  918MPD2    C113488   2.522   3.528  11.687  0.4877  0.3611 -0.2658
  918MPD2    C213489   2.494   3.400  11.720  0.0938 -0.2823 -0.3720
  918MPD2    C313490   2.363   3.359  11.737 -0.3703  0.0594  0.4402
  918MPD2    C413491   2.262   3.450  11.707 -0.1782 -0.7065 -0.0184
  918MPD2    C513492   2.299   3.579  11.671  0.3865  0.8624  0.3605
  918MPD2     H13493   2.570   3.323  11.720  0.6701  0.2931 -1.9631
  918MPD2    H113494   2.157   3.427  11.707 -0.3138 -0.0845  0.1433
  918MPD2    H213495   2.460   3.719  11.639 -0.8722 -0.0078 -1.3775
  918MPD2    H313496   2.225   3.654  11.647 -0.1732  0.0120 -0.5408
  918MPD2     N13497   2.340   3.224  11.779 -0.4049  0.8551 -0.6409
  918MPD2    H513498   2.418   3.169  11.815  0.4179  2.6156  0.2484
  918MPD2    N113499   2.658   3.554  11.666 -0.9365 -0.5918  0.2632
  918MPD2    H713500   2.722   3.475  11.663  0.5993  0.7097 -1.7092
  919MPD2     C13501   2.965   2.259  11.829 -1.1914 -0.1204 -0.0231
  919MPD2    C113502   2.952   2.142  11.757 -0.2411 -0.2885  0.1550
  919MPD2    C213503   2.932   2.147  11.619  0.0072 -0.8297  0.1913
  919MPD2    C313504   2.918   2.265  11.552  0.3642  0.2864 -0.3004
  919MPD2    C413505   2.932   2.374  11.623  0.2669 -0.4937 -0.0927
  919MPD2    C513506   2.945   2.372  11.761  0.0915 -0.5382 -0.1569
  919MPD2     H13507   2.914   2.053  11.568  2.9606 -1.2736 -0.0245
  919MPD2    H113508   2.942   2.470  11.574  1.7922  0.1570  1.4861
  919MPD2    H213509   2.989   2.256  11.934  1.3229  3.9180 -0.4898
  919MPD2    H313510   2.976   2.462  11.813 -0.3069 -0.1905 -0.5137
  919MPD2     N13511   2.903   2.273  11.412 -0.8281 -0.0795 -0.1269
  919MPD2    H513512   2.918   2.365  11.372 -0.0961 -0.5275 -0.8775
  919MPD2    N113513   2.965   2.016  11.823 -0.5128  0.3437  0.3934
  919MPD2    H713514   2.963   1.934  11.764  2.6101 -0.3152  1.2528
  920MPD2     C13515   2.902   2.790  10.541  0.0443 -0.1974  0.0687
  920MPD2    C113516   2.792   2.707  10.549 -0.0478  0.1153 -0.7280
  920MPD2    C213517   2.789   2.602  10.638  0.7857 -0.3584 -0.6258
  920MPD2    C313518   2.888   2.573  10.730 -0.0569 -0.2809  0.3568
  920MPD2    C413519   2.993   2.665  10.728 -1.0578 -0.0213  0.3565
  920MPD2    C513520   3.002   2.757  10.630 -0.1278  0.2426  0.1329
  920MPD2     H13521   2.704   2.536  10.630 -0.4289  1.3294 -1.6421
  920MPD2    H113522   3.075   2.645  10.796  0.0347  3.8340  0.1756
  920MPD2    H213523   2.918   2.871  10.470 -0.4727  1.1745  1.5076
  920MPD2    H313524   3.090   2.820  10.626 -0.8460  1.1891 -0.7331
  920MPD2     N13525   2.878   2.461  10.812  0.2248 -0.0934  0.3634
  920MPD2    H513526   2.806   2.393  10.789  0.2151  1.2518 -3.6055
  920MPD2    N113527   2.696   2.718  10.446  0.1235  0.4430 -0.4575
  920MPD2    H713528   2.632   2.639  10.443 -2.2981  2.3240  2.2129
  921MPD2     C13529   4.003   0.554  16.612  0.1726 -1.2232  0.6635
  921MPD2    C113530   4.032   0.553  16.481 -0.3780  0.0261 -0.1588
  921MPD2    C213531   3.936   0.497  16.400  0.9751 -0.4206 -0.5545
  921MPD2    C313532   3.826   0.436  16.451  0.2279  1.3360 -0.1145
  921MPD2    C413533   3.812   0.417  16.584  0.3573  0.4476 -0.2853
  921MPD2    C513534   3.893   0.494  16.669 -0.9352  0.1402  0.3364
  921MPD2     H13535   3.957   0.492  16.294  0.5899 -0.9233 -0.6048
  921MPD2    H113536   3.733   0.362  16.635  0.1655  4.2160  3.4613
  921MPD2    H213537   4.076   0.602  16.676 -0.6112  1.7646 -0.6545
  921MPD2    H313538   3.873   0.481  16.774 -0.4765 -0.8456  0.3085
  921MPD2     N13539   3.749   0.375  16.348 -0.4315  0.9508 -0.4946
  921MPD2    H513540   3.751   0.420  16.257  1.2455  0.4107 -0.7217
  921MPD2    N113541   4.150   0.607  16.439 -0.0647  0.0799 -0.5416
  921MPD2    H713542   4.197   0.671  16.502  0.3152 -1.0412  0.2941
  922MPD2     C13543   4.096   3.563   0.319  0.0599 -0.5089 -0.3761
  922MPD2    C113544   4.164   3.681   0.308 -0.0686  0.2771  0.1447
  922MPD2    C213545   4.264   3.684   0.216  0.9398  0.0103 -0.1498
  922MPD2    C313546   4.289   3.584   0.127  0.4938  0.3815  0.0037
  922MPD2    C413547   4.207   3.477   0.124 -0.1316  0.2166 -0.2345
  922MPD2    C513548   4.115   3.466   0.224  0.6443 -0.3295  0.4413
  922MPD2     H13549   4.319   3.776   0.201  0.9602 -0.4355 -3.0024
  922MPD2    H113550   4.226   3.398   0.052  1.6375  0.7273 -0.3185
  922MPD2    H213551   4.014   3.553   0.389 -0.3458  1.4523 -0.5518
  922MPD2    H313552   4.054   3.377   0.222  1.3208 -0.8177  1.4680
  922MPD2     N13553   4.410   3.592   0.048 -0.6535  0.3735 -0.1252
  922MPD2    H513554   4.464   3.678   0.047 -0.9047  0.5315  0.1023
  922MPD2    N113555   4.122   3.796   0.381  0.1620 -0.2876  0.6373
  922MPD2    H713556   4.179   3.878   0.368 -2.1414  1.2301  0.0973
  923MPD2     C13557   0.177   1.170   9.056  0.1141  0.0426  0.2364
  923MPD2    C113558   0.211   1.229   9.171  0.5910  0.0152  0.3113
  923MPD2    C213559   0.332   1.216   9.227  0.0135 -0.4554  0.1946
  923MPD2    C313560   0.433   1.146   9.166 -0.5952  0.1673  0.9026
  923MPD2    C413561   0.402   1.079   9.049  0.3692 -0.0707  1.1209
  923MPD2    C513562   0.273   1.099   8.986 -0.8667 -0.1015 -0.3577
  923MPD2     H13563   0.354   1.278   9.313 -2.7578 -1.0729  1.3439
  923MPD2    H113564   0.484   1.026   9.000  0.4675  1.8937 -0.8545
  923MPD2    H213565   0.077   1.184   9.017 -0.9792  0.0269  3.0455
  923MPD2    H313566   0.255   1.055   8.889  0.5805 -2.9088  0.6489
  923MPD2     N13567   0.568   1.133   9.210 -1.2569 -0.1305  0.0854
  923MPD2    H513568   0.631   1.068   9.164  0.7290  1.5759  0.3830
  923MPD2    N113569   0.094   1.306   9.223  0.0304  0.2899 -0.0684
  923MPD2    H713570   0.009   1.318   9.170 -0.7884  1.0118  1.4119
  924MPD2     C13571   1.092   3.745  16.162  0.1560 -0.1804  0.5005
  924MPD2    C113572   1.036   3.747  16.291  0.8417 -0.6819 -0.1849
  924MPD2    C213573   1.046   3.863  16.369 -0.8077  0.5457 -0.2241
  924MPD2    C313574   1.100   3.981  16.323  0.1299  0.0563  0.2383
  924MPD2    C413575   1.154   3.971  16.195  0.3303  0.0742 -0.6815
  924MPD2    C513576   1.154   3.853  16.119 -0.3027 -0.0806 -0.9888
  924MPD2     H13577   1.007   3.855  16.470 -0.2476  0.0151 -0.0477
  924MPD2    H113578   1.212   4.050  16.149  0.2346  0.4435 -0.1646
  924MPD2    H213579   1.089   3.661  16.093 -1.4813  0.1778  0.1335
  924MPD2    H313580   1.203   3.857  16.023  0.2962 -2.2298 -0.7569
  924MPD2     N13581   1.091   4.102  16.395 -1.0339 -0.3139  0.0775
  924MPD2    H513582   1.087   4.190  16.344  0.8026 -0.1254  0.2425
  924MPD2    N113583   0.961   3.634  16.334 -0.1457 -0.7263 -0.8404
  924MPD2    H713584   0.948   3.564  16.261 -1.4695 -1.2236 -0.1111
  925MPD2     C13585   0.359   1.778  15.086  0.2576 -0.0956 -0.3637
  925MPD2    C113586   0.230   1.788  15.040 -0.2757  0.1811 -0.1960
  925MPD2    C213587   0.134   1.830  15.127 -0.1107  0.5180  0.1475
  925MPD2    C313588   0.153   1.834  15.259  0.1786  0.3333 -0.0203
  925MPD2    C413589   0.285   1.820  15.306  0.4464  0.0978  0.0005
  925MPD2    C513590   0.387   1.794  15.215 -0.2825  0.2690  0.3054
  925MPD2     H13591   0.033   1.833  15.088 -0.2208  3.5298  0.6804
  925MPD2    H113592   0.304   1.809  15.412 -1.0544  0.7652  0.3325
  925MPD2    H213593   0.443   1.762  15.019  0.6634  0.5917 -0.0281
  925MPD2    H313594   0.490   1.775  15.243 -0.8034  0.2961  2.2463
  925MPD2     N13595   0.043   1.830  15.351 -0.2279  0.3138  0.3467
  925MPD2    H513596   0.068   1.816  15.448  2.0826 -1.0058 -0.4260
  925MPD2    N113597   0.182   1.773  14.910  0.0227 -0.2008 -0.2911
  925MPD2    H713598   0.084   1.788  14.888 -0.5075 -0.7198  1.7040
  926MPD2     C13599   3.778   0.172  13.636  0.2356 -0.1899  0.0523
  926MPD2    C113600   3.662   0.214  13.568  0.8270 -0.2242 -0.1845
  926MPD2    C213601   3.681   0.312  13.470  0.2319 -0.4366  0.4669
  926MPD2    C313602   3.804   0.375  13.451  0.3526 -0.0725  0.7449
  926MPD2    C413603   3.913   0.328  13.520 -0.3866 -0.2856  0.0269
  926MPD2    C513604   3.902   0.223  13.608 -0.1327 -0.1740 -0.1070
  926MPD2     H13605   3.590   0.338  13.416 -0.3164  1.2294  2.1873
  926MPD2    H113606   4.016   0.361  13.509 -0.4221 -0.0123  0.5489
  926MPD2    H213607   3.769   0.103  13.719 -0.3843  1.0861  1.0537
  926MPD2    H313608   3.990   0.183  13.655 -2.0901 -2.4498  1.6179
  926MPD2     N13609   3.830   0.485  13.364 -0.1919 -0.3914  0.0218
  926MPD2    H513610   3.927   0.515  13.364 -0.0038 -0.9911 -0.2955
  926MPD2    N113611   3.531   0.166  13.593  0.2094 -0.2583  0.0766
  926MPD2    H713612   3.457   0.213  13.543 -0.1411  0.9587  1.7199
  927MPD2     C13613   3.465   1.679  17.301 -1.0541  0.2178 -0.2762
  927MPD2    C113614   3.442   1.811  17.337 -0.0500  0.1881  0.1209
  927MPD2    C213615   3.498   1.911  17.266 -0.1347  0.5840 -0.0904
  927MPD2    C313616   3.560   1.885  17.152 -0.0161 -0.9586 -0.4537
  927MPD2    C413617   3.602   1.755  17.123  0.5499 -0.1258  0.0133
  927MPD2    C513618   3.551   1.645  17.200  0.1961  0.2367 -0.0560
  927MPD2     H13619   3.496   2.016  17.291  0.6730  0.8131 -0.9547
  927MPD2    H113620   3.655   1.730  17.032  2.4670 -0.1533  1.1420
  927MPD2    H213621   3.421   1.599  17.361  0.3019 -0.9185 -0.7962
  927MPD2    H313622   3.559   1.541  17.171 -0.3542  1.0769 -3.2193
  927MPD2     N13623   3.582   2.000  17.069  0.3145 -0.0244 -0.0910
  927MPD2    H513624   3.555   2.090  17.108  0.7554  0.1122 -0.0984
  927MPD2    N113625   3.366   1.830  17.454 -0.5415 -0.1279 -0.3152
  927MPD2    H713626   3.347   1.747  17.510  1.1865  0.6293  1.3844
  928MPD2     C13627   0.598   1.078   0.033  0.2070  0.4211 -0.2721
  928MPD2    C113628   0.681   0.985   0.088 -0.2244 -0.4143 -0.2210
  928MPD2    C213629   0.813   0.978   0.049  0.6087 -0.6692  0.3460
  928MPD2    C313630   0.862   1.055  17.703 -0.1271 -0.1636  0.8108
  928MPD2    C413631   0.786   1.143  17.638  0.2344 -0.4495  0.9505
  928MPD2    C513632   0.659   1.166  17.695  0.2879  0.2419  0.2001
  928MPD2     H13633   0.878   0.910   0.104 -0.8335 -0.5145  2.2467
  928MPD2    H113634   0.811   1.200  17.549 -1.9193 -0.0955  0.5709
  928MPD2    H213635   0.498   1.100   0.068 -0.3238 -1.3138 -0.6913
  928MPD2    H313636   0.605   1.244  17.643 -1.1871 -0.1899  1.1092
  928MPD2     N13637   0.991   1.032  17.649 -0.1256  0.6754  0.1462
  928MPD2    H513638   1.018   1.084  17.566  1.9186 -0.0907  0.3338
  928MPD2    N113639   0.621   0.890   0.177  0.2024 -0.6058  0.5291
  928MPD2    H713640   0.520   0.890   0.173  0.2672 -1.1472 -0.8847
  929MPD2     C13641   1.593   0.529  10.597  0.3010  0.0401  0.1938
  929MPD2    C113642   1.473   0.469  10.578 -0.3476  0.4151  0.4375
  929MPD2    C213643   1.398   0.509  10.471 -0.2247 -0.8439 -0.8471
  929MPD2    C313644   1.431   0.620  10.399  0.2808  0.6739  0.2090
  929MPD2    C413645   1.553   0.684  10.424  0.4475 -0.9987  0.0912
  929MPD2    C513646   1.633   0.634  10.526 -0.2033  0.1632  0.5201
  929MPD2     H13647   1.292   0.486  10.463  0.0756 -2.8753  1.0382
  929MPD2    H113648   1.583   0.772  10.369  1.2375 -1.0945  0.3792
  929MPD2    H213649   1.665   0.492  10.671  0.2326  0.2285  0.3537
  929MPD2    H313650   1.729   0.679  10.546  0.0098 -0.8414  1.7594
  929MPD2     N13651   1.356   0.677  10.293  0.8333 -0.0223 -0.3522
  929MPD2    H513652   1.417   0.731  10.232 -1.2878  3.2033  0.3852
  929MPD2    N113653   1.428   0.380  10.685 -0.0502  0.0097  0.1017
  929MPD2    H713654   1.494   0.375  10.762 -0.0863 -0.7646  0.0839
  930MPD2     C13655   3.371   2.842  14.003 -0.8303 -0.2025 -0.4359
  930MPD2    C113656   3.408   2.898  13.879 -0.5266 -0.0657  0.6467
  930MPD2    C213657   3.349   2.845  13.764 -0.4110  0.1797  0.4743
  930MPD2    C313658   3.260   2.741  13.769 -0.1451  0.9933 -0.0876
  930MPD2    C413659   3.215   2.698  13.896 -0.3312  0.2766 -0.0642
  930MPD2    C513660   3.278   2.743  14.011 -0.0522  0.1212  0.1685
  930MPD2     H13661   3.395   2.868  13.669 -0.3568  1.5758  0.8374
  930MPD2    H113662   3.133   2.628  13.901  0.1681 -0.3256 -0.2624
  930MPD2    H213663   3.403   2.881  14.099 -0.5234 -1.0236 -0.2142
  930MPD2    H313664   3.252   2.717  14.113 -1.0263 -0.2479 -0.1755
  930MPD2     N13665   3.213   2.678  13.644  0.0600  0.1890 -0.2456
  930MPD2    H513666   3.165   2.590  13.658  1.1934 -0.1957  1.2216
  930MPD2    N113667   3.494   3.010  13.877 -0.5445  0.1277  0.2605
  930MPD2    H713668   3.552   3.019  13.959  2.6631  0.2720 -2.0253
  931MPD2     C13669   3.664   1.806   0.240 -0.3106 -0.0101  0.3123
  931MPD2    C113670   3.531   1.787   0.263 -0.0057 -0.9870 -0.8100
  931MPD2    C213671   3.489   1.698   0.364  0.5354 -0.0997 -0.3660
  931MPD2    C313672   3.579   1.619   0.433 -0.0965 -0.0528  0.2075
  931MPD2    C413673   3.709   1.637   0.402  0.0625  0.0898  0.0893
  931MPD2    C513674   3.748   1.733   0.312 -0.3990 -1.1927 -0.3820
  931MPD2     H13675   3.385   1.669   0.368  0.4765  0.2325  0.4318
  931MPD2    H113676   3.784   1.566   0.436  2.1404  1.9190 -0.6650
  931MPD2    H213677   3.701   1.884   0.174  1.8700 -1.3551 -0.0806
  931MPD2    H313678   3.854   1.743   0.292 -0.9174 -1.1798 -3.1185
  931MPD2     N13679   3.535   1.513   0.520  0.0077  0.0882  0.6144
  931MPD2    H513680   3.607   1.451   0.554  0.6097  0.3510 -0.1871
  931MPD2    N113681   3.449   1.858   0.178  0.0570 -0.4866 -0.4127
  931MPD2    H713682   3.489   1.898   0.095  0.6560  0.5251  0.3653
  932MPD2     C13683   4.703   1.716  11.606 -0.4440  0.1803  0.0441
  932MPD2    C113684   0.081   1.715  11.533  0.4764 -0.0323  0.6813
  932MPD2    C213685   0.129   1.587  11.507 -0.4543 -0.2529  0.0491
  932MPD2    C313686   0.075   1.470  11.548 -0.1219  0.2989  0.2504
  932MPD2    C413687   4.693   1.472  11.609 -0.3002 -0.3553 -1.1947
  932MPD2    C513688   4.642   1.594  11.646 -0.0121  0.1620  0.4828
  932MPD2     H13689   0.224   1.580  11.454 -0.1033 -1.0670  0.7849
  932MPD2    H113690   4.635   1.382  11.628  0.9743 -1.1073 -0.9058
  932MPD2    H213691   4.666   1.804  11.656  0.4227  0.9179 -0.6000
  932MPD2    H313692   4.550   1.587  11.703  0.8665 -1.0352  1.7682
  932MPD2     N13693   0.124   1.343  11.517 -0.1065 -0.3857 -0.0382
  932MPD2    H513694   0.078   1.257  11.545 -0.7479  0.3007  1.0171
  932MPD2    N113695   0.161   1.823  11.514 -0.5938 -0.4320 -0.1342
  932MPD2    H713696   0.240   1.803  11.454 -0.6637  2.3664 -1.2020
  933MPD2     C13697   0.001   0.725   0.719  0.6479 -0.5306 -1.5593
  933MPD2    C113698   0.103   0.798   0.661 -0.1963  0.6713  0.0683
  933MPD2    C213699   0.107   0.932   0.690 -0.2544 -0.1299  0.2076
  933MPD2    C313700   0.008   0.992   0.765 -0.5332  0.1805 -0.3337
  933MPD2    C413701   4.646   0.922   0.820 -0.7091 -0.2588  0.4734
  933MPD2    C513702   4.646   0.791   0.791  0.8859 -0.1932 -0.2387
  933MPD2     H13703   0.191   0.995   0.660 -0.5893  0.2797  0.1231
  933MPD2    H113704   4.573   0.954   0.894 -2.0531 -0.3721 -0.7840
  933MPD2    H213705   4.732   0.617   0.713  0.9121 -0.6978  0.7704
  933MPD2    H313706   4.573   0.731   0.843  0.7758  1.0642  1.0519
  933MPD2     N13707   0.020   1.125   0.789 -0.7660 -0.3034  0.3401
  933MPD2    H513708   0.100   1.173   0.748 -2.6908  3.5939  1.1783
  933MPD2    N113709   0.209   0.734   0.589 -0.0921  0.8586 -0.3212
  933MPD2    H713710   0.205   0.633   0.584 -1.3828  0.9523 -1.2287
  934MPD2     C13711   2.091   3.015   1.542  0.0675 -0.1846 -0.5200
  934MPD2    C113712   2.092   2.882   1.518  0.4321 -0.4137  0.1448
  934MPD2    C213713   2.052   2.844   1.388  0.1053  0.4155 -0.4692
  934MPD2    C313714   2.003   2.931   1.297  0.1012  0.8184 -0.4310
  934MPD2    C413715   1.999   3.058   1.328  0.1508 -0.3142  1.0233
  934MPD2    C513716   2.056   3.103   1.447 -0.1492 -0.0169  0.1798
  934MPD2     H13717   2.047   2.737   1.372  1.3370  0.2781  0.0677
  934MPD2    H113718   1.944   3.133   1.274  0.9103 -0.5706 -0.1110
  934MPD2    H213719   2.124   3.050   1.639  4.0970 -2.0489 -1.2078
  934MPD2    H313720   2.057   3.209   1.470 -1.6847  0.7270 -3.1994
  934MPD2     N13721   1.932   2.886   1.185 -0.5475 -0.3661  0.1633
  934MPD2    H513722   1.877   2.954   1.133  1.2950  0.8664 -0.1694
  934MPD2    N113723   2.121   2.774   1.610 -0.9360 -0.4928  0.1470
  934MPD2    H713724   2.098   2.679   1.583  2.2355 -0.7333 -1.6837
  935MPD2     C13725   2.058   2.072   0.972  0.2182 -0.0557 -0.1590
  935MPD2    C113726   2.009   2.101   0.842 -0.2505 -0.1054 -0.0710
  935MPD2    C213727   1.939   2.221   0.820  0.1592  0.3190 -0.4629
  935MPD2    C313728   1.934   2.311   0.928 -0.7938  0.6878 -0.0969
  935MPD2    C413729   1.987   2.283   1.054  0.8858 -0.0293 -0.4995
  935MPD2    C513730   2.052   2.162   1.072  0.0243 -0.6915 -0.1313
  935MPD2     H13731   1.885   2.241   0.728  0.7483 -0.1231 -0.9094
  935MPD2    H113732   1.990   2.353   1.137  2.7955 -1.0519  0.3195
  935MPD2    H213733   2.091   1.970   0.988  0.7735 -0.0234 -1.0530
  935MPD2    H313734   2.098   2.136   1.166  0.0689 -0.2979 -0.0437
  935MPD2     N13735   1.876   2.436   0.919  0.4355  0.7835  0.5984
  935MPD2    H513736   1.866   2.496   1.000  1.9650  1.1559  0.5091
  935MPD2    N113737   2.019   2.006   0.738  0.0583 -0.1801  0.2203
  935MPD2    H713738   1.966   2.022   0.653 -1.6598 -0.7158  1.1850
  936MPD2     C13739   0.713   4.509  12.459 -0.2819 -0.0085 -0.5050
  936MPD2    C113740   0.658   4.612  12.530  0.1855 -0.4724  0.3631
  936MPD2    C213741   0.632   4.726  12.467 -0.3068  0.3521  0.5733
  936MPD2    C313742   0.651   0.004  12.333  0.5790 -0.2404 -0.4690
  936MPD2    C413743   0.703   4.644  12.258 -0.2590 -0.4519  0.0861
  936MPD2    C513744   0.725   4.522  12.323  0.1084 -0.6105 -0.2933
  936MPD2     H13745   0.596   0.072  12.523  2.2712  0.9339  1.3407
  936MPD2    H113746   0.727   4.647  12.153 -1.1889 -1.3091 -0.1506
  936MPD2    H213747   0.729   4.407  12.494  0.1817  0.1953 -0.1335
  936MPD2    H313748   0.755   4.444  12.254 -3.1954 -0.9944 -1.2895
  936MPD2     N13749   0.616   0.131  12.290 -0.3827 -0.4866  0.2281
  936MPD2    H513750   0.566   0.194  12.351  2.0399 -0.0032  1.7172
  936MPD2    N113751   0.629   4.605  12.668  0.2943 -0.1582  0.1046
  936MPD2    H713752   0.591   4.688  12.712  0.5837 -0.8219  1.5969
  937MPD2     C13753   3.149   1.373  11.598  0.0479  1.1222 -0.1943
  937MPD2    C113754   3.102   1.510  11.593 -0.6116 -0.9860  0.5215
  937MPD2    C213755   3.156   1.586  11.489 -0.0915  0.5387  0.2639
  937MPD2    C313756   3.233   1.538  11.385 -0.3698  0.3791 -0.1008
  937MPD2    C413757   3.267   1.406  11.388 -0.3769  0.7633 -0.1656
  937MPD2    C513758   3.220   1.324  11.485  0.2816 -0.1437 -0.0843
  937MPD2     H13759   3.135   1.693  11.484  0.1955  0.3245 -5.4501
  937MPD2    H113760   3.344   1.370  11.321 -1.3651  0.4088 -1.0979
  937MPD2    H213761   3.141   1.302  11.679 -0.3574  2.9401  1.3679
  937MPD2    H313762   3.260   1.224  11.496 -2.1764 -1.2180 -0.8714
  937MPD2     N13763   3.294   1.627  11.293  0.1955 -0.3871  0.4131
  937MPD2    H513764   3.286   1.723  11.324  3.1718 -0.2574  0.6888
  937MPD2    N113765   3.042   1.583  11.702 -0.1371 -0.0053  0.0551
  937MPD2    H713766   3.005   1.676  11.686 -2.5730 -0.9886 -0.1543
  938MPD2     C13767   1.262   1.986   0.229 -0.0255 -0.0131 -0.1941
  938MPD2    C113768   1.153   2.039   0.301 -0.7470 -0.1360 -0.1259
  938MPD2    C213769   1.043   1.960   0.344 -0.8955 -0.4668  0.5290
  938MPD2    C313770   1.068   1.819   0.345 -0.1352  0.0837 -0.1476
  938MPD2    C413771   1.190   1.771   0.307 -0.1117 -0.3399  0.3502
  938MPD2    C513772   1.282   1.847   0.241  0.1138 -0.1297 -0.2545
  938MPD2     H13773   0.950   2.008   0.371 -1.5580 -0.2603 -2.1212
  938MPD2    H113774   1.199   1.663   0.307 -0.1786 -0.3519  2.1324
  938MPD2    H213775   1.330   2.038   0.162 -1.3072  2.3393  0.3505
  938MPD2    H313776   1.361   1.806   0.178 -0.4788 -0.1805 -0.9631
  938MPD2     N13777   0.975   1.740   0.415  0.0972 -0.5332  0.5350
  938MPD2    H513778   1.016   1.651   0.442  0.1264 -0.5857  0.3234
  938MPD2    N113779   1.127   2.176   0.311  0.3715 -0.1397  0.4561
  938MPD2    H713780   1.040   2.194   0.360  0.3581 -0.3509  0.5070
  939MPD2     C13781   2.045   3.144   0.258  0.2113 -0.0969 -0.3798
  939MPD2    C113782   2.122   3.219   0.345 -0.1271  0.3044 -0.1185
  939MPD2    C213783   2.258   3.213   0.327  0.6873 -0.3955 -0.7251
  939MPD2    C313784   2.319   3.127   0.246  0.3630 -0.4877 -0.1880
  939MPD2    C413785   2.239   3.031   0.175 -0.2041 -0.3130 -0.2427
  939MPD2    C513786   2.107   3.057   0.171 -0.4760 -0.4089  0.1862
  939MPD2     H13787   2.329   3.280   0.375  0.6301 -1.5065  0.9389
  939MPD2    H113788   2.279   2.962   0.101 -1.4389 -1.4082  0.0976
  939MPD2    H213789   1.938   3.156   0.245 -0.0215 -0.8789  0.8291
  939MPD2    H313790   2.045   3.001   0.101 -1.1216  0.0081  0.4199
  939MPD2     N13791   2.460   3.144   0.227  0.6120  0.1296 -0.0291
  939MPD2    H513792   2.512   3.207   0.287 -1.0362  0.3913  1.1167
  939MPD2    N113793   2.054   3.308   0.433  0.4398 -0.4691 -0.3764
  939MPD2    H713794   1.957   3.326   0.410  0.9774  1.0353 -1.4804
  940MPD2     C13795   1.383   4.254  13.475 -0.5098  0.4897 -0.4236
  940MPD2    C113796   1.512   4.228  13.459  0.4137  0.0198  0.1546
  940MPD2    C213797   1.550   4.159  13.350 -0.9917 -0.7786 -0.2143
  940MPD2    C313798   1.468   4.133  13.245  0.2429  0.1470 -0.3679
  940MPD2    C413799   1.333   4.163  13.258  0.4356 -0.3934  0.2460
  940MPD2    C513800   1.293   4.218  13.375  0.1610 -0.3725  0.3015
  940MPD2     H13801   1.653   4.130  13.335 -0.6699 -0.8404  2.0452
  940MPD2    H113802   1.254   4.156  13.184  1.5026 -2.5414 -0.6812
  940MPD2    H213803   1.347   4.311  13.560 -0.4294 -1.2615  0.8077
  940MPD2    H313804   1.188   4.239  13.393 -0.2268  0.3742 -2.8507
  940MPD2     N13805   1.518   4.091  13.122 -0.4147  0.7454  0.0370
  940MPD2    H513806   1.457   4.068  13.044 -0.4211  1.3891 -0.1526
  940MPD2    N113807   1.610   4.274  13.551 -0.2928 -0.5079 -0.5570
  940MPD2    H713808   1.702   4.235  13.539  1.6785  2.9622  3.3007
  941MPD2     C13809   0.513   3.899   9.557  0.2294  0.5148  0.3339
  941MPD2    C113810   0.602   3.868   9.661 -0.6059  0.0036 -0.6135
  941MPD2    C213811   0.553   3.778   9.763  0.7107  0.0369 -0.3474
  941MPD2    C313812   0.428   3.713   9.749  0.7571  0.0099 -0.3551
  941MPD2    C413813   0.338   3.758   9.648  0.8026 -0.2007  0.3390
  941MPD2    C513814   0.383   3.850   9.562 -0.6443  0.3116  1.0968
  941MPD2     H13815   0.615   3.748   9.846  2.2998 -1.2053 -1.9798
  941MPD2    H113816   0.239   3.714   9.651  1.1587 -0.8716  2.7273
  941MPD2    H213817   0.545   3.963   9.476 -1.6725  1.5792  0.4261
  941MPD2    H313818   0.321   3.880   9.478  1.7894 -2.3174 -1.6614
  941MPD2     N13819   0.378   3.622   9.839 -1.4469 -0.2029 -0.4225
  941MPD2    H513820   0.281   3.595   9.829 -2.1165  2.6902 -1.4719
  941MPD2    N113821   0.727   3.924   9.683  0.4206  0.1543 -0.2999
  941MPD2    H713822   0.776   3.900   9.769  1.8758  0.4468 -1.0388
  942MPD2     C13823   4.351   1.272   9.444  0.2137 -0.1679  0.9633
  942MPD2    C113824   4.412   1.248   9.558  0.8102 -0.5845  0.4455
  942MPD2    C213825   4.534   1.185   9.556  0.0043  0.2750 -0.0322
  942MPD2    C313826   4.590   1.131   9.436  0.4190 -0.3007 -0.5387
  942MPD2    C413827   4.515   1.151   9.321  0.2080 -0.3615  0.3492
  942MPD2    C513828   4.408   1.240   9.319 -0.5350  0.4191 -0.0041
  942MPD2     H13829   4.586   1.171   9.650 -2.4770 -2.4875  0.9225
  942MPD2    H113830   4.543   1.110   9.224  3.1416 -0.0488  1.0687
  942MPD2    H213831   4.257   1.326   9.429  0.7187  0.0605 -1.3816
  942MPD2    H313832   4.360   1.261   9.224 -2.8849  0.2975  1.1366
  942MPD2     N13833   4.714   1.058   9.430  0.0177 -0.6633  0.1162
  942MPD2    H513834   0.008   1.016   9.344  1.7328  0.2591  0.3538
  942MPD2    N113835   4.358   1.287   9.683  0.0127  0.3918 -0.0762
  942MPD2    H713836   4.403   1.253   9.768 -1.7122  1.5346  1.2887
  943MPD2     C13837   3.728   3.470   9.528  0.5499 -0.1613  0.2401
  943MPD2    C113838   3.701   3.368   9.617  0.3421  0.7302  0.0926
  943MPD2    C213839   3.796   3.335   9.716 -0.7011 -0.0798  0.9796
  943MPD2    C313840   3.914   3.402   9.725  0.0849  0.6133  0.2557
  943MPD2    C413841   3.932   3.512   9.645  0.3144 -0.1065  0.0134
  943MPD2    C513842   3.836   3.546   9.554 -0.2196  0.1049  0.3360
  943MPD2     H13843   3.782   3.250   9.782  0.4956  0.6545  2.1634
  943MPD2    H113844   4.018   3.578   9.646  1.5683 -1.7151 -0.5447
  943MPD2    H213845   3.659   3.496   9.449 -0.1035 -2.8067 -0.0408
  943MPD2    H313846   3.845   3.636   9.495  1.8931 -1.5013 -1.7824
  943MPD2     N13847   4.011   3.370   9.830  0.0799  0.8030 -0.1271
  943MPD2    H513848   4.097   3.422   9.820 -1.2173  2.9329 -0.1142
  943MPD2    N113849   3.576   3.299   9.594  0.4058 -0.0109 -0.0263
  943MPD2    H713850   3.518   3.337   9.520  2.5135  0.2013 -1.5364
  944MPD2     C13851   4.108   2.390  11.263 -0.2638  0.3831 -1.0962
  944MPD2    C113852   4.095   2.528  11.280 -0.4296  0.2874 -0.1144
  944MPD2    C213853   3.964   2.566  11.310  0.3949 -0.5137 -0.0479
  944MPD2    C313854   3.854   2.481  11.300  0.2231 -0.0040  0.3902
  944MPD2    C413855   3.867   2.353  11.258  0.6220  1.1300 -0.0417
  944MPD2    C513856   3.996   2.309  11.248  0.1437  0.0767 -0.7521
  944MPD2     H13857   3.944   2.669  11.333 -1.1010 -0.4040 -1.8705
  944MPD2    H113858   3.790   2.278  11.240  0.1004  0.8693  3.1251
  944MPD2    H213859   4.204   2.344  11.241  1.2763  2.1994  1.7811
  944MPD2    H313860   4.002   2.205  11.218  0.8216  0.6036 -2.4604
  944MPD2     N13861   3.719   2.516  11.332  0.0967 -0.0385 -0.0665
  944MPD2    H513862   3.643   2.451  11.313 -0.0660  0.0355  0.3428
  944MPD2    N113863   4.209   2.610  11.263 -0.0845  0.0498 -0.2637
  944MPD2    H713864   4.298   2.569  11.234 -0.3166 -0.4495 -0.2560
    1TMC1    C113865   2.514   3.624  14.842 -0.0795  0.2879  0.2957
    1TMC1    C213866   2.443   3.554  14.745 -0.1847  0.2630  0.0712
    1TMC1    C313867   2.351   3.456  14.786 -0.4043 -0.3071 -0.1336
    1TMC1    C413868   2.496   3.593  14.970 -0.1534  0.0259 -1.3044
    1TMC1    C513869   2.420   3.478  15.005  0.4092  0.3194 -0.4450
    1TMC1    C613870   2.343   3.416  14.918 -0.0723 -0.2547 -0.2448
    1TMC1     C13871   2.580   3.750  14.807  0.0514  0.2895 -0.0712
    1TMC1     O13872   2.675   3.784  14.876 -0.2248 -0.1946  0.5480
    1TMC1     H13873   2.459   3.559  14.638  0.1541 -2.0242  0.0086
    1TMC1    H113874   2.554   3.638  15.050  1.6449 -3.0352 -0.8968
    1TMC1    H213875   2.282   3.329  14.939  0.6135 -0.1926  2.0184
    1TMC1    C713876   2.401   3.424  15.139 -0.1377 -0.6962 -0.1197
    1TMC1    C813877   2.274   3.374  14.699  0.7807  0.0549  1.3245
    1TMC1    O113878   2.349   3.315  15.164  0.2915  0.0896 -0.1697
    1TMC1    O213879   2.193   3.296  14.743 -0.2276  0.6236  0.4560
    1TMC1    O313880   2.401   3.524  15.234  0.0391 -0.0788  0.0464
    1TMC1    H313881   2.404   3.615  15.197  2.6728 -0.2000 -0.0340
    1TMC1    O513882   2.337   3.354  14.583  0.1403  0.5963 -0.2742
    1TMC1    H513883   2.414   3.409  14.558  0.7815 -0.1139  0.1427
    2MPD2     C13884   2.580   4.192  14.553  0.3465 -0.1838 -0.1071
    2MPD2    C113885   2.491   4.107  14.483 -0.5362  0.5285 -0.1021
    2MPD2    C213886   2.478   3.986  14.542 -0.7837 -0.6796  0.6547
    2MPD2    C313887   2.542   3.940  14.660  0.0322  0.6285  0.1111
    2MPD2    C413888   2.627   4.032  14.717 -0.3590  0.6422  0.2204
    2MPD2    C513889   2.638   4.158  14.667  0.5401 -0.0613  0.0733
    2MPD2     H13890   2.414   3.916  14.489 -0.6995 -1.3271  1.4004
    2MPD2    H113891   2.670   4.004  14.812 -0.5877 -1.5701 -0.3119
    2MPD2    H213892   2.574   4.297  14.524 -0.3674  0.1613  1.2684
    2MPD2    H313893   2.701   4.230  14.720 -0.5318  0.3834  0.7521
    2MPD2     N13894   2.519   3.809  14.702  0.7671  0.0840  0.4840
    2MPD2    H513895   2.453   3.753  14.649  0.8173  1.2763 -0.8489
    2MPD2    N113896   2.417   4.150  14.371 -1.0956 -0.1155 -0.3815
    2MPD2    H713897   2.432   4.246  14.343  0.0317 -0.2632 -0.2968
    3TMC2    C113898   2.286   4.144  14.182 -0.4107 -0.3597 -0.2993
    3TMC2    C213899   2.316   4.284  14.184 -0.6541 -0.6117  0.7254
    3TMC2    C313900   2.301   4.353  14.064  0.1749  0.5952  0.4532
    3TMC2    C413901   2.288   4.080  14.060  0.2026 -0.6888  0.5167
    3TMC2    C513902   2.279   4.158  13.945  0.0915  0.0642  0.0946
    3TMC2    C613903   2.281   4.293  13.947  0.0582  0.1260 -0.0664
    3TMC2     C13904   2.340   4.071  14.293 -0.6310 -0.0551  0.3945
    3TMC2     O13905   2.322   3.952  14.293  0.4380  0.3284  0.8867
    3TMC2     H13906   2.296   4.340  14.275  0.2444  1.8165 -0.5931
    3TMC2    H113907   2.281   3.973  14.049  0.6941 -0.6469 -0.1816
    3TMC2    H213908   2.263   4.356  13.860 -0.8856 -1.2657 -0.8890
    3TMC2    C713909   2.244   4.090  13.826 -0.3499  0.6231 -0.0234
    3TMC2    C813910   2.260   4.487  14.076  1.3164 -0.7274  1.1581
    3TMC2    O113911   2.262   3.967  13.819  0.4148 -0.1413 -0.5794
    3TMC2    O213912   2.195   4.536  13.983 -0.4038 -0.1154  0.1612
    3TMC2    O513913   2.332   4.557  14.167  0.8550 -0.3809 -0.2084
    3TMC2    H513914   2.400   4.498  14.206  0.4802 -1.9712 -1.9572
    4TMC2    C113915   1.667   4.711  13.351 -0.4389 -0.1893 -0.1733
    4TMC2    C213916   1.588   4.662  13.254 -1.2010  0.2560  0.5101
    4TMC2    C313917   1.606   4.540  13.202  0.6066 -0.1478 -0.0518
    4TMC2    C413918   1.777   4.640  13.393  0.7266 -0.4290  0.0947
    4TMC2    C513919   1.795   4.515  13.330 -0.0480 -0.5137  0.0315
    4TMC2    C613920   1.713   4.462  13.236 -0.5771 -0.1812 -0.1947
    4TMC2     C13921   1.614   0.061  13.444  0.3490  0.8103 -0.0300
    4TMC2     O13922   1.682   0.081  13.544 -0.3078 -0.5726 -0.2484
    4TMC2     H13923   1.504   4.720  13.215 -0.7964 -0.3514 -1.2816
    4TMC2    H113924   1.844   4.673  13.472 -1.0900  1.9426  0.6452
    4TMC2    H213925   1.728   4.365  13.191  0.0694  1.3770 -3.3597
    4TMC2    C713926   1.898   4.438  13.394 -0.6736 -0.5290 -0.2331
    4TMC2    C813927   1.491   4.481  13.147 -0.0973  0.5100 -0.1894
    4TMC2    O113928   1.947   4.495  13.492  0.7426  0.0549  0.4805
    4TMC2    O213929   1.373   4.510  13.174 -0.1071  0.8788 -0.7696
    4TMC2    O513930   1.527   4.398  13.041 -0.2128  0.0330  0.6853
    4TMC2    H513931   1.618   4.420  13.011 -0.3409  0.1154  0.3614
    5MPD2     C13932   1.218   0.336  13.648 -0.6855  0.1737  0.7001
    5MPD2    C113933   1.182   0.295  13.521  0.2362 -0.3233 -0.5756
    5MPD2    C213934   1.277   0.227  13.450  0.6307  0.4862  0.2205
    5MPD2    C313935   1.405   0.190  13.494 -0.2539  0.4306 -0.0944
    5MPD2    C413936   1.440   0.238  13.622 -0.3107  0.0780 -0.3383
    5MPD2    C513937   1.344   0.309  13.696 -0.4171  0.4749  0.4198
    5MPD2     H13938   1.256   0.202  13.347  0.0616 -0.2265  0.5101
    5MPD2    H113939   1.539   0.213  13.660 -1.0629 -3.2398 -0.6057
    5MPD2    H213940   1.147   0.391  13.709 -1.5173 -0.9630  0.7535
    5MPD2    H313941   1.374   0.330  13.799 -0.6617  2.5387  0.0596
    5MPD2     N13942   1.488   0.105  13.413  0.6083  0.3712 -0.4162
    5MPD2    H513943   1.452   0.086  13.320  0.1890 -0.2370 -0.1283
    5MPD2    N113944   1.055   0.332  13.468 -0.4182  0.4420 -0.8266
    5MPD2    H713945   0.988   0.382  13.526  0.7946  1.9469 -0.7392
    6MPD1     C13946   1.021   2.160  13.381 -1.0934  0.2681  0.2319
    6MPD1    C113947   0.979   2.075  13.482 -0.0692 -0.6303 -0.4945
    6MPD1    C213948   0.918   1.958  13.449 -1.1074  0.8946 -0.2396
    6MPD1    C313949   0.888   1.926  13.316  0.0057  0.4416 -0.3348
    6MPD1    C413950   0.931   2.012  13.218 -0.2422  0.2909 -0.2716
    6MPD1    C513951   0.998   2.125  13.253 -0.1802 -0.3822 -0.0984
    6MPD1     H13952   0.898   1.900  13.539  0.7723 -1.3664 -1.2876
    6MPD1    H113953   0.918   1.985  13.114 -0.6215  0.8022 -0.3611
    6MPD1    H213954   1.070   2.254  13.403 -1.7661  1.4370 -3.1564
    6MPD1    H313955   1.037   2.191  13.177 -1.3504 -2.5828 -2.6104
    6MPD1     N13956   0.834   1.803  13.272  0.0272 -0.5326 -0.3788
    6MPD1    H513957   0.816   1.803  13.172 -3.3952  1.0764  0.2281
    6MPD1    N113958   1.027   2.101  13.617 -0.6041 -0.0998 -0.2369
    6MPD1    H613959   1.018   2.202  13.627  2.0959 -0.0123  1.0879
    6MPD1    H713960   0.955   2.060  13.676  0.5340 -1.5804  0.0979
    7MPD2     C13961   0.598   1.096  13.650 -0.1702 -0.1242 -0.4037
    7MPD2    C113962   0.644   1.087  13.524  0.2446  0.2280 -0.1210
    7MPD2    C213963   0.702   0.969  13.483  0.3316  0.5319  0.0772
    7MPD2    C313964   0.693   0.857  13.563 -0.5683 -0.4034  0.1302
    7MPD2    C413965   0.632   0.867  13.684  0.0744  0.2741  0.3420
    7MPD2    C513966   0.591   0.988  13.731  0.2120  0.3452 -0.4648
    7MPD2     H13967   0.736   0.961  13.380 -1.8920 -1.2091 -0.5111
    7MPD2    H113968   0.611   0.783  13.749  0.1780 -0.0125  0.0047
    7MPD2    H213969   0.558   1.191  13.684 -1.8307 -1.7922  2.3330
    7MPD2    H313970   0.548   0.996  13.830  0.3863  2.6246 -0.5732
    7MPD2     N13971   0.704   0.735  13.485 -0.4770  0.1011  0.4906
    7MPD2    H513972   0.731   0.753  13.389 -0.4637  0.6085  0.5862
    7MPD2    N113973   0.648   1.193  13.434 -0.1622 -0.3778  0.3408
    7MPD2    H713974   0.718   1.185  13.361 -0.5098  3.8034 -0.4285
    8TMC3    C113975   0.707   0.509  13.429  0.4359 -0.4789  0.0358
    8TMC3    C213976   0.818   0.434  13.451  0.5308 -0.0687 -0.1493
    8TMC3    C313977   0.888   0.408  13.336  0.2434 -0.1736 -0.1376
    8TMC3    C413978   0.668   0.568  13.309  0.0695  0.4029 -0.4796
    8TMC3    C513979   0.759   0.562  13.209  0.1501  0.0508 -0.2973
    8TMC3    C613980   0.865   0.479  13.224 -0.2788 -0.0210  0.9253
    8TMC3     C13981   0.697   0.606  13.537  0.0461 -0.1287  0.3867
    8TMC3     O13982   0.700   0.577  13.655  0.0286 -0.7863  0.0412
    8TMC3     H13983   0.855   0.424  13.553 -1.3885  0.5198  0.6082
    8TMC3    H113984   0.578   0.626  13.295 -0.6127 -0.5043  0.1095
    8TMC3    H213985   0.931   0.477  13.139 -2.7082 -0.4515 -0.9342
    8TMC3    C713986   0.770   0.695  13.142  0.0551  0.4214  0.7745
    8TMC3    C813987   1.016   0.333  13.333 -0.9351  0.2871  0.0585
    8TMC3    O113988   0.687   0.777  13.185 -0.2542  0.0865  0.2394
    8TMC3    O213989   1.078   0.295  13.234 -0.1889 -0.0939 -0.3197
    9TMC3    C113990   0.720   1.598  13.296 -0.1084 -0.7142  0.3322
    9TMC3    C213991   0.776   1.549  13.183 -0.0615  0.0596 -0.2679
    9TMC3    C313992   0.747   1.417  13.149  0.4145 -0.0572  0.1784
    9TMC3    C413993   0.636   1.531  13.375 -0.1762  0.5079 -0.0422
    9TMC3    C513994   0.618   1.399  13.336  0.0853 -0.1606 -0.2437
    9TMC3    C613995   0.667   1.338  13.231  0.2293  0.7484 -0.5550
    9TMC3     C13996   0.761   1.723  13.352 -0.3769  0.1820 -0.4594
    9TMC3     O13997   0.745   1.728  13.471 -0.1544 -0.2998  0.1493
    9TMC3     H13998   0.836   1.607  13.114 -1.9524  1.8730 -0.3735
    9TMC3    H113999   0.590   1.567  13.466 -0.9662  2.0169 -1.0287
    9TMC3    H214000   0.614   1.250  13.197  2.9677  0.0560 -3.0521
    9TMC3    C714001   0.572   1.309  13.440 -0.0020  0.0194  0.0583
    9TMC3    C814002   0.825   1.337  13.055  0.0712  0.0031  0.5165
    9TMC3    O114003   0.464   1.327  13.496  0.6305 -0.1106  0.5834
    9TMC3    O214004   0.900   1.396  12.974 -0.3954 -0.3462  0.3643
   10MPD2     C14005   1.041   0.881  12.955  0.2091 -0.4355 -0.6799
   10MPD2    C114006   0.932   0.855  13.037  0.3752  0.7177 -0.2944
   10MPD2    C214007   0.864   0.968  13.075 -0.4484 -0.0374  0.8684
   10MPD2    C314008   0.895   1.094  13.030 -0.4892  0.7335  0.8531
   10MPD2    C414009   1.002   1.112  12.945  0.7115  0.4004 -0.2822
   10MPD2    C514010   1.071   1.003  12.902 -0.6579 -0.1412 -0.5134
   10MPD2     H14011   0.787   0.964  13.152 -1.8453 -0.0354 -0.5337
   10MPD2    H114012   1.027   1.208  12.901 -0.9352  0.8329 -0.2555
   10MPD2    H214013   1.098   0.797  12.918  0.8366 -0.3317  0.0390
   10MPD2    H314014   1.145   1.025  12.826  0.6220 -1.0721  0.4687
   10MPD2     N14015   0.802   1.198  13.075 -0.6422 -0.1087  0.2542
   10MPD2    H514016   0.721   1.160  13.122 -0.3852 -0.8158  0.1374
   10MPD2    N114017   0.887   0.725  13.071 -0.4700  0.1366 -0.1489
   10MPD2    H714018   0.944   0.644  13.052  0.6297  0.5820  1.2522
   11MPD2     C14019   2.126   4.007  13.563  0.3105  0.1282  0.1057
   11MPD2    C114020   2.122   4.133  13.617  0.4207 -0.0330 -0.2856
   11MPD2    C214021   2.065   4.233  13.542 -0.0239  0.1490  0.1628
   11MPD2    C314022   1.993   4.210  13.425 -0.5640 -0.0078 -0.4436
   11MPD2    C414023   2.001   4.086  13.377 -0.4566  0.6335  0.5598
   11MPD2    C514024   2.069   3.988  13.445 -0.1215 -0.2313  0.1818
   11MPD2     H14025   2.065   4.332  13.586  2.3077 -0.7313  2.1316
   11MPD2    H114026   1.948   4.059  13.286 -1.0413  0.2122  1.0220
   11MPD2    H214027   2.151   3.914  13.612 -4.3364 -0.5399  1.1804
   11MPD2    H314028   2.071   3.888  13.403  0.7741 -0.7108  1.3724
   11MPD2     N14029   1.921   4.308  13.354 -0.3310  0.3434 -0.2711
   11MPD2    H514030   1.872   4.278  13.271 -2.1493 -0.6399  1.1441
   11MPD2    N114031   2.185   4.166  13.738 -0.0522 -0.4168  0.4909
   11MPD2    H714032   2.179   4.265  13.762  0.6869 -0.4170  0.6716
    1MPD1     C14033   4.209   1.451  16.692  0.5801  0.1856 -0.0943
    1MPD1    C114034   4.281   1.483  16.572 -0.2209  0.3067  0.4038
    1MPD1    C214035   4.394   1.404  16.544  0.3706  0.8369 -0.0907
    1MPD1    C314036   4.449   1.323  16.643 -1.0011 -0.4722  0.6944
    1MPD1    C414037   4.388   1.295  16.761 -0.1457 -0.6671 -0.0969
    1MPD1    C514038   4.269   1.354  16.782  0.2306  0.6704 -0.2503
    1MPD1     H14039   4.437   1.423  16.447  0.5054 -0.6642 -0.3142
    1MPD1    H114040   4.431   1.224  16.830  0.8407  0.0887  0.0676
    1MPD1    H214041   4.108   1.488  16.708 -0.0361 -1.4362 -0.2983
    1MPD1    H314042   4.218   1.326  16.873  1.7851  1.1218  0.7516
    1MPD1     N14043   4.564   1.239  16.611  0.0727 -0.1744 -0.8931
    1MPD1    H514044   4.578   1.167  16.681  0.1586  0.2551 -0.4755
    1MPD1    N114045   4.226   1.571  16.477 -0.1839  0.1833 -0.2879
    1MPD1    H614046   4.303   1.619  16.431 -2.4297  2.4363 -1.7382
    1MPD1    H714047   4.168   1.645  16.515 -0.0265  0.1787 -0.0447
    2MPD1     C14048   0.283   0.505  17.066  0.4930  0.7223 -0.0292
    2MPD1    C114049   0.385   0.532  16.977 -0.0115 -0.5132  0.0994
    2MPD1    C214050   0.355   0.617  16.872 -0.8562 -0.3674 -0.0048
    2MPD1    C314051   0.231   0.683  16.865  0.1007  1.0272 -0.1817
    2MPD1    C414052   0.135   0.647  16.955 -0.0394  0.0339  0.0831
    2MPD1    C514053   0.159   0.551  17.049 -0.1014 -1.0293  0.0693
    2MPD1     H14054   0.429   0.632  16.794 -1.1530  3.4845  0.4653
    2MPD1    H114055   0.029   0.673  16.949 -0.1919 -1.5503 -4.0391
    2MPD1    H214056   0.293   0.440  17.152  0.8188 -0.1489 -0.7237
    2MPD1    H314057   0.085   0.529  17.125 -0.8699  1.6101  0.0970
    2MPD1     N14058   0.212   0.778  16.758 -0.0390 -0.1174  0.3666
    2MPD1    H514059   0.292   0.800  16.699 -1.2438  3.0956 -0.0944
    2MPD1    N114060   0.519   0.498  17.008  0.5661 -0.4174 -0.1510
    2MPD1    H614061   0.520   0.419  17.072 -1.9525  0.0331  0.4322
    2MPD1    H714062   0.572   0.469  16.926  1.2228 -2.2860  0.9439
    3TMC3    C114063   0.112   0.973  16.655 -0.8037 -0.8222  0.0997
    3TMC3    C214064   0.236   1.025  16.644 -0.1317 -0.6646 -0.3760
    3TMC3    C314065   0.254   1.145  16.576 -0.1207  0.3487 -0.2351
    3TMC3    C414066   0.004   1.044  16.612  0.2507 -0.0505  0.0618
    3TMC3    C514067   0.023   1.159  16.540  0.2353 -0.0558 -0.4203
    3TMC3    C614068   0.147   1.208  16.515 -0.2595 -0.5397  0.2673
    3TMC3     C14069   0.098   0.857  16.742  0.3591 -0.4548 -0.1097
    3TMC3     O14070   4.722   0.834  16.782  0.1728  0.3177 -0.6097
    3TMC3     H14071   0.324   0.981  16.690 -1.1767  0.0923  2.3006
    3TMC3    H114072   4.645   1.002  16.627 -0.8409  2.8473  0.9903
    3TMC3    H214073   0.154   1.307  16.472  2.6891 -1.2681 -0.9950
    3TMC3    C714074   4.655   1.251  16.516 -0.2530 -0.3544 -0.0374
    3TMC3    C814075   0.379   1.218  16.556  0.4606  0.3294  0.9724
    3TMC3    O114076   4.675   1.331  16.423  0.4560 -0.0836 -0.4340
    3TMC3    O214077   0.369   1.325  16.497  0.2604 -0.3758 -0.4563
    4MPD1     C14078   0.895   1.270  16.536  0.1928 -0.0650 -0.2100
    4MPD1    C114079   0.858   1.137  16.552 -0.3554 -0.3355  0.2618
    4MPD1    C214080   0.728   1.114  16.594  0.4557  0.2696  0.9721
    4MPD1    C314081   0.625   1.204  16.571  0.7474 -0.4597  0.4382
    4MPD1    C414082   0.656   1.332  16.531 -0.1371 -0.3480 -0.5326
    4MPD1    C514083   0.791   1.361  16.520 -0.2267 -0.0147 -0.9765
    4MPD1     H14084   0.700   1.017  16.632 -0.4284 -0.0454 -0.4801
    4MPD1    H114085   0.590   1.413  16.504  0.1036 -0.2993 -0.9777
    4MPD1    H214086   0.994   1.310  16.518 -0.0445  0.1238 -1.1027
    4MPD1    H314087   0.813   1.466  16.509  0.7768  0.1251  2.3943
    4MPD1     N14088   0.493   1.153  16.592 -0.3043  0.0958 -0.1752
    4MPD1    H514089   0.494   1.053  16.612  0.7446  0.4589  1.5927
    4MPD1    N114090   0.960   1.045  16.581  0.3246 -0.1873  0.4002
    4MPD1    H614091   1.039   1.050  16.518 -0.0359 -0.5682 -0.0915
    4MPD1    H714092   0.927   0.949  16.575 -1.8863  0.4112  2.7215
    1TCq1    O114093   1.221   0.896  11.940 -0.0566  0.3517  0.3803
    1TCq1    C114094   1.111   0.818  11.963  0.2389 -0.1606 -0.5494
    1TCq1    O214095   1.107   0.695  11.963 -0.1916 -0.0038 -0.3632
    1TCq1    C214096   1.003   0.891  11.908  1.1047 -0.0306  0.4288
    1TCq1    C314097   0.948   0.833  11.797  0.2414  0.2423 -0.2143
    1TCq1    C414098   0.869   0.910  11.715  0.3238 -0.8168  0.5079
    1TCq1    C514099   0.832   1.030  11.760  0.2888 -0.2601 -0.3969
    1TCq1    C614100   0.881   1.083  11.875  0.0516  0.1975  0.4256
    1TCq1    C714101   0.969   1.012  11.952 -0.7567 -0.4604 -0.6351
    1TCq1    C814102   0.824   1.200  11.933  0.1851  0.1969  0.2825
    1TCq1    O414103   0.868   1.245  12.036 -0.8830 -0.2394  0.3754
    1TCq1    C914104   0.809   0.847  11.602  0.3755 -0.2302 -0.0714
    1TCq1    O514105   0.722   0.919  11.542  0.1501 -0.5506  0.4776
    1TCq1    O614106   0.831   0.725  11.585 -0.2157  0.0728 -0.2478
    1TCq1    H114107   1.195   0.980  11.896  2.4746  0.2530 -1.3285
    1TCq1    H214108   0.981   0.735  11.762  2.0920  0.4368  0.9759
    1TCq1    H314109   0.762   1.069  11.686 -0.8854 -0.1523  0.7799
    1TCq1    H414110   1.022   1.065  12.030 -1.3897  0.0664 -0.5637
    2MPD1     C14111   0.465   1.568  11.948  0.7680  0.1179 -0.0589
    2MPD1    C114112   0.438   1.479  11.849 -0.9812  0.3456  0.1730
    2MPD1    C214113   0.533   1.381  11.820 -0.2860  0.8417 -0.0064
    2MPD1    C314114   0.639   1.358  11.898  0.2008 -0.9286  0.5544
    2MPD1    C414115   0.663   1.443  12.003 -0.2803  0.4331 -0.6479
    2MPD1    C514116   0.581   1.549  12.018 -0.0635  0.6233  0.0141
    2MPD1     H14117   0.519   1.316  11.734  0.9668  1.1212 -0.4262
    2MPD1    H114118   0.759   1.432  12.052 -1.0055 -0.4142  0.5789
    2MPD1    H214119   0.396   1.646  11.978  2.0189  1.2837 -0.2228
    2MPD1    H314120   0.595   1.622  12.098  1.6232  0.1814  0.1014
    2MPD1     N14121   0.721   1.253  11.857 -0.5085 -0.2972  0.7819
    2MPD1    H514122   0.684   1.206  11.775  0.6261 -0.8756  0.6116
    2MPD1    N114123   0.330   1.505  11.761  0.4127  0.2601  0.6056
    2MPD1    H614124   0.279   1.423  11.728 -0.3103  1.7969 -2.1677
    2MPD1    H714125   0.263   1.569  11.803  1.2941  2.5453 -1.4601
    1TMC1    C114126   1.199   2.330   1.032 -0.0207 -0.4923  0.6589
    1TMC1    C214127   1.235   2.344   0.899  0.4506 -0.2238 -0.7954
    1TMC1    C314128   1.201   2.455   0.836  0.1959 -0.7223  0.8157
    1TMC1    C414129   1.138   2.431   1.101 -0.6469 -0.1735  0.7828
    1TMC1    C514130   1.098   2.539   1.028  0.3209 -0.0764  0.4320
    1TMC1    C614131   1.121   2.551   0.894  0.4123  0.7599 -0.4950
    1TMC1     C14132   1.222   2.205   1.112 -0.0759  0.6074 -0.0591
    1TMC1     O14133   1.169   2.201   1.223  0.2054 -0.5203 -0.0133
    1TMC1     H14134   1.287   2.270   0.840  0.1840 -0.4002 -0.8055
    1TMC1    H114135   1.129   2.423   1.208 -0.8449  2.2726  0.9450
    1TMC1    H214136   1.097   2.647   0.850  1.4123  1.1973 -0.0872
    1TMC1    C714137   1.053   2.654   1.099  0.0468  0.0719 -0.1656
    1TMC1    C814138   1.241   2.455   0.691 -0.6492  0.1963 -0.2131
    1TMC1    O114139   0.986   2.745   1.055 -0.1418 -0.0846 -0.4072
    1TMC1    O214140   1.251   2.350   0.623  0.3245  0.1201  0.4727
    1TMC1    O314141   1.088   2.642   1.226 -0.4612  0.1751  0.1517
    1TMC1    H314142   1.176   2.600   1.239 -0.7426 -0.0458  1.3967
    1TMC1    O514143   1.293   2.578   0.656  0.7346 -0.1917 -0.0675
    1TMC1    H514144   1.331   2.638   0.724 -0.7614  0.7908 -0.0963
    2MPD1     C14145   1.476   1.767   1.126 -0.0617  0.3421  0.1563
    2MPD1    C114146   1.431   1.781   0.999  0.4641  0.2991 -0.8910
    2MPD1    C214147   1.366   1.898   0.966 -0.7092  0.0150 -0.5765
    2MPD1    C314148   1.330   1.979   1.067 -0.3085 -0.1257  0.5125
    2MPD1    C414149   1.360   1.950   1.201 -0.5236  0.3395  0.5659
    2MPD1    C514150   1.432   1.839   1.232  0.4274  0.6607  0.1232
    2MPD1     H14151   1.337   1.927   0.865 -1.5152 -1.2689 -0.7140
    2MPD1    H114152   1.324   2.009   1.284 -2.7649  0.3587 -0.4145
    2MPD1    H214153   1.540   1.682   1.148 -0.6302 -0.4545 -1.2766
    2MPD1    H314154   1.473   1.822   1.330  1.0649  1.4803 -0.0023
    2MPD1     N14155   1.272   2.104   1.030 -0.1658  0.0358  0.3496
    2MPD1    H514156   1.279   2.117   0.930  0.8330  0.4126  0.4725
    2MPD1    N114157   1.473   1.703   0.884  0.4301  0.1070  0.5141
    2MPD1    H614158   1.506   1.608   0.896 -1.1319 -0.4174  0.5758
    2MPD1    H714159   1.406   1.691   0.809  0.7290  1.8290 -0.0233
    1MPD1     C14160   2.014   1.053  12.235 -0.7180  0.0512 -0.1323
    1MPD1    C114161   2.136   1.031  12.171  0.5436  0.4089 -0.3644
    1MPD1    C214162   2.198   1.137  12.106  0.2235  0.2356 -0.1509
    1MPD1    C314163   2.147   1.264  12.110  0.5775 -0.2167 -0.3305
    1MPD1    C414164   2.031   1.281  12.189  0.6020 -0.2618  1.1520
    1MPD1    C514165   1.965   1.176  12.244  0.5744 -0.0831 -0.4006
    1MPD1     H14166   2.286   1.118  12.045  0.0267 -1.5422  0.1045
    1MPD1    H114167   1.982   1.378  12.190 -0.2716 -0.7138  2.8809
    1MPD1    H214168   1.956   0.972  12.277 -0.7410  0.1025 -0.0648
    1MPD1    H314169   1.872   1.200  12.295  0.3139 -0.6292 -0.6184
    1MPD1     N14170   2.202   1.359  12.022 -0.5404  0.0216  0.3114
    1MPD1    H514171   2.297   1.351  11.989 -0.4149  1.8469  0.2386
    1MPD1    N114172   2.183   0.900  12.153 -0.0969 -0.2970  0.5658
    1MPD1    H614173   2.278   0.904  12.117 -0.2548  1.4447  0.3069
    1MPD1    H714174   2.186   0.839  12.234  0.4636 -2.6427 -1.2368
    2MPD1     C14175   1.622   1.646  10.919  0.5179  0.3050  0.2740
    2MPD1    C114176   1.628   1.505  10.931  0.1026 -0.0165  0.6962
    2MPD1    C214177   1.687   1.442  10.826 -0.2514  0.3410  0.1902
    2MPD1    C314178   1.752   1.507  10.721 -0.0036 -0.0471 -0.1988
    2MPD1    C414179   1.729   1.642  10.705  0.2168  0.4132  0.4174
    2MPD1    C514180   1.660   1.706  10.799  0.6552  0.3470 -0.4459
    2MPD1     H14181   1.698   1.334  10.830 -1.1020  0.2264 -0.6164
    2MPD1    H114182   1.759   1.689  10.612 -1.6819 -0.0026 -0.4031
    2MPD1    H214183   1.587   1.709  11.000  2.0330  0.0507  1.1269
    2MPD1    H314184   1.644   1.812  10.779  4.7135  1.2476  1.0367
    2MPD1     N14185   1.819   1.445  10.619  0.0195 -0.4897  0.1720
    2MPD1    H514186   1.863   1.510  10.555  1.9658 -1.0975  0.8837
    2MPD1    N114187   1.565   1.438  11.036 -0.0386 -0.0354 -0.1899
    2MPD1    H614188   1.538   1.506  11.107 -0.2787  0.1821 -0.4832
    2MPD1    H714189   1.610   1.359  11.082  0.6385  0.4272 -0.0484
    3MPD1     C14190   1.759   0.632  10.104 -0.2896  0.2153  0.3152
    3MPD1    C114191   1.743   0.755  10.053  0.0365 -0.2446  0.1063
    3MPD1    C214192   1.793   0.856  10.131  0.9553  0.1839 -0.7016
    3MPD1    C314193   1.871   0.834  10.241 -0.2616 -0.8543  0.3599
    3MPD1    C414194   1.893   0.705  10.292  0.0617  1.1629 -0.2891
    3MPD1    C514195   1.833   0.605  10.225  0.6485 -0.0257 -0.2922
    3MPD1     H14196   1.793   0.958  10.094  0.3978 -0.0232 -1.2843
    3MPD1    H114197   1.949   0.685  10.383 -0.7113 -0.3541 -0.1357
    3MPD1    H214198   1.714   0.548  10.053  1.4256 -0.5259 -0.0107
    3MPD1    H314199   1.841   0.501  10.255 -0.3924  0.2699  1.0377
    3MPD1     N14200   1.919   0.950  10.296 -0.3052 -0.1311  0.5507
    3MPD1    H514201   1.885   1.039  10.261 -1.2187 -0.6679  0.0519
    3MPD1    N114202   1.647   0.782   9.949 -0.1566 -0.0570 -0.1358
    3MPD1    H614203   1.625   0.697   9.898 -0.6391  0.2804 -0.4780
    3MPD1    H714204   1.685   0.850   9.884  0.3321  0.0446  0.2515
    4MPD2     C14205   2.283   1.940  11.466  0.2562 -0.1979  0.3437
    4MPD2    C114206   2.384   1.865  11.519 -0.1678  0.2549  0.1551
    4MPD2    C214207   2.496   1.833  11.444 -0.0257  0.0702 -0.1877
    4MPD2    C314208   2.514   1.868  11.314  0.1666 -0.3529 -0.1699
    4MPD2    C414209   2.417   1.953  11.267  0.2521 -0.4461 -0.2675
    4MPD2    C514210   2.306   1.983  11.343 -0.1698 -0.6471 -0.7954
    4MPD2     H14211   2.575   1.773  11.489 -1.0590 -1.0272  0.1846
    4MPD2    H114212   2.420   1.989  11.165 -0.4515 -2.8881 -1.1571
    4MPD2    H214213   2.192   1.977  11.513  0.7391  1.3171  0.0664
    4MPD2    H314214   2.238   2.056  11.301 -1.2947 -1.4099 -0.2937
    4MPD2     N14215   2.611   1.809  11.237  0.1928  0.6575 -0.2942
    4MPD2    H514216   2.597   1.815  11.137  0.3696  0.9457 -0.3028
    4MPD2    N114217   2.396   1.841  11.658 -0.4505  0.2048  0.3258
    4MPD2    H714218   2.482   1.801  11.696  1.0750  3.1215 -0.0650
    5TMC3    C114219   2.319   1.791  11.875  0.2995 -0.1994  0.1045
    5TMC3    C214220   2.215   1.708  11.905  0.2984 -0.0546  0.2264
    5TMC3    C314221   2.247   1.577  11.927 -0.2226 -0.5129 -0.2807
    5TMC3    C414222   2.448   1.755  11.884  0.9577  0.0504  0.7105
    5TMC3    C514223   2.481   1.622  11.913  0.0209  0.2764 -0.7003
    5TMC3    C614224   2.381   1.535  11.929  0.1712  0.4011 -0.3125
    5TMC3     C14225   2.292   1.862  11.746 -0.4905 -0.1028  0.0886
    5TMC3     O14226   2.187   1.922  11.734  0.1076  0.7982  0.1955
    5TMC3     H14227   2.112   1.735  11.888  0.5326  0.1030 -0.9495
    5TMC3    H114228   2.526   1.829  11.871  1.9067 -1.0558  0.1617
    5TMC3    H214229   2.405   1.430  11.933  2.0515  0.9700  2.9365
    5TMC3    C714230   2.588   1.576  11.822  0.3895 -0.1684 -0.2556
    5TMC3    C814231   2.155   1.490  12.001  0.6899  0.2528  0.6381
    5TMC3    O114232   2.630   1.663  11.742  0.1800 -0.0017  0.0051
    5TMC3    O214233   2.053   1.538  12.054  0.0106  0.2087  0.2374
    6TMC3    C114234   1.925   1.270  10.479 -0.4291 -0.1082 -0.2109
    6TMC3    C214235   1.923   1.136  10.455  0.0778 -0.2036  0.2932
    6TMC3    C314236   2.044   1.068  10.442 -0.3072  0.0535 -0.1183
    6TMC3    C414237   2.051   1.328  10.497 -0.1905 -0.8011  0.6460
    6TMC3    C514238   2.164   1.248  10.497  0.0200 -0.4963  0.1350
    6TMC3    C614239   2.162   1.117  10.463  0.0408  0.0374 -0.0033
    6TMC3     C14240   1.818   1.309  10.580 -0.2678  0.3738 -0.8458
    6TMC3     O14241   1.757   1.217  10.629 -0.0463 -0.4582  0.2725
    6TMC3     H14242   1.822   1.097  10.450  0.6893 -1.4452 -2.1360
    6TMC3    H114243   2.061   1.430  10.535  0.0329 -0.4217 -0.4384
    6TMC3    H214244   2.251   1.056  10.476 -1.5470 -2.0637  1.1091
    6TMC3    C714245   2.295   1.301  10.537  0.3163  0.2725  0.5047
    6TMC3    C814246   2.030   0.944  10.379  0.0456  0.2327  0.1186
    6TMC3    O114247   2.293   1.410  10.598 -0.4971 -0.3236  0.1755
    6TMC3    O214248   2.102   0.849  10.404  0.4481 -0.9570 -0.3168
    7MPD2     C14249   2.862   1.236  11.568 -0.8318 -0.6950  0.0051
    7MPD2    C114250   2.818   1.358  11.530  0.2994  0.3472 -1.0639
    7MPD2    C214251   2.735   1.428  11.613 -0.1600 -0.6998  0.3708
    7MPD2    C314252   2.704   1.381  11.743 -0.5574 -0.4302  0.7315
    7MPD2    C414253   2.746   1.257  11.777  0.3488  0.9111  0.2821
    7MPD2    C514254   2.838   1.193  11.693  0.4250  0.4540 -0.0033
    7MPD2     H14255   2.700   1.522  11.571  0.3709 -1.6775 -2.2505
    7MPD2    H114256   2.730   1.223  11.878  0.9221 -2.1417 -0.6388
    7MPD2    H214257   2.932   1.186  11.502  1.0307  1.1006  0.6499
    7MPD2    H314258   2.873   1.095  11.725 -0.4113 -0.9844 -3.5088
    7MPD2     N14259   2.618   1.446  11.834  0.0646  0.2757 -0.1063
    7MPD2    H514260   2.588   1.388  11.911  1.8666 -1.7848 -0.9507
    7MPD2    N114261   2.835   1.413  11.405  0.0273 -0.3879  0.5464
    7MPD2    H714262   2.801   1.508  11.392 -4.1072 -1.9549  0.0861
    8TMC3    C114263   2.894   1.452  11.187 -0.0645 -0.5071  0.5264
    8TMC3    C214264   2.824   1.412  11.077  0.5848  0.1175  0.7022
    8TMC3    C314265   2.744   1.508  11.018 -0.6739 -0.6717  0.0930
    8TMC3    C414266   2.887   1.581  11.235 -0.6420  0.9033  0.5163
    8TMC3    C514267   2.791   1.663  11.178 -0.5624 -0.3274  0.4218
    8TMC3    C614268   2.717   1.628  11.071  0.4827  0.3461  0.5229
    8TMC3     C14269   2.897   1.353  11.297  0.3239 -0.3674  1.0295
    8TMC3     O14270   2.940   1.243  11.276 -0.2209 -0.1204  0.1537
    8TMC3     H14271   2.822   1.305  11.056 -2.8741  0.6478 -1.7088
    8TMC3    H114272   2.950   1.623  11.313 -0.6909  0.9851  0.5120
    8TMC3    H214273   2.632   1.684  11.035  0.8263  1.4540  1.4417
    8TMC3    C714274   2.721   1.737  11.280 -0.3069  0.0001 -1.1719
    8TMC3    C814275   2.673   1.470  10.899 -0.4830  0.1397  0.2703
    8TMC3    O114276   2.755   1.705  11.393 -0.4230 -0.3227  0.0971
    8TMC3    O214277   2.573   1.535  10.862 -0.6626 -0.3969 -0.4365
    9MPD2     C14278   2.793   1.251  10.638  0.2155 -0.1661 -0.3735
    9MPD2    C114279   2.699   1.318  10.711 -0.2724  0.7370  0.2010
    9MPD2    C214280   2.570   1.313  10.665  0.7726  0.1693 -0.5719
    9MPD2    C314281   2.531   1.241  10.551  0.7670 -0.1405 -0.0086
    9MPD2    C414282   2.626   1.165  10.484 -0.4710 -0.2071  0.3555
    9MPD2    C514283   2.759   1.183  10.517  0.0207  0.5490 -0.6584
    9MPD2     H14284   2.496   1.379  10.709  0.1517 -1.5413  0.9846
    9MPD2    H114285   2.592   1.104  10.400  0.6590 -2.2673  1.3852
    9MPD2    H214286   2.900   1.259  10.652  0.0442  2.0893 -0.3967
    9MPD2    H314287   2.830   1.120  10.466 -0.1976 -1.3192  1.3466
    9MPD2     N14288   2.401   1.224  10.503 -0.0786 -0.0048  0.5832
    9MPD2    H514289   2.395   1.163  10.423 -0.7403  0.0644  0.5857
    9MPD2    N114290   2.745   1.384  10.825 -0.0158 -0.2900 -0.0030
    9MPD2    H714291   2.838   1.361  10.859 -0.4894 -0.0316  1.4465
    1MPD1     C14292   2.940   0.526  16.851  0.2178 -0.0043 -0.2609
    1MPD1    C114293   2.998   0.406  16.824 -0.0165 -0.4583  0.0039
    1MPD1    C214294   2.928   0.310  16.752  0.2729  0.1554  0.0972
    1MPD1    C314295   2.812   0.339  16.694 -0.3027  0.9488  0.2759
    1MPD1    C414296   2.752   0.464  16.714 -0.3329 -0.2658 -0.8685
    1MPD1    C514297   2.811   0.555  16.796  0.5746 -0.2993  0.1427
    1MPD1     H14298   2.985   0.220  16.732  2.3210  1.1142  1.6235
    1MPD1    H114299   2.655   0.489  16.674 -0.4383  0.9999  0.1886
    1MPD1    H214300   2.996   0.608  16.896 -0.4099  0.9088 -1.1600
    1MPD1    H314301   2.773   0.654  16.817 -0.8197 -0.5166 -1.4034
    1MPD1     N14302   2.746   0.246  16.605  0.5931 -0.2852  0.4976
    1MPD1    H514303   2.660   0.272  16.557  0.1594  1.1166  2.0410
    1MPD1    N114304   3.122   0.364  16.885 -0.1790 -0.0925 -0.5446
    1MPD1    H614305   3.190   0.438  16.879  1.3146 -1.5595 -1.7951
    1MPD1    H714306   3.160   0.290  16.825  0.1608  0.3395 -0.8565
    2TMC2    C114307   2.689   4.729  16.237  0.1734 -0.1271  0.1800
    2TMC2    C214308   2.560   0.004  16.241 -0.7177 -0.5255 -0.0512
    2TMC2    C314309   2.501   0.055  16.353  0.7090  0.1784 -0.1753
    2TMC2    C414310   2.763   0.034  16.339  0.4143 -0.5340 -0.3788
    2TMC2    C514311   2.708   0.086  16.450 -0.8596  0.0974  0.4082
    2TMC2    C614312   2.575   0.101  16.461 -0.3498  0.1171 -0.0224
    2TMC2     C14313   2.756   4.673  16.120  0.4896 -0.1923  0.5701
    2TMC2     O14314   2.876   4.707  16.106 -0.1258 -0.1110  0.2067
    2TMC2     H14315   2.491   4.723  16.160  1.0435 -4.9217 -0.4880
    2TMC2    H114316   2.872   0.035  16.333  0.4701 -0.0755  0.7956
    2TMC2    H214317   2.537   0.141  16.555  0.8556 -0.5009  0.7278
    2TMC2    C714318   2.805   0.137  16.545 -0.2853 -0.0697  0.6380
    2TMC2    C814319   2.359   0.086  16.344 -0.1737 -0.2477  0.1240
    2TMC2    O114320   2.920   0.093  16.541 -0.9169  0.0195 -0.2169
    2TMC2    O214321   2.319   0.151  16.245 -0.5478  0.8326 -0.1079
    2TMC2    O514322   2.320   0.107  16.470  0.1077 -0.2794 -0.0962
    2TMC2    H514323   2.359   0.034  16.522 -1.4779 -0.7842  0.4063
    3MPD1     C14324   2.753   4.503  15.640  0.0049 -0.1693 -0.0357
    3MPD1    C114325   2.622   4.518  15.679  0.0837  0.5259  0.4658
    3MPD1    C214326   2.606   4.542  15.816 -0.1158  0.6903  0.1752
    3MPD1    C314327   2.708   4.580  15.901 -0.2634  0.4989 -0.7791
    3MPD1    C414328   2.837   4.557  15.860 -0.5097  0.0169 -0.5817
    3MPD1    C514329   2.855   4.522  15.731 -0.2891  0.1053  0.6824
    3MPD1     H14330   2.504   4.541  15.853 -0.7889 -0.0027 -1.7164
    3MPD1    H114331   2.921   4.598  15.915  1.4695 -3.3768 -1.1337
    3MPD1    H214332   2.776   4.474  15.538  0.2612  0.9398 -0.2921
    3MPD1    H314333   2.958   4.511  15.701 -0.1733  1.6960  0.4763
    3MPD1     N14334   2.672   4.607  16.034  0.4709  0.1709  0.0821
    3MPD1    H514335   2.573   4.609  16.060  0.7790  1.0119  1.2106
    3MPD1    N114336   2.514   4.466  15.599  0.3479 -0.1070  0.0480
    3MPD1    H614337   2.524   4.478  15.498 -4.3278  2.1701 -0.1357
    3MPD1    H714338   2.428   4.510  15.631  1.2993  1.8635 -0.0783
    1TMC1    C114339   1.565   3.582  13.751  0.1026 -0.2546 -0.4235
    1TMC1    C214340   1.675   3.557  13.827  0.3263 -0.6617 -0.0304
    1TMC1    C314341   1.748   3.439  13.813  0.3706  0.5105  0.6099
    1TMC1    C414342   1.524   3.493  13.657  0.2867 -0.3050 -0.7706
    1TMC1    C514343   1.605   3.380  13.641 -0.6533  0.2694  0.2198
    1TMC1    C614344   1.714   3.348  13.716  0.0942 -0.6696 -0.1009
    1TMC1     C14345   1.473   3.692  13.772 -0.4579 -0.1541  0.5971
    1TMC1     O14346   1.370   3.697  13.701  0.4727 -0.1393  0.3590
    1TMC1     H14347   1.716   3.637  13.888  0.5974 -1.5225  0.9209
    1TMC1    H114348   1.457   3.521  13.576  1.3278 -0.7813 -1.7865
    1TMC1    H214349   1.780   3.265  13.694 -0.7665 -0.6756 -2.6717
    1TMC1    C714350   1.602   3.322  13.509  0.0137 -0.0523  0.1625
    1TMC1    C814351   1.875   3.441  13.887 -0.3340 -0.0253  0.1596
    1TMC1    O114352   1.688   3.341  13.426  0.1650 -0.1416 -0.0166
    1TMC1    O214353   1.917   3.540  13.945 -0.3179 -0.0069  0.6200
    1TMC1    O314354   1.475   3.292  13.484 -0.1667 -0.5054 -0.0993
    1TMC1    H314355   1.419   3.271  13.562 -0.9720 -1.6951 -0.9972
    1TMC1    O514356   1.944   3.326  13.861  0.2950  0.0400  0.3466
    1TMC1    H514357   1.884   3.253  13.835  0.7918 -0.0584 -0.5305
    2MPD2     C14358   1.414   3.985  13.781  0.4611 -0.2567 -0.9035
    2MPD2    C114359   1.492   3.920  13.878 -0.4254 -0.0512  0.1253
    2MPD2    C214360   1.551   3.992  13.986 -0.0265 -0.4906 -0.0742
    2MPD2    C314361   1.540   4.129  13.994 -0.2546 -0.4256  0.6711
    2MPD2    C414362   1.466   4.196  13.902 -0.0769 -0.2527  0.0611
    2MPD2    C514363   1.405   4.124  13.801  0.2785 -0.3279  0.0238
    2MPD2     H14364   1.615   3.934  14.052 -0.3968 -0.8765 -0.0541
    2MPD2    H114365   1.459   4.304  13.905  0.9289 -0.2183  1.3751
    2MPD2    H214366   1.375   3.928  13.698  1.9175 -0.4636 -1.4488
    2MPD2    H314367   1.352   4.186  13.729 -1.4876 -1.8523  0.0166
    2MPD2     N14368   1.602   4.195  14.105  0.5870  0.2948 -1.0441
    2MPD2    H514369   1.662   4.133  14.159 -1.1673  1.7189  2.5211
    2MPD2    N114370   1.522   3.782  13.866  0.0938 -0.3424  0.0248
    2MPD2    H714371   1.580   3.751  13.943  0.3730  0.1877  0.0251
    3TCq1    O114372   1.758   4.679  14.465  0.0356 -0.6548 -0.2501
    3TCq1    C114373   1.662   4.619  14.537 -0.1039 -0.2796 -1.0331
    3TCq1    O214374   1.627   4.654  14.653 -0.2921 -0.2476  0.5095
    3TCq1    C214375   1.643   4.491  14.468  0.3539  0.4681  0.1941
    3TCq1    C314376   1.634   4.385  14.558  0.1235 -0.4654  0.1186
    3TCq1    C414377   1.610   4.265  14.503 -0.5109  0.0074 -0.2327
    3TCq1    C514378   1.591   4.244  14.369  0.4650 -0.3060 -0.6004
    3TCq1    C614379   1.610   4.349  14.281  0.1438  0.0309  0.1750
    3TCq1    C714380   1.627   4.476  14.329  0.1774 -0.1150 -0.2287
    3TCq1    C814381   1.576   4.324  14.141 -1.1454 -0.0497 -0.3480
    3TCq1    O414382   1.550   4.421  14.071  0.2937 -0.2963  0.2257
    3TCq1    C914383   1.623   4.156  14.593 -0.9591 -0.2203  0.0692
    3TCq1    O514384   1.603   4.040  14.548 -0.4705 -0.5827  0.8873
    3TCq1    O614385   1.648   4.180  14.717  0.5840 -0.8156  0.2283
    3TCq1    H114386   1.782   4.609  14.400 -0.9818  0.6562 -2.0303
    3TCq1    H214387   1.658   4.401  14.663  0.0990 -1.6335  0.3086
    3TCq1    H314388   1.595   4.139  14.341  1.7579 -0.4172  0.0373
    3TCq1    H414389   1.647   4.555  14.257  1.8463  0.0140  0.3848
    1MPD2     C14390   0.383   0.378  14.667 -0.4092  0.1099 -0.0963
    1MPD2    C114391   0.332   0.282  14.746  0.5451 -0.3819  0.4181
    1MPD2    C214392   0.411   0.227  14.848  0.3916 -0.1373  0.4038
    1MPD2    C314393   0.546   0.268  14.861  0.4523 -0.0144 -0.3945
    1MPD2    C414394   0.598   0.364  14.776  0.4505  0.3311 -0.5867
    1MPD2    C514395   0.510   0.427  14.690  0.2861  0.5959  0.2074
    1MPD2     H14396   0.369   0.166  14.926  0.1066 -1.1454 -0.5342
    1MPD2    H114397   0.698   0.404  14.786 -0.9962  3.8727 -0.3392
    1MPD2    H214398   0.319   0.436  14.602 -0.5862  0.5412  0.4717
    1MPD2    H314399   0.543   0.515  14.636  1.9792 -0.4284 -0.4421
    1MPD2     N14400   0.640   0.209  14.950  0.6028 -0.1619 -0.0056
    1MPD2    H514401   0.722   0.263  14.975  0.0034  1.7932 -2.2903
    1MPD2    N114402   0.194   0.245  14.725  0.7285  0.2636 -0.3028
    1MPD2    H714403   0.139   0.303  14.662  2.7604 -0.0286 -2.3628
    2TMC3    C114404   0.017   0.089  14.727  0.3680  0.2176  0.5115
    2TMC3    C214405   4.737   4.699  14.766  0.2264  0.2216  0.3965
    2TMC3    C314406   4.623   4.668  14.840  0.0464 -0.5656  0.4600
    2TMC3    C414407   4.667   0.190  14.769 -0.8027 -1.1024  0.0327
    2TMC3    C514408   4.550   0.157  14.836 -0.1367  0.4298 -0.7516
    2TMC3    C614409   4.527   0.027  14.870  0.7685 -0.2844  0.0020
    2TMC3     C14410   0.152   0.117  14.758 -0.0486 -0.2332 -0.5110
    2TMC3     O14411   0.208   0.033  14.829  0.3063 -0.0526  0.1972
    2TMC3     H14412   0.074   4.623  14.752  0.4264  0.3461  0.7982
    2TMC3    H114413   4.679   0.288  14.724  0.6426 -1.1944  0.2145
    2TMC3    H214414   4.444   4.739  14.935  0.4580  0.5958 -0.0214
    2TMC3    C714415   4.432   0.238  14.825  0.8162 -0.0744 -0.0470
    2TMC3    C814416   4.666   4.571  14.946 -0.3490 -0.3630 -0.1453
    2TMC3    O114417   4.326   0.185  14.799 -0.0679 -0.0675  0.2494
    2TMC3    O214418   4.580   4.523  15.020  0.2909 -0.6692 -0.4529
    3TCq1    O114419   4.650   1.020  15.054  0.3742  0.4364 -0.1417
    3TCq1    C114420   4.628   1.149  15.020 -0.1639  0.4529 -0.1075
    3TCq1    O214421   4.705   1.220  14.953  0.3515  0.3084 -0.1528
    3TCq1    C214422   4.482   1.146  14.999 -0.2494 -0.3424  0.0883
    3TCq1    C314423   4.404   1.242  15.062  0.3862  0.0479 -0.3461
    3TCq1    C414424   4.275   1.248  15.039 -0.3839  0.1449  0.4588
    3TCq1    C514425   4.214   1.141  14.965  0.3433 -0.6939 -0.1654
    3TCq1    C614426   4.293   1.040  14.916 -0.0206 -0.2801  0.4632
    3TCq1    C714427   4.430   1.047  14.922  0.4039 -0.5699  0.0218
    3TCq1    C814428   4.233   0.920  14.847  0.4447  0.2842  0.0058
    3TCq1    O414429   4.117   0.923  14.810  0.0087  0.3596  0.7034
    3TCq1    C914430   4.192   1.350  15.091  0.1774  0.6678  0.1164
    3TCq1    O514431   4.244   1.430  15.178  0.1208  0.5736 -0.6334
    3TCq1    O614432   4.074   1.358  15.049  0.5244 -0.0533 -1.1750
    3TCq1    H114433   4.570   0.968  15.075  0.3900  1.3002  2.0418
    3TCq1    H214434   4.449   1.306  15.138  1.0375  0.0975 -0.7729
    3TCq1    H314435   4.106   1.140  14.955  0.4117  0.6275 -1.0646
    3TCq1    H414436   4.492   0.974  14.873 -1.5422 -1.1063 -1.6273
    4MPD2     C14437   4.183   0.670  14.723  0.8141  0.0790  0.0852
    4MPD2    C114438   4.295   0.693  14.795 -0.3645 -0.2909  0.0027
    4MPD2    C214439   4.385   0.592  14.826 -0.2372 -0.1383  0.6830
    4MPD2    C314440   4.358   0.462  14.788  0.3120 -0.0553 -0.0588
    4MPD2    C414441   4.234   0.440  14.717  0.1736 -0.4281  0.0299
    4MPD2    C514442   4.154   0.543  14.684 -0.0462 -0.0028  0.3516
    4MPD2     H14443   4.471   0.606  14.890 -0.2987  2.4164  0.2249
    4MPD2    H114444   4.216   0.343  14.671 -1.8626 -0.4371  0.8421
    4MPD2    H214445   4.108   0.743  14.695 -1.4854 -2.5132 -0.6463
    4MPD2    H314446   4.064   0.535  14.624  0.2919  0.6279 -0.2292
    4MPD2     N14447   4.455   0.371  14.814  0.0219  0.6676 -0.1027
    4MPD2    H514448   4.549   0.404  14.836  0.3546  0.8599 -1.8576
    4MPD2    N114449   4.324   0.815  14.842  0.1341 -0.2710  0.1492
    4MPD2    H714450   4.402   0.836  14.904 -0.8713 -0.4712  1.4658
    5TMC2    C114451   0.703   4.592  15.249  0.7434 -0.7275  0.2710
    5TMC2    C214452   0.751   4.666  15.357  0.0929 -0.0528 -0.3169
    5TMC2    C314453   0.774   0.060  15.324  0.4676  0.3012 -0.7355
    5TMC2    C414454   0.694   4.649  15.126  0.4053  0.3406  0.6301
    5TMC2    C514455   0.715   0.039  15.111 -0.1031 -0.1323 -1.0081
    5TMC2    C614456   0.759   0.121  15.207 -0.1187 -1.2054  0.6330
    5TMC2     C14457   0.585   4.504  15.279  0.0031 -0.5887 -0.0429
    5TMC2     O14458   0.585   4.447  15.387  0.4183 -1.1073 -0.1073
    5TMC2     H14459   0.749   4.626  15.457 -1.6167  2.1379  0.5323
    5TMC2    H114460   0.672   4.590  15.038 -1.0292  0.0147  1.2090
    5TMC2    H214461   0.761   0.229  15.195 -2.2659 -0.9036  2.9313
    5TMC2    C714462   0.619   0.085  15.006 -0.6063 -0.0139  0.1951
    5TMC2    C814463   0.808   0.153  15.432 -0.1805 -0.4077  0.2623
    5TMC2    O114464   0.526   0.007  14.984 -0.3316  0.4139 -0.3190
    5TMC2    O214465   0.902   0.232  15.419 -0.2687 -0.1330  0.0249
    5TMC2    O514466   0.697   0.196  15.482 -0.0070  0.4767 -0.2414
    5TMC2    H514467   0.622   0.135  15.464  1.1639 -1.1040  0.3002
    6MPD2     C14468   0.083   4.425  15.168  0.0663  0.0872 -0.0649
    6MPD2    C114469   0.126   4.527  15.083  0.1812 -0.0672  0.0997
    6MPD2    C214470   0.259   4.562  15.095  0.4414  0.0839 -0.2487
    6MPD2    C314471   0.349   4.499  15.183  0.5754  0.3817  0.8257
    6MPD2    C414472   0.308   4.382  15.247 -0.2045 -0.2738 -0.1321
    6MPD2    C514473   0.171   4.357  15.248 -0.3263 -0.0932  0.1811
    6MPD2     H14474   0.291   4.647  15.036  2.3645  0.8672  1.9376
    6MPD2    H114475   0.373   4.327  15.314  1.8000  1.3147 -0.7945
    6MPD2    H214476   4.717   4.402  15.159  0.1326  0.2907 -1.4563
    6MPD2    H314477   0.140   4.273  15.309  1.0570 -1.7411 -1.3773
    6MPD2     N14478   0.485   4.536  15.187 -0.5653 -0.5654  0.1579
    6MPD2    H514479   0.520   4.599  15.115  0.3502 -1.3706 -0.1096
    6MPD2    N114480   0.049   4.601  14.985  0.3526 -0.4425 -0.0800
    6MPD2    H714481   0.099   4.664  14.923  0.7203 -0.2478  0.4089
  945NH3     N114482   2.147   0.080  10.708  0.0633 -0.4119  0.5906
  945NH3     H214483   2.098   0.127  10.633  0.4143  1.4949  1.5459
  945NH3     H314484   2.095   0.117  10.787  0.3609 -0.2090  0.6910
  945NH3     H414485   2.103   4.728  10.707 -4.1541  1.6228 -1.1978
  946SOD     NA14486   4.677   0.147  10.624  0.0939  0.2051  0.0396
  947SOD     NA14487   4.650   0.172  13.133  0.0552 -0.2549  0.4034
  948SOD     NA14488   0.460   1.645  11.633  0.4574  0.2948 -0.1004
  949SOD     NA14489   1.366   0.864   2.327  0.1302 -0.1514  0.1256
  950SOD     NA14490   1.269   0.293   6.417 -0.4599 -0.2982  0.2858
  951SOD     NA14491   2.826   3.077  16.331 -0.0480 -0.1232 -0.4459
  952SOD     NA14492   0.220   4.074  15.061 -0.3036  0.2669  0.2125
  953SOD     NA14493   2.451   2.532  16.063 -0.3042  0.0388  0.1712
  954SOL     OW14494   0.853   0.139  14.699  0.2279  0.0443  0.1420
  954SOL    HW114495   0.932   0.147  14.752  0.3207  0.9538 -0.1343
  954SOL    HW214496   0.846   0.224  14.654  1.9455  0.4160  0.6056
  955SOL     OW14497   1.885   4.130  15.740 -0.4640 -0.0647 -0.9445
  955SOL    HW114498   1.959   4.071  15.755 -0.9045 -0.7913 -1.6288
  955SOL    HW214499   1.823   4.113  15.811  0.9774 -0.2242  0.2826
  956SOL     OW14500   0.980   4.733  13.530 -0.1570 -0.1295  0.1139
  956SOL    HW114501   1.061   0.018  13.484  1.7949 -2.5453  2.2568
  956SOL    HW214502   0.977   4.638  13.524 -1.3543  0.0196 -1.5840
  957SOL     OW14503   0.493   2.923   2.357  0.2289 -0.2326 -0.2458
  957SOL    HW114504   0.439   2.947   2.282 -0.3905 -1.1657 -0.0960
  957SOL    HW214505   0.519   2.832   2.346 -0.3720 -0.0522 -3.0991
  958SOL     OW14506   0.321   4.372   3.267  0.4967 -0.5066  0.0107
  958SOL    HW114507   0.286   4.373   3.356 -1.6976  0.7804 -0.8830
  958SOL    HW214508   0.270   4.302   3.225  0.3731 -0.5296  0.2030
  959SOL     OW14509   1.332   2.158  15.405 -0.4357 -0.2996  0.4181
  959SOL    HW114510   1.381   2.197  15.478  2.8632 -1.4516 -1.1700
  959SOL    HW214511   1.242   2.158  15.437 -1.0716 -0.7887 -1.3881
  960SOL     OW14512   1.890   2.995  11.147 -0.7064  0.6193  0.1312
  960SOL    HW114513   1.981   3.017  11.126 -0.1789 -0.1150  1.6094
  960SOL    HW214514   1.877   3.041  11.230 -1.8460 -0.6561  0.6531
  961SOL     OW14515   0.996   0.978   8.959 -0.6853 -0.2441 -0.0445
  961SOL    HW114516   0.987   0.978   8.864  1.9414  0.8501 -0.2987
  961SOL    HW214517   1.045   0.897   8.973  2.4526  1.6805  0.1820
  962SOL     OW14518   4.639   0.698  14.421 -0.2561 -0.3903 -0.4355
  962SOL    HW114519   4.554   0.655  14.432 -0.2385 -0.6771 -1.3718
  962SOL    HW214520   4.674   0.699  14.510 -0.6808 -3.2738 -0.2273
  963SOL     OW14521   4.393   0.144   5.151 -0.2281 -0.3539  0.2519
  963SOL    HW114522   4.426   0.054   5.148 -0.3832 -0.4088  0.2030
  963SOL    HW214523   4.406   0.157   5.245  0.6237  2.9299 -0.3343
  964SOL     OW14524   3.628   4.029   9.127 -0.3957 -0.7614 -0.1875
  964SOL    HW114525   3.675   4.051   9.047 -0.1424 -0.9761 -0.0995
  964SOL    HW214526   3.628   4.119   9.160 -0.4962 -0.6323 -0.5392
  965SOL     OW14527   3.636   2.636  14.115  0.1769 -0.3058  0.1220
  965SOL    HW114528   3.560   2.607  14.164 -0.0774 -1.8774 -1.1981
  965SOL    HW214529   3.707   2.627  14.178 -0.6967  0.4950  1.2210
  966SOL     OW14530   4.074   1.575  13.214 -0.2849 -0.4119  0.2862
  966SOL    HW114531   4.003   1.639  13.213  0.2950  0.3112  3.9785
  966SOL    HW214532   4.035   1.500  13.260 -0.4893 -1.5020 -1.6699
  967SOL     OW14533   2.062   3.266   5.717  0.4199 -0.1886 -0.2358
  967SOL    HW114534   1.974   3.240   5.691  0.7116 -0.0842 -1.2976
  967SOL    HW214535   2.083   3.340   5.661 -0.8396  0.8957  0.7241
  968SOL     OW14536   2.629   3.843   7.756 -0.1323 -0.6171 -0.5414
  968SOL    HW114537   2.685   3.821   7.830  1.4808  0.1703 -1.5157
  968SOL    HW214538   2.665   3.794   7.682  1.3200  1.5636 -1.2996
  969SOL     OW14539   2.527   2.820   1.530  0.2215 -0.0929 -0.2188
  969SOL    HW114540   2.461   2.780   1.473  0.3524 -0.1476 -0.3317
  969SOL    HW214541   2.602   2.761   1.521  1.0380  0.8764  0.2059
  970SOL     OW14542   0.782   4.322  17.066  0.5226 -0.3505  0.8707
  970SOL    HW114543   0.827   4.395  17.107  0.2754  0.7104 -0.7385
  970SOL    HW214544   0.706   4.365  17.027  0.0659 -1.1523  0.8767
  971SOL     OW14545   1.448   1.166   4.850 -0.1368 -0.5847 -0.1912
  971SOL    HW114546   1.382   1.159   4.919 -0.5665  0.1546 -0.5320
  971SOL    HW214547   1.490   1.249   4.872 -0.0831 -1.1315  1.8044
  972SOL     OW14548   1.448   3.622  12.487 -0.2443  0.0004 -0.7002
  972SOL    HW114549   1.502   3.626  12.566 -0.6275 -1.8376 -0.3514
  972SOL    HW214550   1.435   3.713  12.460 -1.0882 -0.3672 -1.5151
  973SOL     OW14551   2.885   3.534   4.154  0.1612 -0.8225  0.1214
  973SOL    HW114552   2.972   3.513   4.187  0.5415  2.2948  1.1153
  973SOL    HW214553   2.884   3.509   4.062  0.3183 -0.1789 -0.0586
  974SOL     OW14554   1.235   3.427   6.460 -0.3709  0.6737  0.3875
  974SOL    HW114555   1.169   3.358   6.467 -1.6126  1.8371  0.2800
  974SOL    HW214556   1.316   3.377   6.463 -0.5193  0.3915 -0.2639
  975SOL     OW14557   3.596   2.247  11.489 -0.1935  0.8561 -0.3437
  975SOL    HW114558   3.598   2.178  11.555  1.2598  2.1171  0.9136
  975SOL    HW214559   3.614   2.188  11.416  1.4579  0.3276  0.4968
  976SOL     OW14560   1.083   0.106   5.943 -0.2662 -0.0762 -0.0219
  976SOL    HW114561   1.009   0.066   5.899 -0.1605 -1.4557  1.0575
  976SOL    HW214562   1.142   0.116   5.868 -2.1631  0.3326 -1.4499
  977SOL     OW14563   0.434   2.727   7.367  0.0431  0.1213 -0.3777
  977SOL    HW114564   0.462   2.642   7.402 -2.5634 -0.3177  0.6613
  977SOL    HW214565   0.514   2.778   7.355 -0.7410  1.0962 -1.4046
  978SOL     OW14566   0.682   1.773  13.708  0.1380 -0.1057 -0.5491
  978SOL    HW114567   0.711   1.771  13.617 -0.2032  0.6388 -0.6782
  978SOL    HW214568   0.624   1.697  13.703  0.9981 -0.8192  0.2634
  979SOL     OW14569   1.496   4.725  11.959 -0.7182 -0.7763  0.2159
  979SOL    HW114570   1.445   4.685  12.030  1.8560 -1.5106  1.6701
  979SOL    HW214571   1.581   4.733  12.002  1.2250 -0.8352 -3.6163
  980SOL     OW14572   1.309   3.401   5.737  0.3670 -0.3552 -0.0955
  980SOL    HW114573   1.271   3.368   5.819  0.2710  0.8182  0.3277
  980SOL    HW214574   1.236   3.388   5.676 -0.0044  2.0550 -0.1502
  981SOL     OW14575   2.502   3.814  13.933 -0.1600  0.3238 -0.0134
  981SOL    HW114576   2.584   3.821  13.884 -2.2776  0.3493 -3.4891
  981SOL    HW214577   2.436   3.865  13.887 -0.0180 -1.6642 -2.3781
  982SOL     OW14578   2.716   3.825  16.428  0.4775  0.0008 -0.1166
  982SOL    HW114579   2.684   3.757  16.487  0.6963  0.5252  0.6026
  982SOL    HW214580   2.776   3.779  16.370  0.5149 -1.8321  1.3918
  983SOL     OW14581   2.235   1.519  11.631 -0.4237  0.6459 -0.4529
  983SOL    HW114582   2.154   1.570  11.622  0.3264  1.8267 -0.6342
  983SOL    HW214583   2.284   1.520  11.549  1.7196  0.8961  0.8432
  984SOL     OW14584   1.512   4.229   6.186 -0.2721  0.2475 -0.6309
  984SOL    HW114585   1.555   4.300   6.138 -0.9687  0.8194 -0.4152
  984SOL    HW214586   1.519   4.269   6.272  1.8049  0.3426 -0.8537
  985SOL     OW14587   2.392   1.592   1.556  0.5399  0.1137 -0.0767
  985SOL    HW114588   2.337   1.655   1.603 -0.4258 -0.8429  0.0698
  985SOL    HW214589   2.337   1.574   1.480  0.1515 -0.8713  0.4446
  986SOL     OW14590   4.587   0.442   5.317 -0.1624 -0.2118 -0.5935
  986SOL    HW114591   4.552   0.361   5.354  1.0378 -0.4678 -0.0229
  986SOL    HW214592   4.503   0.483   5.299 -1.8126 -2.3862  2.3015
  987SOL     OW14593   4.375   2.225  11.810  0.4247  0.2813  0.4496
  987SOL    HW114594   4.441   2.157  11.801 -1.5078 -1.4272 -0.7960
  987SOL    HW214595   4.349   2.232  11.719 -0.5950  2.3255  0.8931
  988SOL     OW14596   3.830   3.726   7.317  0.0844 -0.4878 -0.3928
  988SOL    HW114597   3.856   3.721   7.225 -2.1277 -0.7339 -0.9992
  988SOL    HW214598   3.908   3.687   7.355  1.5052 -0.0221 -2.8118
  989SOL     OW14599   4.394   1.466   3.787 -0.1725  0.2171 -0.5241
  989SOL    HW114600   4.442   1.483   3.868  0.2451  0.6160 -0.8567
  989SOL    HW214601   4.457   1.506   3.728 -0.7389  0.1485 -1.1798
  990SOL     OW14602   1.938   0.974   3.822  0.0338 -0.2170  0.5009
  990SOL    HW114603   1.872   0.948   3.886  0.4860 -1.3311  0.5125
  990SOL    HW214604   1.880   1.014   3.757 -0.1037  0.8983  1.3045
  991SOL     OW14605   2.813   3.400  14.016  0.1923  0.0956  0.8550
  991SOL    HW114606   2.823   3.356  13.932  0.7194  0.8868  0.4992
  991SOL    HW214607   2.904   3.420  14.038  0.6330 -1.8963  0.8075
  992SOL     OW14608   1.509   0.261   9.026 -0.7091  0.1368  0.0206
  992SOL    HW114609   1.593   0.306   9.038 -0.4248 -0.6942  1.0740
  992SOL    HW214610   1.484   0.245   9.117 -0.4241  2.3453  0.4966
  993SOL     OW14611   0.270   3.448   5.352  0.5652 -0.6100  0.1774
  993SOL    HW114612   0.235   3.359   5.357 -0.7753 -0.0249  1.2586
  993SOL    HW214613   0.192   3.498   5.327  0.9511 -0.8265 -1.4583
  994SOL     OW14614   1.259   1.741  11.350  0.0653  0.5250 -0.5589
  994SOL    HW114615   1.316   1.680  11.302  0.6665  0.9923 -0.4400
  994SOL    HW214616   1.291   1.709  11.434 -0.1859 -0.3677 -0.7921
  995SOL     OW14617   2.483   3.045   5.687  0.7431 -0.6770 -0.0066
  995SOL    HW114618   2.413   2.983   5.708 -0.6310  0.8307 -0.0416
  995SOL    HW214619   2.429   3.124   5.678 -1.0136 -2.0455 -1.4761
  996SOL     OW14620   0.893   0.478  15.575  0.1853  0.3989  0.5771
  996SOL    HW114621   0.907   0.403  15.518  0.1425  0.9053 -0.1065
  996SOL    HW214622   0.956   0.471  15.647  1.7470  0.3782 -0.7721
  997SOL     OW14623   1.564   1.931   2.052  0.1909  0.1281  0.7485
  997SOL    HW114624   1.476   1.967   2.062  0.5954  0.8389  1.7323
  997SOL    HW214625   1.603   2.001   1.999 -0.3164  0.2541  0.5395
  998SOL     OW14626   4.497   1.875  10.622  0.4165 -0.1773 -0.3188
  998SOL    HW114627   4.453   1.959  10.634 -1.1816 -0.9582 -0.5923
  998SOL    HW214628   4.575   1.902  10.574 -0.0484 -3.4887 -3.0010
  999SOL     OW14629   1.652   3.512   9.941  0.5196 -0.1793 -0.4536
  999SOL    HW114630   1.605   3.428   9.939 -1.6195  1.0226 -0.7755
  999SOL    HW214631   1.581   3.576   9.950  0.1906 -0.2168 -2.7851
 1000SOL     OW14632   2.411   2.435   8.794 -0.3184  0.1566 -0.4558
 1000SOL    HW114633   2.435   2.411   8.883  1.4380  1.3179 -0.6153
 1000SOL    HW214634   2.412   2.531   8.803 -0.0054  0.3351 -2.3488
 1001SOL     OW14635   0.588   0.592   7.481 -0.2034  0.1277 -0.1797
 1001SOL    HW114636   0.531   0.629   7.413 -1.3217  0.6362  1.0318
 1001SOL    HW214637   0.668   0.639   7.457 -0.7300  1.1150 -0.0073
 1002SOL     OW14638   1.587   0.054   4.887  0.3029 -0.2659  0.3604
 1002SOL    HW114639   1.671   0.083   4.852  0.1386  1.7244  1.6272
 1002SOL    HW214640   1.563   4.722   4.828 -0.3534 -0.0296  0.3418
 1003SOL     OW14641   3.348   1.323  17.124  0.0715 -0.2238 -0.0793
 1003SOL    HW114642   3.317   1.388  17.061  1.6702 -0.4562 -1.1270
 1003SOL    HW214643   3.264   1.277  17.130  0.9404 -1.7126  0.7972
 1004SOL     OW14644   1.157   0.540   7.966 -0.7206 -0.5563 -0.0201
 1004SOL    HW114645   1.139   0.622   8.011  0.3185  0.4470 -1.4473
 1004SOL    HW214646   1.070   0.512   7.938  0.1993 -0.6340 -2.8426
 1005SOL     OW14647   4.256   1.768   5.116 -0.4022 -0.0091 -0.4292
 1005SOL    HW114648   4.273   1.705   5.186 -0.4187  0.1031 -0.3250
 1005SOL    HW214649   4.168   1.740   5.090  0.8316 -2.4310 -2.0538
 1006SOL     OW14650   0.234   4.522   1.572 -0.4179  0.0618 -0.1460
 1006SOL    HW114651   0.268   4.604   1.536 -1.7808  0.9405  0.5616
 1006SOL    HW214652   0.219   4.475   1.491  1.1479 -0.5352 -0.0923
 1007SOL     OW14653   0.064   1.420   4.703 -0.3084  0.3209  0.2885
 1007SOL    HW114654   0.135   1.452   4.647 -1.9379  0.0147 -1.9743
 1007SOL    HW214655   0.011   1.380   4.634 -0.4556  0.6930  0.1878
 1008SOL     OW14656   1.055   3.404   7.537 -0.0814 -0.1634 -0.0203
 1008SOL    HW114657   1.004   3.484   7.521  2.6290  1.8130  1.1321
 1008SOL    HW214658   1.032   3.363   7.453 -1.3492  0.8404 -0.1751
 1009SOL     OW14659   2.777   3.963   2.733 -0.5918  0.1694 -0.1886
 1009SOL    HW114660   2.753   3.905   2.661  1.0159  0.2296 -0.7616
 1009SOL    HW214661   2.872   3.958   2.727 -0.5386  0.3055  0.5867
 1010SOL     OW14662   3.682   4.101   7.183  0.1034  0.0247 -0.6592
 1010SOL    HW114663   3.607   4.152   7.214  2.5771  1.3347  3.0154
 1010SOL    HW214664   3.692   4.030   7.246 -1.8790  0.1564 -0.1861
 1011SOL     OW14665   1.581   0.208  16.670 -0.4929  0.1760  0.1714
 1011SOL    HW114666   1.487   0.218  16.655 -0.5748  0.0897  0.6365
 1011SOL    HW214667   1.609   0.168  16.588 -0.5105  0.7962 -0.1380
 1012SOL     OW14668   1.874   1.397   8.287  0.2367 -0.1294  0.1650
 1012SOL    HW114669   1.834   1.471   8.241  0.7138 -0.8546 -1.4456
 1012SOL    HW214670   1.906   1.441   8.366 -1.2890 -1.2931  1.4192
 1013SOL     OW14671   1.268   1.605  12.180  0.3334  0.1116  0.2067
 1013SOL    HW114672   1.321   1.592  12.102  0.4647  0.8591  0.1731
 1013SOL    HW214673   1.186   1.586  12.135  0.2909  2.8836 -0.8684
 1014SOL     OW14674   4.708   1.380   1.843  0.1992 -0.2850  0.2588
 1014SOL    HW114675   0.059   1.392   1.870 -0.6816  1.6914  2.2458
 1014SOL    HW214676   4.674   1.387   1.932 -1.2043 -1.7105 -0.1548
 1015SOL     OW14677   2.315   0.223  13.573  0.1100 -0.0806  0.1974
 1015SOL    HW114678   2.385   0.166  13.542  0.9059  0.3559  1.1947
 1015SOL    HW214679   2.310   0.295  13.510  1.7287 -0.5829 -0.5041
 1016SOL     OW14680   0.726   0.219   5.079  0.0247  0.2574  0.0486
 1016SOL    HW114681   0.661   0.150   5.094  0.3439  0.3316  1.8692
 1016SOL    HW214682   0.669   0.287   5.043  0.9154  0.0488 -1.7075
 1017SOL     OW14683   1.308   4.598  13.687  0.1247  0.2842  0.2666
 1017SOL    HW114684   1.280   4.610  13.596  1.3484  0.2423 -0.1053
 1017SOL    HW214685   1.398   4.570  13.672  0.9574  2.8023  0.4904
 1018SOL     OW14686   4.168   1.655   6.466 -0.2626  0.3422 -0.1290
 1018SOL    HW114687   4.220   1.592   6.416 -0.9622 -0.5545  0.2822
 1018SOL    HW214688   4.169   1.616   6.553 -0.8297  0.7392  0.0599
 1019SOL     OW14689   4.440   2.026  15.653 -0.2499 -0.0258  0.0895
 1019SOL    HW114690   4.408   1.980  15.730 -1.7270  0.9460  0.0574
 1019SOL    HW214691   4.476   2.098  15.706 -0.3338 -1.7178  2.4201
 1020SOL     OW14692   4.318   3.584   5.437  0.1955 -0.0345 -0.2638
 1020SOL    HW114693   4.334   3.571   5.531 -2.7768  1.6479  0.4633
 1020SOL    HW214694   4.289   3.496   5.413  2.6631 -0.6217 -1.0983
 1021SOL     OW14695   0.339   3.280   7.215 -0.1764  0.3248 -0.3377
 1021SOL    HW114696   0.300   3.353   7.263  1.7894  0.4367  1.1026
 1021SOL    HW214697   0.399   3.328   7.160 -0.0962 -0.2662 -0.7622
 1022SOL     OW14698   1.402   3.638  14.592 -0.3683  0.3543  0.3064
 1022SOL    HW114699   1.313   3.604  14.580  0.5715 -2.1862  0.3602
 1022SOL    HW214700   1.395   3.726  14.629 -1.7452  1.0803 -1.6689
 1023SOL     OW14701   3.371   3.300  10.855  0.1410  0.3332 -0.1186
 1023SOL    HW114702   3.415   3.216  10.867 -0.0796  0.2813  0.3086
 1023SOL    HW214703   3.441   3.360  10.828 -1.4568  1.6998 -1.2072
 1024SOL     OW14704   4.312   2.480   9.193  0.2510 -0.5503 -0.1303
 1024SOL    HW114705   4.267   2.400   9.220 -0.9783  1.4822  3.8234
 1024SOL    HW214706   4.399   2.442   9.199  1.0833  1.4208  0.1238
 1025SOL     OW14707   0.230   2.580   7.684 -0.8924  0.0107  0.3254
 1025SOL    HW114708   0.177   2.501   7.675 -0.4227 -0.3928  1.1649
 1025SOL    HW214709   0.194   2.641   7.619 -0.5707 -1.9075 -1.6338
 1026SOL     OW14710   0.170   3.445   3.664 -0.1834 -0.2262 -0.4090
 1026SOL    HW114711   0.193   3.354   3.649  2.7467  0.1015  2.1719
 1026SOL    HW214712   0.171   3.475   3.573 -1.5375 -1.8553 -0.9522
 1027SOL     OW14713   1.241   4.639   7.729 -0.2423 -0.2744 -0.0116
 1027SOL    HW114714   1.173   4.674   7.673 -0.7369 -0.5673  0.4092
 1027SOL    HW214715   1.281   4.591   7.657 -0.0553  1.3924 -1.0150
 1028SOL     OW14716   2.103   0.314   8.563 -0.4384  0.6532  0.5398
 1028SOL    HW114717   2.055   0.262   8.627 -2.2691  1.7186  0.0397
 1028SOL    HW214718   2.130   0.395   8.606 -0.4711  0.9735 -0.0432
 1029SOL     OW14719   4.348   3.050   7.437 -0.3713 -0.1621  0.0050
 1029SOL    HW114720   4.264   3.007   7.425 -1.0145  1.0262  0.2197
 1029SOL    HW214721   4.393   3.023   7.358 -0.7019 -0.2566 -0.1512
 1030SOL     OW14722   3.451   4.261   3.834  0.3589 -0.4736 -0.6409
 1030SOL    HW114723   3.382   4.196   3.849 -0.9136  1.3126  1.2080
 1030SOL    HW214724   3.527   4.205   3.852  0.3606 -0.8046 -1.6688
 1031SOL     OW14725   1.238   2.968   4.556  0.0473  0.3257 -0.2896
 1031SOL    HW114726   1.162   2.912   4.564  0.4775 -0.4827 -1.8908
 1031SOL    HW214727   1.232   3.016   4.638 -0.7800 -1.5852  0.7511
 1032SOL     OW14728   1.776   2.794  16.941  0.1262 -0.1756 -0.1905
 1032SOL    HW114729   1.705   2.848  16.977  0.6148  0.0017  0.5056
 1032SOL    HW214730   1.781   2.834  16.855  0.7725  0.8819  0.3435
 1033SOL     OW14731   1.392   1.155   9.226  0.0850  0.2774  0.2565
 1033SOL    HW114732   1.428   1.219   9.288  1.9576 -1.6363  1.1453
 1033SOL    HW214733   1.473   1.139   9.177 -0.7158 -0.8412 -0.7033
 1034SOL     OW14734   4.142   1.663   1.623 -0.3207 -0.1507 -0.0051
 1034SOL    HW114735   4.049   1.679   1.611 -0.6176 -0.7156  1.5182
 1034SOL    HW214736   4.182   1.710   1.550  1.0558 -3.2328 -1.2386
 1035SOL     OW14737   1.435   0.160   6.538 -0.2801  0.6013 -0.3184
 1035SOL    HW114738   1.506   0.142   6.600 -0.2914  1.3904 -0.0695
 1035SOL    HW214739   1.383   0.080   6.536 -0.4311  0.6738  0.4013
 1036SOL     OW14740   0.719   3.578   7.079  0.0754  0.0159  0.1608
 1036SOL    HW114741   0.712   3.653   7.139 -2.6614 -0.1722  0.0727
 1036SOL    HW214742   0.770   3.625   7.014  0.5669  0.6825  1.0243
 1037SOL     OW14743   1.547   4.653  11.704  0.1950  1.0119  0.5798
 1037SOL    HW114744   1.526   4.671  11.796  2.3552  0.4896  1.1823
 1037SOL    HW214745   1.483   4.581  11.701  0.0059  1.1746  0.7110
 1038SOL     OW14746   1.727   4.621  11.518  0.5484 -0.0243  0.4656
 1038SOL    HW114747   1.656   4.639  11.580  1.3993  1.4367  1.0157
 1038SOL    HW214748   1.707   4.530  11.497 -1.3323  0.9016 -1.7954
 1039SOL     OW14749   4.130   1.097   0.398  0.8900 -0.9003 -0.2707
 1039SOL    HW114750   4.210   1.135   0.435 -0.5338  0.0331  1.8623
 1039SOL    HW214751   4.160   1.006   0.392  0.9941 -0.9523  1.0615
 1040SOL     OW14752   2.355   4.533   9.060 -0.0684 -0.0266 -0.2312
 1040SOL    HW114753   2.350   4.448   9.103  0.8790 -0.3226 -0.7118
 1040SOL    HW214754   2.286   4.582   9.105  0.2523  0.4230 -0.2323
 1041SOL     OW14755   4.063   1.042   2.511 -0.0800 -0.0826 -0.4405
 1041SOL    HW114756   4.060   1.073   2.421 -0.5148  3.2857  0.7303
 1041SOL    HW214757   4.148   1.071   2.545 -0.1540 -1.7546  1.1967
 1042SOL     OW14758   4.169   0.140  13.418 -0.3815  0.2140 -0.0721
 1042SOL    HW114759   4.140   0.178  13.336 -2.6109 -1.9071 -0.2634
 1042SOL    HW214760   4.246   0.187  13.451 -1.1058  0.9759  0.5678
 1043SOL     OW14761   3.202   4.515   5.283  0.0455 -0.3053  0.7435
 1043SOL    HW114762   3.260   4.468   5.342 -0.0043 -3.2270 -1.5350
 1043SOL    HW214763   3.185   4.443   5.223 -0.4834  0.0686  0.4341
 1044SOL     OW14764   2.860   3.572   7.273  0.1570 -0.0746 -0.5482
 1044SOL    HW114765   2.930   3.535   7.328  1.3314  1.5233 -0.9811
 1044SOL    HW214766   2.918   3.637   7.233  0.2383 -0.3794 -0.9250
 1045SOL     OW14767   2.492   0.465   6.149 -0.1137 -0.1711  0.2560
 1045SOL    HW114768   2.576   0.490   6.187 -0.0555 -0.7223  0.4859
 1045SOL    HW214769   2.457   0.553   6.136 -0.0852 -0.1351  0.4241
 1046SOL     OW14770   0.099   0.052   9.497  0.4309 -0.2114  0.3882
 1046SOL    HW114771   0.105   0.116   9.569 -0.1169 -0.3663  0.5765
 1046SOL    HW214772   0.147   0.092   9.425 -2.4678  0.2896 -1.2552
 1047SOL     OW14773   0.760   1.333  11.016  0.4585 -0.2711 -0.8197
 1047SOL    HW114774   0.668   1.309  11.024  0.6086  0.1677  2.1339
 1047SOL    HW214775   0.797   1.284  11.089 -0.6984  0.4862  0.2701
 1048SOL     OW14776   0.763   1.024  10.700  0.6536  0.4020 -0.6593
 1048SOL    HW114777   0.688   1.027  10.641  0.4798  0.2510 -0.4458
 1048SOL    HW214778   0.784   1.116  10.718 -0.7003  0.6983 -0.6657
 1049SOL     OW14779   4.714   4.268   2.819 -0.3429 -0.2706  0.2126
 1049SOL    HW114780   4.672   4.314   2.892  1.4151  0.8663  0.4983
 1049SOL    HW214781   4.726   4.182   2.860 -1.5042 -0.9678 -0.9066
 1050SOL     OW14782   3.313   3.488   5.911 -0.3068  0.1861 -0.1755
 1050SOL    HW114783   3.400   3.490   5.950  0.4358  1.6137 -1.9088
 1050SOL    HW214784   3.254   3.452   5.977 -1.4845  0.5428 -1.0234
 1051SOL     OW14785   3.197   0.863   4.448 -0.3753 -0.2463 -0.3076
 1051SOL    HW114786   3.259   0.877   4.377  3.5651 -2.2407  2.7170
 1051SOL    HW214787   3.209   0.771   4.473  1.8945  0.0589 -0.2240
 1052SOL     OW14788   4.477   2.996  17.617  0.7581 -0.5322 -0.0686
 1052SOL    HW114789   4.552   3.015  17.673 -1.0175  0.4762  1.9288
 1052SOL    HW214790   4.453   2.903  17.627 -0.3609  0.0846  2.7382
 1053SOL     OW14791   0.688   2.696   0.955 -0.0721 -0.3543 -0.6737
 1053SOL    HW114792   0.607   2.732   0.993 -0.7489 -2.9122  0.3388
 1053SOL    HW214793   0.704   2.623   1.016 -1.2856  1.1494  1.4439
 1054SOL     OW14794   1.987   3.125   2.602 -0.3342 -0.2419 -0.5793
 1054SOL    HW114795   2.074   3.136   2.642 -1.3342  1.3587  1.1492
 1054SOL    HW214796   2.000   3.169   2.518 -1.5005 -1.0650 -1.1913
 1055SOL     OW14797   4.466   3.764   1.692  0.1938  0.5872  0.5308
 1055SOL    HW114798   4.445   3.828   1.625  0.3661  1.3567  1.2110
 1055SOL    HW214799   4.487   3.811   1.773  0.1623  0.6887  0.4795
 1056SOL     OW14800   2.711   4.637   2.240  0.0309  0.2120 -0.0037
 1056SOL    HW114801   2.635   4.587   2.271 -0.1485  0.0635 -0.6914
 1056SOL    HW214802   2.669   4.718   2.214 -2.2165 -1.8202 -2.7150
 1057SOL     OW14803   4.476   1.446  10.626 -0.0279  0.1241  0.0609
 1057SOL    HW114804   4.476   1.352  10.612  1.5442 -0.0678  1.4496
 1057SOL    HW214805   4.512   1.453  10.714  1.4933 -1.8585 -0.4101
 1058SOL     OW14806   4.500   1.756  16.779  0.3712  0.3274  0.5925
 1058SOL    HW114807   4.527   1.730  16.691  3.2350 -0.5671  1.7641
 1058SOL    HW214808   4.542   1.686  16.829  0.2499 -0.6531 -0.6845
 1059SOL     OW14809   3.191   3.906   6.670 -0.0172  0.0577 -0.4617
 1059SOL    HW114810   3.119   3.925   6.609  0.3496 -1.9022 -1.4920
 1059SOL    HW214811   3.168   3.818   6.701  3.0476 -0.9838 -1.1384
 1060SOL     OW14812   1.753   4.435  12.908  0.0913 -0.3530 -0.3840
 1060SOL    HW114813   1.830   4.400  12.953  0.3704  0.8721  0.0709
 1060SOL    HW214814   1.779   4.525  12.890 -0.2962  0.1458  1.6013
 1061SOL     OW14815   2.329   4.529   5.818 -0.6202  0.4752 -0.3886
 1061SOL    HW114816   2.244   4.489   5.834 -0.6931  0.8536  0.1706
 1061SOL    HW214817   2.316   4.623   5.805 -0.1509  0.8755  1.9714
 1062SOL     OW14818   2.205   1.289  10.917  0.2080 -0.0117  0.4882
 1062SOL    HW114819   2.259   1.340  10.977  0.5426  0.0349  0.1560
 1062SOL    HW214820   2.209   1.199  10.948 -0.6413 -0.7552 -1.5500
 1063SOL     OW14821   1.151   3.164   3.832  0.1656  0.6973  0.1697
 1063SOL    HW114822   1.148   3.100   3.761 -0.9891 -0.7039  1.5017
 1063SOL    HW214823   1.127   3.241   3.781  0.1928  0.2869 -0.4677
 1064SOL     OW14824   2.512   2.822   8.442 -0.5931  0.6950  0.1004
 1064SOL    HW114825   2.446   2.760   8.474 -1.3175  1.6718  0.4723
 1064SOL    HW214826   2.576   2.807   8.512 -0.8853  0.4999  0.3263
 1065SOL     OW14827   0.341   0.594  11.565 -0.1205  0.2932  0.5585
 1065SOL    HW114828   0.334   0.508  11.523 -1.2988  0.8416 -0.3614
 1065SOL    HW214829   0.436   0.596  11.572 -0.1756  2.2008  0.6593
 1066SOL     OW14830   3.796   3.198   1.939  0.4936 -0.8414 -0.1304
 1066SOL    HW114831   3.863   3.166   1.999 -0.2109  0.9068  1.5622
 1066SOL    HW214832   3.804   3.290   1.960 -0.8510 -0.3768 -1.6209
 1067SOL     OW14833   3.103   0.299   6.075  0.2251 -0.1304  0.3855
 1067SOL    HW114834   3.095   0.281   6.169 -0.7050 -1.1903  0.1146
 1067SOL    HW214835   3.184   0.347   6.089  0.0029 -0.2966  2.2610
 1068SOL     OW14836   1.414   4.465   5.000  0.0009 -0.2800 -0.5574
 1068SOL    HW114837   1.460   4.382   4.995 -0.4920 -0.6398  0.8160
 1068SOL    HW214838   1.377   4.459   4.912 -1.6093  0.5039  0.0612
 1069SOL     OW14839   4.465   2.582   8.259  0.2340 -0.4961  0.2532
 1069SOL    HW114840   4.460   2.546   8.348  0.5332 -1.0360  0.0508
 1069SOL    HW214841   4.460   2.503   8.205  0.7026  0.0520 -0.5885
 1070SOL     OW14842   2.860   3.221  16.528 -0.4341  0.0676  0.2187
 1070SOL    HW114843   2.825   3.254  16.610 -2.1717  1.2583 -1.0203
 1070SOL    HW214844   2.954   3.238  16.536 -0.5048  0.7705 -0.5481
 1071SOL     OW14845   0.821   4.555   9.052 -0.8733  0.2885  0.2667
 1071SOL    HW114846   0.755   4.618   9.079 -0.1394  0.4688  1.6376
 1071SOL    HW214847   0.872   4.612   8.995 -0.3762 -1.6005 -1.2088
 1072SOL     OW14848   0.755   2.518  16.600  0.0233  0.1610  0.4418
 1072SOL    HW114849   0.670   2.474  16.597  1.2834 -2.3482  2.1023
 1072SOL    HW214850   0.736   2.590  16.660  2.7056 -0.4280  1.9748
 1073SOL     OW14851   0.225   0.077   0.040 -0.0127 -0.4413 -0.0370
 1073SOL    HW114852   0.287   0.010   0.012 -1.3374 -0.3620 -3.1703
 1073SOL    HW214853   0.273   0.131   0.102  0.8788 -3.6926  2.1214
 1074SOL     OW14854   1.667   3.764  16.927 -0.3346 -0.4784 -0.5885
 1074SOL    HW114855   1.737   3.747  16.864  0.7171 -0.3166  0.5636
 1074SOL    HW214856   1.640   3.675  16.950 -1.3224 -0.3038 -1.0497
 1075SOL     OW14857   1.328   0.954   8.874  0.4671  0.4963 -0.8257
 1075SOL    HW114858   1.424   0.949   8.872  0.6070  3.1428 -0.8473
 1075SOL    HW214859   1.305   0.943   8.782 -4.0432  2.2149  0.1218
 1076SOL     OW14860   4.242   4.604   4.021 -0.4153 -0.1532  0.1206
 1076SOL    HW114861   4.229   4.660   4.097 -2.3719  1.1936 -1.1883
 1076SOL    HW214862   4.181   4.534   4.044 -0.1168 -0.9084 -1.3591
 1077SOL     OW14863   0.625   0.674   4.766 -0.4589  0.1884 -0.4666
 1077SOL    HW114864   0.531   0.673   4.748 -0.2375 -0.9189 -1.5439
 1077SOL    HW214865   0.676   0.661   4.686 -0.5440 -0.3285 -0.4382
 1078SOL     OW14866   1.828   0.303   4.607 -0.2345 -0.1330 -0.4658
 1078SOL    HW114867   1.911   0.288   4.562 -0.7145 -0.7984 -1.1157
 1078SOL    HW214868   1.817   0.216   4.644 -1.4108 -0.3505 -1.3456
 1079SOL     OW14869   4.021   1.981   9.406  0.3115 -0.3716 -0.3971
 1079SOL    HW114870   4.084   2.053   9.414  0.4865 -0.4012 -1.6195
 1079SOL    HW214871   4.063   1.917   9.348  0.3515 -0.8496  0.1535
 1080SOL     OW14872   1.338   4.244  15.043 -0.5393  0.0110  0.2921
 1080SOL    HW114873   1.400   4.303  15.087 -0.4423 -1.6807  2.4004
 1080SOL    HW214874   1.400   4.184  15.003 -0.1426  0.3080  0.4628
 1081SOL     OW14875   3.020   3.928   2.644  0.1350  0.2384  0.4524
 1081SOL    HW114876   3.088   3.920   2.711  0.2326  0.5199  0.3868
 1081SOL    HW214877   3.062   3.875   2.577 -1.8836  1.1558 -1.5328
 1082SOL     OW14878   3.777   1.001  12.078 -0.4473 -0.5322  0.9194
 1082SOL    HW114879   3.692   1.015  12.120  0.0511 -1.0242  2.0807
 1082SOL    HW214880   3.842   1.043  12.134 -0.7369  1.1597 -0.0231
 1083SOL     OW14881   0.953   2.159   8.443  0.2964 -0.3816  0.1677
 1083SOL    HW114882   0.950   2.254   8.434  0.3912 -0.2081  1.9415
 1083SOL    HW214883   0.972   2.144   8.535  0.6443 -0.0578  0.1482
 1084SOL     OW14884   2.946   2.510   3.445 -0.6221  0.1400  0.6951
 1084SOL    HW114885   2.994   2.430   3.424 -0.2050  0.2113  1.4042
 1084SOL    HW214886   2.956   2.568   3.369 -1.7186  0.4522  0.7879
 1085SOL     OW14887   0.257   1.990   5.163  0.3387 -0.6395 -0.2537
 1085SOL    HW114888   0.349   1.979   5.138  0.2785  0.5242 -0.9847
 1085SOL    HW214889   0.221   1.906   5.134  1.3322 -1.1681  0.0106
 1086SOL     OW14890   0.008   3.084  10.268  0.0084 -0.1899 -0.0143
 1086SOL    HW114891   0.092   3.125  10.288 -0.1363  0.4063 -0.6066
 1086SOL    HW214892   0.029   2.993  10.245 -1.5175 -0.1185 -1.7575
 1087SOL     OW14893   4.462   0.330   1.075 -0.2573 -0.2761 -1.5478
 1087SOL    HW114894   4.555   0.340   1.091 -0.7064 -0.4655  1.2039
 1087SOL    HW214895   4.457   0.242   1.039  2.9909 -0.2584 -1.9986
 1088SOL     OW14896   4.391   2.588   0.756  0.3018 -0.1848  0.4510
 1088SOL    HW114897   4.478   2.571   0.792  0.9104 -0.0320 -0.9593
 1088SOL    HW214898   4.413   2.622   0.670  3.6968  1.2710  1.8653
 1089SOL     OW14899   4.506   0.803   5.293 -0.1356 -0.2626  0.0453
 1089SOL    HW114900   4.481   0.880   5.242 -2.2187 -0.2660  1.0557
 1089SOL    HW214901   4.585   0.775   5.248  0.1578  0.1078  0.3269
 1090SOL     OW14902   4.030   4.011  12.444  0.3055 -0.0317  0.0763
 1090SOL    HW114903   4.028   3.916  12.432 -0.0734 -0.0364  0.1675
 1090SOL    HW214904   4.030   4.025  12.539  0.9967 -1.6041  0.2968
 1091SOL     OW14905   1.956   2.725   2.048 -0.3284  0.0806 -0.3097
 1091SOL    HW114906   1.870   2.722   2.090 -1.0401  2.3225 -1.5905
 1091SOL    HW214907   1.945   2.662   1.977 -2.0072  1.9091 -1.7032
 1092SOL     OW14908   1.081   2.133  15.527 -0.3473  0.2507  0.6107
 1092SOL    HW114909   1.015   2.203  15.524 -0.2370  0.4351  2.3055
 1092SOL    HW214910   1.028   2.055  15.510  1.0158 -0.4122 -0.5487
 1093SOL     OW14911   3.907   3.486   8.058  0.4847  0.5334 -0.3494
 1093SOL    HW114912   3.939   3.565   8.102  0.8693 -0.1889  0.6641
 1093SOL    HW214913   3.852   3.458   8.132 -0.1968  0.3792 -0.9143
 1094SOL     OW14914   4.293   0.016   0.065 -0.3837 -0.0193 -0.0568
 1094SOL    HW114915   4.314   0.063   0.146 -3.3505 -1.1285  1.3724
 1094SOL    HW214916   4.221   0.067   0.029 -0.8032  0.1657  1.0465
 1095SOL     OW14917   0.792   4.006  17.448 -0.1797  0.0472  0.5698
 1095SOL    HW114918   0.882   4.038  17.440 -0.5540  0.7581 -0.8212
 1095SOL    HW214919   0.767   4.042  17.533 -1.8652 -1.4708  0.7238
 1096SOL     OW14920   1.698   0.678  16.663  0.4361 -0.2082 -0.7153
 1096SOL    HW114921   1.714   0.747  16.727  1.2734  0.2874 -1.4642
 1096SOL    HW214922   1.602   0.679  16.660  0.4258  1.5869  0.2810
 1097SOL     OW14923   3.686   3.318   5.976  0.2609  0.0057  0.2150
 1097SOL    HW114924   3.725   3.288   6.058 -0.6510  0.9291  0.9805
 1097SOL    HW214925   3.623   3.378   6.015  1.4771  1.0303  0.6232
 1098SOL     OW14926   4.352   0.109  17.004  0.2583 -0.1252  0.2610
 1098SOL    HW114927   4.380   0.086  16.916 -2.1903  0.1872 -0.6154
 1098SOL    HW214928   4.310   0.194  16.987 -1.3262 -0.9316  0.1210
 1099SOL     OW14929   1.824   2.095   5.714  0.3159 -0.3900  0.3262
 1099SOL    HW114930   1.895   2.053   5.764  0.7366  0.5321  0.5105
 1099SOL    HW214931   1.867   2.180   5.700 -0.5689 -0.5776 -3.3654
 1100SOL     OW14932   3.233   0.297  15.512 -0.4278 -0.0325  0.0164
 1100SOL    HW114933   3.174   0.226  15.535 -2.4986  1.4816 -0.6042
 1100SOL    HW214934   3.214   0.307  15.419 -2.9064  0.8490  0.6092
 1101SOL     OW14935   4.153   0.239   3.401  0.2035 -0.1593 -0.2099
 1101SOL    HW114936   4.087   0.211   3.464  1.0042 -0.8321  0.3406
 1101SOL    HW214937   4.173   0.319   3.449 -0.6146  1.0336 -1.8497
 1102SOL     OW14938   2.867   2.500   8.833 -0.2633 -0.0275 -0.5261
 1102SOL    HW114939   2.918   2.462   8.904 -0.1215 -1.8270 -1.5851
 1102SOL    HW214940   2.926   2.514   8.759  0.9724  0.0424  0.4732
 1103SOL     OW14941   0.274   2.040  12.845  0.1850  0.0126  0.2102
 1103SOL    HW114942   0.339   2.097  12.884  0.8582 -2.6851  2.9814
 1103SOL    HW214943   0.319   1.966  12.804  1.0383  0.4575  0.3520
 1104SOL     OW14944   3.575   2.595   1.187 -0.2758 -0.0046  0.6715
 1104SOL    HW114945   3.484   2.574   1.206 -0.6093  0.1221 -0.7810
 1104SOL    HW214946   3.563   2.584   1.092 -2.0666  2.6918  0.5928
 1105SOL     OW14947   4.518   2.195  11.507 -0.2986  0.4334 -0.2399
 1105SOL    HW114948   4.527   2.287  11.480  3.1350  0.5550  1.3429
 1105SOL    HW214949   4.423   2.185  11.504 -0.4393  1.3410  1.4557
 1106SOL     OW14950   4.269   3.393   8.085 -0.7600  0.1126  0.1513
 1106SOL    HW114951   4.211   3.345   8.144 -0.5525  1.3487  1.3551
 1106SOL    HW214952   4.286   3.329   8.015  1.8349  1.3629 -0.3343
 1107SOL     OW14953   2.097   4.219   2.162 -0.5391 -0.2062 -0.0974
 1107SOL    HW114954   2.098   4.166   2.242  1.3905 -2.7566 -1.8169
 1107SOL    HW214955   2.110   4.145   2.103  1.2749  1.6330 -1.9583
 1108SOL     OW14956   0.949   2.245   5.090  0.3023  0.4078  0.0777
 1108SOL    HW114957   0.949   2.340   5.087  4.0392  0.3910 -0.9492
 1108SOL    HW214958   1.024   2.218   5.037 -1.2229 -2.7449 -0.5042
 1109SOL     OW14959   0.073   1.419  12.799 -0.4031  0.4310 -0.0605
 1109SOL    HW114960   0.001   1.442  12.857 -0.5663  0.2681 -0.1980
 1109SOL    HW214961   0.029   1.427  12.714 -0.8111 -1.0583  0.0057
 1110SOL     OW14962   0.597   0.712   2.104 -0.8768  0.4247 -0.7373
 1110SOL    HW114963   0.568   0.665   2.025  1.3992  2.8155 -2.9953
 1110SOL    HW214964   0.550   0.795   2.100  1.2872  1.6791 -0.0895
 1111SOL     OW14965   3.144   0.912   2.983  0.4733  0.0706  0.3302
 1111SOL    HW114966   3.145   0.990   2.928  1.8079 -0.7660 -0.8442
 1111SOL    HW214967   3.188   0.929   3.066  2.8805 -3.9873 -0.1047
 1112SOL     OW14968   1.453   2.853   7.768 -0.3709 -0.6361 -0.0759
 1112SOL    HW114969   1.363   2.884   7.771 -1.3548 -3.5130 -0.3315
 1112SOL    HW214970   1.483   2.843   7.858 -0.4030 -0.1655 -0.0125
 1113SOL     OW14971   3.728   4.282  16.777  0.4826  0.1489  0.0964
 1113SOL    HW114972   3.693   4.319  16.858 -0.2918  0.0721 -0.2070
 1113SOL    HW214973   3.796   4.346  16.759  2.1431 -1.6917 -0.2403
 1114SOL     OW14974   0.057   1.605   3.863  0.4971 -0.0973 -0.6411
 1114SOL    HW114975   0.110   1.528   3.885  1.7868  0.6869 -0.9699
 1114SOL    HW214976   4.735   1.614   3.936 -0.9647  1.6562 -2.0734
 1115SOL     OW14977   3.128   2.328   4.917  0.6744  0.5056  0.0014
 1115SOL    HW114978   3.092   2.258   4.863 -0.2733 -1.1791  2.8130
 1115SOL    HW214979   3.174   2.390   4.860  0.8941 -0.5795 -1.0038
 1116SOL     OW14980   2.640   1.076   5.701  0.4314  0.3157  0.0395
 1116SOL    HW114981   2.663   0.983   5.701  0.5115  0.3377 -0.6008
 1116SOL    HW214982   2.584   1.090   5.625  2.9105  0.0976 -1.8152
 1117SOL     OW14983   1.755   0.093  15.806  0.2920  0.2531 -0.2680
 1117SOL    HW114984   1.711   0.149  15.743 -1.2504 -0.0931  0.4800
 1117SOL    HW214985   1.772   0.017  15.751  1.5073  0.8846 -0.7474
 1118SOL     OW14986   0.127   0.107   0.950  0.1728 -0.0056  0.7604
 1118SOL    HW114987   0.163   0.021   0.971  0.6277 -0.2246 -0.9070
 1118SOL    HW214988   0.075   0.125   1.028  0.4177 -1.0479  1.1578
 1119SOL     OW14989   0.819   0.427   3.899 -0.0289 -0.6640 -0.7398
 1119SOL    HW114990   0.788   0.475   3.976 -0.5825  3.1904 -3.3828
 1119SOL    HW214991   0.885   0.491   3.870 -1.4977  0.5289 -1.4277
 1120SOL     OW14992   4.397   3.607   6.813  0.6436  0.1236  0.2722
 1120SOL    HW114993   4.478   3.635   6.855  0.3281  1.2715  0.1146
 1120SOL    HW214994   4.406   3.655   6.731  0.0237 -1.5764 -0.8103
 1121SOL     OW14995   3.529   1.941   1.629  0.2631 -0.2488  0.1455
 1121SOL    HW114996   3.613   1.985   1.615  0.2581 -0.1104  0.5589
 1121SOL    HW214997   3.465   2.009   1.606  1.3388  0.5348 -0.5410
 1122SOL     OW14998   1.286   3.666   7.298 -0.1920 -0.1544  0.0657
 1122SOL    HW114999   1.377   3.665   7.326 -0.4124 -0.1733  0.7787
 1122SOL    HW215000   1.242   3.676   7.382  0.6040  0.4691  0.4055
 1123SOL     OW15001   2.030   3.912  11.528 -0.2499 -0.4606  0.0411
 1123SOL    HW115002   2.050   4.001  11.557  0.0183 -1.2694  2.3708
 1123SOL    HW215003   1.975   3.892  11.604  0.7801 -0.1911  0.8531
 1124SOL     OW15004   3.452   1.563   4.444  0.6012 -0.5188 -0.0599
 1124SOL    HW115005   3.468   1.630   4.511  1.0282  0.2595 -0.9292
 1124SOL    HW215006   3.545   1.562   4.419  0.8435 -1.2038  0.8763
 1125SOL     OW15007   4.624   1.399   2.403 -0.1493 -0.1385  0.7075
 1125SOL    HW115008   4.570   1.321   2.389  0.4632 -0.9196  2.7277
 1125SOL    HW215009   4.684   1.391   2.328 -0.2429  0.0269  0.6132
 1126SOL     OW15010   3.867   3.437   7.087 -0.1130  0.7256  0.2657
 1126SOL    HW115011   3.937   3.479   7.038  0.2454 -2.1170 -1.6538
 1126SOL    HW215012   3.909   3.415   7.170 -1.9069 -2.6829  0.2766
 1127SOL     OW15013   3.564   3.908  17.443  0.1875 -0.3446 -0.2558
 1127SOL    HW115014   3.614   3.883  17.521  1.4458  0.3419 -0.8618
 1127SOL    HW215015   3.529   3.993  17.470  0.7026 -1.0174  2.5901
 1128SOL     OW15016   0.365   0.026  10.464 -0.3574 -0.0353  0.0578
 1128SOL    HW115017   0.348   0.118  10.445  0.6951  0.2404  0.4600
 1128SOL    HW215018   0.454   0.039  10.497 -0.1687 -0.2552 -0.3562
 1129SOL     OW15019   0.832   1.601   6.203 -0.0129 -0.0879  0.2289
 1129SOL    HW115020   0.924   1.623   6.214 -0.6768  2.4352  0.8884
 1129SOL    HW215021   0.828   1.521   6.256  2.8474 -0.6591 -0.4276
 1130SOL     OW15022   0.482   1.643   7.411  0.2397  0.4056  0.8116
 1130SOL    HW115023   0.402   1.591   7.419 -1.0681  2.6187  2.0188
 1130SOL    HW215024   0.497   1.654   7.505  1.2534  0.7690  0.6151
 1131SOL     OW15025   2.988   1.007   0.587  0.4789  0.2278  0.4676
 1131SOL    HW115026   3.046   1.076   0.556  0.2246  0.1841 -0.0999
 1131SOL    HW215027   3.055   0.964   0.640  0.9300 -0.6533 -0.8245
 1132SOL     OW15028   2.945   1.754   2.342  0.0056 -0.5145 -0.2299
 1132SOL    HW115029   2.877   1.715   2.397 -0.1043 -2.2653 -1.5978
 1132SOL    HW215030   2.908   1.835   2.307 -0.2948 -1.6856 -2.6185
 1133SOL     OW15031   0.291   3.493   8.329  0.0656  0.4210 -0.8741
 1133SOL    HW115032   0.338   3.412   8.306 -2.8007 -1.7122  0.8456
 1133SOL    HW215033   0.353   3.559   8.300  1.9251 -0.5392  0.9177
 1134SOL     OW15034   4.721   4.571   1.317 -0.4864 -0.7084 -0.0749
 1134SOL    HW115035   4.673   4.519   1.253  0.2584 -0.3820 -0.8971
 1134SOL    HW215036   0.047   4.502   1.328  0.5753  0.1495 -1.1670
 1135SOL     OW15037   2.901   4.110  12.520 -0.4916 -0.2194  0.4429
 1135SOL    HW115038   2.846   4.077  12.592  1.8610 -0.7491  2.0075
 1135SOL    HW215039   2.901   4.202  12.546  1.0169 -0.3083  0.7553
 1136SOL     OW15040   2.570   3.876  13.640 -0.1994  0.4562 -0.0749
 1136SOL    HW115041   2.558   3.783  13.620 -1.7238  0.7629 -0.5567
 1136SOL    HW215042   2.650   3.884  13.691 -0.0474 -0.1455 -0.2228
 1137SOL     OW15043   2.115   3.476   2.579 -0.5397 -0.5689 -0.0847
 1137SOL    HW115044   2.130   3.415   2.507 -1.4361 -0.4257 -0.3887
 1137SOL    HW215045   2.138   3.421   2.654 -1.3540 -1.3268 -0.4005
 1138SOL     OW15046   1.666   4.558   7.749  0.3650 -0.1739  0.8003
 1138SOL    HW115047   1.635   4.635   7.703  1.0334 -0.8396 -0.7755
 1138SOL    HW215048   1.624   4.489   7.697 -0.7875  0.6585  0.6347
 1139SOL     OW15049   1.849   1.368  13.897  0.1168  0.6013 -0.5454
 1139SOL    HW115050   1.898   1.449  13.913 -0.2612  0.8822 -0.7987
 1139SOL    HW215051   1.886   1.305  13.959  2.1723  2.4686  0.1614
 1140SOL     OW15052   0.056   1.863   9.047  0.1742 -0.2578 -0.5466
 1140SOL    HW115053   0.046   1.785   8.992  1.8696  1.6060 -3.5228
 1140SOL    HW215054   0.128   1.912   9.008 -0.9137  2.3656  0.7442
 1141SOL     OW15055   3.686   4.432   3.036  0.0409  0.0077 -0.3603
 1141SOL    HW115056   3.611   4.429   3.095 -0.5808  1.3983 -1.0600
 1141SOL    HW215057   3.646   4.431   2.949  0.5946 -1.0499 -0.6077
 1142SOL     OW15058   2.354   0.432   7.242 -0.6664  0.1682  0.2461
 1142SOL    HW115059   2.310   0.420   7.158 -3.8524  2.1023  1.6401
 1142SOL    HW215060   2.438   0.462   7.209  0.3956 -2.3680  0.6292
 1143SOL     OW15061   2.778   4.153   8.452 -0.5692  0.4631 -0.0700
 1143SOL    HW115062   2.864   4.117   8.434 -0.3782  0.3166  1.1884
 1143SOL    HW215063   2.752   4.097   8.525 -1.1531  1.3552  0.4223
 1144SOL     OW15064   4.457   3.079   2.184 -0.4693  0.0004 -0.4987
 1144SOL    HW115065   4.460   3.079   2.280  0.0511  0.4400 -0.5140
 1144SOL    HW215066   4.379   3.028   2.162 -1.5794  1.0639  0.9903
 1145SOL     OW15067   1.206   3.748   7.557 -0.4325  0.6632  0.0417
 1145SOL    HW115068   1.247   3.818   7.506 -1.0309 -0.4011 -1.9059
 1145SOL    HW215069   1.253   3.746   7.641 -1.4060  0.9890  0.5947
 1146SOL     OW15070   4.502   1.913   1.989 -0.3635  0.0304 -0.0880
 1146SOL    HW115071   4.454   1.861   2.053  0.4024 -0.5404  0.0154
 1146SOL    HW215072   4.426   1.949   1.942 -1.4903  0.3455  1.9772
 1147SOL     OW15073   1.406   2.150   7.349  0.4196 -0.0351 -0.4180
 1147SOL    HW115074   1.404   2.241   7.320 -1.0295 -0.3543 -1.3102
 1147SOL    HW215075   1.499   2.131   7.342  0.6294  1.2825 -1.0762
 1148SOL     OW15076   2.741   0.086   0.406  0.5115 -0.3009 -0.1541
 1148SOL    HW115077   2.817   0.144   0.411 -0.0811  0.7630 -3.0386
 1148SOL    HW215078   2.718   0.073   0.498  0.3202  0.0556 -0.1505
 1149SOL     OW15079   1.392   0.895   7.010  0.2696 -0.8482 -0.5638
 1149SOL    HW115080   1.424   0.805   7.002 -0.0958 -0.8924 -1.5477
 1149SOL    HW215081   1.302   0.883   6.980  0.3197 -0.8997 -0.6946
 1150SOL     OW15082   1.909   3.234   7.830 -0.1306 -0.2874  0.0906
 1150SOL    HW115083   1.849   3.305   7.805 -0.1804 -0.6662 -0.8760
 1150SOL    HW215084   1.979   3.284   7.871  1.1349 -1.9085 -0.0820
 1151SOL     OW15085   1.026   0.988   8.223  0.0028 -0.2181 -0.1590
 1151SOL    HW115086   1.094   0.942   8.174 -1.0792 -1.2232 -0.7427
 1151SOL    HW215087   0.954   0.987   8.160  0.2262  0.1805 -0.4103
 1152SOL     OW15088   3.097   0.931   2.051  0.5664  0.1348  0.1120
 1152SOL    HW115089   3.179   0.912   2.007 -0.0939 -0.1038 -1.0190
 1152SOL    HW215090   3.113   1.025   2.059  0.4706  0.2586 -1.1005
 1153SOL     OW15091   1.336   0.435   5.033  0.7560  0.1617 -0.1922
 1153SOL    HW115092   1.360   0.526   5.014  2.9545 -0.3403  0.1386
 1153SOL    HW215093   1.341   0.388   4.950  1.2309 -0.0323 -0.0518
 1154SOL     OW15094   2.478   0.130   2.428  0.8525  0.3451  0.6031
 1154SOL    HW115095   2.498   0.204   2.371 -0.3254  0.2806  0.0939
 1154SOL    HW215096   2.435   0.170   2.504  1.5456  3.2177 -0.5336
 1155SOL     OW15097   4.310   0.013   4.468  0.1595 -0.1099 -0.4481
 1155SOL    HW115098   4.405   4.736   4.466  0.0807 -0.6168  0.1259
 1155SOL    HW215099   4.289   4.708   4.550  1.5903 -2.6540 -1.4491
 1156SOL     OW15100   2.539   4.297   2.994 -0.1988  0.1719 -0.1971
 1156SOL    HW115101   2.616   4.353   2.989  1.9206 -2.8540 -1.4003
 1156SOL    HW215102   2.549   4.251   2.910  0.9824  2.5262 -1.3669
 1157SOL     OW15103   4.407   2.239   2.604 -0.4397 -0.5685 -0.6927
 1157SOL    HW115104   4.483   2.293   2.581 -0.9422 -0.6742 -2.6117
 1157SOL    HW215105   4.411   2.228   2.699 -0.8129 -0.9221 -0.7134
 1158SOL     OW15106   3.877   0.145  11.041  0.1581  0.4067  0.2302
 1158SOL    HW115107   3.797   0.188  11.072  1.1792  0.8709  2.2463
 1158SOL    HW215108   3.923   0.221  11.004 -2.3100  1.5912 -0.4057
 1159SOL     OW15109   2.067   3.515   8.197  0.5896  0.4074 -0.1982
 1159SOL    HW115110   2.016   3.480   8.270  0.4370  0.9553 -0.0368
 1159SOL    HW215111   2.098   3.602   8.222  0.8865  0.7640 -1.7706
 1160SOL     OW15112   4.375   3.496   1.618 -0.5675 -0.7298 -0.0785
 1160SOL    HW115113   4.392   3.458   1.704 -0.4929 -0.7220 -0.0897
 1160SOL    HW215114   4.408   3.581   1.647  1.0438 -0.9564 -1.2561
 1161SOL     OW15115   2.407   3.189   8.273  0.1802  0.0588 -0.1954
 1161SOL    HW115116   2.481   3.219   8.326 -0.3163  1.9680 -0.5637
 1161SOL    HW215117   2.445   3.108   8.239  1.2489  0.4798  0.0188
 1162SOL     OW15118   3.932   2.612   8.666 -0.4316 -0.0054 -0.3642
 1162SOL    HW115119   3.858   2.560   8.700 -1.8909  1.3701 -1.4485
 1162SOL    HW215120   4.014   2.571   8.693 -1.7938 -2.7243 -0.3388
 1163SOL     OW15121   2.087   0.718   8.406  0.1020 -0.5730 -0.2082
 1163SOL    HW115122   2.098   0.806   8.443 -0.6907 -0.1265 -1.0458
 1163SOL    HW215123   2.030   0.732   8.331 -1.0271  0.4945  0.8528
 1164SOL     OW15124   2.289   3.326   4.287  0.5217 -0.6995 -1.0210
 1164SOL    HW115125   2.211   3.335   4.232  0.6592  1.6771 -0.8443
 1164SOL    HW215126   2.326   3.247   4.248  1.4795 -0.1611 -1.2204
 1165SOL     OW15127   1.124   3.611   8.644  0.0630 -0.0730 -0.7094
 1165SOL    HW115128   1.044   3.646   8.683  1.5750  0.3328  2.0553
 1165SOL    HW215129   1.179   3.689   8.649 -2.8536  2.0375 -1.7161
 1166SOL     OW15130   0.306   2.476   9.846  0.5530  0.5216 -0.1370
 1166SOL    HW115131   0.228   2.529   9.828 -0.6132 -0.8272  0.9700
 1166SOL    HW215132   0.292   2.411   9.777  1.2065  0.7333 -0.4744
 1167SOL     OW15133   4.595   3.231  14.901 -0.0460  0.2649  0.0743
 1167SOL    HW115134   4.677   3.256  14.945  0.9488 -1.5144 -0.7633
 1167SOL    HW215135   4.610   3.271  14.815 -1.6092 -0.3806 -0.4966
 1168SOL     OW15136   0.408   0.198   8.100 -0.2464 -0.3672  0.6623
 1168SOL    HW115137   0.378   0.267   8.158 -0.3726 -0.4147  0.6527
 1168SOL    HW215138   0.394   0.119   8.151 -1.1805 -0.3860  0.3632
 1169SOL     OW15139   1.505   4.368  12.618 -0.4864  0.0807  0.2820
 1169SOL    HW115140   1.417   4.332  12.630  0.1851 -2.2746 -1.7732
 1169SOL    HW215141   1.474   4.456  12.596  1.3019  0.4569 -0.7480
 1170SOL     OW15142   2.928   2.720   7.728 -0.1573 -0.4286 -0.5453
 1170SOL    HW115143   3.004   2.661   7.728  1.1267  1.2211 -1.2255
 1170SOL    HW215144   2.869   2.667   7.782 -1.6025  1.0605 -0.6771
 1171SOL     OW15145   3.581   0.086  11.118 -0.6472 -0.8191  0.7214
 1171SOL    HW115146   3.499   0.060  11.161 -0.5513 -0.8780  0.8703
 1171SOL    HW215147   3.627   0.003  11.125 -1.1057 -1.2335 -1.1935
 1172SOL     OW15148   0.457   0.849   5.981 -0.0156 -0.0882  0.6385
 1172SOL    HW115149   0.541   0.875   5.943 -0.1936 -1.3153 -0.6143
 1172SOL    HW215150   0.451   0.901   6.061 -1.9976 -1.3479  1.3147
 1173SOL     OW15151   2.528   3.977   5.298 -0.3653  0.1110  0.1149
 1173SOL    HW115152   2.488   4.046   5.245  1.0400  0.6839 -0.2022
 1173SOL    HW215153   2.472   3.902   5.276 -1.1140  0.5917  0.4102
 1174SOL     OW15154   1.732   2.531  14.268 -0.0785 -0.0287 -0.0240
 1174SOL    HW115155   1.643   2.519  14.301 -1.4362  2.7575 -2.6308
 1174SOL    HW215156   1.755   2.571  14.352 -1.3096  1.2671 -0.3052
 1175SOL     OW15157   2.939   3.580   8.616  0.8092 -0.7025  0.1590
 1175SOL    HW115158   2.895   3.512   8.566 -0.6563 -0.0538  0.5587
 1175SOL    HW215159   2.866   3.641   8.624  1.4856  0.1995 -0.5391
 1176SOL     OW15160   1.375   4.641   6.568 -0.2371  0.3731  0.2766
 1176SOL    HW115161   1.334   4.557   6.548 -1.2035  0.6829  0.9493
 1176SOL    HW215162   1.423   4.638   6.650  0.0748  3.0947  0.1874
 1177SOL     OW15163   1.855   0.278   8.192 -0.1498  0.1268  0.2660
 1177SOL    HW115164   1.825   0.187   8.198 -1.3638  0.6453  2.0806
 1177SOL    HW215165   1.936   0.289   8.242 -0.5616 -2.8292  1.5802
 1178SOL     OW15166   1.684   3.926  12.133 -0.2728 -0.2817  0.0944
 1178SOL    HW115167   1.599   3.961  12.105  0.1941  0.9722  0.2378
 1178SOL    HW215168   1.728   4.006  12.163 -0.7906  0.2194 -0.4747
 1179SOL     OW15169   1.479   4.510   3.100 -0.1059 -0.3661  0.0411
 1179SOL    HW115170   1.546   4.463   3.149 -0.2287 -1.3769 -0.7637
 1179SOL    HW215171   1.398   4.466   3.125  0.0460 -0.7604 -0.1701
 1180SOL     OW15172   3.120   4.318   4.474  0.4602 -0.0675  0.2261
 1180SOL    HW115173   3.092   4.253   4.409  2.2027  0.7400 -1.3107
 1180SOL    HW215174   3.127   4.397   4.422 -0.0416 -1.6080 -2.1897
 1181SOL     OW15175   3.349   2.168  16.080 -0.4668  0.1534 -0.6248
 1181SOL    HW115176   3.433   2.175  16.036 -1.6520 -2.1335 -3.2183
 1181SOL    HW215177   3.312   2.248  16.045  1.6849  1.2930 -0.2945
 1182SOL     OW15178   3.337   3.591   3.571 -0.0917  0.4740 -0.2172
 1182SOL    HW115179   3.301   3.512   3.529  0.2407  0.0892  0.2206
 1182SOL    HW215180   3.290   3.657   3.521  0.5937  1.3481  0.3148
 1183SOL     OW15181   1.547   2.384   5.499  0.8035 -0.4889 -0.3400
 1183SOL    HW115182   1.586   2.407   5.583 -1.8496  1.6686  0.3166
 1183SOL    HW215183   1.492   2.307   5.516 -0.3401  0.0619 -1.4590
 1184SOL     OW15184   0.125   4.219   1.940  0.2692  0.4147  0.1394
 1184SOL    HW115185   0.113   4.244   1.848 -0.8656  1.8375  0.6735
 1184SOL    HW215186   0.108   4.125   1.935 -0.3654  0.4561  1.5717
 1185SOL     OW15187   4.274   0.413   8.941  0.2403  0.5910 -0.1183
 1185SOL    HW115188   4.292   0.326   8.904  0.4501 -0.2901  2.0796
 1185SOL    HW215189   4.188   0.400   8.981  1.7256 -0.0586  2.8764
 1186SOL     OW15190   4.651   0.969   5.774  0.1566  0.1365  0.4500
 1186SOL    HW115191   4.718   0.935   5.834 -0.8051 -1.5517  0.5687
 1186SOL    HW215192   4.702   1.027   5.717  0.6480 -1.9315 -1.1817
 1187SOL     OW15193   2.569   2.580   1.942  0.3703  0.5603  0.0648
 1187SOL    HW115194   2.565   2.489   1.912  1.6230 -0.1309  1.9919
 1187SOL    HW215195   2.664   2.592   1.942  0.4288  0.1621  3.8345
 1188SOL     OW15196   3.280   4.405  11.530  0.0194  0.4086  0.8682
 1188SOL    HW115197   3.312   4.466  11.596 -1.7342  0.4976  1.6401
 1188SOL    HW215198   3.200   4.451  11.503  0.3103  0.5722  0.2909
 1189SOL     OW15199   2.263   2.146   0.554 -0.0352 -0.5412  0.1657
 1189SOL    HW115200   2.341   2.098   0.528 -1.5604 -3.3825  0.7917
 1189SOL    HW215201   2.206   2.132   0.478  0.9656  1.1745 -0.8900
 1190SOL     OW15202   1.505   3.077   5.236  0.2864 -0.2189  0.9306
 1190SOL    HW115203   1.413   3.098   5.253 -0.6142 -2.4362 -1.1629
 1190SOL    HW215204   1.509   3.001   5.294  0.6825 -0.3949  0.6699
 1191SOL     OW15205   4.168   2.050  16.086  0.5845 -0.0478 -0.1227
 1191SOL    HW115206   4.141   2.137  16.117  0.8319 -0.0491  0.0957
 1191SOL    HW215207   4.257   2.047  16.122  1.0266 -3.1304 -1.5171
 1192SOL     OW15208   4.436   3.894   0.540  0.3690  0.0381 -0.0191
 1192SOL    HW115209   4.424   3.800   0.523  0.5689 -0.0749  0.4671
 1192SOL    HW215210   4.468   3.921   0.454 -0.2447 -2.3519 -1.0120
 1193SOL     OW15211   2.051   0.293  12.534 -0.0960 -0.2215  0.0142
 1193SOL    HW115212   2.134   0.265  12.494  0.3897 -1.0832  1.6305
 1193SOL    HW215213   2.071   0.281  12.627  1.1391 -1.5115 -0.4060
 1194SOL     OW15214   3.082   3.122   3.628  0.2454 -0.2799 -0.5222
 1194SOL    HW115215   3.107   3.053   3.567  0.3615 -1.2615  0.6469
 1194SOL    HW215216   3.083   3.074   3.710 -0.8641  2.6500  1.2193
 1195SOL     OW15217   3.044   1.382   2.151  0.1304  0.9449  0.4071
 1195SOL    HW115218   3.111   1.313   2.153  0.9575  1.7239 -0.0182
 1195SOL    HW215219   3.038   1.408   2.059  0.7492 -4.4197 -1.1553
 1196SOL     OW15220   2.867   0.680   8.083 -0.1213 -0.2192 -0.0192
 1196SOL    HW115221   2.845   0.697   8.175 -0.9575 -0.6137 -0.1353
 1196SOL    HW215222   2.930   0.751   8.072  0.0134 -0.1685  1.0305
 1197SOL     OW15223   0.048   3.297   5.134  0.3028  0.4511 -0.2636
 1197SOL    HW115224   0.084   3.242   5.203  1.2554  0.3471 -0.8491
 1197SOL    HW215225   0.123   3.302   5.074  1.5759 -1.2672  1.1848
 1198SOL     OW15226   3.684   2.103   2.135 -0.3282 -0.0812 -0.8981
 1198SOL    HW115227   3.616   2.041   2.111 -0.3894 -0.0111 -0.9053
 1198SOL    HW215228   3.643   2.175   2.182  3.0453  1.0845  0.2949
 1199SOL     OW15229   2.432   1.033   3.276  0.2808  0.0049  0.5207
 1199SOL    HW115230   2.525   1.033   3.256  0.2912 -0.5888  0.5636
 1199SOL    HW215231   2.395   0.992   3.198 -1.6437 -0.0221  1.4601
 1200SOL     OW15232   2.915   0.488   5.018 -0.7945  0.1715 -0.1631
 1200SOL    HW115233   2.927   0.403   5.060 -2.9361 -0.2716 -0.4071
 1200SOL    HW215234   2.891   0.540   5.096 -2.3928  0.4034 -0.8125
 1201SOL     OW15235   1.887   4.601   5.884  0.1250 -0.2555  0.5686
 1201SOL    HW115236   1.904   4.671   5.820  0.7564  0.3054  1.3543
 1201SOL    HW215237   1.806   4.558   5.855 -0.5674  0.7612  0.9928
 1202SOL     OW15238   2.850   3.061   6.060  0.2502 -0.1405  0.2466
 1202SOL    HW115239   2.837   2.967   6.069 -0.8835 -0.0068 -0.0596
 1202SOL    HW215240   2.942   3.067   6.085  0.0240  2.0014  0.5229
 1203SOL     OW15241   0.028   3.295   5.921 -0.0892  0.4512  0.2184
 1203SOL    HW115242   0.050   3.296   6.014 -2.1732 -1.8797  0.7118
 1203SOL    HW215243   0.010   3.388   5.909 -1.8617  0.0458 -0.2544
 1204SOL     OW15244   1.255   3.993   1.129 -0.0641 -0.1661 -0.0651
 1204SOL    HW115245   1.348   3.972   1.137  0.1194  1.0769  1.1571
 1204SOL    HW215246   1.229   3.980   1.221  1.0934  0.8501  0.4083
 1205SOL     OW15247   1.818   2.777   7.362 -0.1758 -0.1471 -0.1111
 1205SOL    HW115248   1.815   2.811   7.273 -1.2889  0.5184  0.1827
 1205SOL    HW215249   1.875   2.835   7.413 -0.3095  0.3410 -0.5182
 1206SOL     OW15250   1.492   1.385   4.191  0.1469 -0.1903  0.0750
 1206SOL    HW115251   1.535   1.356   4.111  0.2970  0.9054 -0.2415
 1206SOL    HW215252   1.538   1.347   4.266  2.1333 -1.3004 -1.7000
 1207SOL     OW15253   4.684   4.338   2.463 -0.1828  0.2589 -0.0126
 1207SOL    HW115254   4.591   4.356   2.475  0.4743  2.5433  1.4576
 1207SOL    HW215255   4.682   4.297   2.376 -0.7742  3.5160 -1.5362
 1208SOL     OW15256   2.070   0.428   8.334  0.0403 -0.3123 -0.4461
 1208SOL    HW115257   2.067   0.385   8.419  2.2304 -0.0870 -0.2757
 1208SOL    HW215258   2.060   0.517   8.368  0.4557 -0.5582  0.3140
 1209SOL     OW15259   4.729   4.287   4.989  0.3481  0.3258 -0.2946
 1209SOL    HW115260   4.682   4.204   4.998 -0.3647  0.8631  0.8600
 1209SOL    HW215261   0.079   4.254   4.987  0.2220  0.0317 -1.3005
 1210SOL     OW15262   2.234   2.800  15.004 -0.6350 -0.1959  0.0019
 1210SOL    HW115263   2.142   2.827  15.001 -1.0230 -1.0601  3.6618
 1210SOL    HW215264   2.220   2.707  14.985 -1.1998 -0.5800  2.1857
 1211SOL     OW15265   4.492   0.089   8.056 -0.4545 -0.3657  0.1224
 1211SOL    HW115266   4.576   0.080   8.102 -1.3450 -0.2472  1.7712
 1211SOL    HW215267   4.500   0.173   8.011  0.5149  0.3244  1.5805
 1212SOL     OW15268   0.611   2.502   7.980 -0.3799  0.3806  0.3886
 1212SOL    HW115269   0.517   2.515   7.976 -0.3610  0.7621  1.1616
 1212SOL    HW215270   0.622   2.448   7.902 -1.2701  0.4540  0.2153
 1213SOL     OW15271   4.259   0.404   6.672 -0.3262  0.0508 -0.3228
 1213SOL    HW115272   4.271   0.314   6.641 -1.9513  0.9603 -3.4991
 1213SOL    HW215273   4.345   0.443   6.687 -0.2386 -0.4443  0.4790
 1214SOL     OW15274   4.614   1.420   1.346 -0.2738  0.2292  0.5465
 1214SOL    HW115275   4.591   1.442   1.436  2.7555 -0.9746  1.5970
 1214SOL    HW215276   4.524   1.393   1.324 -1.1377  2.1515  1.7620
 1215SOL     OW15277   3.951   3.734   7.078  0.1280  0.5059 -0.0462
 1215SOL    HW115278   3.987   3.674   7.012 -0.9334  0.8129 -0.9089
 1215SOL    HW215279   4.001   3.816   7.067 -0.5377  0.9312  0.1350
 1216SOL     OW15280   0.940   2.533   3.504  0.2991 -0.2997 -0.2132
 1216SOL    HW115281   0.962   2.450   3.460  1.3856 -0.8063  1.2914
 1216SOL    HW215282   0.897   2.489   3.577  0.5475  1.8620  1.2104
 1217SOL     OW15283   1.541   2.999   9.392  0.0437  0.5603  0.0272
 1217SOL    HW115284   1.598   2.924   9.410 -3.0831 -1.4804  1.2614
 1217SOL    HW215285   1.525   3.023   9.483 -0.4929 -2.5146  0.7444
 1218SOL     OW15286   1.231   3.200   8.072  0.0252 -0.0002 -0.0346
 1218SOL    HW115287   1.200   3.223   8.159  0.4004  0.0413  0.0892
 1218SOL    HW215288   1.235   3.105   8.083  1.5014  0.4890  3.7172
 1219SOL     OW15289   1.803   2.591   8.329 -0.9182  0.4182  0.3479
 1219SOL    HW115290   1.803   2.611   8.235  1.6507 -1.1315  0.0307
 1219SOL    HW215291   1.799   2.496   8.329  0.0184  0.3771 -0.5397
 1220SOL     OW15292   1.051   4.354  12.260 -0.1329 -0.1261  0.5020
 1220SOL    HW115293   1.000   4.411  12.201  0.0171 -1.1813 -0.6564
 1220SOL    HW215294   1.109   4.415  12.303  0.0747  0.7191 -0.9668
 1221SOL     OW15295   3.930   2.445   3.806 -0.7606  0.4211  0.3146
 1221SOL    HW115296   3.896   2.375   3.861  0.0176 -0.2134 -0.0178
 1221SOL    HW215297   3.925   2.520   3.867 -1.5819  0.8582 -0.2868
 1222SOL     OW15298   0.036   2.061   1.827  0.0807  0.3060  0.2457
 1222SOL    HW115299   4.710   2.131   1.829  1.6434  1.8070 -0.3262
 1222SOL    HW215300   4.723   1.983   1.813  1.1031 -0.4485  0.6217
 1223SOL     OW15301   4.668   1.992   9.238 -0.2914 -0.1729 -0.2975
 1223SOL    HW115302   4.709   1.930   9.177 -1.5116 -1.1100 -0.1603
 1223SOL    HW215303   4.693   1.958   9.324  3.2853  0.9971 -0.8839
 1224SOL     OW15304   3.335   3.992   7.400  0.3380  0.4532 -0.4183
 1224SOL    HW115305   3.390   3.914   7.391 -1.3267 -0.8585  0.8158
 1224SOL    HW215306   3.362   4.035   7.482 -1.7685 -0.1033  0.5645
 1225SOL     OW15307   4.282   0.664   7.073  0.0433  0.0773 -1.2781
 1225SOL    HW115308   4.198   0.661   7.120  1.5485  2.4952  1.5238
 1225SOL    HW215309   4.310   0.755   7.064 -1.9863  0.7186 -1.0519
 1226SOL     OW15310   4.597   3.964   0.810 -0.1812  0.1403  0.3589
 1226SOL    HW115311   4.539   4.002   0.744  0.9900  2.1465  0.4870
 1226SOL    HW215312   4.537   3.898   0.844 -1.3901  1.5261  0.9015
 1227SOL     OW15313   2.148   2.632   9.143 -0.0049  0.1204  0.0087
 1227SOL    HW115314   2.210   2.589   9.084  0.5493  1.7818 -0.6034
 1227SOL    HW215315   2.206   2.704   9.165 -0.9392  0.7664  0.3863
 1228SOL     OW15316   4.548   2.902  13.540 -0.1006 -0.8049  0.0459
 1228SOL    HW115317   4.530   2.941  13.625  2.5073 -1.0047  0.6671
 1228SOL    HW215318   4.613   2.960  13.502 -0.8894  1.9308  2.8770
 1229SOL     OW15319   3.908   0.015   1.901 -0.1541  0.3169  0.4491
 1229SOL    HW115320   3.976   0.019   1.834  0.2608 -2.8917  0.6853
 1229SOL    HW215321   3.835   4.724   1.848 -0.4667 -0.5453  1.3673
 1230SOL     OW15322   4.098   0.065  14.801  0.5040 -0.2346 -0.1426
 1230SOL    HW115323   4.099   0.111  14.884  0.6257  0.1348 -0.3491
 1230SOL    HW215324   4.189   0.085  14.778  1.1233 -1.4682  1.1962
 1231SOL     OW15325   1.469   1.513   8.813 -0.2439 -0.2264 -0.1706
 1231SOL    HW115326   1.525   1.567   8.756 -0.3295  1.0502  0.9592
 1231SOL    HW215327   1.399   1.498   8.750 -0.8760  1.7227  0.0835
 1232SOL     OW15328   2.008   1.078  13.216 -0.1754 -0.2637 -0.1024
 1232SOL    HW115329   1.932   1.135  13.204  0.6989  0.4299 -2.5041
 1232SOL    HW215330   2.042   1.119  13.295 -0.8585 -1.2231  0.6905
 1233SOL     OW15331   0.281   2.242   4.348 -0.0820 -0.3561  0.2044
 1233SOL    HW115332   0.252   2.315   4.404  1.4375  0.2199  0.2352
 1233SOL    HW215333   0.240   2.274   4.268 -0.9476 -0.3572  0.6492
 1234SOL     OW15334   0.619   0.884   8.811  0.2211 -0.1975  0.3881
 1234SOL    HW115335   0.598   0.798   8.848  0.2516  0.3925  1.8008
 1234SOL    HW215336   0.651   0.864   8.723 -0.5712  0.2006  0.0102
 1235SOL     OW15337   3.116   1.512  10.921 -0.4555 -1.0208 -0.3101
 1235SOL    HW115338   3.175   1.451  10.965  0.6272 -0.1782 -0.5683
 1235SOL    HW215339   3.151   1.504  10.833 -0.7169 -1.4006 -0.3754
 1236SOL     OW15340   1.176   0.331   5.215 -0.0621  0.5811 -0.0646
 1236SOL    HW115341   1.115   0.279   5.162  0.2527  0.4694 -0.3164
 1236SOL    HW215342   1.225   0.387   5.155  0.8532 -0.5727 -0.3927
 1237SOL     OW15343   0.430   4.234   1.904 -0.2264 -0.0446  0.4485
 1237SOL    HW115344   0.496   4.229   1.973  0.3488 -0.2904 -0.1176
 1237SOL    HW215345   0.349   4.234   1.955  1.0771 -0.3553  2.5548
 1238SOL     OW15346   4.573   0.868  15.626 -0.5941  0.6013  0.3436
 1238SOL    HW115347   4.488   0.836  15.598 -0.5194  0.6878  0.0225
 1238SOL    HW215348   4.611   0.898  15.544 -1.8885  0.0690 -0.4327
 1239SOL     OW15349   3.362   4.687   6.944 -0.0901  0.2098 -0.7962
 1239SOL    HW115350   3.412   4.739   6.881 -2.8389  0.7321 -2.5405
 1239SOL    HW215351   3.409   4.604   6.944 -1.1680 -0.3978 -0.1933
 1240SOL     OW15352   0.877   0.471  11.530 -0.1310  0.3606 -0.0419
 1240SOL    HW115353   0.870   0.567  11.536  2.0918  0.5186  0.2261
 1240SOL    HW215354   0.791   0.444  11.499  0.6094 -1.8232 -0.1825
 1241SOL     OW15355   2.578   0.464   8.767 -0.3169 -0.0477  0.3221
 1241SOL    HW115356   2.644   0.399   8.790 -1.5090 -0.7711  1.7415
 1241SOL    HW215357   2.597   0.531   8.833 -3.0349  1.5492 -0.5049
 1242SOL     OW15358   1.959   2.804  14.917  0.4278  0.8322  0.5452
 1242SOL    HW115359   1.911   2.765  14.844 -0.3762  1.0470  0.9603
 1242SOL    HW215360   2.010   2.868  14.867  0.6163 -0.2419 -0.6383
 1243SOL     OW15361   1.489   4.331   2.084 -0.4593  0.5372 -0.1733
 1243SOL    HW115362   1.512   4.239   2.085  1.7994  1.0816 -1.6698
 1243SOL    HW215363   1.576   4.371   2.091 -0.3850  0.4105 -0.3775
 1244SOL     OW15364   1.363   0.058   5.034  0.7233 -0.8532 -0.8281
 1244SOL    HW115365   1.434   0.069   4.972 -0.4356  0.4458 -1.9118
 1244SOL    HW215366   1.301   0.018   4.974  1.4407  0.4074 -2.4062
 1245SOL     OW15367   3.400   1.743   8.650  0.0560  0.4075 -0.2435
 1245SOL    HW115368   3.363   1.801   8.583 -1.5684  1.3183  1.4434
 1245SOL    HW215369   3.386   1.657   8.611  0.9569 -0.0094  0.3728
 1246SOL     OW15370   4.005   3.215  17.128 -0.0774 -0.1905 -0.1885
 1246SOL    HW115371   4.076   3.170  17.174  1.5977  1.6054 -1.0138
 1246SOL    HW215372   4.004   3.298  17.176 -4.3261 -1.0595  1.2327
 1247SOL     OW15373   3.634   4.305   8.364  0.4046 -0.3395 -0.0050
 1247SOL    HW115374   3.649   4.364   8.438 -0.6818  0.1993 -0.2184
 1247SOL    HW215375   3.550   4.338   8.332  0.1567 -0.1338  0.8499
 1248SOL     OW15376   0.220   1.429   2.775  0.5490  0.3184  0.1424
 1248SOL    HW115377   0.276   1.503   2.752  0.9618 -0.2936 -0.8386
 1248SOL    HW215378   0.143   1.468   2.817  1.0861  1.8290 -0.2787
 1249SOL     OW15379   1.282   1.262   9.010  0.2595  0.3855  0.1746
 1249SOL    HW115380   1.294   1.186   9.067  0.0515  0.9033  0.8963
 1249SOL    HW215381   1.331   1.334   9.049 -0.1015  1.0400 -0.5798
 1250SOL     OW15382   1.140   3.886   4.402  0.2115 -0.1304  0.1024
 1250SOL    HW115383   1.187   3.913   4.324  0.5950  0.9234  0.6915
 1250SOL    HW215384   1.095   3.804   4.380 -0.2693  0.1736 -0.0375
 1251SOL     OW15385   2.507   0.606   7.060  0.4642 -0.0915 -0.0811
 1251SOL    HW115386   2.511   0.691   7.103 -0.6670 -0.2576  0.3590
 1251SOL    HW215387   2.476   0.624   6.971  0.9194 -0.0513 -0.2318
 1252SOL     OW15388   0.635   1.702   5.785  0.0987 -0.0544  0.3290
 1252SOL    HW115389   0.554   1.683   5.737  1.3923 -0.7770 -1.5955
 1252SOL    HW215390   0.653   1.619   5.829 -0.8943  0.6274  1.9872
 1253SOL     OW15391   4.060   0.625  17.353  0.5817  0.0576  0.5938
 1253SOL    HW115392   3.971   0.596  17.370  0.4236  0.7415  0.9275
 1253SOL    HW215393   4.048   0.708  17.399  0.6505  0.8262 -0.7899
 1254SOL     OW15394   1.332   0.850  14.754  0.2576 -0.5171 -1.0138
 1254SOL    HW115395   1.255   0.861  14.698 -1.6699 -0.5493  1.6372
 1254SOL    HW215396   1.304   0.766  14.789 -0.8823  0.2739 -0.0460
 1255SOL     OW15397   2.564   1.224   7.442 -0.3299  0.8852 -0.0981
 1255SOL    HW115398   2.623   1.167   7.491 -1.0945 -0.1679 -0.3869
 1255SOL    HW215399   2.479   1.198   7.479  0.4606 -1.1440  0.2968
 1256SOL     OW15400   1.341   3.597   5.205  0.1727  0.1672 -0.8518
 1256SOL    HW115401   1.330   3.617   5.298 -1.7437  2.4536 -1.5795
 1256SOL    HW215402   1.429   3.560   5.206 -0.4061 -1.2090 -0.4539
 1257SOL     OW15403   1.488   3.305   3.641  0.2660 -0.1523  0.6140
 1257SOL    HW115404   1.558   3.269   3.586 -0.6934 -0.9037 -0.1173
 1257SOL    HW215405   1.445   3.223   3.662  1.2381 -0.7870  0.1623
 1258SOL     OW15406   2.979   1.410   6.612 -0.2359  0.6581 -0.1368
 1258SOL    HW115407   2.902   1.438   6.563 -1.5472 -1.2160  0.8363
 1258SOL    HW215408   3.046   1.426   6.546 -2.7554  0.8140 -2.6674
 1259SOL     OW15409   0.088   0.315   6.840  0.6693 -0.4748  0.0584
 1259SOL    HW115410   0.170   0.316   6.790  1.6471 -1.3997  1.6012
 1259SOL    HW215411   0.077   0.403   6.874  0.6081  0.3524 -2.1069
 1260SOL     OW15412   2.608   0.583  11.837  0.1121  0.4848  0.8979
 1260SOL    HW115413   2.626   0.598  11.744  1.0820 -0.9664  0.8448
 1260SOL    HW215414   2.519   0.617  11.848 -0.9991 -1.4313 -1.9875
 1261SOL     OW15415   0.980   4.622   7.051 -0.2670 -0.1342 -0.3745
 1261SOL    HW115416   0.976   4.639   6.957  2.5387 -1.0316 -0.6780
 1261SOL    HW215417   1.074   4.605   7.055 -0.4232 -1.1688 -1.2012
 1262SOL     OW15418   1.757   4.713  17.275  0.3260  0.3439  0.4289
 1262SOL    HW115419   1.786   4.623  17.295 -1.8045 -0.3046  0.5889
 1262SOL    HW215420   1.825   4.737  17.212 -0.4216  3.7282  0.9235
 1263SOL     OW15421   1.408   3.531   8.600  0.5164  0.1234  0.2926
 1263SOL    HW115422   1.328   3.539   8.651  1.6343  3.6465  1.4878
 1263SOL    HW215423   1.377   3.561   8.514 -0.8576 -0.2764  0.6568
 1264SOL     OW15424   3.556   2.470   5.724 -0.0173 -0.1035 -0.2668
 1264SOL    HW115425   3.469   2.509   5.720 -0.1682 -0.3938  0.1952
 1264SOL    HW215426   3.577   2.448   5.633 -2.4250 -0.5911 -0.6900
 1265SOL     OW15427   1.825   3.077   8.614  0.8601  0.2291  0.5085
 1265SOL    HW115428   1.869   3.070   8.529  0.2288 -1.3043  0.3159
 1265SOL    HW215429   1.862   3.155   8.655 -1.6418  0.5235  2.1485
 1266SOL     OW15430   3.681   3.872  14.985  0.8862 -0.4543 -0.2865
 1266SOL    HW115431   3.774   3.855  14.971  1.1486  1.6809 -1.1054
 1266SOL    HW215432   3.670   3.955  14.939  1.2563  0.0830  0.5862
 1267SOL     OW15433   1.723   2.292  14.621 -0.5021 -0.0288 -0.7113
 1267SOL    HW115434   1.752   2.374  14.580 -1.5567  1.1016  0.7829
 1267SOL    HW215435   1.736   2.232  14.548  0.0096 -0.2624 -0.4359
 1268SOL     OW15436   1.574   2.448  16.831 -0.6762  0.6228 -0.4978
 1268SOL    HW115437   1.483   2.475  16.846 -1.2192  0.5140 -3.5929
 1268SOL    HW215438   1.556   2.360  16.800  0.1624  0.3578 -0.2125
 1269SOL     OW15439   3.595   3.391  12.524 -0.0363 -0.3609 -0.1440
 1269SOL    HW115440   3.536   3.364  12.595  0.3672  1.8175  1.0131
 1269SOL    HW215441   3.598   3.313  12.468 -0.4852 -1.7665  1.7836
 1270SOL     OW15442   4.037   1.392   0.366 -0.1156 -0.0743  0.1245
 1270SOL    HW115443   4.095   1.436   0.305 -0.1322 -0.8041 -0.4141
 1270SOL    HW215444   4.041   1.307   0.323 -0.8277 -0.2159  0.3334
 1271SOL     OW15445   0.991   4.116  10.916 -0.2704 -0.8516  0.6949
 1271SOL    HW115446   1.044   4.081  10.844  0.1341  1.3454 -0.0881
 1271SOL    HW215447   0.899   4.126  10.890  0.5540  3.1401 -0.7676
 1272SOL     OW15448   1.399   1.296   7.882  0.7303  0.3943 -0.1150
 1272SOL    HW115449   1.401   1.374   7.827  2.6232  0.1084 -0.4678
 1272SOL    HW215450   1.471   1.304   7.945  1.2652  2.8890 -1.0194
 1273SOL     OW15451   0.195   1.842  16.652  0.2778 -0.3099  0.4363
 1273SOL    HW115452   0.187   1.750  16.678  1.6309 -1.4207 -3.0390
 1273SOL    HW215453   0.289   1.856  16.636 -0.0200  0.8064 -0.2614
 1274SOL     OW15454   4.299   3.227   1.553  0.0742 -0.1320 -0.6688
 1274SOL    HW115455   4.350   3.181   1.620 -1.1941 -1.8143 -0.8455
 1274SOL    HW215456   4.331   3.316   1.566  1.8242 -0.9633  0.7179
 1275SOL     OW15457   1.517   2.421   8.275  0.7335 -0.1716 -0.3975
 1275SOL    HW115458   1.431   2.461   8.264  1.3094  1.1220 -0.2239
 1275SOL    HW215459   1.577   2.488   8.243  3.7308 -1.6542  2.0560
 1276SOL     OW15460   4.696   1.386   4.448 -0.0253 -0.3066  0.6775
 1276SOL    HW115461   0.016   1.327   4.403  1.4134  3.3546 -2.2650
 1276SOL    HW215462   4.618   1.364   4.396 -0.5407  2.9626  0.0265
 1277SOL     OW15463   1.113   3.570  13.616 -0.1038 -0.5789 -0.1268
 1277SOL    HW115464   1.076   3.544  13.700 -1.9463  1.9049 -0.1674
 1277SOL    HW215465   1.186   3.624  13.646 -0.6963  0.8077 -1.1709
 1278SOL     OW15466   0.983   4.130   5.616 -0.6558  0.0897  0.0456
 1278SOL    HW115467   1.064   4.105   5.658 -0.1634 -0.9399 -1.5193
 1278SOL    HW215468   0.954   4.053   5.566  0.1874  0.6121 -1.2514
 1279SOL     OW15469   0.049   4.585   5.991  0.2655  0.0359 -0.1237
 1279SOL    HW115470   4.731   4.644   6.040  1.8971  0.1382  1.7167
 1279SOL    HW215471   0.125   4.644   5.987  1.3085 -1.3627 -1.1912
 1280SOL     OW15472   3.438   0.020   6.640  0.5998  0.3440  0.0805
 1280SOL    HW115473   3.491   0.078   6.695  1.4051  0.6721 -1.0413
 1280SOL    HW215474   3.485   4.678   6.625  0.1888 -0.4002  2.7307
 1281SOL     OW15475   2.753   2.917  12.264 -0.4719  0.2403  0.5478
 1281SOL    HW115476   2.783   2.838  12.310 -3.0277 -2.1605 -1.9725
 1281SOL    HW215477   2.675   2.880  12.223  0.0815  0.3486 -0.6046
 1282SOL     OW15478   2.777   0.637   6.784 -0.1315 -0.0836  0.2319
 1282SOL    HW115479   2.798   0.729   6.766  0.2663 -0.0952  0.6423
 1282SOL    HW215480   2.722   0.619   6.708 -0.1671  0.0122  0.2350
 1283SOL     OW15481   0.138   2.415  13.466  0.5500 -0.3251  0.1818
 1283SOL    HW115482   0.178   2.340  13.423 -3.0331 -1.2452 -1.5625
 1283SOL    HW215483   0.082   2.451  13.397  0.6780  0.2729  0.3851
 1284SOL     OW15484   2.453   3.148   6.240 -0.3327  0.1276  0.3918
 1284SOL    HW115485   2.412   3.062   6.249 -0.3905  0.1081 -0.0506
 1284SOL    HW215486   2.432   3.177   6.151 -0.4288  0.5295  0.5464
 1285SOL     OW15487   1.057   1.573  17.197  0.2493  0.3903  0.4496
 1285SOL    HW115488   1.073   1.645  17.136  1.5569 -0.3729 -0.1116
 1285SOL    HW215489   1.071   1.496  17.141 -0.5685  0.6169 -0.0613
 1286SOL     OW15490   0.177   4.380   1.325  0.7413 -0.2153 -0.2644
 1286SOL    HW115491   0.181   4.300   1.377  0.5418 -0.3563 -0.4651
 1286SOL    HW215492   0.190   4.361   1.232  0.0782  1.6260 -0.7409
 1287SOL     OW15493   1.120   3.185   5.231 -0.3913 -0.1521  0.0650
 1287SOL    HW115494   1.028   3.174   5.208 -0.8101  0.8660  1.2702
 1287SOL    HW215495   1.157   3.194   5.143  0.8567  1.7234  0.7639
 1288SOL     OW15496   1.291   1.122   4.017 -0.3925  0.0541 -0.3052
 1288SOL    HW115497   1.256   1.097   4.103  0.0966  1.3513  0.2807
 1288SOL    HW215498   1.290   1.217   4.023  0.7560  0.1342 -1.4419
 1289SOL     OW15499   3.033   2.151   0.387  0.1337  0.7285 -0.2631
 1289SOL    HW115500   3.000   2.143   0.477  0.0434 -3.0073 -0.6151
 1289SOL    HW215501   3.011   2.242   0.370 -1.3685  0.2414 -0.9000
 1290SOL     OW15502   3.548   0.691   3.165  0.0539 -0.0684  0.1126
 1290SOL    HW115503   3.569   0.722   3.077 -0.2865 -0.4416 -0.0981
 1290SOL    HW215504   3.614   0.625   3.187 -1.9284 -1.9418  0.3241
 1291SOL     OW15505   4.159   0.159   1.322 -0.1481 -0.2096 -0.7932
 1291SOL    HW115506   4.072   0.125   1.300 -0.3410 -0.1541 -0.1177
 1291SOL    HW215507   4.142   0.194   1.409 -1.2631  0.5397 -1.3054
 1292SOL     OW15508   3.622   3.306  10.014 -0.2272  0.0907 -0.1067
 1292SOL    HW115509   3.718   3.298  10.013 -0.1324  1.4767 -1.7220
 1292SOL    HW215510   3.597   3.388   9.972  2.3874  1.4269  0.9112
 1293SOL     OW15511   2.354   2.154   6.854  0.2693 -0.2479  0.6628
 1293SOL    HW115512   2.332   2.164   6.946 -0.2492 -0.1129  0.5244
 1293SOL    HW215513   2.415   2.227   6.839 -1.1818  1.2647  2.0956
 1294SOL     OW15514   2.683   2.649   2.298 -0.0129  0.3181 -0.3786
 1294SOL    HW115515   2.733   2.567   2.304 -0.8024  0.0075  1.9813
 1294SOL    HW215516   2.595   2.624   2.327  0.5712 -2.5867 -1.0828
 1295SOL     OW15517   2.540   0.031   4.949 -0.0005  0.0702  0.3011
 1295SOL    HW115518   2.609   0.045   5.014 -0.5720  0.4154  0.8423
 1295SOL    HW215519   2.462   0.002   4.996 -0.4009  0.1833 -0.2814
 1296SOL     OW15520   0.381   1.188   5.092  0.3417 -0.2830 -0.9737
 1296SOL    HW115521   0.294   1.150   5.101  0.6350 -0.3013  1.6050
 1296SOL    HW215522   0.423   1.159   5.173  0.4677 -0.9056 -1.2575
 1297SOL     OW15523   4.150   1.973  15.809  0.2945 -0.2605  0.6812
 1297SOL    HW115524   4.113   1.998  15.893 -0.8309 -0.6387  0.3025
 1297SOL    HW215525   4.105   2.025  15.742  2.7846 -0.7236 -1.3372
 1298SOL     OW15526   0.859   0.776  17.026  0.1818 -0.4555  0.2456
 1298SOL    HW115527   0.910   0.857  17.030  1.7835 -1.3704 -1.4976
 1298SOL    HW215528   0.787   0.806  17.082  0.0742 -2.5144  1.1867
 1299SOL     OW15529   0.031   0.205   8.084 -0.0845  0.0587  0.1225
 1299SOL    HW115530   0.051   0.178   8.174  2.1948 -0.2555 -0.4709
 1299SOL    HW215531   0.067   0.132   8.034 -0.3140 -2.2000  3.2055
 1300SOL     OW15532   2.442   1.516   5.163  0.0901  0.2272 -0.5415
 1300SOL    HW115533   2.450   1.436   5.110  3.0053 -0.5402  1.0562
 1300SOL    HW215534   2.531   1.529   5.196 -0.3460  1.3000  0.2076
 1301SOL     OW15535   0.508   2.976  15.090  0.1340  0.0968 -0.2747
 1301SOL    HW115536   0.483   2.928  15.012  0.0940  1.4287 -1.0755
 1301SOL    HW215537   0.584   3.020  15.053 -0.3859 -0.8914 -2.5288
 1302SOL     OW15538   0.343   2.354   2.186 -0.1968 -0.2832  0.2619
 1302SOL    HW115539   0.363   2.406   2.108  0.2669 -1.4695 -0.4040
 1302SOL    HW215540   0.304   2.276   2.147 -0.2059 -0.3133  0.3321
 1303SOL     OW15541   1.368   4.726  16.964  0.4546  0.3927  0.2371
 1303SOL    HW115542   1.396   4.733  17.056 -1.6981 -0.7066  0.9979
 1303SOL    HW215543   1.367   4.631  16.956 -0.6251  0.4022  0.2187
 1304SOL     OW15544   3.083   3.073   8.430 -0.1619 -0.8452  0.2516
 1304SOL    HW115545   3.013   3.009   8.424 -0.1353 -1.0429  2.0810
 1304SOL    HW215546   3.085   3.080   8.525 -0.6156 -0.5074  0.2335
 1305SOL     OW15547   0.050   3.617  11.862 -0.5837 -0.2357 -0.3753
 1305SOL    HW115548   0.019   3.700  11.898 -1.7007 -0.2962 -1.1976
 1305SOL    HW215549   0.023   3.566  11.939 -1.0934 -0.0625 -0.4392
 1306SOL     OW15550   1.072   1.152  16.816 -0.3571  0.2770  0.5207
 1306SOL    HW115551   1.160   1.118  16.803  0.7167  2.5641  1.7975
 1306SOL    HW215552   1.029   1.113  16.740  0.0511  1.0331 -0.0978
 1307SOL     OW15553   3.939   1.784   8.606  0.3021 -0.2466  0.1270
 1307SOL    HW115554   3.948   1.729   8.528  0.7877  1.4569 -1.0010
 1307SOL    HW215555   3.845   1.794   8.620  0.1810 -1.8417  0.4378
 1308SOL     OW15556   3.648   3.814   6.237 -0.4786  0.0119  0.4517
 1308SOL    HW115557   3.695   3.801   6.319  0.3759 -1.6051 -0.2871
 1308SOL    HW215558   3.571   3.758   6.247 -1.5192  1.3122 -0.3123
 1309SOL     OW15559   0.405   0.655   6.551  0.2297 -0.2833  0.0745
 1309SOL    HW115560   0.497   0.649   6.525 -0.3990  0.4862 -2.2807
 1309SOL    HW215561   0.366   0.706   6.481  1.2112  0.3486 -0.0029
 1310SOL     OW15562   4.548   4.029   9.920  0.3506 -0.5930 -0.2909
 1310SOL    HW115563   4.589   4.034  10.007  1.8623  1.1689 -1.1038
 1310SOL    HW215564   4.581   4.112   9.884 -0.3093 -0.5472 -0.7782
 1311SOL     OW15565   3.973   3.302   0.763  0.0487 -0.5401 -0.2881
 1311SOL    HW115566   3.942   3.213   0.747 -1.6977 -0.1689  1.1110
 1311SOL    HW215567   3.971   3.321   0.857 -0.3713  0.0673 -0.4272
 1312SOL     OW15568   0.463   4.609   1.165  0.1135 -0.3716 -0.2162
 1312SOL    HW115569   0.506   4.528   1.139  2.1311 -0.4021  3.1235
 1312SOL    HW215570   0.486   4.628   1.256 -1.9016  1.4649 -0.0867
 1313SOL     OW15571   1.722   0.157  12.268 -0.0954  0.2214 -0.2362
 1313SOL    HW115572   1.782   0.231  12.271  0.6156 -0.4868  4.1268
 1313SOL    HW215573   1.766   0.109  12.338 -0.0617 -0.3041 -0.6181
 1314SOL     OW15574   2.280   1.017   5.925 -0.1256 -0.0250 -0.5675
 1314SOL    HW115575   2.239   1.100   5.900 -0.1558  0.2882  0.5330
 1314SOL    HW215576   2.337   0.992   5.853 -0.6600  2.0264 -1.7005
 1315SOL     OW15577   3.491   3.477   1.743  0.5253 -0.1614 -0.1716
 1315SOL    HW115578   3.514   3.465   1.835  0.7715 -0.1442 -0.2300
 1315SOL    HW215579   3.490   3.386   1.712 -0.9392 -0.9150  2.0949
 1316SOL     OW15580   3.378   4.459   9.085 -0.0833  0.2010 -1.0829
 1316SOL    HW115581   3.315   4.420   9.024 -0.0245 -0.7483 -0.5288
 1316SOL    HW215582   3.391   4.546   9.046 -0.6164  1.0160  0.5134
 1317SOL     OW15583   3.343   3.791   5.845 -0.0436 -0.4379 -0.5264
 1317SOL    HW115584   3.253   3.760   5.855  0.3105 -0.8970  1.2723
 1317SOL    HW215585   3.398   3.717   5.868  0.9491 -0.2946 -2.4416
 1318SOL     OW15586   0.673   4.000   8.823  0.2957  0.3852 -0.1509
 1318SOL    HW115587   0.768   3.991   8.816  0.3820  0.2039  1.3502
 1318SOL    HW215588   0.650   4.055   8.748 -0.4770 -0.2926 -0.4070
 1319SOL     OW15589   0.268   1.584   7.816 -0.6134 -0.0234  0.1968
 1319SOL    HW115590   0.202   1.579   7.886 -1.9483  0.0457 -1.0477
 1319SOL    HW215591   0.326   1.655   7.844  0.2382  0.4670 -2.7628
 1320SOL     OW15592   1.163   2.373   2.092  0.5401 -0.4601  0.0716
 1320SOL    HW115593   1.082   2.325   2.112  0.3135  0.3313  1.0286
 1320SOL    HW215594   1.162   2.443   2.157  0.3076 -0.9175  0.5610
 1321SOL     OW15595   2.720   1.953   8.112 -0.3486 -0.3732  0.1111
 1321SOL    HW115596   2.693   1.867   8.080 -0.9833 -0.5077  1.0195
 1321SOL    HW215597   2.687   2.011   8.044 -1.7494 -0.9545  0.2938
 1322SOL     OW15598   3.664   1.544   7.503  0.2002  0.0209 -0.5002
 1322SOL    HW115599   3.575   1.577   7.519  0.8193  0.1514  2.7120
 1322SOL    HW215600   3.704   1.629   7.484  1.2576 -0.7391 -1.6445
 1323SOL     OW15601   4.405   1.555   4.876  0.8440  0.1388 -0.1036
 1323SOL    HW115602   4.444   1.628   4.925  0.0153 -0.6412  1.6954
 1323SOL    HW215603   4.467   1.542   4.804  0.9180  1.7783 -0.3407
 1324SOL     OW15604   1.104   3.497   3.918  0.0430 -0.8177 -0.3907
 1324SOL    HW115605   1.158   3.549   3.977 -0.2188  0.2430 -1.0906
 1324SOL    HW215606   1.108   3.552   3.840 -0.2198  0.0725  0.2320
 1325SOL     OW15607   4.355   1.508   4.180  0.7155 -0.0959  0.0338
 1325SOL    HW115608   4.355   1.591   4.228 -0.3083 -0.4893  0.7385
 1325SOL    HW215609   4.404   1.450   4.239 -1.4241 -2.8316 -0.8562
 1326SOL     OW15610   2.192   3.019  10.820 -0.4518 -0.0970  0.3781
 1326SOL    HW115611   2.153   2.995  10.735 -2.8023 -1.0537  1.7263
 1326SOL    HW215612   2.154   2.950  10.873 -1.1045  0.5550  0.7693
 1327SOL     OW15613   2.554   3.888   8.179 -0.1725 -0.4096 -0.1309
 1327SOL    HW115614   2.577   3.976   8.148  0.6284 -1.3705 -2.2116
 1327SOL    HW215615   2.628   3.879   8.239  1.0555 -0.3836 -1.6627
 1328SOL     OW15616   1.933   2.586   5.081  0.1352  0.1102  0.4006
 1328SOL    HW115617   2.007   2.645   5.098  0.1093  0.0069  0.8586
 1328SOL    HW215618   1.941   2.533   5.160  2.8174 -0.7249 -0.4060
 1329SOL     OW15619   0.871   0.227   7.654  0.0667 -0.3573  0.0083
 1329SOL    HW115620   0.838   0.149   7.699  0.6830  0.1815  1.4069
 1329SOL    HW215621   0.788   0.264   7.624 -0.6117 -0.7322  1.3882
 1330SOL     OW15622   1.325   4.501   7.976  0.0786 -0.0237 -0.4602
 1330SOL    HW115623   1.256   4.520   8.039  1.5839  1.7569  0.6337
 1330SOL    HW215624   1.307   4.562   7.904 -0.5207 -1.2775 -1.3847
 1331SOL     OW15625   1.057   1.474   6.405 -0.0395 -0.1905 -0.4535
 1331SOL    HW115626   1.055   1.566   6.433  2.0615  0.0353 -1.0862
 1331SOL    HW215627   1.139   1.450   6.447 -0.9985 -1.2584  0.8329
 1332SOL     OW15628   4.509   1.937   9.590 -0.1321 -0.0649 -0.2766
 1332SOL    HW115629   4.472   2.018   9.624 -1.1874 -0.9180  0.5895
 1332SOL    HW215630   4.483   1.869   9.652  2.0702 -0.9318 -0.2885
 1333SOL     OW15631   2.768   4.731  13.648  0.0338 -0.3497 -0.1664
 1333SOL    HW115632   2.829   4.701  13.716 -1.6917  1.0227  1.9799
 1333SOL    HW215633   2.834   4.730  13.578 -0.1838 -0.7492 -0.3685
 1334SOL     OW15634   4.002   2.230   5.589  0.1632 -0.0007  0.3178
 1334SOL    HW115635   3.953   2.312   5.590  1.1634  0.6008 -1.6391
 1334SOL    HW215636   4.070   2.253   5.653 -1.9811  2.8173  1.5571
 1335SOL     OW15637   2.683   0.314   5.180 -0.0308  0.1664 -0.0764
 1335SOL    HW115638   2.635   0.245   5.225 -0.2353  0.8622  0.7718
 1335SOL    HW215639   2.679   0.391   5.237  2.4525 -1.5862  2.4708
 1336SOL     OW15640   2.991   2.833   3.936 -0.8283 -0.1697 -0.2177
 1336SOL    HW115641   2.931   2.874   3.998  0.4800  0.4147  0.6730
 1336SOL    HW215642   3.057   2.897   3.908 -2.6288  2.5922  1.9586
 1337SOL     OW15643   3.182   2.198   6.430  0.3635  0.3796  0.0353
 1337SOL    HW115644   3.271   2.223   6.408 -0.0089  2.3929  0.8681
 1337SOL    HW215645   3.142   2.283   6.446  0.2665  0.2472  0.5052
 1338SOL     OW15646   0.488   2.643   1.740  0.5890 -0.1014 -0.1489
 1338SOL    HW115647   0.422   2.679   1.680  2.0773  0.0941 -1.6679
 1338SOL    HW215648   0.554   2.597   1.688 -0.9608 -1.8108 -0.6523
 1339SOL     OW15649   1.226   2.051   9.111 -0.7975 -0.0929 -0.1945
 1339SOL    HW115650   1.188   2.022   9.028 -0.4585 -3.2009  0.7568
 1339SOL    HW215651   1.316   2.023   9.095 -0.4253  0.0675  1.6339
 1340SOL     OW15652   1.661   0.128   7.873  0.1341 -0.3220 -0.3520
 1340SOL    HW115653   1.571   0.158   7.887 -0.6070 -1.8541 -1.7993
 1340SOL    HW215654   1.652   0.083   7.789 -0.1166 -1.3496  0.2221
 1341SOL     OW15655   2.709   3.628   8.756  0.6323  0.3565 -0.2142
 1341SOL    HW115656   2.639   3.694   8.758  0.0354 -0.2598 -0.8738
 1341SOL    HW215657   2.777   3.688   8.787  1.3689 -1.2312  1.2748
 1342SOL     OW15658   1.041   2.016   6.680 -0.1179  0.4005 -0.7612
 1342SOL    HW115659   0.973   2.067   6.725  0.0679 -0.0380  0.0119
 1342SOL    HW215660   1.098   1.995   6.754 -0.8924 -0.5303 -0.4217
 1343SOL     OW15661   3.105   1.287  15.077 -0.0433 -0.0960 -0.2303
 1343SOL    HW115662   3.069   1.298  15.165 -1.7718  1.2303 -1.1230
 1343SOL    HW215663   3.199   1.290  15.097  0.1570  0.2453 -1.2356
 1344SOL     OW15664   4.501   1.944   2.865  0.1475 -0.2210  0.5990
 1344SOL    HW115665   4.537   1.860   2.894  1.6271  0.6351  1.2484
 1344SOL    HW215666   4.514   1.925   2.772  1.1236  1.8435  0.3136
 1345SOL     OW15667   2.697   0.932   3.247 -0.5377  0.0014  0.0370
 1345SOL    HW115668   2.724   1.005   3.191  0.1526 -0.3964 -0.1468
 1345SOL    HW215669   2.724   0.857   3.195 -0.9792  0.0494 -0.2604
 1346SOL     OW15670   1.822   4.344   6.785 -0.9243  0.2527  0.2006
 1346SOL    HW115671   1.913   4.366   6.767 -1.6724  1.8275 -1.7479
 1346SOL    HW215672   1.824   4.277   6.854  0.9119 -1.5658 -1.6408
 1347SOL     OW15673   0.806   0.753   5.300 -0.1362 -0.0750 -0.4744
 1347SOL    HW115674   0.837   0.701   5.374 -1.2802  0.3034  0.2607
 1347SOL    HW215675   0.773   0.685   5.242 -0.3457 -0.9098  0.6365
 1348SOL     OW15676   2.830   4.430   4.076 -0.0756  0.1261 -0.2050
 1348SOL    HW115677   2.899   4.365   4.090 -1.3875 -0.9946  1.0624
 1348SOL    HW215678   2.826   4.437   3.981 -0.1912 -0.1431 -0.2194
 1349SOL     OW15679   3.730   3.614   8.683  0.4990  0.0924  0.4894
 1349SOL    HW115680   3.706   3.542   8.742  2.0063  0.8884  2.0722
 1349SOL    HW215681   3.807   3.589   8.633  0.4840 -1.2954  1.1569
 1350SOL     OW15682   1.520   3.144  13.241  0.1505 -0.0970  0.2316
 1350SOL    HW115683   1.535   3.225  13.290  0.6931 -0.6015  0.8924
 1350SOL    HW215684   1.434   3.152  13.200  0.1870  0.9857  0.3574
 1351SOL     OW15685   4.474   1.162  11.416 -0.0484  0.1519 -0.2495
 1351SOL    HW115686   4.536   1.149  11.488  0.7177  0.0497 -0.9308
 1351SOL    HW215687   4.492   1.093  11.352 -3.6935  0.4321 -1.5926
 1352SOL     OW15688   4.457   4.481   2.742 -0.5084  0.0487  0.1625
 1352SOL    HW115689   4.378   4.496   2.795 -2.1002 -0.8254 -1.9750
 1352SOL    HW215690   4.435   4.477   2.649 -1.7660 -0.7764  0.4965
 1353SOL     OW15691   4.604   1.379   5.144  0.5014  0.0340  0.5190
 1353SOL    HW115692   4.549   1.346   5.073  0.7442 -0.0767  0.3813
 1353SOL    HW215693   4.618   1.304   5.201 -0.2498 -0.6764 -0.2322
 1354SOL     OW15694   0.745   3.700   5.716 -0.7427 -0.2786 -0.2682
 1354SOL    HW115695   0.783   3.614   5.734  0.7462  0.4464  0.0475
 1354SOL    HW215696   0.826   3.745   5.691 -1.5340  1.9382  1.1712
 1355SOL     OW15697   4.498   4.554  15.273 -0.5989 -0.1228  0.6248
 1355SOL    HW115698   4.546   4.472  15.281  0.2074  0.3553  0.5924
 1355SOL    HW215699   4.514   4.571  15.180  0.4292 -2.5832  0.3665
 1356SOL     OW15700   0.514   0.296   2.175  0.3461 -0.0942 -0.0597
 1356SOL    HW115701   0.463   0.239   2.116 -1.0896  0.7866  0.3368
 1356SOL    HW215702   0.538   0.361   2.109 -0.4567 -0.9499 -1.2066
 1357SOL     OW15703   3.501   3.993  13.549  0.2805 -0.3114  1.2964
 1357SOL    HW115704   3.574   4.001  13.486 -0.6672  2.2501  0.5466
 1357SOL    HW215705   3.535   3.921  13.601  1.2574  0.5694  1.8727
 1358SOL     OW15706   3.731   1.991   2.942 -0.2154 -0.2378 -0.0157
 1358SOL    HW115707   3.753   2.060   3.005  2.5706 -0.6318 -0.5932
 1358SOL    HW215708   3.678   1.934   2.998 -1.8632 -0.2490 -1.5731
 1359SOL     OW15709   3.910   0.823   5.612  0.5003 -0.0192 -0.2355
 1359SOL    HW115710   3.971   0.754   5.638  0.3394  0.3710  1.1726
 1359SOL    HW215711   3.960   0.903   5.627  1.3869 -1.0182  2.1233
 1360SOL     OW15712   0.511   3.637   2.583  0.7502  0.3180  1.1252
 1360SOL    HW115713   0.456   3.603   2.512  0.3696  1.7217  0.7268
 1360SOL    HW215714   0.453   3.709   2.608  1.1033  0.9833  0.0287
 1361SOL     OW15715   3.507   1.420   9.834  0.0850 -0.8407  0.3952
 1361SOL    HW115716   3.571   1.369   9.784  0.4415 -0.8113  0.8233
 1361SOL    HW215717   3.565   1.485   9.874  0.2822 -0.6377 -0.2241
 1362SOL     OW15718   4.403   2.523   6.632 -0.4729  0.3870 -0.4563
 1362SOL    HW115719   4.486   2.476   6.639 -0.9709 -0.3986  0.1318
 1362SOL    HW215720   4.337   2.463   6.665 -1.1863  1.7809  0.6597
 1363SOL     OW15721   2.317   2.735   2.369  0.3427  0.3995  0.1714
 1363SOL    HW115722   2.383   2.685   2.417 -0.4117 -1.0126 -0.2415
 1363SOL    HW215723   2.368   2.761   2.292  1.4439 -1.0012  0.4262
 1364SOL     OW15724   2.598   1.829  16.605  0.2801  0.0934  0.2096
 1364SOL    HW115725   2.623   1.824  16.512  0.0705 -0.9523  0.2056
 1364SOL    HW215726   2.680   1.845  16.652 -0.0751 -0.9223  1.1660
 1365SOL     OW15727   3.585   1.069   1.763  0.6518  0.2343  0.2966
 1365SOL    HW115728   3.664   1.017   1.747  0.6316  0.6661 -1.1909
 1365SOL    HW215729   3.627   1.152   1.786  1.2057 -0.0773  0.4097
 1366SOL     OW15730   2.682   2.551   3.574  0.2044  0.4454 -0.4280
 1366SOL    HW115731   2.774   2.532   3.556  1.0090 -0.1333  4.2224
 1366SOL    HW215732   2.677   2.627   3.632 -0.9479  0.2534 -0.2798
 1367SOL     OW15733   3.434   3.139   5.326  0.4075  0.0092 -0.1771
 1367SOL    HW115734   3.523   3.136   5.360  0.6692  0.1065 -0.8406
 1367SOL    HW215735   3.389   3.141   5.410  1.1315 -1.2564  0.2443
 1368SOL     OW15736   0.368   3.651   6.033 -0.0536 -0.0970  0.3627
 1368SOL    HW115737   0.345   3.698   5.953 -0.3417  0.5758  0.8434
 1368SOL    HW215738   0.340   3.708   6.104 -1.1944 -0.9730  0.6253
 1369SOL     OW15739   4.072   0.574  11.762 -0.0440 -0.7378  0.1270
 1369SOL    HW115740   4.091   0.661  11.727  1.3242 -0.5576  1.3409
 1369SOL    HW215741   3.981   0.552  11.741 -0.1988 -0.7715  0.8552
 1370SOL     OW15742   1.673   2.931   5.041 -0.2886 -0.4278  0.2541
 1370SOL    HW115743   1.618   2.994   5.087 -0.1839 -1.2705  1.5232
 1370SOL    HW215744   1.720   2.896   5.117  0.0144 -1.3089 -0.3374
 1371SOL     OW15745   1.964   0.546   8.817 -0.2714  0.0295 -0.3730
 1371SOL    HW115746   1.970   0.451   8.819  1.3481  0.1475  0.7614
 1371SOL    HW215747   1.969   0.562   8.912 -0.5526 -3.2127  0.1955
 1372SOL     OW15748   0.414   3.722   4.141  0.1657  0.3055  0.2513
 1372SOL    HW115749   0.424   3.765   4.056 -0.0660  0.9560  0.5503
 1372SOL    HW215750   0.388   3.633   4.117  0.4206  0.1058  0.7017
 1373SOL     OW15751   3.821   3.049   7.308 -0.3124  0.5714  0.0390
 1373SOL    HW115752   3.790   3.059   7.217 -2.9591  0.9444  0.9724
 1373SOL    HW215753   3.880   3.124   7.316 -0.7317  1.0302 -1.1212
 1374SOL     OW15754   2.575   3.301   7.327 -0.5927 -0.4863 -0.1190
 1374SOL    HW115755   2.670   3.288   7.320 -0.4236 -0.1999  1.5950
 1374SOL    HW215756   2.567   3.373   7.265 -0.4936 -1.4612 -1.2591
 1375SOL     OW15757   3.340   0.814   7.144  0.3929  0.1349  0.2221
 1375SOL    HW115758   3.282   0.799   7.218  1.3936  0.3302  1.0364
 1375SOL    HW215759   3.346   0.909   7.131 -2.0762  0.5327  1.9150
 1376SOL     OW15760   3.736   2.698   1.792  0.3123 -0.4481  0.3289
 1376SOL    HW115761   3.655   2.736   1.826  0.0207 -0.5683 -0.2344
 1376SOL    HW215762   3.778   2.778   1.761 -0.1907 -1.2348 -2.3375
 1377SOL     OW15763   2.668   4.180  10.487 -0.0330 -0.3222 -0.6753
 1377SOL    HW115764   2.677   4.175  10.392 -0.5172  1.8461 -0.8432
 1377SOL    HW215765   2.582   4.138  10.496 -0.0979  0.0913  0.7639
 1378SOL     OW15766   3.494   0.557   8.407 -0.2902  0.2844  0.2179
 1378SOL    HW115767   3.587   0.553   8.384  0.2360  1.7096  2.0511
 1378SOL    HW215768   3.452   0.585   8.326 -0.8425 -0.5916  0.2021
 1379SOL     OW15769   0.915   0.237  16.551  0.1068 -0.2301 -0.1612
 1379SOL    HW115770   0.887   0.258  16.462  1.1293 -0.3927 -0.5205
 1379SOL    HW215771   0.979   0.169  16.530  0.8611  0.8799 -1.4598
 1380SOL     OW15772   3.872   3.148   3.508  0.3472  0.2660  0.3828
 1380SOL    HW115773   3.848   3.055   3.506  2.4412 -0.2978  1.3572
 1380SOL    HW215774   3.923   3.157   3.427 -2.4377 -1.3558 -1.5780
 1381SOL     OW15775   2.489   1.504   8.545 -0.6819 -0.2485  0.2185
 1381SOL    HW115776   2.516   1.431   8.601  1.2153 -1.4700 -2.2844
 1381SOL    HW215777   2.569   1.550   8.523 -1.1788  0.2805 -0.4770
 1382SOL     OW15778   4.494   3.405   8.444  0.8165  0.4218  0.3650
 1382SOL    HW115779   4.484   3.315   8.412  1.5927  0.8119 -0.9718
 1382SOL    HW215780   4.423   3.447   8.395  2.0092  0.5610 -1.2565
 1383SOL     OW15781   4.727   2.220  11.684 -0.1657  0.3136  0.1880
 1383SOL    HW115782   0.032   2.135  11.677  0.2147  0.4343  1.1578
 1383SOL    HW215783   4.656   2.206  11.621  0.6987  1.9248 -1.1320
 1384SOL     OW15784   1.027   0.851   2.664  0.6598 -0.2203  0.2895
 1384SOL    HW115785   1.004   0.759   2.659  0.2698 -0.0819 -0.4185
 1384SOL    HW215786   1.013   0.871   2.757  0.7113 -1.1412  0.4927
 1385SOL     OW15787   3.528   3.524  11.499 -0.4474  0.4825  0.0439
 1385SOL    HW115788   3.462   3.474  11.452  1.1323 -1.1169 -0.4617
 1385SOL    HW215789   3.497   3.614  11.489 -0.5296  0.2843 -1.4322
 1386SOL     OW15790   0.345   3.656  15.235  0.1068 -0.2575 -0.6634
 1386SOL    HW115791   0.303   3.604  15.303 -0.8450  2.1029  0.5463
 1386SOL    HW215792   0.424   3.683  15.281  1.0114  0.1078 -2.4446
 1387SOL     OW15793   3.828   2.112   4.955  0.1877  0.0897  0.1342
 1387SOL    HW115794   3.781   2.028   4.956 -2.0329  1.3264  0.2665
 1387SOL    HW215795   3.786   2.163   4.885  1.1816 -0.2800 -0.7268
 1388SOL     OW15796   3.260   2.257   5.991 -0.3770 -0.2798 -0.5955
 1388SOL    HW115797   3.319   2.306   6.048 -0.8906 -0.0114 -0.2998
 1388SOL    HW215798   3.187   2.316   5.975  0.3521  0.3606 -1.5043
 1389SOL     OW15799   4.546   2.957   1.227 -0.2511 -0.0155 -0.0878
 1389SOL    HW115800   4.480   2.889   1.231 -1.7725  1.4936  0.2273
 1389SOL    HW215801   4.560   2.973   1.320 -0.9520 -0.0106  0.0144
 1390SOL     OW15802   0.756   1.019   6.628 -0.9711  0.1556  0.9050
 1390SOL    HW115803   0.729   1.010   6.719 -0.7461  1.7515  1.1191
 1390SOL    HW215804   0.804   1.101   6.635 -3.0954  1.7389 -2.5050
 1391SOL     OW15805   0.159   3.970   9.813  0.1521 -0.1714 -0.3069
 1391SOL    HW115806   0.148   4.003   9.902  0.2181  2.0541 -1.1239
 1391SOL    HW215807   0.222   4.035   9.781 -0.0120 -0.8802 -2.0731
 1392SOL     OW15808   1.258   1.822   3.813  0.3398  0.0671  0.0540
 1392SOL    HW115809   1.311   1.884   3.762  2.0485  1.2538  3.2656
 1392SOL    HW215810   1.220   1.762   3.748 -0.8732  0.9735 -0.0892
 1393SOL     OW15811   3.019   3.159  12.071  0.4363 -0.0398  0.5637
 1393SOL    HW115812   3.031   3.157  11.976 -0.8201  0.9982  0.3809
 1393SOL    HW215813   3.035   3.253  12.082 -2.4239  0.6297 -1.1300
 1394SOL     OW15814   2.571   3.458  14.418  0.0511 -0.1688  0.5257
 1394SOL    HW115815   2.660   3.456  14.453  0.9429 -0.0485 -1.7269
 1394SOL    HW215816   2.585   3.497  14.331  1.9723 -1.3561  0.2952
 1395SOL     OW15817   3.762   0.199  15.540 -0.3839 -0.4702  0.3199
 1395SOL    HW115818   3.764   0.238  15.627 -1.0974 -0.1670  0.2000
 1395SOL    HW215819   3.782   0.107  15.557  1.2736 -0.2609 -0.3807
 1396SOL     OW15820   1.290   2.819   8.498 -0.7947 -0.1660  0.1064
 1396SOL    HW115821   1.278   2.836   8.591  1.8495  0.8642  0.2549
 1396SOL    HW215822   1.258   2.731   8.481 -0.3960 -0.7664  2.5113
 1397SOL     OW15823   3.253   0.264  12.420 -0.8358  0.0232  0.4272
 1397SOL    HW115824   3.298   0.326  12.478  2.2860 -0.0318 -1.9904
 1397SOL    HW215825   3.291   0.286  12.335  2.4962  0.2304  1.9722
 1398SOL     OW15826   1.711   2.691   2.221  0.0280  0.0427  0.5337
 1398SOL    HW115827   1.666   2.719   2.142  0.9135  0.7809  0.2880
 1398SOL    HW215828   1.651   2.618   2.236 -0.3857  0.1833 -0.4228
 1399SOL     OW15829   1.432   1.178   3.488 -0.1650 -0.2778  0.1247
 1399SOL    HW115830   1.367   1.242   3.518 -0.4677 -0.1224 -0.8536
 1399SOL    HW215831   1.462   1.139   3.570  1.3316  0.4719 -0.0642
 1400SOL     OW15832   2.769   0.128   8.128  0.3603 -0.4055  0.4878
 1400SOL    HW115833   2.684   0.090   8.109  0.9509 -1.8131  0.6937
 1400SOL    HW215834   2.766   0.211   8.081 -0.8867 -0.2074  0.9015
 1401SOL     OW15835   2.052   0.466   4.639 -0.6144  0.3204  0.2294
 1401SOL    HW115836   2.093   0.391   4.596  0.4686  0.1942  1.4754
 1401SOL    HW215837   1.968   0.425   4.661 -1.0726  0.0491 -2.0683
 1402SOL     OW15838   4.530   4.292  12.520 -0.4988 -0.0399 -0.2090
 1402SOL    HW115839   4.469   4.280  12.446 -0.2632 -1.6138 -0.1314
 1402SOL    HW215840   4.591   4.220  12.508 -1.9457 -1.1590 -0.8179
 1403SOL     OW15841   0.655   4.478   0.109  0.9872 -0.3159  0.1881
 1403SOL    HW115842   0.687   4.391   0.083 -2.7671 -1.6205 -0.2011
 1403SOL    HW215843   0.717   4.534   0.063  1.9736 -3.2270 -2.0364
 1404SOL     OW15844   2.903   2.444   5.014  0.1124  0.3183 -0.0770
 1404SOL    HW115845   2.982   2.410   4.972 -2.1442 -0.7557 -3.4354
 1404SOL    HW215846   2.940   2.503   5.080  3.7061 -1.5196 -0.4522
 1405SOL     OW15847   2.401   0.511   5.820 -0.3482  0.5840  0.1508
 1405SOL    HW115848   2.379   0.427   5.861  1.7551  1.1394  2.3473
 1405SOL    HW215849   2.329   0.561   5.858  1.7249  1.5475  2.7649
 1406SOL     OW15850   1.352   3.850  10.811 -0.1679 -0.0647  0.1041
 1406SOL    HW115851   1.336   3.777  10.871  0.3769  0.8118  1.3057
 1406SOL    HW215852   1.442   3.877  10.832  0.2489 -0.7843 -0.7352
 1407SOL     OW15853   4.636   4.056   9.167  0.6106 -0.1840 -0.2730
 1407SOL    HW115854   4.610   3.994   9.235 -3.3622 -1.6756 -3.1601
 1407SOL    HW215855   4.553   4.065   9.120 -0.6180 -2.0956  1.5510
 1408SOL     OW15856   4.701   3.188   1.923 -0.4636  0.2669 -0.2132
 1408SOL    HW115857   4.706   3.147   2.009  1.4736  2.0795  0.5437
 1408SOL    HW215858   0.051   3.220   1.916 -0.3469  0.1584  0.8112
 1409SOL     OW15859   1.042   3.543   1.080  0.2861  0.4680 -0.5879
 1409SOL    HW115860   1.082   3.556   1.165 -2.5757  0.2240  0.8173
 1409SOL    HW215861   1.044   3.635   1.052  2.0758  0.4529 -0.4658
 1410SOL     OW15862   3.490   2.939   7.702  0.1445  0.4976 -0.5252
 1410SOL    HW115863   3.549   2.913   7.631 -0.9317  1.3102 -1.7240
 1410SOL    HW215864   3.548   2.979   7.767  1.9932 -0.6002 -1.4941
 1411SOL     OW15865   1.526   4.083   6.835  0.6079 -0.3036  0.1627
 1411SOL    HW115866   1.561   4.000   6.867 -0.0022 -1.0143 -1.0235
 1411SOL    HW215867   1.524   4.058   6.742  2.4173 -3.0282  0.8540
 1412SOL     OW15868   0.670   3.608   3.121  0.3242  0.1267 -0.4049
 1412SOL    HW115869   0.624   3.576   3.044 -0.0969  1.7020 -0.8146
 1412SOL    HW215870   0.599   3.644   3.175 -0.5139 -0.1360 -1.3374
 1413SOL     OW15871   3.255   4.218   8.398 -0.2802  0.3938 -0.4999
 1413SOL    HW115872   3.162   4.243   8.392 -0.0713  1.5227  0.8566
 1413SOL    HW215873   3.310   4.295   8.385  0.8231  0.3761  4.0874
 1414SOL     OW15874   4.661   2.472   6.959 -0.5123  0.4252 -0.3785
 1414SOL    HW115875   4.572   2.507   6.946 -0.7945 -0.6625 -1.3180
 1414SOL    HW215876   4.724   2.537   6.930 -0.7054  2.0881  2.8402
 1415SOL     OW15877   0.258   0.017   2.528  0.0680  0.2279  0.2972
 1415SOL    HW115878   0.342   0.031   2.570 -0.9213 -0.9069  2.6498
 1415SOL    HW215879   0.284   0.030   2.437 -1.5877 -1.4971 -0.4205
 1416SOL     OW15880   3.743   4.432   8.094 -0.6726  0.4278 -0.3470
 1416SOL    HW115881   3.680   4.485   8.141 -0.5579  0.3222 -0.0732
 1416SOL    HW215882   3.690   4.397   8.022 -0.1622  1.2647 -1.1323
 1417SOL     OW15883   3.935   4.490   3.407 -0.2828 -0.2182  0.1890
 1417SOL    HW115884   3.840   4.506   3.406 -0.0481  1.0181 -2.4483
 1417SOL    HW215885   3.964   4.549   3.476 -0.6659  0.9965 -0.6932
 1418SOL     OW15886   2.107   2.575   2.392 -0.0324  0.1192  0.0982
 1418SOL    HW115887   2.180   2.636   2.393  0.2800 -0.2332 -0.7564
 1418SOL    HW215888   2.143   2.510   2.332 -0.9985  0.2018 -0.5701
 1419SOL     OW15889   3.645   0.061  10.854 -0.1986  0.2441  0.2025
 1419SOL    HW115890   3.560   0.089  10.887 -0.9285 -2.3254  0.4971
 1419SOL    HW215891   3.696   0.098  10.926 -0.2706  0.4318  0.1573
 1420SOL     OW15892   3.290   2.214  10.559  0.0355 -0.2369  0.3095
 1420SOL    HW115893   3.223   2.187  10.496  2.1500 -0.0475 -2.0451
 1420SOL    HW215894   3.238   2.205  10.638 -1.0915  1.1630 -0.2918
 1421SOL     OW15895   3.634   1.952   7.072  0.1364 -0.1210 -0.3441
 1421SOL    HW115896   3.540   1.957   7.093  0.2816 -3.0373  0.9790
 1421SOL    HW215897   3.626   1.939   6.978 -1.5419 -0.6837 -0.1239
 1422SOL     OW15898   0.743   3.306   4.735  0.3468  0.2816 -0.5541
 1422SOL    HW115899   0.744   3.224   4.686  1.1684 -1.0286  1.6831
 1422SOL    HW215900   0.723   3.377   4.673  1.5172  0.7360 -0.3996
 1423SOL     OW15901   4.315   4.616   6.765 -1.0039  0.4262  0.1599
 1423SOL    HW115902   4.235   4.574   6.798 -0.7869  0.0366  0.1915
 1423SOL    HW215903   4.374   4.617   6.841 -1.0334  1.6226  0.1574
 1424SOL     OW15904   2.021   4.682   7.002 -0.5165  0.1606  0.2056
 1424SOL    HW115905   2.004   0.031   6.969 -0.6366 -0.2598 -0.8636
 1424SOL    HW215906   1.931   4.648   7.005 -0.3085 -0.3119  1.1077
 1425SOL     OW15907   0.808   3.471  14.455  0.2476 -0.5268  0.2282
 1425SOL    HW115908   0.898   3.462  14.487  0.0345  0.1834  1.0045
 1425SOL    HW215909   0.800   3.408  14.383 -1.2094 -1.1193  0.9158
 1426SOL     OW15910   3.079   0.683  12.776  0.4490  0.6749  0.1639
 1426SOL    HW115911   3.131   0.602  12.776 -0.5360  0.0482 -2.1096
 1426SOL    HW215912   3.143   0.754  12.770 -0.3963  1.3177 -1.1529
 1427SOL     OW15913   3.238   1.455   7.174  0.4232  0.8300 -0.0744
 1427SOL    HW115914   3.293   1.532   7.159  0.1749  0.8478 -0.9003
 1427SOL    HW215915   3.248   1.451   7.269  0.9026  0.4724 -0.1401
 1428SOL     OW15916   3.674   2.186   9.546  0.2939 -0.1540  0.2496
 1428SOL    HW115917   3.597   2.242   9.538 -0.8690 -1.5556  1.5188
 1428SOL    HW215918   3.675   2.167   9.640 -1.1812  0.8964  0.4799
 1429SOL     OW15919   2.455   2.589   9.272  0.2163 -0.1471  0.0659
 1429SOL    HW115920   2.521   2.657   9.258  1.9489 -1.9797 -0.7657
 1429SOL    HW215921   2.509   2.537   9.332 -0.3584  0.8368  1.4403
 1430SOL     OW15922   3.544   2.937   8.226  0.2230 -0.5423  0.1981
 1430SOL    HW115923   3.631   2.933   8.265  0.7805 -1.9231 -1.1589
 1430SOL    HW215924   3.519   3.029   8.223 -1.7230 -1.0824 -0.0811
 1431SOL     OW15925   4.261   1.328   1.581 -0.0661  0.1170  0.3155
 1431SOL    HW115926   4.287   1.375   1.660 -1.4168 -1.4622  1.7033
 1431SOL    HW215927   4.328   1.260   1.583 -0.8693 -0.6932 -0.1325
 1432SOL     OW15928   3.351   2.099   8.713 -0.1810  0.4359 -0.3397
 1432SOL    HW115929   3.420   2.119   8.777  0.3857  0.4081 -0.9497
 1432SOL    HW215930   3.390   2.150   8.643 -1.0780  0.7000 -0.6380
 1433SOL     OW15931   1.241   2.963  11.819 -1.0182 -0.6808 -0.2946
 1433SOL    HW115932   1.159   2.968  11.771 -2.0279 -0.4013  1.4753
 1433SOL    HW215933   1.292   3.022  11.763  0.8558 -0.0404  2.0644
 1434SOL     OW15934   1.272   3.121   8.728 -0.0893  0.2163  0.2624
 1434SOL    HW115935   1.294   3.029   8.743 -0.5610 -0.0810 -0.8924
 1434SOL    HW215936   1.358   3.155   8.702 -0.2417  0.5569  0.1989
 1435SOL     OW15937   1.513   0.447   2.394 -0.9946 -0.0904 -0.1752
 1435SOL    HW115938   1.491   0.388   2.466 -0.8716 -0.7847 -0.7108
 1435SOL    HW215939   1.594   0.489   2.425  0.8269 -1.2341 -3.4342
 1436SOL     OW15940   3.231   1.742  13.906  0.2969  0.0079  0.4433
 1436SOL    HW115941   3.155   1.737  13.964 -1.0606 -0.4225 -1.3714
 1436SOL    HW215942   3.272   1.817  13.948 -0.3400  0.8669 -0.4591
 1437SOL     OW15943   0.751   4.280  17.691  0.1591 -0.0511 -0.4945
 1437SOL    HW115944   0.739   4.306  17.599 -0.8720  0.9621 -0.0772
 1437SOL    HW215945   0.713   4.192  17.697 -0.6311  0.3199 -0.0021
 1438SOL     OW15946   4.721   4.012   1.800  0.0822  0.2948  0.0426
 1438SOL    HW115947   4.721   4.096   1.754  0.9018  0.4254  0.2823
 1438SOL    HW215948   4.725   3.943   1.734  3.3011 -0.2412  0.7805
 1439SOL     OW15949   2.977   0.710   3.296 -0.3943 -0.2353  0.2222
 1439SOL    HW115950   2.968   0.747   3.383 -1.7134 -0.7552  0.3040
 1439SOL    HW215951   3.072   0.695   3.295 -0.0721  1.7994 -0.4462
 1440SOL     OW15952   0.750   2.079   3.302  0.0011 -0.8535 -0.0621
 1440SOL    HW115953   0.827   2.094   3.357  0.0415 -0.0372 -0.3463
 1440SOL    HW215954   0.798   2.020   3.243  0.4998 -0.2195 -0.2832
 1441SOL     OW15955   2.671   4.600   1.517  0.1587  0.1737 -0.2023
 1441SOL    HW115956   2.707   4.533   1.460 -1.6613 -0.5995 -0.4344
 1441SOL    HW215957   2.664   4.558   1.602  1.2673  0.2176 -0.0945
 1442SOL     OW15958   0.314   0.061   1.379  0.1050 -0.2850  0.0565
 1442SOL    HW115959   0.352   0.011   1.306  0.4096  1.0952 -0.7402
 1442SOL    HW215960   0.394   0.104   1.410 -0.2995  0.8773 -0.4811
 1443SOL     OW15961   2.892   1.082   8.216  0.0871 -0.0267  0.1707
 1443SOL    HW115962   2.847   1.140   8.155  1.1284  0.4524 -0.1342
 1443SOL    HW215963   2.940   1.019   8.161  0.5049  0.4003  0.0507
 1444SOL     OW15964   1.587   1.659   1.778 -0.1541 -0.0533 -0.7467
 1444SOL    HW115965   1.616   1.716   1.707  0.1192 -1.3440 -1.6634
 1444SOL    HW215966   1.514   1.713   1.807  0.0738 -0.1557  0.0236
 1445SOL     OW15967   0.306   4.367   2.429  0.2060 -1.1497  0.2208
 1445SOL    HW115968   0.249   4.386   2.503  1.1439 -1.9414  1.1425
 1445SOL    HW215969   0.263   4.418   2.360 -0.7999 -4.1934 -1.3952
 1446SOL     OW15970   3.894   4.136  11.193  0.1255  0.0366  0.2470
 1446SOL    HW115971   3.909   4.199  11.122 -1.0698 -1.0314 -0.9606
 1446SOL    HW215972   3.982   4.120  11.228  1.1370  3.1693 -0.8037
 1447SOL     OW15973   1.114   1.466  15.943  0.1937 -0.7163 -0.0306
 1447SOL    HW115974   1.072   1.436  15.863 -0.1641 -0.9630  0.2476
 1447SOL    HW215975   1.165   1.392  15.976  0.2125 -1.4698 -1.7381
 1448SOL     OW15976   2.370   0.703  11.914 -0.4750 -0.0151 -0.4975
 1448SOL    HW115977   2.297   0.658  11.956 -0.9169 -1.0551 -2.3681
 1448SOL    HW215978   2.328   0.767  11.855  0.5328  1.7933  0.7641
 1449SOL     OW15979   2.993   0.606   5.790 -0.3916  0.0959  0.1205
 1449SOL    HW115980   3.079   0.563   5.787 -0.1653  0.4108  2.2163
 1449SOL    HW215981   2.931   0.537   5.811  1.0413 -1.5737 -1.1089
 1450SOL     OW15982   2.412   2.855   4.604  0.3352 -0.1861 -0.1150
 1450SOL    HW115983   2.429   2.812   4.520  0.6689 -2.2360  0.9929
 1450SOL    HW215984   2.471   2.806   4.661  0.1775 -0.1580  0.0706
 1451SOL     OW15985   2.280   1.349   2.911 -0.2515  0.4540  0.2969
 1451SOL    HW115986   2.226   1.426   2.929 -1.4535 -0.2928 -0.1217
 1451SOL    HW215987   2.224   1.293   2.857 -0.4418  0.2531  0.7058
 1452SOL     OW15988   3.816   3.548  16.304  0.0410 -0.2693  0.1156
 1452SOL    HW115989   3.831   3.614  16.236 -1.0893 -0.1249  0.0040
 1452SOL    HW215990   3.737   3.581  16.345 -0.3188 -1.9780  0.8058
 1453SOL     OW15991   2.669   3.643   6.258  0.1085  0.1612  0.3299
 1453SOL    HW115992   2.594   3.690   6.294 -0.3243  0.2846 -0.7308
 1453SOL    HW215993   2.625   3.559   6.274 -1.8887  1.2522  0.6235
 1454SOL     OW15994   1.065   3.363   1.541  0.1289  0.2678  0.4711
 1454SOL    HW115995   1.148   3.377   1.496 -0.4152  1.2311 -0.2365
 1454SOL    HW215996   1.074   3.269   1.558  0.6069  0.3830  0.8672
 1455SOL     OW15997   3.095   2.122   7.554  0.1600  0.1817 -0.0539
 1455SOL    HW115998   3.096   2.055   7.623  0.6387 -0.8800 -1.1004
 1455SOL    HW215999   3.022   2.182   7.573  0.8414  0.4910  1.6269
 1456SOL     OW16000   1.306   2.819   4.004 -0.4261  0.2815  0.1555
 1456SOL    HW116001   1.283   2.729   4.029  0.0618 -0.0491 -0.5907
 1456SOL    HW216002   1.227   2.862   3.972 -0.8699 -0.8039 -0.2068
 1457SOL     OW16003   0.146   1.073   5.918  0.1281  0.3419 -0.6335
 1457SOL    HW116004   0.224   1.037   5.875  0.5077  1.6742 -1.0418
 1457SOL    HW216005   0.173   1.163   5.933 -0.2102 -0.0772  2.4466
 1458SOL     OW16006   3.061   1.893   0.533 -0.3419  0.1813  0.1702
 1458SOL    HW116007   3.146   1.937   0.540 -1.0799  1.0381  3.7670
 1458SOL    HW216008   3.041   1.909   0.441 -0.6972  2.1598  0.5919
 1459SOL     OW16009   4.725   4.276  17.405  0.1772 -0.2923  0.0159
 1459SOL    HW116010   4.722   4.365  17.369 -0.6850  0.1652  1.2058
 1459SOL    HW216011   4.633   4.269  17.431 -0.0458  1.2856 -0.3688
 1460SOL     OW16012   2.909   3.503   5.733  0.3845 -0.1199  0.5533
 1460SOL    HW116013   2.827   3.552   5.726  0.1624 -0.6361 -0.4557
 1460SOL    HW216014   2.941   3.530   5.647  2.6615 -0.8537  1.1573
 1461SOL     OW16015   3.028   0.706   0.797  0.5925 -0.1073  0.1945
 1461SOL    HW116016   3.004   0.665   0.879 -1.7670 -1.3634 -1.1269
 1461SOL    HW216017   3.012   0.635   0.735  0.1972  0.1641 -0.0172
 1462SOL     OW16018   4.605   3.482   6.271 -0.5495  0.1002  0.4860
 1462SOL    HW116019   4.579   3.472   6.362 -1.9584 -0.1497  0.0605
 1462SOL    HW216020   4.519   3.461   6.234  0.1838 -1.2005 -0.4690
 1463SOL     OW16021   1.301   2.137  17.674 -0.2749 -0.1470  0.2256
 1463SOL    HW116022   1.252   2.156  17.754 -0.3948 -2.6535  0.7339
 1463SOL    HW216023   1.264   2.057  17.636  0.9188 -0.6819  0.1796
 1464SOL     OW16024   0.212   0.624   6.812  0.5102  0.5943 -0.3061
 1464SOL    HW116025   0.161   0.692   6.769 -0.6804  0.2300  0.5346
 1464SOL    HW216026   0.142   0.595   6.871  1.1352 -1.6059 -0.6322
 1465SOL     OW16027   2.071   0.180   7.236 -0.1209  0.4183 -0.1434
 1465SOL    HW116028   2.146   0.174   7.177 -0.8194  0.7287 -1.0639
 1465SOL    HW216029   2.113   0.193   7.321  0.6523 -1.9962 -0.1572
 1466SOL     OW16030   1.945   4.484  11.700 -0.0788 -0.7036  0.0841
 1466SOL    HW116031   1.888   4.482  11.623  0.7291 -1.8064 -0.4860
 1466SOL    HW216032   1.883   4.459  11.769 -0.2564  0.9847  0.5398
 1467SOL     OW16033   4.400   0.799   7.407  0.4341  0.7960 -0.0364
 1467SOL    HW116034   4.385   0.873   7.348 -0.2707 -0.1914 -1.1033
 1467SOL    HW216035   4.467   0.758   7.353 -1.3518 -1.9897 -0.1298
 1468SOL     OW16036   0.589   2.861  13.555  0.4226  0.1601 -0.1320
 1468SOL    HW116037   0.612   2.821  13.471 -1.8112  0.3704 -0.8552
 1468SOL    HW216038   0.494   2.857  13.547  0.4668  1.3056 -1.2371
 1469SOL     OW16039   2.445   1.584   4.564 -0.9774 -0.3702  0.2097
 1469SOL    HW116040   2.434   1.505   4.617 -0.3869  0.7540  2.0238
 1469SOL    HW216041   2.440   1.646   4.637  0.5642 -0.6948  0.5915
 1470SOL     OW16042   3.103   0.416  17.173  0.0825  0.2305 -0.4098
 1470SOL    HW116043   3.008   0.423  17.164  0.0734  2.3347  1.3377
 1470SOL    HW216044   3.123   0.377  17.088  0.5044  0.3637 -0.3674
 1471SOL     OW16045   2.543   4.075   6.861  0.3897 -0.0527  0.1941
 1471SOL    HW116046   2.458   4.036   6.839 -0.2918  0.0043  2.6793
 1471SOL    HW216047   2.548   4.081   6.957 -1.2042  1.1759  0.2155
 1472SOL     OW16048   3.993   4.550  11.857  0.3566 -0.2662 -0.6793
 1472SOL    HW116049   4.028   4.498  11.785  0.4372 -2.5158  0.9713
 1472SOL    HW216050   4.022   4.506  11.938 -0.0124 -2.5579 -1.7868
 1473SOL     OW16051   3.305   2.988   1.039 -0.0685  0.1276  0.0206
 1473SOL    HW116052   3.250   2.943   1.103 -1.7960  1.0733 -0.8201
 1473SOL    HW216053   3.284   3.081   1.050  0.7505  0.5403 -1.8571
 1474SOL     OW16054   0.358   0.221   9.943  0.4508 -0.0049  0.0896
 1474SOL    HW116055   0.376   0.301   9.895 -0.0838 -0.1574 -0.3672
 1474SOL    HW216056   0.433   0.209  10.002  1.7208  1.0004 -1.3083
 1475SOL     OW16057   0.144   2.500   5.928 -0.2433  0.1336  0.4778
 1475SOL    HW116058   0.213   2.532   5.870 -0.4110 -0.1016  0.1469
 1475SOL    HW216059   0.096   2.442   5.869 -0.7797  0.4463  0.6149
 1476SOL     OW16060   1.222   1.884   6.877 -0.1151 -0.0360 -0.3947
 1476SOL    HW116061   1.247   1.944   6.947 -2.2699  2.5786 -1.8406
 1476SOL    HW216062   1.280   1.813   6.903  0.2437 -0.6183 -2.7125
 1477SOL     OW16063   2.448   1.308   3.348  0.0903 -0.2218  0.3513
 1477SOL    HW116064   2.403   1.225   3.335 -0.3798  0.3057 -1.3765
 1477SOL    HW216065   2.457   1.340   3.258 -0.7716  0.0157  0.3477
 1478SOL     OW16066   4.280   1.364   4.618  0.1996 -0.5661 -0.0957
 1478SOL    HW116067   4.346   1.295   4.606 -0.3141 -1.0857  0.0711
 1478SOL    HW216068   4.332   1.444   4.621  0.4962 -0.7046 -1.6472
 1479SOL     OW16069   3.966   4.670   7.164  0.8263  0.0776 -0.6650
 1479SOL    HW116070   3.919   4.721   7.231 -0.0731  0.5091 -1.6284
 1479SOL    HW216071   4.025   4.619   7.220  1.0708 -1.3840 -2.2730
 1480SOL     OW16072   3.943   4.181   8.371 -0.2242  0.3791  0.2410
 1480SOL    HW116073   4.014   4.158   8.432  0.0689  0.7189  0.0304
 1480SOL    HW216074   3.910   4.267   8.400 -2.0359 -0.4459  0.6256
 1481SOL     OW16075   2.527   2.524   7.631 -0.4444  0.4837 -0.2602
 1481SOL    HW116076   2.560   2.608   7.599  0.8230  1.2674  3.1858
 1481SOL    HW216077   2.570   2.458   7.575  1.3715  0.6110  0.9942
 1482SOL     OW16078   0.493   2.998  10.902 -0.6642  0.3227  0.0302
 1482SOL    HW116079   0.459   3.086  10.918  1.4603  0.5412  3.5075
 1482SOL    HW216080   0.567   3.001  10.964 -0.2719 -1.8879 -0.3191
 1483SOL     OW16081   4.007   1.554   0.595  0.2073 -0.1279  0.3445
 1483SOL    HW116082   4.000   1.502   0.515 -0.6737  0.0100  0.3275
 1483SOL    HW216083   4.061   1.494   0.646 -0.1783 -1.1017 -0.4005
 1484SOL     OW16084   2.691   1.470   0.579  0.1305  0.2844 -0.0297
 1484SOL    HW116085   2.603   1.466   0.544 -0.1006  0.4494  0.5259
 1484SOL    HW216086   2.693   1.555   0.624 -1.4712  0.1560  0.2880
 1485SOL     OW16087   0.773   1.172  17.260  0.4486  0.3567 -0.3226
 1485SOL    HW116088   0.715   1.231  17.308 -0.0928 -1.6897  1.5709
 1485SOL    HW216089   0.860   1.212  17.269  0.8942 -0.8098  0.5975
 1486SOL     OW16090   1.628   0.001   1.936 -0.0460 -0.3196 -0.2270
 1486SOL    HW116091   1.618   4.738   1.841  1.1890  1.9564 -0.4081
 1486SOL    HW216092   1.721   0.020   1.948 -0.4245  1.6132 -0.3311
 1487SOL     OW16093   2.896   1.473   8.431  0.4856  0.4784 -0.0474
 1487SOL    HW116094   2.865   1.462   8.521 -0.0126 -0.9549 -0.3955
 1487SOL    HW216095   2.856   1.558   8.413 -0.4790 -0.2548 -1.3485
 1488SOL     OW16096   0.132   0.433   9.824 -0.0642  0.1830 -0.1466
 1488SOL    HW116097   0.050   0.383   9.831  0.7170 -0.9005  1.2344
 1488SOL    HW216098   0.185   0.379   9.766  0.1517 -0.6581  0.8337
 1489SOL     OW16099   2.554   2.116  15.736 -0.0333  0.0118  0.1999
 1489SOL    HW116100   2.463   2.112  15.707  0.6325 -0.0996 -1.8569
 1489SOL    HW216101   2.571   2.210  15.735  0.7047 -0.0932  1.7927
 1490SOL     OW16102   3.554   0.901   9.586 -0.3999  0.5827 -0.0854
 1490SOL    HW116103   3.527   0.959   9.657  0.3595 -0.1306  0.7745
 1490SOL    HW216104   3.518   0.953   9.514  2.2951  0.7252 -1.3187
 1491SOL     OW16105   1.221   2.460   1.544 -0.5809  0.4918  0.8826
 1491SOL    HW116106   1.178   2.540   1.574  0.1963  1.0064  0.6339
 1491SOL    HW216107   1.236   2.472   1.450  0.1186  1.2004  1.0783
 1492SOL     OW16108   1.185   2.111   1.782  0.1411 -0.5080  0.2811
 1492SOL    HW116109   1.111   2.153   1.826  0.2367  1.8567 -1.7754
 1492SOL    HW216110   1.131   2.048   1.735  0.8753 -1.3457  0.5659
 1493SOL     OW16111   3.757   0.830   1.746 -0.1165 -0.2928 -0.1865
 1493SOL    HW116112   3.685   0.772   1.720 -0.4471  0.2865 -0.5503
 1493SOL    HW216113   3.829   0.830   1.684 -0.9753  1.4884 -1.1718
 1494SOL     OW16114   2.286   4.440   3.026  0.2714  0.1814  0.1101
 1494SOL    HW116115   2.260   4.487   2.947  2.5668  1.1406 -0.0661
 1494SOL    HW216116   2.358   4.386   2.993  0.4224  0.7333 -0.4701
 1495SOL     OW16117   3.556   4.098   8.128  0.4563  0.0868 -0.6440
 1495SOL    HW116118   3.469   4.133   8.148  0.9807 -0.6758  3.0715
 1495SOL    HW216119   3.618   4.131   8.193 -1.0665  0.7241  0.4799
 1496SOL     OW16120   1.854   4.453   7.306  0.0088  0.8203  0.0700
 1496SOL    HW116121   1.935   4.495   7.279  1.1955 -0.1756  2.1345
 1496SOL    HW216122   1.886   4.390   7.371  1.7003  2.4131  0.7689
 1497SOL     OW16123   2.117   3.425   1.295  0.3638  0.2730 -0.5160
 1497SOL    HW116124   2.076   3.492   1.350  0.3896 -0.8855  0.9286
 1497SOL    HW216125   2.089   3.450   1.207  0.0952  0.4141 -0.3901
 1498SOL     OW16126   0.895   0.422   6.414 -0.1632  0.3762 -0.1961
 1498SOL    HW116127   0.920   0.451   6.502 -0.8211 -1.1642  0.4916
 1498SOL    HW216128   0.980   0.416   6.371  0.8127  1.1281  1.5919
 1499SOL     OW16129   4.269   0.551   3.310 -0.1176  0.5713  0.0111
 1499SOL    HW116130   4.273   0.549   3.405  2.4803  1.6103 -0.0689
 1499SOL    HW216131   4.263   0.460   3.283 -1.5780  0.6669  0.0325
 1500SOL     OW16132   1.662   4.016  16.589  0.0996 -0.1033 -0.3160
 1500SOL    HW116133   1.569   4.009  16.568  0.2290 -0.1159 -0.8991
 1500SOL    HW216134   1.673   4.110  16.574 -0.7415  0.3207  1.7905
 1501SOL     OW16135   0.235   3.736  15.555  0.3952  0.0962  0.0987
 1501SOL    HW116136   0.140   3.728  15.553  0.3345  0.9151 -0.3995
 1501SOL    HW216137   0.268   3.653  15.519 -0.9077 -1.0668  1.5859
 1502SOL     OW16138   2.234   3.791  17.234  0.3790 -0.2249 -0.6410
 1502SOL    HW116139   2.156   3.738  17.248  1.5742 -1.3354  1.7711
 1502SOL    HW216140   2.233   3.817  17.141  1.4391  0.2838 -0.5054
 1503SOL     OW16141   3.228   4.531   4.990 -0.8579 -0.3634  0.0252
 1503SOL    HW116142   3.159   4.549   5.054 -0.3504 -0.7682  0.6956
 1503SOL    HW216143   3.211   4.607   4.935 -0.5099 -0.0642  0.3361
 1504SOL     OW16144   4.453   3.609   9.602  0.2839 -0.0830 -0.2833
 1504SOL    HW116145   4.499   3.668   9.662 -0.0536  1.7849 -1.8537
 1504SOL    HW216146   4.430   3.657   9.523 -0.2012 -1.9113 -1.2524
 1505SOL     OW16147   3.081   1.106  14.613  0.1413 -0.2520 -0.4797
 1505SOL    HW116148   3.177   1.112  14.615  0.1073  0.0418  0.2696
 1505SOL    HW216149   3.061   1.116  14.520 -2.0490  2.1103  0.2743
 1506SOL     OW16150   3.306   1.646   8.229  0.1334  0.6416 -0.6515
 1506SOL    HW116151   3.273   1.602   8.151 -1.1160  0.5096 -0.0431
 1506SOL    HW216152   3.231   1.683   8.276  1.2649 -1.5337  2.8976
 1507SOL     OW16153   3.545   1.832   3.057 -0.3833  0.1685  0.2853
 1507SOL    HW116154   3.529   1.758   3.116 -1.3156  0.4404  0.3840
 1507SOL    HW216155   3.454   1.862   3.048 -0.3265  0.1034 -0.4918
 1508SOL     OW16156   4.084   3.641   4.155 -0.6994 -0.0133  0.4906
 1508SOL    HW116157   4.014   3.580   4.179 -1.3209 -0.2170 -1.8469
 1508SOL    HW216158   4.154   3.575   4.153 -0.5970  0.1378 -0.8203
 1509SOL     OW16159   0.516   0.999   2.818  0.1129 -0.4026  0.1289
 1509SOL    HW116160   0.559   0.950   2.888 -0.0607 -1.1167 -0.2626
 1509SOL    HW216161   0.468   0.925   2.780  0.1228  0.8182 -2.2813
 1510SOL     OW16162   4.208   1.200   2.928  0.1710 -0.6095 -0.4614
 1510SOL    HW116163   4.180   1.267   2.991  0.3525  0.2793 -1.3162
 1510SOL    HW216164   4.242   1.259   2.861 -1.6584  0.0137 -0.8148
 1511SOL     OW16165   4.416   0.559  14.429 -0.1167 -0.1978  0.4732
 1511SOL    HW116166   4.404   0.478  14.380  0.6377  0.7912 -1.3484
 1511SOL    HW216167   4.326   0.589  14.443 -0.6269 -0.6400 -1.8272
 1512SOL     OW16168   2.669   0.220  13.774 -0.6676 -0.2907  0.0290
 1512SOL    HW116169   2.722   0.266  13.709  0.7438 -2.6334 -0.4951
 1512SOL    HW216170   2.681   0.127  13.756 -1.8475 -0.2344 -1.1060
 1513SOL     OW16171   3.537   4.695   4.161 -0.7165  0.6249  0.0926
 1513SOL    HW116172   3.549   0.047   4.139  1.4745  1.6026  5.5771
 1513SOL    HW216173   3.625   4.656   4.155 -0.4186  1.3459 -0.1694
 1514SOL     OW16174   0.257   2.153  12.538  0.0840  0.2627 -0.5877
 1514SOL    HW116175   0.277   2.082  12.600  0.5652 -0.8103 -1.9620
 1514SOL    HW216176   0.222   2.099  12.467  0.7809  0.9389 -1.4469
 1515SOL     OW16177   1.492   0.648   3.392 -0.1851 -0.3337  0.2565
 1515SOL    HW116178   1.462   0.649   3.301  1.2567  1.8022 -0.2043
 1515SOL    HW216179   1.521   0.557   3.400  0.7441 -0.3443 -3.5747
 1516SOL     OW16180   0.341   2.587  13.327 -0.1697  0.2414  0.6772
 1516SOL    HW116181   0.418   2.530  13.320 -0.7910 -0.3884 -0.8832
 1516SOL    HW216182   0.280   2.525  13.368  1.2769 -2.0538 -0.6680
 1517SOL     OW16183   1.905   3.650   3.930 -0.1753 -0.2712 -0.4582
 1517SOL    HW116184   1.941   3.674   4.015 -2.2107 -0.0971  0.3591
 1517SOL    HW216185   1.814   3.635   3.955 -0.9808  3.1356 -1.3409
 1518SOL     OW16186   4.568   0.839   9.919 -0.3864 -0.2425 -0.2632
 1518SOL    HW116187   4.645   0.896   9.925  1.1252 -2.3843  0.4904
 1518SOL    HW216188   4.574   0.792   9.836 -0.4088 -0.4708 -0.1328
 1519SOL     OW16189   4.052   2.187   8.114 -0.0153  0.4146  0.1420
 1519SOL    HW116190   4.121   2.159   8.175  0.2672  1.2997  0.2198
 1519SOL    HW216191   4.095   2.259   8.068  1.1227 -0.8016 -0.7480
 1520SOL     OW16192   2.730   2.518  12.855  0.2044 -0.4461  0.2008
 1520SOL    HW116193   2.708   2.610  12.844  1.0210 -0.4339 -1.3971
 1520SOL    HW216194   2.823   2.522  12.831 -0.0552 -1.4825 -1.0188
 1521SOL     OW16195   1.717   4.479   1.106 -0.2854 -0.3170  0.2946
 1521SOL    HW116196   1.656   4.512   1.040 -0.0428 -1.4564 -0.5005
 1521SOL    HW216197   1.675   4.404   1.147 -0.0418 -0.9634 -0.6307
 1522SOL     OW16198   1.531   2.637   3.498 -0.2552  0.1261 -0.0694
 1522SOL    HW116199   1.596   2.581   3.456  1.1538 -0.3382  2.7673
 1522SOL    HW216200   1.582   2.695   3.555  0.5582 -0.6772  0.0210
 1523SOL     OW16201   2.353   2.134   5.526  0.3189  0.2704  0.2584
 1523SOL    HW116202   2.278   2.175   5.483 -0.0725 -2.3217 -1.5566
 1523SOL    HW216203   2.317   2.138   5.615 -0.5635 -1.2672 -0.0317
 1524SOL     OW16204   0.570   4.661   1.409  0.2187  0.4302 -0.5894
 1524SOL    HW116205   0.635   4.714   1.362  2.4019  0.0299  2.0166
 1524SOL    HW216206   0.567   4.694   1.499 -1.4641 -0.6986 -0.2348
 1525SOL     OW16207   0.188   3.073   8.634  0.1631  0.1979 -0.2428
 1525SOL    HW116208   0.137   3.033   8.704 -0.2486  2.1886  0.5926
 1525SOL    HW216209   0.132   3.142   8.599  0.3382  1.0158  1.1023
 1526SOL     OW16210   1.632   0.737  13.223 -0.7742 -0.0294  0.2441
 1526SOL    HW116211   1.672   0.654  13.249  1.3793  0.8574 -0.1814
 1526SOL    HW216212   1.650   0.783  13.306  0.7118  1.0759 -0.6822
 1527SOL     OW16213   3.571   1.276   7.142  0.0474  0.2201 -0.3751
 1527SOL    HW116214   3.484   1.314   7.129  0.5580  0.7680 -2.1825
 1527SOL    HW216215   3.584   1.214   7.070 -2.7012  2.0129 -2.4195
 1528SOL     OW16216   0.181   0.675  17.546 -0.0779 -0.0692 -0.3415
 1528SOL    HW116217   0.148   0.589  17.520  2.1604 -1.1354  0.3211
 1528SOL    HW216218   0.277   0.671  17.539 -0.2107 -1.9091 -1.1652
 1529SOL     OW16219   0.083   3.577  12.836  0.7584 -0.0377  0.8374
 1529SOL    HW116220   0.151   3.531  12.788  0.7442 -0.4770  1.2397
 1529SOL    HW216221   0.020   3.611  12.771  1.4628  1.1526  0.7759
 1530SOL     OW16222   0.468   1.142   4.852  0.0940  0.3885  0.4373
 1530SOL    HW116223   0.519   1.064   4.874  0.9300  0.2296 -2.0141
 1530SOL    HW216224   0.440   1.173   4.938 -1.8007 -1.3916  0.4525
 1531SOL     OW16225   4.355   0.633  10.148 -0.1981 -0.5568 -0.2308
 1531SOL    HW116226   4.378   0.703  10.087  0.6113  0.0439  0.7547
 1531SOL    HW216227   4.426   0.646  10.211  0.5540  5.0293 -2.2266
 1532SOL     OW16228   0.109   4.318  13.372 -0.5533  0.3270 -0.3827
 1532SOL    HW116229   0.194   4.302  13.414 -0.6945 -1.0021 -0.5847
 1532SOL    HW216230   0.137   4.357  13.290 -1.6423 -0.8969 -1.3464
 1533SOL     OW16231   1.388   3.874   8.097 -0.3004 -0.4276  0.3654
 1533SOL    HW116232   1.296   3.896   8.112 -0.2492  0.1105 -0.1046
 1533SOL    HW216233   1.417   3.818   8.169  1.4862 -0.4920 -0.3954
 1534SOL     OW16234   1.638   4.485   6.642  0.1973 -0.6117 -0.2452
 1534SOL    HW116235   1.709   4.443   6.690 -0.0800 -1.7540 -0.8233
 1534SOL    HW216236   1.567   4.472   6.703  0.4804  0.2646  0.2656
 1535SOL     OW16237   2.954   1.203   8.920 -0.5298  0.0884  0.5395
 1535SOL    HW116238   2.876   1.149   8.906  0.5881 -1.8760  1.9674
 1535SOL    HW216239   2.935   1.249   9.002  0.3557  1.5632 -0.0825
 1536SOL     OW16240   2.237   2.987   5.490  0.3071  0.3445 -0.1072
 1536SOL    HW116241   2.333   2.991   5.485  0.1668  2.3659 -1.0829
 1536SOL    HW216242   2.207   3.065   5.444  2.4660  0.7669 -0.8008
 1537SOL     OW16243   4.029   4.192  10.694 -0.6713 -0.0494 -0.4991
 1537SOL    HW116244   4.019   4.100  10.719  1.1986 -0.6573 -1.9440
 1537SOL    HW216245   3.937   4.216  10.703 -0.7411  0.0404 -1.4668
 1538SOL     OW16246   4.267   0.988  10.402 -0.1866  0.3558  0.3659
 1538SOL    HW116247   4.239   0.920  10.342  0.2123  1.0392 -0.6022
 1538SOL    HW216248   4.328   1.043  10.353 -1.6335  1.7469  0.1005
 1539SOL     OW16249   3.940   1.420   2.233 -0.3116  0.1231 -0.0071
 1539SOL    HW116250   3.977   1.463   2.155  0.1972  1.0356  0.7356
 1539SOL    HW216251   3.991   1.339   2.235  0.7993  0.8377  0.6349
 1540SOL     OW16252   1.866   4.229   7.507 -0.5083 -0.0918  0.9698
 1540SOL    HW116253   1.862   4.173   7.584 -0.1217 -0.6713  0.5714
 1540SOL    HW216254   1.806   4.180   7.450 -0.3017 -2.4703  2.8393
 1541SOL     OW16255   1.519   3.060   7.558  0.2542  0.2155  0.2802
 1541SOL    HW116256   1.496   3.061   7.651  0.0389 -0.9668  0.2349
 1541SOL    HW216257   1.479   2.983   7.519  0.9853  0.1253 -0.2808
 1542SOL     OW16258   3.639   2.375   8.473 -0.4069  0.6339  0.0912
 1542SOL    HW116259   3.692   2.315   8.524 -1.3381  1.3867  1.9269
 1542SOL    HW216260   3.705   2.438   8.442 -0.8711  0.2612 -1.6347
 1543SOL     OW16261   4.333   0.012   2.478  0.0433 -0.1891  0.8431
 1543SOL    HW116262   4.274   0.086   2.461 -0.6452 -1.3429 -1.6772
 1543SOL    HW216263   4.416   0.039   2.438 -0.1250  1.5171  1.6472
 1544SOL     OW16264   2.271   2.170  15.731 -0.1627  0.5055  0.2639
 1544SOL    HW116265   2.210   2.100  15.755  0.9275 -0.8464 -0.8567
 1544SOL    HW216266   2.214   2.217  15.670 -2.1478  1.5245  2.8968
 1545SOL     OW16267   4.389   4.170   8.591 -0.4046 -0.6904  0.5873
 1545SOL    HW116268   4.472   4.126   8.571 -0.5119 -0.4159 -0.4511
 1545SOL    HW216269   4.412   4.223   8.668 -1.8691  1.5227 -0.5009
 1546SOL     OW16270   4.380   1.451   6.357 -0.2323 -0.7544  0.1201
 1546SOL    HW116271   4.357   1.366   6.394  0.4278 -0.9090  0.1741
 1546SOL    HW216272   4.439   1.467   6.430 -0.7155 -0.4831  0.4535
 1547SOL     OW16273   0.828   2.987   0.127 -0.0563  0.1790  0.4037
 1547SOL    HW116274   0.755   2.989   0.188 -1.4946 -2.7197 -1.2092
 1547SOL    HW216275   0.804   2.921   0.061  2.4845  0.4906 -0.8472
 1548SOL     OW16276   0.044   1.121   5.584  0.0252  0.0746  0.3847
 1548SOL    HW116277   0.120   1.160   5.628 -0.5879  1.3512  0.2958
 1548SOL    HW216278   0.083   1.054   5.527 -0.0869 -0.2599  0.7042
 1549SOL     OW16279   2.503   2.885   5.210 -0.2541 -0.4706 -0.0794
 1549SOL    HW116280   2.575   2.934   5.170  0.2087 -1.5780 -0.5912
 1549SOL    HW216281   2.429   2.899   5.150 -2.6124 -1.6527  2.5133
 1550SOL     OW16282   4.278   1.053   9.071 -0.3380  0.5696 -0.5977
 1550SOL    HW116283   4.373   1.066   9.068 -0.1950  0.1591  2.2840
 1550SOL    HW216284   4.252   1.085   8.984 -0.9202 -0.7570 -0.9073
 1551SOL     OW16285   1.878   4.154   7.030 -0.5073  0.4245 -0.7355
 1551SOL    HW116286   1.901   4.088   7.097 -2.1866  2.2948  1.6617
 1551SOL    HW216287   1.797   4.192   7.064 -1.1159  1.3999 -3.3298
 1552SOL     OW16288   1.512   3.317   5.550  0.0735 -0.2426  0.9415
 1552SOL    HW116289   1.474   3.380   5.612 -0.0356  0.7153 -0.1058
 1552SOL    HW216290   1.430   3.268   5.548  0.7017 -1.2603  0.5290
 1553SOL     OW16291   0.146   3.781   3.651  0.5183  0.2704  0.1065
 1553SOL    HW116292   0.132   3.875   3.635 -0.8954  0.3170  1.6935
 1553SOL    HW216293   0.159   3.776   3.746 -1.8630 -0.0907  0.4144
 1554SOL     OW16294   1.553   3.446   0.172 -0.6211 -0.0975  0.3076
 1554SOL    HW116295   1.485   3.381   0.150 -1.2204  0.4185  0.6508
 1554SOL    HW216296   1.611   3.454   0.096  0.3281  1.0506  1.1624
 1555SOL     OW16297   3.032   2.395   9.022  0.0256  0.1567  0.0708
 1555SOL    HW116298   3.065   2.411   9.110  1.7444  0.4255 -0.6085
 1555SOL    HW216299   3.106   2.340   8.996 -1.0677 -2.3807  2.3727
 1556SOL     OW16300   0.362   3.759   3.481 -0.0725  0.2049 -0.2500
 1556SOL    HW116301   0.337   3.722   3.396 -1.9937 -0.0635  0.4478
 1556SOL    HW216302   0.291   3.746   3.543 -0.1072  1.3554 -0.0472
 1557SOL     OW16303   4.273   3.515  10.319  0.0524  0.5406 -0.9097
 1557SOL    HW116304   4.241   3.569  10.391  2.0323  0.3985  0.0912
 1557SOL    HW216305   4.285   3.434  10.368 -0.8921  1.0451  0.1344
 1558SOL     OW16306   0.049   2.375   7.532 -0.0590  0.1651  0.3100
 1558SOL    HW116307   4.705   2.358   7.574  0.1022  1.8022  1.3050
 1558SOL    HW216308   0.067   2.288   7.498  1.9796  1.2569 -1.4289
 1559SOL     OW16309   2.188   1.376   3.185  0.1207  0.5178  0.1841
 1559SOL    HW116310   2.161   1.445   3.124 -3.7452  0.7659  2.1887
 1559SOL    HW216311   2.209   1.314   3.114 -0.8698  0.0864  0.2637
 1560SOL     OW16312   2.268   3.293   7.275 -0.5768  0.0814  0.0185
 1560SOL    HW116313   2.243   3.203   7.250 -1.8476  0.2181  0.8062
 1560SOL    HW216314   2.361   3.279   7.288 -1.2957 -2.7082  2.1026
 1561SOL     OW16315   1.525   3.469   1.572 -0.7119  0.1087 -0.3193
 1561SOL    HW116316   1.447   3.512   1.607 -0.8474 -0.3193 -0.1010
 1561SOL    HW216317   1.588   3.501   1.637 -0.0279  1.2250 -1.5285
 1562SOL     OW16318   1.762   3.284   9.603  0.2018 -0.2219  0.5265
 1562SOL    HW116319   1.798   3.250   9.521  2.6818 -1.4584  2.1082
 1562SOL    HW216320   1.703   3.210   9.614  0.6866 -0.8502 -1.1529
 1563SOL     OW16321   1.165   2.042   6.106  0.1579  0.1905  0.4295
 1563SOL    HW116322   1.149   2.095   6.184 -1.2828 -1.0783  0.9977
 1563SOL    HW216323   1.220   2.082   6.038  1.9130 -2.2943  0.4046
 1564SOL     OW16324   3.260   2.256  15.321 -0.7878  0.5413  0.4175
 1564SOL    HW116325   3.314   2.231  15.396 -0.3006 -1.7310 -0.7112
 1564SOL    HW216326   3.320   2.239  15.248 -0.3149 -0.2412  0.9917
 1565SOL     OW16327   3.694   2.255  15.228  0.6369 -0.1578  0.1135
 1565SOL    HW116328   3.599   2.264  15.216  0.7187  1.7607  0.9038
 1565SOL    HW216329   3.730   2.192  15.166  0.3475  0.1445 -0.3569
 1566SOL     OW16330   1.241   2.140   6.490 -0.3691 -0.0947 -0.1864
 1566SOL    HW116331   1.307   2.123   6.557  1.5234 -0.1828 -2.0953
 1566SOL    HW216332   1.162   2.125   6.542  0.0971  1.5486  0.9987
 1567SOL     OW16333   0.124   3.817   7.642 -0.5353  0.0879 -0.3367
 1567SOL    HW116334   0.181   3.784   7.711 -0.3705  1.7545  0.2993
 1567SOL    HW216335   0.042   3.816   7.691 -0.0928 -1.3871  0.3949
 1568SOL     OW16336   1.791   3.105   4.092  0.3089 -0.5689  0.2748
 1568SOL    HW116337   1.705   3.074   4.119  0.1640 -1.4010 -1.1517
 1568SOL    HW216338   1.835   3.023   4.113  0.0599 -1.1827 -1.6280
 1569SOL     OW16339   0.767   0.996   7.186  0.5825 -0.0862 -0.0799
 1569SOL    HW116340   0.698   1.062   7.191  1.2825  0.7747 -1.7712
 1569SOL    HW216341   0.850   1.033   7.216  1.3352 -1.6150 -0.2849
 1570SOL     OW16342   0.422   0.226   1.634  0.6008 -0.0886 -0.2215
 1570SOL    HW116343   0.452   0.253   1.547 -1.1008  0.8812 -0.5035
 1570SOL    HW216344   0.474   0.146   1.642  0.6156 -0.2306 -1.6355
 1571SOL     OW16345   0.085   3.102   9.537  0.0099  0.3960  0.5537
 1571SOL    HW116346   0.171   3.123   9.575  1.2487 -1.4160 -1.2647
 1571SOL    HW216347   0.095   3.144   9.451  0.6089  1.0457  0.9410
 1572SOL     OW16348   3.513   0.409   4.614 -0.2284 -0.2576 -0.1125
 1572SOL    HW116349   3.561   0.328   4.598  0.0623  0.4083 -2.5695
 1572SOL    HW216350   3.428   0.369   4.596  0.6532 -1.9574 -0.4404
 1573SOL     OW16351   1.597   0.863   8.846  0.6801  0.4283  0.0240
 1573SOL    HW116352   1.604   0.853   8.941 -1.1254 -0.3618  0.0699
 1573SOL    HW216353   1.635   0.782   8.815  0.0696  0.0017  0.3880
 1574SOL     OW16354   4.676   1.112   6.089 -0.8389 -0.3483  0.0333
 1574SOL    HW116355   0.021   1.099   6.046 -1.8677 -1.3789 -1.7197
 1574SOL    HW216356   4.642   1.023   6.074  0.1160 -0.4780 -1.3854
 1575SOL     OW16357   1.797   1.693   2.706  0.2599  0.3432 -0.0836
 1575SOL    HW116358   1.829   1.745   2.780  1.3294  0.2904 -0.5014
 1575SOL    HW216359   1.837   1.609   2.730  0.4016  0.3997 -0.1224
 1576SOL     OW16360   2.534   3.792   1.877 -0.6910 -0.3808 -0.1001
 1576SOL    HW116361   2.488   3.846   1.940  1.4733 -0.3658  1.4781
 1576SOL    HW216362   2.498   3.706   1.898 -1.5777 -0.5756 -2.3926
 1577SOL     OW16363   0.395   3.902   4.351  0.2713 -0.2407  0.1411
 1577SOL    HW116364   0.463   3.969   4.342 -0.1829  0.0472 -1.1858
 1577SOL    HW216365   0.384   3.880   4.259 -1.9730  0.3728  0.2532
 1578SOL     OW16366   1.739   2.474   9.505 -0.0683  0.0567  0.3084
 1578SOL    HW116367   1.700   2.402   9.555 -1.8072 -0.1455 -1.3419
 1578SOL    HW216368   1.662   2.524   9.477  3.4549  3.9689 -2.3758
 1579SOL     OW16369   2.832   4.238  10.763  0.1582 -0.0258 -0.0136
 1579SOL    HW116370   2.791   4.225  10.848 -1.3460 -1.3738 -0.9483
 1579SOL    HW216371   2.781   4.307  10.721  0.3636 -0.4260 -0.9167
 1580SOL     OW16372   1.151   0.470   6.289  0.2538 -0.1867 -0.3004
 1580SOL    HW116373   1.082   0.536   6.279  0.1241 -0.1593  0.8819
 1580SOL    HW216374   1.206   0.513   6.223 -0.3596 -1.9904 -1.9816
 1581SOL     OW16375   3.214   4.523   8.188 -0.1979  0.0683  0.2473
 1581SOL    HW116376   3.131   4.538   8.144 -0.1485  1.2878  0.5735
 1581SOL    HW216377   3.235   4.616   8.189 -3.4772  0.7883 -0.1999
 1582SOL     OW16378   2.327   3.909   1.007  0.3012  0.2752  0.6937
 1582SOL    HW116379   2.282   3.991   1.027  3.7572  2.2107  0.5522
 1582SOL    HW216380   2.417   3.932   0.983  0.6806 -0.3037  1.5537
 1583SOL     OW16381   1.317   4.401   9.011  0.3987 -0.2471  0.2975
 1583SOL    HW116382   1.411   4.389   8.994  0.3716  1.3256 -0.9516
 1583SOL    HW216383   1.317   4.452   9.091  1.8106  2.3488 -1.3600
 1584SOL     OW16384   2.104   3.891   4.447  0.2103 -0.6571 -0.2251
 1584SOL    HW116385   2.199   3.897   4.452  0.1689 -0.3369  0.2293
 1584SOL    HW216386   2.082   3.931   4.531 -0.2816  0.2437 -0.7753
 1585SOL     OW16387   4.082   1.720   3.128 -0.0247 -0.8144 -0.3708
 1585SOL    HW116388   4.021   1.656   3.165  1.2834 -1.0788  1.3120
 1585SOL    HW216389   4.057   1.715   3.036 -1.2919 -2.6790  0.0909
 1586SOL     OW16390   2.601   2.192   2.729 -0.1273 -0.1307  0.2503
 1586SOL    HW116391   2.508   2.205   2.749 -0.7078 -3.2618 -0.3253
 1586SOL    HW216392   2.630   2.208   2.819 -0.5549  0.9348  0.2022
 1587SOL     OW16393   2.038   2.441   2.964 -0.0634 -0.3693  0.3580
 1587SOL    HW116394   2.059   2.425   2.872 -1.2677 -2.9882  0.5279
 1587SOL    HW216395   1.988   2.361   2.983  1.5066 -1.4796 -0.1996
 1588SOL     OW16396   4.225   4.460   9.624 -0.0163 -0.2340  0.0098
 1588SOL    HW116397   4.182   4.505   9.696  1.2267 -1.8754  1.8085
 1588SOL    HW216398   4.316   4.490   9.629 -0.0732  0.0508 -0.6479
 1589SOL     OW16399   1.455   0.301   8.309  0.8254 -0.1077 -0.8256
 1589SOL    HW116400   1.509   0.231   8.272 -3.3482 -2.2075 -2.8943
 1589SOL    HW216401   1.467   0.278   8.401 -1.5598 -3.4317 -1.3923
 1590SOL     OW16402   4.287   2.164   4.825 -0.3293  0.4113  0.4693
 1590SOL    HW116403   4.214   2.220   4.853  0.0426  1.8234 -1.4140
 1590SOL    HW216404   4.235   2.086   4.809  0.0348  0.6965 -2.0790
 1591SOL     OW16405   4.551   1.994  11.816  0.5017  0.0240 -0.5431
 1591SOL    HW116406   4.641   1.998  11.784  1.2586 -1.4925  1.3850
 1591SOL    HW216407   4.559   1.935  11.891  3.1712 -1.6252 -2.1209
 1592SOL     OW16408   1.943   2.245   9.004  0.3433 -0.1836  0.4130
 1592SOL    HW116409   1.926   2.275   8.914 -0.4654 -2.1298 -0.0769
 1592SOL    HW216410   1.897   2.302   9.066  2.1291  2.5548 -0.7552
 1593SOL     OW16411   2.170   2.978   3.666 -0.3924  0.2338  0.0487
 1593SOL    HW116412   2.156   3.072   3.664 -1.8351  0.0299  0.6413
 1593SOL    HW216413   2.265   2.968   3.655 -0.1441  0.1905  2.0508
 1594SOL     OW16414   0.177   2.386   4.549 -0.4470 -0.3671  0.0180
 1594SOL    HW116415   0.161   2.357   4.638  2.9442  1.5947  1.2801
 1594SOL    HW216416   0.087   2.371   4.519 -0.3342  0.4325 -0.7179
 1595SOL     OW16417   2.543   0.352   2.263  0.1647  0.2288 -0.2807
 1595SOL    HW116418   2.629   0.390   2.246  0.0471  0.5619 -0.1301
 1595SOL    HW216419   2.482   0.416   2.227  0.1543 -0.3687 -1.3394
 1596SOL     OW16420   1.116   0.151   6.862  0.2994 -0.0477  0.1439
 1596SOL    HW116421   1.152   0.119   6.944 -2.1599  1.3580  1.7776
 1596SOL    HW216422   1.147   0.081   6.805 -1.2437  1.5480 -2.7237
 1597SOL     OW16423   2.233   1.707   5.597  0.5995 -0.7579 -0.8339
 1597SOL    HW116424   2.193   1.731   5.514  2.7781  0.7887 -1.4497
 1597SOL    HW216425   2.190   1.633   5.640 -1.2485  1.5328  1.2693
 1598SOL     OW16426   1.451   4.205   5.125 -0.7837 -0.3123 -0.1898
 1598SOL    HW116427   1.389   4.152   5.074 -3.6532  0.9257  1.9637
 1598SOL    HW216428   1.421   4.199   5.216  1.3083 -0.0483  0.5115
 1599SOL     OW16429   1.760   3.935   5.070  0.0597 -0.5236  0.1211
 1599SOL    HW116430   1.666   3.948   5.076  0.4136  2.6249 -1.5109
 1599SOL    HW216431   1.789   4.025   5.086  1.6757 -0.9124 -0.6005
 1600SOL     OW16432   2.457   0.206  11.763  0.1986  0.1318  0.3844
 1600SOL    HW116433   2.481   0.152  11.839  2.2355  1.3657  0.6054
 1600SOL    HW216434   2.540   0.235  11.726 -0.4705  0.8804 -0.5259
 1601SOL     OW16435   3.431   2.026   1.106 -0.6081 -0.3046  0.3947
 1601SOL    HW116436   3.466   2.005   1.019  1.3536  1.6394  0.7051
 1601SOL    HW216437   3.496   1.980   1.159  0.5324  1.0592  0.1840
 1602SOL     OW16438   2.965   1.239  16.124 -0.2635  0.1931 -1.0903
 1602SOL    HW116439   2.929   1.211  16.208 -1.0145 -0.4676 -1.6377
 1602SOL    HW216440   2.947   1.332  16.141  1.8120  0.4266 -0.1280
 1603SOL     OW16441   0.506   2.123   1.847 -0.1988 -0.3753  0.2655
 1603SOL    HW116442   0.520   2.028   1.853  0.7421 -0.2405  0.1245
 1603SOL    HW216443   0.579   2.152   1.793  1.0768 -2.3448  0.9210
 1604SOL     OW16444   3.573   3.695   3.911  0.0105  0.0239  0.0438
 1604SOL    HW116445   3.663   3.715   3.934 -0.2460  0.4271  0.7037
 1604SOL    HW216446   3.533   3.780   3.890  0.3822  0.3038  0.4659
 1605SOL     OW16447   0.280   3.019   2.190  0.2295 -0.2637 -0.5587
 1605SOL    HW116448   0.186   3.020   2.174  0.2220  0.4993 -0.4760
 1605SOL    HW216449   0.286   3.101   2.239  1.0862 -0.1730 -0.8116
 1606SOL     OW16450   0.073   2.563   3.493  0.0204  0.3014 -0.3553
 1606SOL    HW116451   4.721   2.592   3.498 -0.5645 -1.9384  1.8705
 1606SOL    HW216452   0.106   2.635   3.547  0.1290 -2.1910  2.9140
 1607SOL     OW16453   4.143   1.467  15.771 -0.5430  0.3955 -0.4129
 1607SOL    HW116454   4.115   1.461  15.862  1.0734 -0.1756  0.0597
 1607SOL    HW216455   4.178   1.556  15.776  1.2751 -0.2385 -1.7924
 1608SOL     OW16456   2.771   0.926   7.793  0.3234 -0.2826 -0.1793
 1608SOL    HW116457   2.718   0.847   7.806 -2.1285  1.6463  1.5683
 1608SOL    HW216458   2.728   0.945   7.710  1.2797  1.3065 -0.3044
 1609SOL     OW16459   1.553   1.301  14.765  0.2695 -0.5431  0.3367
 1609SOL    HW116460   1.535   1.233  14.700  1.0643  0.7006 -1.2046
 1609SOL    HW216461   1.638   1.336  14.737  0.0633  0.9913  1.6067
 1610SOL     OW16462   3.774   2.352  12.184  0.5023  1.1236 -0.0551
 1610SOL    HW116463   3.708   2.331  12.117  1.9456  0.3569 -1.2525
 1610SOL    HW216464   3.858   2.345  12.138  0.4710  0.6264 -0.0362
 1611SOL     OW16465   2.247   0.030   5.713  0.3455  0.5532 -0.1994
 1611SOL    HW116466   2.288   0.104   5.669  2.5020 -0.7115 -0.3064
 1611SOL    HW216467   2.196   4.726   5.644  0.7720 -2.6740  1.4822
 1612SOL     OW16468   0.694   0.647  14.473 -0.5179 -0.3971  0.0142
 1612SOL    HW116469   0.691   0.630  14.379 -1.7950  1.0305 -0.1924
 1612SOL    HW216470   0.771   0.703  14.480 -0.9251 -0.0952  2.0715
 1613SOL     OW16471   2.374   1.470  11.025 -0.3858  0.1770  0.0730
 1613SOL    HW116472   2.423   1.463  10.943  2.3045 -0.5126  1.7363
 1613SOL    HW216473   2.339   1.558  11.015  0.2019  0.2855 -1.0467
 1614SOL     OW16474   0.251   1.292   5.469 -0.0126  0.0665  0.3573
 1614SOL    HW116475   0.236   1.371   5.521  1.0458  0.3904  0.1761
 1614SOL    HW216476   0.308   1.327   5.401 -3.0519  2.4759 -0.9427
 1615SOL     OW16477   3.772   2.467   6.273  0.0690 -0.1283  0.0574
 1615SOL    HW116478   3.831   2.422   6.212 -0.2664  0.9992 -1.1020
 1615SOL    HW216479   3.751   2.382   6.312 -0.1561 -1.3068 -2.6729
 1616SOL     OW16480   4.471   0.217   9.438 -0.5213  0.1993 -0.6867
 1616SOL    HW116481   4.548   0.270   9.414  0.0361 -1.1497 -1.8470
 1616SOL    HW216482   4.408   0.267   9.386 -1.2647 -0.3248 -0.2848
 1617SOL     OW16483   1.676   0.916   7.706  0.4416  0.0565 -0.6068
 1617SOL    HW116484   1.596   0.966   7.691  0.4465 -0.6231 -2.7958
 1617SOL    HW216485   1.644   0.893   7.794  0.4565 -2.7866 -1.3419
 1618SOL     OW16486   3.073   4.540   3.929 -0.2106 -0.4671  0.2693
 1618SOL    HW116487   3.097   4.535   3.837  1.3830  1.4889  0.5726
 1618SOL    HW216488   3.145   4.490   3.968  1.9277  2.7787  0.4840
 1619SOL     OW16489   0.570   3.510   4.584  0.0638 -0.0158  0.1037
 1619SOL    HW116490   0.586   3.438   4.523  3.5032  0.3924  0.5041
 1619SOL    HW216491   0.544   3.579   4.523 -0.0385 -0.4419 -0.3321
 1620SOL     OW16492   0.702   2.242   2.416  0.6439  0.2681  0.9111
 1620SOL    HW116493   0.645   2.174   2.453  0.8824 -2.0421 -2.9638
 1620SOL    HW216494   0.716   2.291   2.497  1.8514 -0.6330  1.2491
 1621SOL     OW16495   0.759   3.858   2.718  1.0442  0.1270 -0.3203
 1621SOL    HW116496   0.803   3.913   2.783 -2.2752  0.5428  1.6207
 1621SOL    HW216497   0.814   3.780   2.720 -0.1080 -0.6558  0.6828
 1622SOL     OW16498   0.446   2.965  11.896 -0.0668 -0.4054  0.0744
 1622SOL    HW116499   0.471   2.873  11.904  3.4690  0.6409  0.9984
 1622SOL    HW216500   0.496   3.000  11.970 -2.0434  0.1604  1.1311
 1623SOL     OW16501   0.088   2.923   8.403 -0.5432 -0.1806  0.0652
 1623SOL    HW116502   0.093   2.851   8.466 -1.6869 -0.1212  0.2289
 1623SOL    HW216503   0.103   3.002   8.456  1.6937 -0.1519 -0.6117
 1624SOL     OW16504   2.774   0.621   5.211 -0.1098  0.6110  0.4132
 1624SOL    HW116505   2.716   0.678   5.161 -1.6982  1.1623  2.8917
 1624SOL    HW216506   2.746   0.647   5.299 -2.1244  0.5317 -0.1926
 1625SOL     OW16507   2.523   1.737  10.078 -0.2424  0.5727 -0.1777
 1625SOL    HW116508   2.509   1.731   9.983  0.3523  0.9442 -0.2900
 1625SOL    HW216509   2.555   1.827  10.087  2.5502 -0.1282 -2.8567
 1626SOL     OW16510   2.193   4.509   2.762 -0.2311 -0.5663  0.2452
 1626SOL    HW116511   2.238   4.434   2.723 -1.3947 -0.2005 -1.8074
 1626SOL    HW216512   2.109   4.477   2.793 -1.7127  1.4836 -1.6381
 1627SOL     OW16513   2.014   3.481   3.771  0.0522  0.2216  0.6461
 1627SOL    HW116514   1.949   3.412   3.760  0.9815 -0.3432 -1.4816
 1627SOL    HW216515   1.987   3.544   3.837  0.1101 -0.1570  1.0267
 1628SOL     OW16516   4.572   2.218  10.690  0.0913  0.1275 -0.2844
 1628SOL    HW116517   4.558   2.311  10.707 -0.1945 -0.1235  0.8872
 1628SOL    HW216518   4.652   2.221  10.638 -0.2339 -1.6104 -0.8809
 1629SOL     OW16519   3.468   3.230   8.035 -0.2949 -0.7354 -0.6914
 1629SOL    HW116520   3.552   3.199   8.002  0.1378 -0.9975  0.6704
 1629SOL    HW216521   3.430   3.259   7.952  0.9535  0.1352 -0.9619
 1630SOL     OW16522   1.552   4.190   7.737  0.3254 -0.0696  0.0567
 1630SOL    HW116523   1.497   4.220   7.809  3.1457  3.1006  0.8903
 1630SOL    HW216524   1.535   4.096   7.744  0.4988  0.0082  1.4810
 1631SOL     OW16525   1.763   2.189   3.670  0.1595  0.6817 -0.5563
 1631SOL    HW116526   1.806   2.194   3.755 -1.4369 -0.1837  0.3123
 1631SOL    HW216527   1.679   2.159   3.705  0.3550  1.7536  0.8038
 1632SOL     OW16528   1.895   3.841  10.391 -0.2566 -0.1553  0.2060
 1632SOL    HW116529   1.811   3.802  10.416 -0.0057 -0.4989  0.5188
 1632SOL    HW216530   1.862   3.927  10.364  1.3255 -0.1272 -1.6735
 1633SOL     OW16531   3.332   0.360  13.765  0.9298  0.2368 -0.3070
 1633SOL    HW116532   3.409   0.405  13.801 -0.5944  1.8035  1.0131
 1633SOL    HW216533   3.275   0.419  13.813  0.9303 -0.7216  0.8743
 1634SOL     OW16534   2.114   3.037  14.814 -0.0490  0.1703  0.2054
 1634SOL    HW116535   2.153   3.118  14.780  1.5424 -0.6602  0.0323
 1634SOL    HW216536   2.131   3.059  14.906 -3.0737 -0.3151  0.8839
 1635SOL     OW16537   3.729   0.836   2.010  0.1004 -0.2064 -0.3558
 1635SOL    HW116538   3.677   0.763   2.043 -1.1820  0.3817 -1.0602
 1635SOL    HW216539   3.739   0.819   1.916  0.4647  0.5044 -0.4433
 1636SOL     OW16540   0.407   4.548   3.479  0.1819 -0.1201 -0.0213
 1636SOL    HW116541   0.481   4.517   3.427 -0.0274 -1.2488  0.3584
 1636SOL    HW216542   0.360   4.606   3.420  1.3105  1.5170  0.7096
 1637SOL     OW16543   2.308   3.936   2.891 -0.2510 -0.0275  0.0877
 1637SOL    HW116544   2.256   3.901   2.819  0.3543 -0.4231 -0.1517
 1637SOL    HW216545   2.236   3.974   2.943 -2.2107 -2.5036 -0.7887
 1638SOL     OW16546   1.629   2.204   9.153  0.0125 -0.1274 -0.0401
 1638SOL    HW116547   1.612   2.115   9.183 -2.1015  0.2134 -0.2524
 1638SOL    HW216548   1.631   2.187   9.059 -0.5976  0.5547 -0.1714
 1639SOL     OW16549   3.068   2.414   0.243  0.4631  0.1866 -0.2094
 1639SOL    HW116550   3.108   2.377   0.164 -0.8281  0.4345 -0.9899
 1639SOL    HW216551   3.135   2.480   0.262  1.0454 -0.1437 -1.1016
 1640SOL     OW16552   0.465   2.600   8.318  0.1293 -0.5376  0.6725
 1640SOL    HW116553   0.441   2.685   8.281 -1.2834  0.2533  3.4558
 1640SOL    HW216554   0.389   2.581   8.373 -0.0589  0.8489  0.8899
 1641SOL     OW16555   1.547   1.601   6.623 -0.0969  0.1868 -0.0671
 1641SOL    HW116556   1.552   1.695   6.605  0.5649  0.1049 -0.3041
 1641SOL    HW216557   1.597   1.601   6.704 -0.2214  1.4537  0.0007
 1642SOL     OW16558   1.044   3.592  17.601  0.4719  0.0116  1.4191
 1642SOL    HW116559   0.983   3.651  17.555  0.2980 -1.5574 -0.3607
 1642SOL    HW216560   1.081   3.650  17.667 -1.2050  0.2744  2.1200
 1643SOL     OW16561   3.539   4.229   5.753  0.1453  0.4631 -0.0566
 1643SOL    HW116562   3.492   4.149   5.728 -0.3501  0.1755  1.8547
 1643SOL    HW216563   3.625   4.223   5.711 -0.2303  1.5864 -1.0131
 1644SOL     OW16564   1.758   4.171   2.846 -0.0746  0.0086 -0.8142
 1644SOL    HW116565   1.781   4.095   2.899  2.0341 -0.4911 -2.4268
 1644SOL    HW216566   1.667   4.156   2.822 -0.8711  2.0911  0.9400
 1645SOL     OW16567   2.477   2.458  10.533 -0.1226  0.1532 -0.5598
 1645SOL    HW116568   2.419   2.431  10.462 -3.4418  1.7018  1.5870
 1645SOL    HW216569   2.406   2.477  10.594  2.0299  2.8605  1.1290
 1646SOL     OW16570   3.590   3.683   8.097  0.0561  0.3319  0.0285
 1646SOL    HW116571   3.620   3.606   8.146 -1.1893 -1.0282 -1.3644
 1646SOL    HW216572   3.635   3.752   8.146  1.7501 -0.5099 -0.3483
 1647SOL     OW16573   2.804   1.686   4.624  0.1381 -0.0605 -0.1032
 1647SOL    HW116574   2.786   1.612   4.683  0.6234 -0.8183 -0.9116
 1647SOL    HW216575   2.723   1.734   4.608 -0.0209 -0.4459 -0.4567
 1648SOL     OW16576   2.693   0.642   2.423  0.3157  0.8828 -0.1123
 1648SOL    HW116577   2.675   0.708   2.356  2.1767  0.9346 -0.5588
 1648SOL    HW216578   2.788   0.651   2.416  0.5100  0.9159  2.3927
 1649SOL     OW16579   2.532   2.700  15.904 -0.3718 -0.3461  0.0987
 1649SOL    HW116580   2.585   2.779  15.921 -0.8739  0.2174 -0.9715
 1649SOL    HW216581   2.448   2.739  15.880  0.9079  1.4622 -1.4538
 1650SOL     OW16582   0.393   1.124   2.270 -0.1305 -0.1391 -0.3436
 1650SOL    HW116583   0.480   1.141   2.308 -1.0219  3.0630  0.2572
 1650SOL    HW216584   0.343   1.201   2.297 -0.7976 -1.4629  2.1771
 1651SOL     OW16585   0.178   4.478   7.494  0.5695  0.0325  0.0710
 1651SOL    HW116586   0.089   4.449   7.512  0.5352 -0.5669 -1.0725
 1651SOL    HW216587   0.174   4.555   7.551  1.6487 -0.0496  0.2517
 1652SOL     OW16588   3.466   0.278  10.884  0.2997  0.5596 -0.6279
 1652SOL    HW116589   3.411   0.261  10.808 -0.6609  1.2210 -0.0850
 1652SOL    HW216590   3.541   0.317  10.840  0.7591 -0.5904 -0.8741
 1653SOL     OW16591   1.976   4.035  16.374 -0.3464 -0.1497 -0.1235
 1653SOL    HW116592   2.027   4.116  16.372 -2.4412  1.1583 -0.4018
 1653SOL    HW216593   2.003   4.008  16.462 -0.5907 -0.5552 -0.1733
 1654SOL     OW16594   0.910   4.184   6.488 -0.3022 -0.2832  0.2873
 1654SOL    HW116595   0.938   4.111   6.543  0.3616  1.5930  2.4119
 1654SOL    HW216596   0.991   4.182   6.437 -0.1657  0.1357  0.4902
 1655SOL     OW16597   1.065   0.766   0.740 -0.0566  0.3247  0.0691
 1655SOL    HW116598   1.114   0.721   0.809 -0.6763 -0.7033 -0.1481
 1655SOL    HW216599   1.041   0.843   0.790  1.8097  0.3189  0.9431
 1656SOL     OW16600   4.494   0.767   5.589 -0.0136  0.0102 -0.4384
 1656SOL    HW116601   4.543   0.768   5.507 -1.0109 -1.2548 -1.0531
 1656SOL    HW216602   4.491   0.862   5.600 -0.1083  0.0337 -0.6602
 1657SOL     OW16603   3.583   4.253   5.309  0.0903 -0.0008  0.5251
 1657SOL    HW116604   3.609   4.294   5.227  1.3598  0.8576  1.3495
 1657SOL    HW216605   3.637   4.175   5.300 -1.5852 -1.0419 -0.3741
 1658SOL     OW16606   1.035   0.083   1.395  0.2643  0.1605  0.0739
 1658SOL    HW116607   1.074   0.011   1.445 -0.4752 -0.2509  0.0636
 1658SOL    HW216608   1.105   0.126   1.348  0.8031 -1.4044 -0.5516
 1659SOL     OW16609   3.078   1.306  15.855  0.5151  0.4495  0.3318
 1659SOL    HW116610   3.024   1.385  15.846  0.8373  0.6021 -0.2646
 1659SOL    HW216611   3.033   1.274  15.933  0.1130 -0.8189 -0.4298
 1660SOL     OW16612   1.818   1.560   3.201  0.0838  0.0363  0.2996
 1660SOL    HW116613   1.831   1.646   3.160  0.9694 -0.2376  0.0035
 1660SOL    HW216614   1.772   1.514   3.131 -2.0875  0.1402  1.6605
 1661SOL     OW16615   3.906   1.811  13.218  0.1151 -0.6087  0.5685
 1661SOL    HW116616   3.994   1.849  13.218 -0.6128  1.0463  1.9385
 1661SOL    HW216617   3.856   1.892  13.219  3.8824  1.7441 -0.9809
 1662SOL     OW16618   2.201   4.410  16.745 -0.7397 -0.0062  0.6418
 1662SOL    HW116619   2.133   4.384  16.806 -0.1406 -0.8402  0.9603
 1662SOL    HW216620   2.237   4.494  16.772  0.4695 -0.5041  0.5880
 1663SOL     OW16621   1.151   3.207   6.022  0.4439 -0.0772 -0.2347
 1663SOL    HW116622   1.158   3.301   6.038 -3.6586  0.4815 -1.9284
 1663SOL    HW216623   1.135   3.182   6.113  2.0451  0.8347  0.3083
 1664SOL     OW16624   0.982   0.991   6.274  0.1163 -0.0096 -0.4395
 1664SOL    HW116625   1.045   1.031   6.213  0.8574 -1.9036 -0.9201
 1664SOL    HW216626   1.010   1.008   6.364 -0.5765  3.9017 -0.9605
 1665SOL     OW16627   2.774   0.633  12.596  1.0210  0.8048 -0.1963
 1665SOL    HW116628   2.788   0.696  12.666  0.9931 -0.6267  1.1102
 1665SOL    HW216629   2.831   0.668  12.528  0.3326  1.5638 -0.3895
 1666SOL     OW16630   0.723   2.688   7.486 -0.1326 -0.5116 -0.2262
 1666SOL    HW116631   0.720   2.743   7.408 -1.6108 -0.6046 -0.2308
 1666SOL    HW216632   0.711   2.748   7.559  1.2464  0.3190 -0.6937
 1667SOL     OW16633   1.833   2.317   2.799 -0.1654  0.3376  0.4323
 1667SOL    HW116634   1.832   2.411   2.780  1.2758  0.2290 -0.1437
 1667SOL    HW216635   1.742   2.291   2.817  0.1872 -1.2266 -0.1390
 1668SOL     OW16636   2.659   3.291   5.352 -0.1311  0.0657  0.3988
 1668SOL    HW116637   2.752   3.270   5.338  0.4690  2.4334  0.7371
 1668SOL    HW216638   2.659   3.287   5.447  1.2889  1.8250  0.4813
 1669SOL     OW16639   1.083   2.065   3.180  0.5039 -0.1110  0.0829
 1669SOL    HW116640   1.167   2.101   3.154  0.8815 -0.8854  0.2324
 1669SOL    HW216641   1.093   1.971   3.189  2.3433  0.2317  1.4860
 1670SOL     OW16642   3.546   2.546  13.837  0.2251 -0.0403  0.2136
 1670SOL    HW116643   3.457   2.513  13.849 -0.0665 -0.0880 -2.1258
 1670SOL    HW216644   3.552   2.593  13.920 -0.1675  0.7997 -0.2309
 1671SOL     OW16645   0.183   1.034   5.210  0.3062  0.6280 -0.3538
 1671SOL    HW116646   0.236   1.028   5.289  0.2600  0.5050 -0.3328
 1671SOL    HW216647   0.183   0.940   5.192 -0.4191  0.4771  0.4269
 1672SOL     OW16648   3.308   2.782   7.580  0.1191 -0.3735  0.2061
 1672SOL    HW116649   3.378   2.825   7.630  1.5124 -1.5049 -0.7340
 1672SOL    HW216650   3.353   2.701   7.554 -0.2787 -0.8595  1.0387
 1673SOL     OW16651   1.021   2.900   2.091  0.1943 -0.4221 -0.0586
 1673SOL    HW116652   0.942   2.951   2.073  1.4595  1.6864  0.3331
 1673SOL    HW216653   0.995   2.858   2.173  0.1503  0.3082  0.2950
 1674SOL     OW16654   0.549   3.164   6.133  0.1934  0.1344 -0.2317
 1674SOL    HW116655   0.528   3.247   6.090  2.2527  2.1331  2.5688
 1674SOL    HW216656   0.467   3.114   6.129  0.1792  0.0942  0.4786
 1675SOL     OW16657   1.833   0.982  14.727 -0.4379 -0.8628 -0.1939
 1675SOL    HW116658   1.845   0.893  14.761  0.7746 -0.5234  0.2679
 1675SOL    HW216659   1.775   0.963  14.653 -1.6268  1.6444  0.1043
 1676SOL     OW16660   3.848   1.595   8.898 -0.3938 -0.3274 -0.1795
 1676SOL    HW116661   3.908   1.653   8.945 -0.1766 -1.3134  0.7764
 1676SOL    HW216662   3.787   1.656   8.858 -0.0960  0.2354  0.2225
 1677SOL     OW16663   0.645   0.202   7.202 -0.3626 -0.5336  0.3033
 1677SOL    HW116664   0.650   0.252   7.284  0.3331  0.4825 -0.3732
 1677SOL    HW216665   0.555   0.170   7.200 -0.3268 -0.7457  1.5566
 1678SOL     OW16666   1.397   3.351  13.085 -0.1800 -0.3772 -0.0178
 1678SOL    HW116667   1.336   3.314  13.148 -0.1451  0.0061  0.2455
 1678SOL    HW216668   1.343   3.428  13.065  1.0179  0.5034  0.1303
 1679SOL     OW16669   2.760   4.721   8.896  0.0666  0.1344  0.4326
 1679SOL    HW116670   2.671   0.016   8.901 -0.1552 -0.4496  0.5016
 1679SOL    HW216671   2.742   4.636   8.936 -1.4359  0.0924 -0.3217
 1680SOL     OW16672   4.204   3.734   4.765  0.1196 -0.2631  0.1703
 1680SOL    HW116673   4.155   3.760   4.687 -0.5288 -0.2200  0.5863
 1680SOL    HW216674   4.139   3.679   4.810  0.5341 -1.6278 -0.8924
 1681SOL     OW16675   2.695   0.252   3.654  0.7863 -0.4222  0.0533
 1681SOL    HW116676   2.716   0.329   3.708  0.9746 -1.2341  1.1462
 1681SOL    HW216677   2.600   0.263   3.648  0.9155  0.9254  0.4634
 1682SOL     OW16678   1.824   0.097   7.305 -0.1091  0.1017  0.1650
 1682SOL    HW116679   1.905   0.137   7.275 -0.5674  0.0396 -1.1594
 1682SOL    HW216680   1.787   0.162   7.366 -0.4496  0.2702 -0.2153
 1683SOL     OW16681   1.065   2.401   6.802 -0.0068  0.3046 -0.1052
 1683SOL    HW116682   1.019   2.355   6.873  0.5516  0.6968  0.5149
 1683SOL    HW216683   1.154   2.376   6.828 -0.3489  0.6115  1.4102
 1684SOL     OW16684   1.187   3.899   6.300  0.2824 -1.0425  0.2725
 1684SOL    HW116685   1.280   3.877   6.298  0.6946  0.8823 -1.7792
 1684SOL    HW216686   1.150   3.860   6.379 -0.1733  0.3115  0.7160
 1685SOL     OW16687   1.863   2.867   4.224  0.1934 -0.4531  0.0593
 1685SOL    HW116688   1.836   2.843   4.312  0.8317  0.2945  0.4669
 1685SOL    HW216689   1.948   2.905   4.245 -1.6401  2.4932  2.2166
 1686SOL     OW16690   0.126   2.218   3.867  0.2298  0.4103  0.0943
 1686SOL    HW116691   0.069   2.143   3.878  0.3153  0.1910 -0.9675
 1686SOL    HW216692   0.166   2.201   3.781 -1.0441  0.3606 -0.4895
 1687SOL     OW16693   4.518   4.731   4.829 -0.0809  0.1991  0.3330
 1687SOL    HW116694   4.469   4.664   4.877  0.1002  0.4103  0.8093
 1687SOL    HW216695   4.450   0.056   4.808 -1.5239 -0.9706  1.4134
 1688SOL     OW16696   4.721   1.347   8.779  0.2104  0.4891  0.2563
 1688SOL    HW116697   4.705   1.405   8.704  1.2280  1.6858  0.9446
 1688SOL    HW216698   0.040   1.281   8.742 -1.0756 -0.1213 -0.6645
 1689SOL     OW16699   0.235   4.719   3.317 -0.2226  0.4153 -0.7716
 1689SOL    HW116700   0.162   0.004   3.374  2.2160  2.3020  1.5370
 1689SOL    HW216701   0.191   4.716   3.231 -1.4391  0.4658 -0.1551
 1690SOL     OW16702   2.722   3.985   5.515 -0.0296 -0.2749 -0.3242
 1690SOL    HW116703   2.664   3.988   5.438 -1.2398  2.9177  0.7274
 1690SOL    HW216704   2.736   4.076   5.541  1.5362 -0.3784 -0.8037
 1691SOL     OW16705   1.655   3.831   7.328  0.0711 -0.0058  0.5915
 1691SOL    HW116706   1.746   3.847   7.352  0.3149 -1.7045  0.7714
 1691SOL    HW216707   1.650   3.735   7.333  2.7798 -0.2052 -1.1889
 1692SOL     OW16708   0.265   2.939   8.941 -0.7233 -0.8403 -0.2803
 1692SOL    HW116709   0.341   2.881   8.944  0.2056  0.4445  1.5283
 1692SOL    HW216710   0.279   2.990   9.021 -1.1175 -0.3028 -0.5554
 1693SOL     OW16711   1.094   1.248  17.448 -0.2105 -1.1993  0.6369
 1693SOL    HW116712   1.166   1.286  17.500 -1.5681  0.6638  1.1450
 1693SOL    HW216713   1.134   1.207  17.371 -0.4797 -2.7211  1.2998
 1694SOL     OW16714   2.603   3.023   3.415 -0.5335  0.0227  0.6230
 1694SOL    HW116715   2.625   3.002   3.324 -0.1368 -3.1056  1.4426
 1694SOL    HW216716   2.647   3.108   3.424  0.3522 -0.3867  0.1701
 1695SOL     OW16717   1.854   3.797  15.114 -0.4491 -0.7552 -0.0404
 1695SOL    HW116718   1.893   3.876  15.152 -0.8472 -0.2938 -0.5929
 1695SOL    HW216719   1.875   3.737  15.185  0.5431  0.9291  1.0974
 1696SOL     OW16720   4.210   4.543   8.251 -0.4977  0.0848 -0.4244
 1696SOL    HW116721   4.162   4.615   8.291 -0.9741 -1.1706  1.2799
 1696SOL    HW216722   4.174   4.544   8.162 -2.1011  1.8855  0.2686
 1697SOL     OW16723   0.016   2.420  11.840 -0.8685  0.5924 -0.3760
 1697SOL    HW116724   4.735   2.511  11.819 -0.7311  0.9796  1.2177
 1697SOL    HW216725   4.734   2.367  11.763 -0.7233 -0.0809  0.0384
 1698SOL     OW16726   2.720   4.168   4.187  0.3174 -0.1151 -0.1075
 1698SOL    HW116727   2.650   4.133   4.131  0.0396  1.2653 -0.6258
 1698SOL    HW216728   2.743   4.250   4.142  0.7699 -0.2240 -0.0679
 1699SOL     OW16729   1.825   0.092   9.453  0.0718 -0.2235 -0.3501
 1699SOL    HW116730   1.853   0.042   9.529 -1.9290 -0.4666  0.2248
 1699SOL    HW216731   1.875   0.173   9.460  0.6059 -0.5665 -0.2055
 1700SOL     OW16732   1.210   2.424   3.802 -0.1249  0.1317 -0.2084
 1700SOL    HW116733   1.267   2.477   3.746 -0.7520 -0.6096 -1.5663
 1700SOL    HW216734   1.209   2.341   3.754 -0.6196  0.2802 -0.4588
 1701SOL     OW16735   3.026   1.537   9.350 -0.6610 -0.7084 -0.1225
 1701SOL    HW116736   2.995   1.588   9.424 -1.0682  0.3501 -1.0320
 1701SOL    HW216737   3.120   1.531   9.367 -0.8090 -0.6537  0.7416
 1702SOL     OW16738   1.876   0.245   7.036  0.1076 -0.2247 -0.3023
 1702SOL    HW116739   1.842   0.332   7.057  0.2089 -0.1696 -0.3653
 1702SOL    HW216740   1.930   0.224   7.113 -0.1065  1.6942  0.3583
 1703SOL     OW16741   1.392   3.906  14.633  0.4315 -0.2781  0.4678
 1703SOL    HW116742   1.475   3.938  14.595  0.0797  0.6956  0.5172
 1703SOL    HW216743   1.335   3.971  14.592 -0.0222 -0.8596  0.1907
 1704SOL     OW16744   3.639   2.113  10.095  0.0419 -0.0676 -0.2714
 1704SOL    HW116745   3.561   2.157  10.127 -0.5842  0.0380 -1.9475
 1704SOL    HW216746   3.636   2.037  10.153  2.4055  1.0357  1.3263
 1705SOL     OW16747   2.168   1.698  16.374 -0.4607 -0.2923  0.3314
 1705SOL    HW116748   2.224   1.621  16.380 -2.0568 -1.4443  0.4575
 1705SOL    HW216749   2.131   1.694  16.462 -1.3212 -1.4462 -0.0837
 1706SOL     OW16750   0.945   2.297  12.603 -0.0513 -0.7636  0.1472
 1706SOL    HW116751   0.888   2.285  12.679  0.9698  0.4371  1.0914
 1706SOL    HW216752   0.887   2.262  12.534  0.4032 -0.4621 -0.3874
 1707SOL     OW16753   3.531   3.428   6.482  0.1322  0.5319  0.0191
 1707SOL    HW116754   3.583   3.396   6.556  0.9466  0.4572 -0.5914
 1707SOL    HW216755   3.579   3.505   6.453 -0.6774  1.1705  0.3628
 1708SOL     OW16756   2.375   4.238   5.917  0.0600  0.0210 -0.3748
 1708SOL    HW116757   2.407   4.323   5.886  3.1250 -0.2065  2.1973
 1708SOL    HW216758   2.323   4.266   5.992 -1.5345 -1.8686 -0.7850
 1709SOL     OW16759   0.457   3.273   4.859  0.3243  0.6844  0.2408
 1709SOL    HW116760   0.550   3.279   4.836  0.2051 -0.1382 -0.4609
 1709SOL    HW216761   0.413   3.240   4.780  1.2364 -0.4546  0.2067
 1710SOL     OW16762   4.238   3.750   5.126 -0.1877 -0.0807  0.2371
 1710SOL    HW116763   4.331   3.761   5.144 -0.1718  0.8797 -0.4332
 1710SOL    HW216764   4.196   3.785   5.204  0.4725 -1.6360  1.2848
 1711SOL     OW16765   4.650   0.436   9.464  0.3659  0.6102  0.9287
 1711SOL    HW116766   4.726   0.435   9.405 -0.3152 -2.3734  0.0786
 1711SOL    HW216767   4.621   0.520   9.429  1.1925  0.1492 -0.8856
 1712SOL     OW16768   1.004   1.956   4.114  0.2173 -0.0263 -0.5675
 1712SOL    HW116769   1.070   1.926   4.177 -2.4437  0.3294  2.3693
 1712SOL    HW216770   0.929   1.979   4.169 -0.6387 -0.0986 -1.7209
 1713SOL     OW16771   1.656   4.467   8.906 -0.6150  0.1418  0.3029
 1713SOL    HW116772   1.735   4.450   8.855 -1.2992 -1.0474 -0.3504
 1713SOL    HW216773   1.600   4.391   8.895  0.3706 -0.7152  1.2304
 1714SOL     OW16774   4.164   2.018   6.714 -0.1689 -0.0740 -0.0651
 1714SOL    HW116775   4.087   2.007   6.771 -0.8949  0.7930 -0.8910
 1714SOL    HW216776   4.210   1.937   6.736 -0.8801 -0.3221  0.5341
 1715SOL     OW16777   1.113   2.277   9.161 -0.0871  0.1701  0.1299
 1715SOL    HW116778   1.075   2.246   9.243 -0.5685 -2.5995 -1.1405
 1715SOL    HW216779   1.171   2.203   9.141 -1.6513 -0.7610 -0.9445
 1716SOL     OW16780   0.318   3.775  17.295 -0.0139  0.4403 -0.2270
 1716SOL    HW116781   0.245   3.836  17.287 -0.2822  0.1952  0.3901
 1716SOL    HW216782   0.387   3.842  17.300 -0.7741  1.2858 -0.9402
 1717SOL     OW16783   1.994   4.145  16.058 -0.1050  0.2494  0.0506
 1717SOL    HW116784   1.934   4.133  16.131 -1.5798  0.6654 -1.1021
 1717SOL    HW216785   1.980   4.060  16.016 -0.3790 -1.2017  3.0584
 1718SOL     OW16786   4.050   1.348   8.117 -0.0009  0.0842  0.4160
 1718SOL    HW116787   3.964   1.376   8.085  0.4075 -0.7943 -1.4317
 1718SOL    HW216788   4.097   1.430   8.132 -2.0088  1.1842  0.7006
 1719SOL     OW16789   3.189   4.309   4.840 -0.0423 -0.0450  0.9385
 1719SOL    HW116790   3.190   4.389   4.892 -0.3494  1.6155 -1.6070
 1719SOL    HW216791   3.116   4.317   4.778  1.3969 -0.2318 -0.7818
 1720SOL     OW16792   3.630   3.945   1.624 -0.1863  0.7648 -0.0643
 1720SOL    HW116793   3.610   4.016   1.563 -2.0995 -0.1418 -0.4900
 1720SOL    HW216794   3.723   3.960   1.643 -0.4901  1.8648  0.5429
 1721SOL     OW16795   2.340   0.158   7.378  0.0431  0.1014 -0.0374
 1721SOL    HW116796   2.418   0.118   7.418 -0.7309 -1.0828  0.2857
 1721SOL    HW216797   2.362   0.247   7.352  0.1537  0.3036  0.7449
 1722SOL     OW16798   2.934   0.543   0.986 -0.2546  0.1882  0.0902
 1722SOL    HW116799   2.950   0.584   1.071 -2.5603 -1.7049  1.4482
 1722SOL    HW216800   2.925   0.450   1.008  1.2200  0.2147  0.7920
 1723SOL     OW16801   3.984   3.691   2.574 -0.0845 -0.4359  0.4474
 1723SOL    HW116802   3.893   3.691   2.604  0.4218  1.2202  1.9750
 1723SOL    HW216803   3.991   3.775   2.528  0.9437 -0.7937 -0.0398
 1724SOL     OW16804   3.216   3.628   3.821  0.0816 -0.0697 -0.1754
 1724SOL    HW116805   3.155   3.681   3.770 -0.9242  1.1906  2.3523
 1724SOL    HW216806   3.289   3.611   3.762 -2.7753 -0.8163 -3.5047
 1725SOL     OW16807   0.169   3.213   7.006  0.3412 -0.1578 -0.1699
 1725SOL    HW116808   0.214   3.205   7.090 -0.5536  2.3270  0.5442
 1725SOL    HW216809   0.199   3.132   6.965 -0.3443 -0.6037  0.2135
 1726SOL     OW16810   2.623   4.464   3.516 -0.0227 -0.5808 -0.3811
 1726SOL    HW116811   2.619   4.551   3.475  0.5248 -1.4493 -2.2463
 1726SOL    HW216812   2.649   4.411   3.441 -2.9368 -0.8221 -1.2354
 1727SOL     OW16813   4.247   3.178  16.645 -0.3239  0.1843  0.0001
 1727SOL    HW116814   4.243   3.155  16.738  0.3970 -0.8163 -0.2197
 1727SOL    HW216815   4.226   3.271  16.656 -0.2818  0.3296 -1.2040
 1728SOL     OW16816   4.149   2.193   2.031  0.0810  0.0276 -0.0175
 1728SOL    HW116817   4.084   2.124   2.023 -0.4354  0.6097 -0.8750
 1728SOL    HW216818   4.170   2.192   2.124 -0.0148  3.4195  0.0482
 1729SOL     OW16819   3.986   4.318   4.586 -0.1345 -0.5449 -0.0926
 1729SOL    HW116820   3.945   4.392   4.631 -0.7894 -2.5813  2.6625
 1729SOL    HW216821   3.974   4.318   4.491 -0.3694 -0.3637 -0.0638
 1730SOL     OW16822   3.544   0.898   8.222 -0.2358  0.4073  0.1334
 1730SOL    HW116823   3.449   0.896   8.219 -0.2421  0.6388  0.1601
 1730SOL    HW216824   3.553   0.974   8.280  1.0362  0.0050  0.4582
 1731SOL     OW16825   4.532   1.642   3.201  0.3321  0.0496 -0.2553
 1731SOL    HW116826   4.506   1.555   3.173 -0.7251  0.2336  0.1716
 1731SOL    HW216827   4.462   1.693   3.162  0.0810  1.0283  1.4507
 1732SOL     OW16828   0.908   0.167   6.140  0.0606 -0.2589  0.9268
 1732SOL    HW116829   0.967   0.167   6.064 -2.1972 -0.3510 -0.8115
 1732SOL    HW216830   0.893   0.073   6.141 -0.3627 -0.2051  0.0026
 1733SOL     OW16831   3.042   0.205   5.432 -0.8271  0.6763 -0.2956
 1733SOL    HW116832   3.081   0.286   5.466 -1.7731  1.1710 -0.4065
 1733SOL    HW216833   3.127   0.161   5.425 -0.7494  1.1783 -2.4490
 1734SOL     OW16834   0.377   0.131   2.863  0.2910  0.1142 -0.1887
 1734SOL    HW116835   0.408   0.121   2.773  1.1410 -1.6873  0.2907
 1734SOL    HW216836   0.391   0.038   2.882  1.3284 -0.0197 -1.6337
 1735SOL     OW16837   2.914   2.817   9.123 -0.1805 -0.3992 -0.5643
 1735SOL    HW116838   2.953   2.899   9.091 -0.4840  0.2809  0.7972
 1735SOL    HW216839   2.985   2.766   9.161  0.9612  1.9677  0.5133
 1736SOL     OW16840   0.133   0.231   4.637  0.3024 -0.6376 -0.0593
 1736SOL    HW116841   0.125   0.136   4.640 -1.4550 -0.4912 -0.3072
 1736SOL    HW216842   0.095   0.245   4.723 -0.4724 -1.0376 -0.3409
 1737SOL     OW16843   2.484   3.224   7.048 -0.5325  0.1025 -0.2774
 1737SOL    HW116844   2.469   3.173   6.968  0.3823 -1.8655  0.8124
 1737SOL    HW216845   2.517   3.304   7.008 -1.0060  0.2540 -0.3669
 1738SOL     OW16846   3.727   0.707   7.761 -0.1287 -0.0304  0.0994
 1738SOL    HW116847   3.670   0.647   7.809  1.6842 -1.3372  0.6300
 1738SOL    HW216848   3.677   0.741   7.687 -1.3999  0.0092  0.9834
 1739SOL     OW16849   1.892   4.703   2.435 -0.3065 -0.0801 -0.2000
 1739SOL    HW116850   1.820   0.013   2.396  1.1359  2.3870  0.3096
 1739SOL    HW216851   1.905   0.021   2.510  2.9571 -0.1260 -0.7331
 1740SOL     OW16852   4.375   0.653   8.094  0.0402  0.2942  0.7395
 1740SOL    HW116853   4.370   0.748   8.106 -1.5650  0.2975 -0.0200
 1740SOL    HW216854   4.338   0.648   8.006 -0.2250 -1.2235  0.9412
 1741SOL     OW16855   4.177   1.724   3.376  0.7661 -0.0790 -0.1712
 1741SOL    HW116856   4.246   1.791   3.369  0.5118  0.4784  2.5171
 1741SOL    HW216857   4.149   1.722   3.284  0.7029  0.3416 -0.1604
 1742SOL     OW16858   1.545   1.666   2.383  0.4959  0.0557  0.4637
 1742SOL    HW116859   1.513   1.681   2.295 -0.3460 -0.6657  0.6558
 1742SOL    HW216860   1.500   1.739   2.426 -1.0403 -0.6504  0.0301
 1743SOL     OW16861   4.664   2.111   3.275  0.6419  0.8400  0.0993
 1743SOL    HW116862   4.691   2.202   3.279  0.3067  0.9278  0.3552
 1743SOL    HW216863   4.650   2.107   3.180 -0.3497 -2.1355  0.3662
 1744SOL     OW16864   4.456   3.456   7.289  0.2147  0.0892 -0.0337
 1744SOL    HW116865   4.415   3.387   7.237 -1.0994  1.0314 -0.2539
 1744SOL    HW216866   4.531   3.416   7.333 -1.0629  0.5232  2.5944
 1745SOL     OW16867   0.669   1.212   4.666  0.4960  0.0898  0.0791
 1745SOL    HW116868   0.676   1.138   4.606  0.2645 -0.3304  0.5711
 1745SOL    HW216869   0.606   1.189   4.734  1.7783 -1.8064  0.6321
 1746SOL     OW16870   0.544   3.166   3.660  0.2702 -0.6583  0.0827
 1746SOL    HW116871   0.581   3.078   3.650 -1.0238 -0.9646 -2.0800
 1746SOL    HW216872   0.625   3.215   3.647 -1.3660  1.2463 -3.0087
 1747SOL     OW16873   2.687   2.974  16.684  0.0249 -0.1607 -0.1732
 1747SOL    HW116874   2.627   2.961  16.611 -0.5665 -0.6000  0.3878
 1747SOL    HW216875   2.735   3.056  16.670 -0.5366  0.0981 -0.5889
 1748SOL     OW16876   4.443   0.585   6.866 -0.5873  0.3059 -0.5225
 1748SOL    HW116877   4.366   0.609   6.917  0.1456  1.4415  0.0347
 1748SOL    HW216878   4.448   0.490   6.879 -0.7888  0.3206 -0.3467
 1749SOL     OW16879   3.142   2.299   7.242  0.1520  0.0742 -0.3020
 1749SOL    HW116880   3.183   2.213   7.242 -1.8898 -0.9135 -1.6245
 1749SOL    HW216881   3.049   2.285   7.263  0.6410 -0.7233  1.3252
 1750SOL     OW16882   4.079   2.556  12.959 -0.4155  0.5091  0.2267
 1750SOL    HW116883   4.110   2.533  12.872  0.7271 -0.7995  0.9841
 1750SOL    HW216884   3.995   2.511  12.958 -1.1025  1.8204 -1.6052
 1751SOL     OW16885   0.903   3.138   2.347 -0.0784  0.2339  0.1033
 1751SOL    HW116886   0.882   3.091   2.267 -1.4374 -0.7251  1.0355
 1751SOL    HW216887   0.972   3.199   2.318 -0.8335  1.8462  1.6766
 1752SOL     OW16888   0.305   1.503   8.539  0.0366 -0.0832  0.3033
 1752SOL    HW116889   0.342   1.447   8.470  0.7947 -0.2121  0.8159
 1752SOL    HW216890   0.376   1.557   8.576  0.7313  0.7413 -2.1909
 1753SOL     OW16891   2.762   0.259   8.817 -0.5875  0.0012  0.1167
 1753SOL    HW116892   2.796   0.181   8.861 -0.9429 -0.8918 -1.1993
 1753SOL    HW216893   2.840   0.312   8.800  0.1512 -0.3908  2.2686
 1754SOL     OW16894   4.318   0.178   5.782 -0.2119 -0.0667  0.1717
 1754SOL    HW116895   4.281   0.234   5.849  0.7319  4.0163 -2.7289
 1754SOL    HW216896   4.402   0.224   5.780  0.6525 -1.6852 -1.9474
 1755SOL     OW16897   4.679   2.180   2.157 -0.0244 -0.1547 -0.2735
 1755SOL    HW116898   4.645   2.173   2.068  0.2729  1.4474 -0.4970
 1755SOL    HW216899   4.670   2.092   2.194  1.2315  0.2056  0.8955
 1756SOL     OW16900   1.600   2.271   5.021 -0.1299  0.4055  0.0903
 1756SOL    HW116901   1.628   2.233   5.104 -2.6763 -0.7713  0.4246
 1756SOL    HW216902   1.680   2.302   4.979  0.1245  0.3047  0.5041
 1757SOL     OW16903   4.672   0.791   7.846  0.4278  0.0947  0.1620
 1757SOL    HW116904   4.671   0.797   7.750  1.0005  2.9907  0.3410
 1757SOL    HW216905   0.021   0.820   7.868  1.1603 -1.7803 -0.2514
 1758SOL     OW16906   3.560   2.005  17.714 -0.5539  0.0513 -0.9762
 1758SOL    HW116907   3.555   2.087  17.664  3.1276  1.9786  1.8863
 1758SOL    HW216908   3.629   1.959  17.665 -1.3721 -1.9860 -0.2084
 1759SOL     OW16909   0.943   4.516  12.927 -0.1247  0.2923  0.3487
 1759SOL    HW116910   0.993   4.581  12.877  0.8758  1.0401  2.3009
 1759SOL    HW216911   0.916   4.452  12.861 -0.8030  1.2011 -0.2535
 1760SOL     OW16912   1.753   2.447   1.562  0.1297  0.3434  0.0180
 1760SOL    HW116913   1.786   2.383   1.624 -2.9256  0.1809  1.4557
 1760SOL    HW216914   1.691   2.495   1.616  1.7701  2.4774 -0.0128
 1761SOL     OW16915   4.136   3.024  13.138  0.1725  0.1805 -0.1493
 1761SOL    HW116916   4.211   3.008  13.196 -0.4117 -2.6194 -0.1329
 1761SOL    HW216917   4.083   2.944  13.148  0.3721  0.0908  0.2085
 1762SOL     OW16918   3.649   0.705   5.095 -0.1307  0.1881  0.0037
 1762SOL    HW116919   3.666   0.727   5.003 -0.6060 -0.5328 -0.2604
 1762SOL    HW216920   3.587   0.775   5.118 -1.1952 -0.0621 -2.0687
 1763SOL     OW16921   3.282   4.540   2.853  1.0810 -0.3458  0.0934
 1763SOL    HW116922   3.306   4.615   2.799  0.5982  0.0298  0.4070
 1763SOL    HW216923   3.192   4.567   2.868  1.1623 -0.4804  0.8367
 1764SOL     OW16924   4.191   3.790   9.647 -0.2381 -0.2416 -0.0252
 1764SOL    HW116925   4.238   3.843   9.712 -3.0047  1.3641  0.6817
 1764SOL    HW216926   4.222   3.702   9.666  1.2612  0.4948  0.9527
 1765SOL     OW16927   2.482   4.618  13.339  0.3580  1.0679 -0.0412
 1765SOL    HW116928   2.564   4.651  13.302  0.4404  0.1059 -0.7125
 1765SOL    HW216929   2.469   4.675  13.414  3.9213 -0.4632  1.7398
 1766SOL     OW16930   1.011   3.304   4.335 -0.9955  0.3107 -0.0668
 1766SOL    HW116931   1.028   3.309   4.429 -1.3034  0.1283 -0.0002
 1766SOL    HW216932   1.078   3.369   4.314  0.0006 -0.4761  0.6932
 1767SOL     OW16933   2.935   0.469   2.644  0.2519  0.4011  0.3073
 1767SOL    HW116934   2.922   0.484   2.738 -2.4210 -1.4459  0.2030
 1767SOL    HW216935   2.949   0.559   2.614  0.6422 -0.1800 -1.2461
 1768SOL     OW16936   1.603   2.318   8.527 -0.4585  0.3412  0.3904
 1768SOL    HW116937   1.523   2.267   8.536 -0.6986  0.5223 -0.7019
 1768SOL    HW216938   1.591   2.357   8.441  1.0229  1.8603  0.8626
 1769SOL     OW16939   2.916   0.972   2.332  0.1820  0.4046 -0.4826
 1769SOL    HW116940   2.887   1.046   2.277 -0.4859 -1.6101 -2.8711
 1769SOL    HW216941   2.982   0.930   2.277 -0.4880 -0.6186 -0.5120
 1770SOL     OW16942   4.076   0.512   2.218 -0.0191  0.3761 -0.2107
 1770SOL    HW116943   3.999   0.546   2.173 -0.3526  1.8377  1.4366
 1770SOL    HW216944   4.120   0.592   2.247  0.0230 -0.1369  1.1351
 1771SOL     OW16945   1.819   1.920   7.379  0.7393  0.0059  0.8204
 1771SOL    HW116946   1.748   1.975   7.344  0.1187 -0.2906  1.6091
 1771SOL    HW216947   1.776   1.874   7.451 -0.2728  0.0726  0.2597
 1772SOL     OW16948   4.539   2.861   3.289  0.2599 -0.1675  0.2543
 1772SOL    HW116949   4.526   2.768   3.305 -0.6336  0.1148  1.1991
 1772SOL    HW216950   4.619   2.857   3.238 -0.3593 -2.4773 -0.5442
 1773SOL     OW16951   2.990   4.574  12.161 -0.1897 -0.2356 -0.2203
 1773SOL    HW116952   2.989   4.507  12.229  1.1445 -0.0376  0.0090
 1773SOL    HW216953   2.896   4.573  12.145 -0.3693 -0.4415  0.8336
 1774SOL     OW16954   1.185   4.008   6.879  0.7420 -0.8088 -0.3015
 1774SOL    HW116955   1.266   4.057   6.865 -0.7642  1.9592  0.8798
 1774SOL    HW216956   1.232   3.927   6.900 -1.2025 -2.6115 -2.8182
 1775SOL     OW16957   2.781   1.500  15.186 -0.1402  0.4308  0.7626
 1775SOL    HW116958   2.793   1.497  15.091  0.3467 -0.0169  0.8419
 1775SOL    HW216959   2.744   1.588  15.198 -2.3240 -0.3300 -0.4290
 1776SOL     OW16960   3.653   2.687   7.784  0.2319 -0.6429 -0.0960
 1776SOL    HW116961   3.628   2.705   7.875  2.3027 -0.4136  0.4281
 1776SOL    HW216962   3.706   2.763   7.762 -1.6460  0.8359  0.5360
 1777SOL     OW16963   4.632   3.197   2.739  0.7885  0.1475 -0.1797
 1777SOL    HW116964   4.638   3.225   2.648 -2.4146 -0.1873 -0.4755
 1777SOL    HW216965   4.539   3.176   2.733  1.0303 -1.2754  1.1835
 1778SOL     OW16966   3.573   4.376   4.110  0.0420  0.3874  0.1110
 1778SOL    HW116967   3.636   4.446   4.129 -0.8904  0.5461  2.7054
 1778SOL    HW216968   3.606   4.308   4.169 -2.2551 -1.4911 -0.7722
 1779SOL     OW16969   3.262   3.889   2.753 -0.0911  0.2390 -0.0901
 1779SOL    HW116970   3.352   3.896   2.722 -0.9306  1.5459 -2.1687
 1779SOL    HW216971   3.284   3.849   2.838 -1.3862 -0.7654 -0.2159
 1780SOL     OW16972   2.101   1.644   4.290 -0.5999 -0.2197  0.3831
 1780SOL    HW116973   2.149   1.562   4.303  0.3426  0.0854 -1.0954
 1780SOL    HW216974   2.081   1.648   4.196 -0.4719 -1.6767  0.2990
 1781SOL     OW16975   1.177   3.466   6.009  0.7618 -0.0479  0.6533
 1781SOL    HW116976   1.267   3.494   5.991  1.5433 -1.5888  2.2187
 1781SOL    HW216977   1.119   3.542   6.009  1.9020  0.8106  0.1020
 1782SOL     OW16978   4.206   3.085   3.991 -0.2325  0.0008  0.1436
 1782SOL    HW116979   4.206   3.160   4.052  3.5192  1.4978 -1.7393
 1782SOL    HW216980   4.279   3.102   3.932  1.3939 -0.6265  1.9625
 1783SOL     OW16981   0.361   4.370  13.465  0.4352 -0.1591  0.4188
 1783SOL    HW116982   0.428   4.385  13.398 -1.5969  2.4399 -1.0086
 1783SOL    HW216983   0.377   4.279  13.488  0.3403 -0.4135 -0.5398
 1784SOL     OW16984   0.477   1.393   4.356  0.0971  0.0818 -0.5965
 1784SOL    HW116985   0.465   1.480   4.393 -2.2244 -0.5630  0.1873
 1784SOL    HW216986   0.571   1.399   4.340  0.5341  0.3194  2.0418
 1785SOL     OW16987   2.263   3.996   7.156 -0.0521 -0.3293 -0.7048
 1785SOL    HW116988   2.214   4.074   7.179  0.7300  0.1956 -0.8067
 1785SOL    HW216989   2.211   3.952   7.089 -3.1902  1.1742  0.7544
 1786SOL     OW16990   4.710   0.186   8.833  0.2500 -0.0546 -0.6328
 1786SOL    HW116991   4.692   0.263   8.778  0.6934  0.4987 -0.0011
 1786SOL    HW216992   0.036   0.137   8.783  0.7402  0.0341 -0.0717
 1787SOL     OW16993   0.542   1.839   1.835  0.6619  0.1275 -0.5769
 1787SOL    HW116994   0.498   1.821   1.919  1.6201  0.7400  0.0577
 1787SOL    HW216995   0.619   1.784   1.828  1.0470  0.6313 -0.3144
 1788SOL     OW16996   1.269   0.599  14.833 -0.3724  0.1108 -0.6792
 1788SOL    HW116997   1.349   0.549  14.816 -1.1651 -1.9911  1.8118
 1788SOL    HW216998   1.250   0.588  14.926  1.4292 -0.3165 -0.3631
 1789SOL     OW16999   3.106   1.206  10.090 -0.1386 -0.2829 -0.0772
 1789SOL    HW117000   3.198   1.187  10.072  0.4455  1.0530  1.5376
 1789SOL    HW217001   3.086   1.270  10.022  1.1881 -1.4282 -1.5758
 1790SOL     OW17002   2.692   3.329   8.652 -0.2866  0.3077  0.0540
 1790SOL    HW117003   2.684   3.241   8.690  0.8399 -0.4798 -1.5248
 1790SOL    HW217004   2.693   3.378   8.734 -1.3126  0.7767 -0.2164
 1791SOL     OW17005   2.851   0.420   1.693 -0.7382 -0.0965  0.6567
 1791SOL    HW117006   2.907   0.361   1.743 -1.8088 -1.4662  0.2804
 1791SOL    HW217007   2.885   0.504   1.721 -1.6632  0.1837  0.9392
 1792SOL     OW17008   0.830   3.462  10.736  0.0172 -0.4051 -0.4211
 1792SOL    HW117009   0.746   3.438  10.776  1.4151 -1.2106  2.0086
 1792SOL    HW217010   0.823   3.557  10.722  1.7010 -0.1982  0.2299
 1793SOL     OW17011   4.234   3.885   0.799  0.0710  0.1387  0.9365
 1793SOL    HW117012   4.235   3.789   0.802  1.1431  0.1493  0.7050
 1793SOL    HW217013   4.247   3.900   0.893  0.5284  0.0917  0.8801
 1794SOL     OW17014   0.311   2.609   3.330  0.2372 -0.3084  0.6632
 1794SOL    HW117015   0.228   2.627   3.374 -0.1565 -1.1143  0.2461
 1794SOL    HW217016   0.282   2.575   3.245 -4.7704 -0.7698  2.6217
 1795SOL     OW17017   1.478   2.391   6.245  0.1221 -0.3359  0.6466
 1795SOL    HW117018   1.556   2.413   6.297  0.5030 -2.6763  1.0563
 1795SOL    HW217019   1.413   2.448   6.285  0.4405  0.4914 -0.0217
 1796SOL     OW17020   0.050   3.327   8.241  0.2753 -0.1599 -0.0271
 1796SOL    HW117021   0.132   3.298   8.202  1.0671  0.2140  1.3352
 1796SOL    HW217022   0.037   3.252   8.299  1.1406 -0.2495  0.0507
 1797SOL     OW17023   3.505   3.311   8.587  0.2633 -0.5815  0.9158
 1797SOL    HW117024   3.519   3.313   8.682 -0.7537 -1.0295  1.0847
 1797SOL    HW217025   3.556   3.233   8.565 -1.6576 -0.6812 -3.2269
 1798SOL     OW17026   4.383   0.307   1.552 -0.0695 -0.1613  0.4840
 1798SOL    HW117027   4.407   0.222   1.588 -0.4631 -0.5412 -0.1572
 1798SOL    HW217028   4.468   0.343   1.526 -0.2579 -0.2879 -0.3003
 1799SOL     OW17029   4.599   3.517  10.443  0.2340  0.0353 -0.6322
 1799SOL    HW117030   4.684   3.480  10.465  1.0859  2.7499  0.7170
 1799SOL    HW217031   4.603   3.514  10.347 -2.5973  4.7615 -0.9119
 1800SOL     OW17032   1.724   4.314   5.846 -0.6471 -0.6265 -0.2476
 1800SOL    HW117033   1.723   4.374   5.920  1.4605 -0.4090 -0.3905
 1800SOL    HW217034   1.727   4.230   5.891 -1.8476  1.1153  3.0456
 1801SOL     OW17035   1.756   0.989  16.843  0.2698 -0.0365  0.0466
 1801SOL    HW117036   1.834   0.946  16.877 -0.4484 -2.1106 -0.8887
 1801SOL    HW217037   1.694   0.941  16.899  0.3966 -0.3238 -0.0593
 1802SOL     OW17038   2.237   3.520   7.091  0.0335 -0.2560  0.0066
 1802SOL    HW117039   2.299   3.449   7.107 -2.6908 -2.2140  1.8280
 1802SOL    HW217040   2.231   3.564   7.176 -3.6918  2.4139 -1.6533
 1803SOL     OW17041   4.212   0.707   4.695  0.7493 -0.2986 -0.4312
 1803SOL    HW117042   4.177   0.734   4.780  0.8519 -1.7223  0.0609
 1803SOL    HW217043   4.307   0.704   4.707  0.8726 -1.2856 -1.7800
 1804SOL     OW17044   3.445   0.272  14.265  0.1367  0.3069  0.3253
 1804SOL    HW117045   3.521   0.331  14.272 -0.7891  1.2992  1.8824
 1804SOL    HW217046   3.467   0.215  14.192 -2.3217  1.1080 -1.0442
 1805SOL     OW17047   0.782   2.089   8.720 -0.0973 -0.0245  0.5377
 1805SOL    HW117048   0.851   2.118   8.780  0.8038  0.6989 -0.8345
 1805SOL    HW217049   0.757   2.174   8.682 -0.2361 -0.8473 -1.2048
 1806SOL     OW17050   1.695   3.616   3.220 -0.3109  0.3560 -0.3484
 1806SOL    HW117051   1.755   3.541   3.224 -1.7863 -0.8078  0.1833
 1806SOL    HW217052   1.615   3.567   3.197 -0.2750 -0.3578  1.0667
 1807SOL     OW17053   4.429   0.490   3.012  0.0551  0.0325  0.2990
 1807SOL    HW117054   4.422   0.493   2.917  0.6757 -2.3125  0.1797
 1807SOL    HW217055   4.446   0.397   3.030  1.0379 -0.3463 -2.6534
 1808SOL     OW17056   4.557   0.867  11.068 -0.2010  0.2154  0.7850
 1808SOL    HW117057   4.589   0.926  11.135  1.9653 -0.5873  0.4638
 1808SOL    HW217058   4.485   0.918  11.031  0.2843  1.7641  1.9886
 1809SOL     OW17059   0.336   4.055   1.234  0.3887 -0.3327  0.4753
 1809SOL    HW117060   0.376   3.970   1.252  2.9090  0.5414 -0.9038
 1809SOL    HW217061   0.389   4.083   1.159  0.3540 -0.7051  0.3126
 1810SOL     OW17062   2.781   4.273   6.398 -0.5053 -0.4385  0.1242
 1810SOL    HW117063   2.766   4.347   6.339 -2.3474  0.3975  1.6285
 1810SOL    HW217064   2.857   4.305   6.446 -0.6543 -0.8089  0.6127
 1811SOL     OW17065   1.918   3.673  16.801 -0.0893 -0.2713 -0.5305
 1811SOL    HW117066   1.933   3.596  16.856 -0.6815  0.5184  0.7635
 1811SOL    HW217067   1.957   3.641  16.720 -0.5993 -2.6693  0.1716
 1812SOL     OW17068   1.302   3.155  12.254 -0.0764 -0.1580 -0.2394
 1812SOL    HW117069   1.343   3.196  12.178 -0.1389  1.0319  0.3636
 1812SOL    HW217070   1.371   3.177  12.318 -0.6062  1.4877 -0.2334
 1813SOL     OW17071   3.636   1.560   5.638 -0.0581 -0.3634  0.0137
 1813SOL    HW117072   3.675   1.644   5.663 -1.2636 -0.1269  1.0769
 1813SOL    HW217073   3.564   1.543   5.698 -1.5442 -1.0287 -1.9619
 1814SOL     OW17074   1.048   4.735   4.893 -0.2259 -0.6445  0.2964
 1814SOL    HW117075   1.037   0.017   4.800  1.0468 -1.4505 -0.0491
 1814SOL    HW217076   1.026   4.643   4.905  0.6913 -0.3700  4.1115
 1815SOL     OW17077   1.771   1.758   2.132  0.2236  0.1355 -0.2909
 1815SOL    HW117078   1.778   1.694   2.062  1.3710  0.0630 -0.1028
 1815SOL    HW217079   1.714   1.817   2.084 -0.6593 -1.3442 -1.0652
 1816SOL     OW17080   0.845   2.651  10.561  0.0305 -0.0841  0.2069
 1816SOL    HW117081   0.761   2.609  10.542  0.4913 -1.2359  0.7301
 1816SOL    HW217082   0.877   2.616  10.644  0.5099  0.5281  0.2801
 1817SOL     OW17083   3.867   1.797   1.553  0.2903 -0.4228 -0.0082
 1817SOL    HW117084   3.782   1.759   1.532 -0.1900 -0.7756  2.5990
 1817SOL    HW217085   3.842   1.885   1.580 -0.6910 -0.7093  0.0062
 1818SOL     OW17086   3.098   0.838   6.682  1.0348 -0.2884  0.4538
 1818SOL    HW117087   3.139   0.910   6.634  0.1857  0.4628  0.8455
 1818SOL    HW217088   3.168   0.773   6.684  0.8248 -0.4740  1.6252
 1819SOL     OW17089   1.494   1.121   3.821  0.2060  0.2706  0.1106
 1819SOL    HW117090   1.550   1.175   3.876  0.9284  0.7706 -1.1060
 1819SOL    HW217091   1.414   1.109   3.872 -0.2976 -0.3662 -0.8237
 1820SOL     OW17092   2.719   0.508   4.822  0.1875 -0.2908  0.0840
 1820SOL    HW117093   2.670   0.437   4.862  0.1381  0.2711  1.0348
 1820SOL    HW217094   2.779   0.535   4.891 -0.4533  1.2444  0.0352
 1821SOL     OW17095   3.035   1.295   7.344  0.1148  0.2231  0.4195
 1821SOL    HW117096   3.077   1.363   7.396 -0.2976  0.9631 -0.2022
 1821SOL    HW217097   3.097   1.223   7.354  0.6946  0.4915 -1.1627
 1822SOL     OW17098   0.650   0.915   4.895 -0.2608 -0.2268 -0.4073
 1822SOL    HW117099   0.620   0.829   4.867  0.5713 -0.6967  0.1361
 1822SOL    HW217100   0.676   0.894   4.985 -0.3805  0.0246 -0.3148
 1823SOL     OW17101   0.629   2.506  10.436 -0.1154  0.8037  0.1967
 1823SOL    HW117102   0.576   2.475  10.362  2.2144 -0.0684 -1.1019
 1823SOL    HW217103   0.686   2.431  10.451 -0.4523  0.3425 -0.7962
 1824SOL     OW17104   1.331   1.543   6.484  0.8149  0.2153  0.4727
 1824SOL    HW117105   1.385   1.510   6.412  1.8760  1.4532  0.7060
 1824SOL    HW217106   1.399   1.581   6.539  0.3329 -0.4552  1.5205
 1825SOL     OW17107   2.289   0.420   4.027 -0.1508  0.2223  0.1531
 1825SOL    HW117108   2.289   0.336   3.981  0.8387 -0.0694  0.6813
 1825SOL    HW217109   2.384   0.435   4.027 -0.0968 -0.1265  0.2749
 1826SOL     OW17110   4.570   0.712   9.673 -0.5543 -0.5667 -0.2454
 1826SOL    HW117111   4.567   0.620   9.699 -1.6069 -0.1524  1.0756
 1826SOL    HW217112   4.500   0.724   9.610  0.2768 -0.1547 -1.0921
 1827SOL     OW17113   4.296   2.836   3.121  0.1677  0.3097 -1.0128
 1827SOL    HW117114   4.385   2.867   3.142  0.6645 -0.2141 -2.3151
 1827SOL    HW217115   4.279   2.775   3.192 -0.6897  0.3413 -1.1976
 1828SOL     OW17116   2.507   4.735   6.821 -0.1072  0.4875  0.0988
 1828SOL    HW117117   2.479   4.680   6.895  1.7109 -0.3913  0.1200
 1828SOL    HW217118   2.591   0.029   6.851  0.9426 -0.8962 -1.2592
 1829SOL     OW17119   1.765   0.505   8.085 -0.2313 -0.9463  0.0046
 1829SOL    HW117120   1.805   0.449   8.151 -0.3029 -1.5850 -0.5006
 1829SOL    HW217121   1.785   0.451   8.008 -0.8225  0.8015 -1.3871
 1830SOL     OW17122   2.531   0.064   2.103  0.2867 -0.5683  0.2766
 1830SOL    HW117123   2.566   0.099   2.021 -0.1749 -1.2989 -0.2339
 1830SOL    HW217124   2.497   0.143   2.145  1.3188  0.6330 -1.1217
 1831SOL     OW17125   3.177   0.386  12.744  0.1600  0.3650  0.2534
 1831SOL    HW117126   3.265   0.349  12.747  0.1040  0.0940 -1.7233
 1831SOL    HW217127   3.187   0.416  12.834 -2.9587 -1.9420  1.3787
 1832SOL     OW17128   1.938   1.162  14.030  1.0205 -0.6432  0.3409
 1832SOL    HW117129   1.880   1.092  14.062 -0.8408  0.6487 -0.2130
 1832SOL    HW217130   2.024   1.120  14.028  1.6284  0.5616  1.5274
 1833SOL     OW17131   1.469   4.455   8.239 -0.2317  0.0069 -0.7941
 1833SOL    HW117132   1.526   4.514   8.189  0.3074  0.2364  0.1101
 1833SOL    HW217133   1.491   4.370   8.200 -0.2334 -0.8743  1.1752
 1834SOL     OW17134   0.466   3.185  15.273 -0.8159 -0.0170 -0.1039
 1834SOL    HW117135   0.530   3.250  15.244 -0.0867 -0.4096  0.6283
 1834SOL    HW217136   0.502   3.109  15.228 -0.9994 -1.1909  1.7283
 1835SOL     OW17137   0.812   1.723   7.792 -0.1704 -0.2655  0.5154
 1835SOL    HW117138   0.885   1.669   7.822 -0.1876 -0.0501  0.9439
 1835SOL    HW217139   0.862   1.782   7.736  2.0115 -1.6906  0.9367
 1836SOL     OW17140   3.786   3.370  10.285  0.1996 -0.0090  0.0546
 1836SOL    HW117141   3.764   3.462  10.295  0.4201 -0.0892  1.2945
 1836SOL    HW217142   3.826   3.375  10.198  1.4514 -0.4103  0.6066
 1837SOL     OW17143   2.194   1.758   2.379  0.1027  0.0191 -0.0886
 1837SOL    HW117144   2.197   1.836   2.323 -1.2101  1.4708  1.8635
 1837SOL    HW217145   2.103   1.770   2.408  0.2620 -0.4353  0.5741
 1838SOL     OW17146   2.287   2.474   9.464 -0.4155 -0.5221  0.2110
 1838SOL    HW117147   2.195   2.501   9.462 -1.0299 -2.6157  0.1404
 1838SOL    HW217148   2.332   2.537   9.407  0.4102 -1.9589 -0.7183
 1839SOL     OW17149   2.723   3.110   6.306 -0.2474  0.1669  0.1618
 1839SOL    HW117150   2.630   3.094   6.285  0.5328 -0.7248 -2.7045
 1839SOL    HW217151   2.768   3.104   6.222  0.6602  0.0348  0.6673
 1840SOL     OW17152   0.713   1.516   4.941  0.1323 -0.1627  0.3810
 1840SOL    HW117153   0.745   1.486   4.856  1.3765 -0.1592  0.8461
 1840SOL    HW217154   0.793   1.558   4.972 -0.2224 -0.5011  1.8020
 1841SOL     OW17155   1.122   3.672  14.934 -0.4591 -0.2086  0.0667
 1841SOL    HW117156   1.190   3.738  14.922  0.5550 -1.0116  1.4974
 1841SOL    HW217157   1.117   3.678  15.029 -0.6718 -2.9528  0.2339
 1842SOL     OW17158   3.391   3.371   8.296  0.3627 -0.3706 -0.2093
 1842SOL    HW117159   3.367   3.308   8.364  3.6991 -0.8674  0.4708
 1842SOL    HW217160   3.420   3.325   8.217  1.1695 -0.1621 -0.0327
 1843SOL     OW17161   0.649   0.025  17.498  0.4048 -0.6291  0.2788
 1843SOL    HW117162   0.572   0.073  17.468  0.9252 -0.9503 -1.6007
 1843SOL    HW217163   0.674   4.727  17.413 -2.4416 -2.4679  0.2645
 1844SOL     OW17164   2.277   4.325   9.204  0.0200 -0.5333  0.2227
 1844SOL    HW117165   2.240   4.324   9.292 -1.3390  3.2768 -0.2798
 1844SOL    HW217166   2.205   4.337   9.142  0.3733  0.3703 -0.0288
 1845SOL     OW17167   1.471   4.457   2.342  0.3871 -0.3396 -0.0130
 1845SOL    HW117168   1.449   4.386   2.282  1.5915  0.3171 -1.2301
 1845SOL    HW217169   1.474   4.541   2.296 -0.7697 -1.5915 -2.3474
 1846SOL     OW17170   3.216   3.805   2.139  0.3541 -0.0014 -0.6587
 1846SOL    HW117171   3.180   3.755   2.066  1.7150 -2.3461  0.2659
 1846SOL    HW217172   3.242   3.888   2.100 -0.8418 -0.1065 -1.6872
 1847SOL     OW17173   3.731   4.401   4.732  0.1134  0.7715 -0.0115
 1847SOL    HW117174   3.674   4.434   4.802 -0.1731 -1.9158  0.9909
 1847SOL    HW217175   3.788   4.477   4.717 -1.1984  1.7385 -0.1094
 1848SOL     OW17176   0.178   2.901   4.712 -0.4591  0.2182 -0.0472
 1848SOL    HW117177   0.222   2.827   4.670  1.0044  2.3224 -2.2356
 1848SOL    HW217178   0.203   2.892   4.803 -1.0579 -1.1388 -0.0287
 1849SOL     OW17179   0.281   3.559   4.685 -0.3053 -0.1817  0.5333
 1849SOL    HW117180   0.289   3.615   4.608  0.3954 -1.8651 -0.6303
 1849SOL    HW217181   0.246   3.483   4.637  2.3229 -2.1668  1.7027
 1850SOL     OW17182   2.409   4.667   7.082  0.2174  0.5616 -0.3435
 1850SOL    HW117183   2.377   0.018   7.081 -0.0235  0.4679 -1.1647
 1850SOL    HW217184   2.496   4.681   7.118  0.5137  0.7402 -1.1250
 1851SOL     OW17185   2.768   0.304   0.665 -0.2663 -0.1103 -0.3477
 1851SOL    HW117186   2.845   0.295   0.722 -0.2532 -1.2909 -0.5519
 1851SOL    HW217187   2.805   0.279   0.581 -0.6957 -0.0092 -0.5667
 1852SOL     OW17188   0.213   4.427   2.972 -0.4136 -0.0765  0.2119
 1852SOL    HW117189   0.125   4.412   3.005 -1.2718  1.6869 -1.3070
 1852SOL    HW217190   0.243   4.448   3.061 -1.8489  1.5770  0.2982
 1853SOL     OW17191   1.489   0.403   6.819 -0.0104  0.2438 -0.2514
 1853SOL    HW117192   1.396   0.382   6.809 -0.3120  0.9142  1.2650
 1853SOL    HW217193   1.513   0.334   6.882  0.3363  0.5634 -0.0356
 1854SOL     OW17194   2.450   3.153  11.018  0.4608 -0.2760 -0.1939
 1854SOL    HW117195   2.472   3.101  11.095 -0.4115 -0.6166 -0.1808
 1854SOL    HW217196   2.534   3.194  11.000 -0.2394  0.8989 -0.7852
 1855SOL     OW17197   3.876   4.451   7.612 -0.1777 -0.0595  0.1768
 1855SOL    HW117198   3.788   4.475   7.641 -0.3111 -0.5790  0.2187
 1855SOL    HW217199   3.857   4.436   7.519 -0.8366 -0.6122  0.3966
 1856SOL     OW17200   2.407   0.039   3.697 -0.7034 -0.2797 -0.2120
 1856SOL    HW117201   2.429   4.685   3.702  0.9891  0.0981 -0.7089
 1856SOL    HW217202   2.312   0.036   3.702 -0.6531 -2.0005 -0.2847
 1857SOL     OW17203   4.145   1.623   9.468 -0.3082  0.4278 -0.0071
 1857SOL    HW117204   4.136   1.548   9.528 -2.6035  0.3484 -0.4793
 1857SOL    HW217205   4.220   1.669   9.507 -0.7968 -0.8894  2.5515
 1858SOL     OW17206   4.390   3.742   3.624  0.3851 -0.7390 -0.4718
 1858SOL    HW117207   4.475   3.707   3.650  1.6499  2.9410  0.3090
 1858SOL    HW217208   4.331   3.694   3.682 -0.8044  0.9221 -0.2792
 1859SOL     OW17209   3.886   2.735   5.572  0.5005  0.3963 -0.4564
 1859SOL    HW117210   3.820   2.743   5.504 -0.0273  0.7664  0.0971
 1859SOL    HW217211   3.850   2.806   5.625  0.3546  0.7009 -0.9679
 1860SOL     OW17212   3.634   4.088   3.888  0.4470  0.3943  0.6933
 1860SOL    HW117213   3.722   4.091   3.926 -0.1629  0.2078  2.1491
 1860SOL    HW217214   3.647   4.067   3.796  0.8818  2.9122  0.1853
 1861SOL     OW17215   1.080   1.792   6.170 -0.1787  0.7049  0.7769
 1861SOL    HW117216   1.102   1.879   6.138  1.4655  0.9789  2.6613
 1861SOL    HW217217   1.152   1.768   6.228 -0.0141 -3.2121 -1.0141
 1862SOL     OW17218   4.160   1.997   8.352  0.0774 -0.0880  0.0643
 1862SOL    HW117219   4.206   1.913   8.360  0.6194  0.2321  0.2543
 1862SOL    HW217220   4.228   2.063   8.341  0.1844 -0.0524  0.8839
 1863SOL     OW17221   0.064   2.093   6.860 -0.0574  0.2205 -0.3905
 1863SOL    HW117222   0.122   2.158   6.900  0.2752 -0.3614  0.0745
 1863SOL    HW217223   4.720   2.138   6.858 -0.5342 -0.5833  1.7625
 1864SOL     OW17224   2.773   2.224   3.945  0.5356  0.0753 -0.6223
 1864SOL    HW117225   2.839   2.160   3.971  0.6296  1.1490  1.7935
 1864SOL    HW217226   2.760   2.208   3.851 -0.1583 -2.1073 -0.1469
 1865SOL     OW17227   4.525   0.533   4.474  0.0104 -0.1728  0.2868
 1865SOL    HW117228   4.568   0.482   4.406 -0.8422 -0.6194  0.0751
 1865SOL    HW217229   4.499   0.469   4.540  0.9013  0.6800  1.4584
 1866SOL     OW17230   0.538   3.512   5.076  0.1782 -0.2762  0.0397
 1866SOL    HW117231   0.540   3.536   4.983 -1.6337  2.1534  0.6315
 1866SOL    HW217232   0.625   3.539   5.104 -0.2030  1.6359 -0.6458
 1867SOL     OW17233   3.818   0.519   4.393 -0.4645 -0.5620  0.2611
 1867SOL    HW117234   3.821   0.597   4.449  1.6633 -0.6469  0.2455
 1867SOL    HW217235   3.909   0.491   4.400 -0.7243 -1.3595  0.4862
 1868SOL     OW17236   0.558   3.394  17.156 -0.4869  0.8748 -0.4679
 1868SOL    HW117237   0.480   3.438  17.121 -0.8708  0.4512 -0.1465
 1868SOL    HW217238   0.590   3.470  17.205 -0.2116  1.3901 -1.4458
 1869SOL     OW17239   2.121   1.723   3.977 -0.2219  0.5976  0.0397
 1869SOL    HW117240   2.169   1.687   3.902 -3.1022 -3.1137 -0.0714
 1869SOL    HW217241   2.190   1.765   4.028  1.8666  1.4403 -3.4373
 1870SOL     OW17242   3.019   4.348   1.387  0.2898 -0.0807  0.0240
 1870SOL    HW117243   3.045   4.438   1.405 -0.9067  0.2987 -0.1409
 1870SOL    HW217244   3.085   4.292   1.427 -0.8027  0.4961  2.6466
 1871SOL     OW17245   2.906   0.942   3.876  0.0478  0.4636 -0.3491
 1871SOL    HW117246   2.844   1.006   3.841  1.2479  1.1031 -1.2936
 1871SOL    HW217247   2.847   0.867   3.887  0.3256 -0.1442 -3.0124
 1872SOL     OW17248   1.515   4.019   1.136 -0.2965  0.2000  0.2378
 1872SOL    HW117249   1.601   3.994   1.171 -0.1339  0.9770  0.4032
 1872SOL    HW217250   1.523   4.112   1.159 -1.8005  0.0269  1.4809
 1873SOL     OW17251   0.071   1.725   5.380  0.5382 -0.0852  0.0482
 1873SOL    HW117252   4.725   1.707   5.419  0.0243  2.6779  0.1542
 1873SOL    HW217253   0.091   1.635   5.353  0.9550 -0.3403  1.1893
 1874SOL     OW17254   4.652   0.065  10.376  0.5840  0.5921  0.2258
 1874SOL    HW117255   4.565   0.101  10.359  0.7924  0.3929 -1.2498
 1874SOL    HW217256   4.677   0.038  10.287  2.9413 -1.4608  1.5023
 1875SOL     OW17257   4.017   4.732   4.185 -0.2943 -1.1528  1.1197
 1875SOL    HW117258   3.947   0.058   4.186  1.2537  0.5387 -0.8138
 1875SOL    HW217259   4.090   0.044   4.219 -0.2776 -0.9914  0.8395
 1876SOL     OW17260   4.368   4.160   1.383  0.2090 -0.4103  0.2910
 1876SOL    HW117261   4.284   4.167   1.339  1.3520  1.3975 -1.6046
 1876SOL    HW217262   4.411   4.104   1.319 -0.8136 -1.4516  0.5186
 1877SOL     OW17263   2.655   1.033  12.594  0.2866 -0.0631  0.1134
 1877SOL    HW117264   2.686   1.022  12.504  1.9495  0.7483  0.5698
 1877SOL    HW217265   2.634   1.126  12.605 -2.0592 -0.7768  1.4631
 1878SOL     OW17266   1.727   1.048   7.234  0.3035 -0.0410  0.3322
 1878SOL    HW117267   1.778   1.021   7.157  2.0505  3.7659  0.1494
 1878SOL    HW217268   1.691   0.963   7.257 -0.7213 -0.2165 -1.9285
 1879SOL     OW17269   4.029   3.217  12.974 -0.6500 -0.2526  0.6046
 1879SOL    HW117270   4.103   3.240  12.918 -0.0733  0.4714  1.6475
 1879SOL    HW217271   4.067   3.138  13.013  0.8140  0.5793  0.8950
 1880SOL     OW17272   1.145   2.224   8.107  0.6135  0.3000 -0.9429
 1880SOL    HW117273   1.182   2.299   8.154  1.0410  1.1764 -2.6719
 1880SOL    HW217274   1.072   2.264   8.059 -1.7210 -0.0298  2.3937
 1881SOL     OW17275   0.721   4.217   5.691  0.1759 -0.5123  0.0157
 1881SOL    HW117276   0.715   4.137   5.745 -0.9090 -0.6916 -0.3659
 1881SOL    HW217277   0.808   4.217   5.651 -0.1558  0.8365 -0.7038
 1882SOL     OW17278   0.032   3.800   1.335 -0.4047  0.1696 -0.2448
 1882SOL    HW117279   0.036   3.704   1.343  3.0839  0.2521 -0.9308
 1882SOL    HW217280   0.054   3.825   1.246  1.2854  3.6300  1.1490
 1883SOL     OW17281   1.513   3.558  15.061 -0.2037 -0.5134 -0.2245
 1883SOL    HW117282   1.550   3.566  14.974 -1.2636 -2.2008 -0.8333
 1883SOL    HW217283   1.589   3.507  15.090  1.6662  2.0467 -0.6719
 1884SOL     OW17284   2.777   3.300  11.532  0.4686  0.0017 -0.1340
 1884SOL    HW117285   2.715   3.313  11.461 -1.0201  0.2443  1.1937
 1884SOL    HW217286   2.770   3.205  11.545  1.3511  0.0049  0.3443
 1885SOL     OW17287   1.229   0.375   0.233 -0.0311 -0.0330 -0.1750
 1885SOL    HW117288   1.238   0.361   0.327 -0.3187 -2.7642 -0.5514
 1885SOL    HW217289   1.194   0.464   0.236 -0.2695 -0.0794 -1.4753
 1886SOL     OW17290   2.457   3.096   4.686 -0.4782  0.0091 -0.8598
 1886SOL    HW117291   2.430   3.022   4.631 -1.2368  0.8932 -1.6847
 1886SOL    HW217292   2.542   3.116   4.648 -0.1599 -1.6284 -1.0292
 1887SOL     OW17293   4.385   3.977   4.913 -0.0334  0.4344  0.4519
 1887SOL    HW117294   4.342   3.923   4.848  0.6605  1.3940 -0.8076
 1887SOL    HW217295   4.421   3.924   4.984  1.1261 -0.8237 -1.0904
 1888SOL     OW17296   1.098   4.553   8.183  0.0575  0.3225 -0.4352
 1888SOL    HW117297   1.090   4.599   8.266  0.5855 -0.5235  0.0901
 1888SOL    HW217298   1.131   4.469   8.217  0.4814  0.5837 -0.1952
 1889SOL     OW17299   3.375   0.978   5.157 -0.3999 -0.5623 -0.0180
 1889SOL    HW117300   3.462   1.015   5.149 -0.6134  0.1543  0.9073
 1889SOL    HW217301   3.315   1.052   5.165 -1.4606 -1.5990  1.7702
 1890SOL     OW17302   2.080   2.682   6.313  0.0531  0.1150 -0.1069
 1890SOL    HW117303   2.137   2.759   6.316 -0.8714  0.7820  0.3159
 1890SOL    HW217304   2.096   2.649   6.224 -3.1034 -0.0805 -0.6078
 1891SOL     OW17305   0.626   4.190  15.177 -0.3843  1.0664 -0.6796
 1891SOL    HW117306   0.626   4.246  15.099 -1.5489  1.4564 -0.4056
 1891SOL    HW217307   0.675   4.242  15.241 -0.3087  0.8313 -0.5484
 1892SOL     OW17308   4.495   0.308   2.756 -0.1565  0.3067  0.6144
 1892SOL    HW117309   4.472   0.216   2.745 -2.0848  0.7707  0.7635
 1892SOL    HW217310   4.417   0.343   2.713  1.5206  1.0137 -1.8578
 1893SOL     OW17311   1.769   1.674  13.416 -0.1403 -0.4341  0.6259
 1893SOL    HW117312   1.740   1.583  13.429 -0.3700 -0.3851  0.4544
 1893SOL    HW217313   1.833   1.667  13.346 -1.5391 -0.6667 -0.6227
 1894SOL     OW17314   1.230   4.320   8.274 -0.0835 -0.3352 -0.5455
 1894SOL    HW117315   1.273   4.235   8.283  0.7492  0.3679  2.1224
 1894SOL    HW217316   1.309   4.367   8.246 -1.2550  2.9715  1.6594
 1895SOL     OW17317   2.386   3.759  11.155 -0.0511  0.1465 -0.0885
 1895SOL    HW117318   2.338   3.802  11.084  0.2638 -1.0998 -1.0400
 1895SOL    HW217319   2.314   3.732  11.212  2.2361 -1.1687  2.2060
 1896SOL     OW17320   0.646   3.110  15.645  0.7163 -0.1968 -0.5040
 1896SOL    HW117321   0.582   3.057  15.692  0.5937  0.3186 -0.0775
 1896SOL    HW217322   0.653   3.073  15.557 -0.8480 -2.1997  0.2213
 1897SOL     OW17323   1.987   0.286   9.186  0.4547  0.1097  0.1934
 1897SOL    HW117324   2.079   0.291   9.161  0.0378 -1.2485 -1.6031
 1897SOL    HW217325   1.998   0.287   9.281  2.3527  0.0840 -0.0330
 1898SOL     OW17326   2.096   3.532  17.153 -0.3122  0.1764 -0.0402
 1898SOL    HW117327   2.176   3.492  17.120 -0.7791 -0.8644  0.0758
 1898SOL    HW217328   2.036   3.515  17.080  2.0121  2.4723 -2.4699
 1899SOL     OW17329   1.790   1.111   3.250  0.2004  0.2041 -0.3463
 1899SOL    HW117330   1.886   1.106   3.248  0.1990 -0.6497  1.7808
 1899SOL    HW217331   1.783   1.093   3.156  0.0386 -0.6969 -0.1546
 1900SOL     OW17332   3.548   2.004   0.714  0.2137  0.2560 -0.3989
 1900SOL    HW117333   3.608   2.028   0.785  0.7624  1.3398 -1.2336
 1900SOL    HW217334   3.504   1.933   0.759  1.8049 -0.9938 -0.8177
 1901SOL     OW17335   4.695   1.291  12.175 -0.4107 -0.4290  0.5422
 1901SOL    HW117336   4.735   1.210  12.143 -1.9428 -0.3566 -1.5537
 1901SOL    HW217337   4.705   1.276  12.269 -2.5251 -0.7676  0.7084
 1902SOL     OW17338   3.461   0.151   6.393 -0.9206 -0.0785  0.0542
 1902SOL    HW117339   3.429   0.110   6.473 -1.6684  0.7550  0.1854
 1902SOL    HW217340   3.556   0.161   6.402 -1.2581  0.5254  2.7786
 1903SOL     OW17341   4.583   0.708  10.253  0.0457 -0.3040 -0.2223
 1903SOL    HW117342   4.652   0.656  10.294  0.6813 -0.1384 -1.0805
 1903SOL    HW217343   4.630   0.787  10.227  0.5492 -0.4190  0.3672
 1904SOL     OW17344   4.617   0.804   4.210  0.6435  0.4025 -0.0626
 1904SOL    HW117345   4.544   0.743   4.207  0.5201  0.5775 -0.5784
 1904SOL    HW217346   4.606   0.833   4.301  1.3277  0.8363 -0.1222
 1905SOL     OW17347   3.329   1.258   1.806  0.8147  0.3589  0.0128
 1905SOL    HW117348   3.246   1.212   1.819  1.4371 -0.9615 -0.7225
 1905SOL    HW217349   3.377   1.236   1.886  0.7119 -0.7855 -0.2465
 1906SOL     OW17350   0.509   0.529   4.304 -0.4654 -0.8787 -0.0731
 1906SOL    HW117351   0.597   0.537   4.266 -1.1486 -1.1577 -1.7268
 1906SOL    HW217352   0.509   0.438   4.333  0.2279 -0.1395  2.2566
 1907SOL     OW17353   2.155   1.084   3.924  0.2609  0.0919 -0.0075
 1907SOL    HW117354   2.180   1.065   4.014  0.3434  2.0158  0.3925
 1907SOL    HW217355   2.076   1.034   3.906 -0.3056  1.2422 -0.7674
 1908SOL     OW17356   1.808   0.652   1.335 -0.9570 -0.0107  0.2293
 1908SOL    HW117357   1.889   0.602   1.332  0.1266  1.7621 -0.0298
 1908SOL    HW217358   1.836   0.734   1.295  2.1898 -0.7511  0.9128
 1909SOL     OW17359   3.979   2.702   7.906 -0.3173  0.6703  0.6825
 1909SOL    HW117360   4.055   2.672   7.855 -0.9055  0.3803 -0.0117
 1909SOL    HW217361   3.930   2.620   7.911  1.8434 -0.5567  2.2757
 1910SOL     OW17362   4.249   2.367   3.325 -0.9897 -0.5670 -0.5152
 1910SOL    HW117363   4.157   2.378   3.301 -0.8158  0.1179 -0.8471
 1910SOL    HW217364   4.256   2.372   3.420  2.2346 -0.4979 -0.7860
 1911SOL     OW17365   1.601   3.926   9.298 -0.4737  0.4974 -0.6306
 1911SOL    HW117366   1.542   3.883   9.360  1.2452 -0.3673  0.4130
 1911SOL    HW217367   1.653   3.985   9.353  0.2702  0.0390 -0.8312
 1912SOL     OW17368   2.147   2.434   8.713  0.3252 -0.4713  0.0073
 1912SOL    HW117369   2.102   2.492   8.774 -0.0857 -0.4266 -0.3420
 1912SOL    HW217370   2.236   2.425   8.748  0.6993 -1.4277 -1.2116
 1913SOL     OW17371   1.118   3.873   3.833 -0.4511 -0.1236  0.0894
 1913SOL    HW117372   1.072   3.865   3.917  0.8003  0.9120  0.8563
 1913SOL    HW217373   1.129   3.967   3.826 -0.2488 -0.2338 -0.9780
 1914SOL     OW17374   2.395   2.771   3.401  0.3630  0.2067 -0.5865
 1914SOL    HW117375   2.415   2.680   3.422  2.8301  0.9188  0.0280
 1914SOL    HW217376   2.370   2.765   3.308  2.9742 -0.5484 -1.2287
 1915SOL     OW17377   2.437   4.639  16.611 -0.5437 -0.0491  0.4773
 1915SOL    HW117378   2.433   4.596  16.696  2.4920  0.0898  0.6797
 1915SOL    HW217379   2.485   4.577  16.557  0.2428  1.8935 -1.0330
 1916SOL     OW17380   3.988   3.345   7.311 -0.2797  0.1931  0.2410
 1916SOL    HW117381   4.078   3.325   7.336 -0.0191  1.1595  0.0539
 1916SOL    HW217382   3.969   3.412   7.377 -2.1421 -1.4379  1.3595
 1917SOL     OW17383   4.634   2.745   8.974  0.6458  0.6524 -0.0934
 1917SOL    HW117384   4.695   2.672   8.978 -1.9681 -1.4362  1.7050
 1917SOL    HW217385   4.669   2.802   9.042 -1.5949  0.8383  0.9232
 1918SOL     OW17386   2.036   2.827  10.945  0.2761 -0.5298 -0.3549
 1918SOL    HW117387   1.967   2.843  11.009  1.3533 -0.5630  0.8231
 1918SOL    HW217388   2.086   2.756  10.986  0.7430 -0.5037 -0.8727
 1919SOL     OW17389   1.734   0.798   3.028 -0.3622  0.4556  0.4958
 1919SOL    HW117390   1.743   0.748   2.947  0.5384 -1.7287  1.9265
 1919SOL    HW217391   1.747   0.888   2.997  1.6653 -0.1831 -0.5410
 1920SOL     OW17392   2.818   4.381   8.619 -0.3150  0.2650 -0.1835
 1920SOL    HW117393   2.741   4.434   8.600 -1.9311 -1.7525  0.7476
 1920SOL    HW217394   2.798   4.300   8.572 -2.9244  1.0306 -0.4119
 1921SOL     OW17395   1.598   3.498   6.609  0.0715  0.3783  0.2800
 1921SOL    HW117396   1.564   3.463   6.526  2.5301 -1.4644  0.0610
 1921SOL    HW217397   1.684   3.524   6.576  0.0558  0.8800  0.6322
 1922SOL     OW17398   4.148   4.324   5.580 -0.2563 -0.3223 -0.1207
 1922SOL    HW117399   4.121   4.406   5.620 -1.5093 -0.6813 -0.2507
 1922SOL    HW217400   4.237   4.321   5.615 -0.9849 -1.4464  1.5843
 1923SOL     OW17401   3.877   3.291   9.026 -0.5094  0.4295 -0.2407
 1923SOL    HW117402   3.959   3.313   8.983 -1.6973  1.9028 -1.7560
 1923SOL    HW217403   3.866   3.373   9.073 -2.3165  0.8674 -1.3916
 1924SOL     OW17404   4.401   2.980   8.623  0.1949 -0.1699 -0.0302
 1924SOL    HW117405   4.463   2.958   8.693 -0.8602  2.6782  1.8300
 1924SOL    HW217406   4.362   2.895   8.602 -0.7221  0.4073 -0.6581
 1925SOL     OW17407   4.705   0.893   9.190  0.1690  0.6155 -0.1467
 1925SOL    HW117408   0.024   0.854   9.126 -1.3323  0.1791 -1.2506
 1925SOL    HW217409   4.659   0.812   9.211 -0.3519  0.6814 -1.0326
 1926SOL     OW17410   4.086   3.807   8.755 -0.1069  1.0351 -0.0994
 1926SOL    HW117411   4.172   3.788   8.718  0.8512  0.1670  2.5946
 1926SOL    HW217412   4.031   3.803   8.677  0.4482 -0.0762 -0.4287
 1927SOL     OW17413   0.517   2.681   2.030 -0.2689  0.5757 -0.0704
 1927SOL    HW117414   0.492   2.653   1.942 -1.5321  1.8234 -0.1088
 1927SOL    HW217415   0.532   2.776   2.024  0.2577  0.4662 -0.5123
 1928SOL     OW17416   1.552   3.358   7.520  0.2681  0.8501  0.5124
 1928SOL    HW117417   1.475   3.370   7.575 -2.0028 -1.9073 -2.0564
 1928SOL    HW217418   1.537   3.270   7.485  1.4345  1.5217 -1.7441
 1929SOL     OW17419   2.808   4.132   4.791 -0.5293 -0.6797  0.1452
 1929SOL    HW117420   2.870   4.179   4.735  1.7176 -3.1934  0.5645
 1929SOL    HW217421   2.847   4.157   4.875 -0.7808 -2.9524  0.9242
 1930SOL     OW17422   2.349   2.276   8.222 -0.2913 -0.1051 -0.0134
 1930SOL    HW117423   2.268   2.313   8.256 -1.6456 -2.3191 -0.8944
 1930SOL    HW217424   2.318   2.241   8.139  0.2543 -0.7507  0.0559
 1931SOL     OW17425   3.320   0.958  16.384 -0.2767  0.0187 -0.2203
 1931SOL    HW117426   3.290   1.017  16.315  1.0503  0.6283 -0.2777
 1931SOL    HW217427   3.299   0.870  16.351  0.7298 -0.4089  0.2705
 1932SOL     OW17428   3.729   1.559   4.784 -0.0871  0.1264 -0.6722
 1932SOL    HW117429   3.643   1.525   4.806  0.2364 -0.6848 -0.6712
 1932SOL    HW217430   3.780   1.486   4.818  1.0892  1.1125 -0.3062
 1933SOL     OW17431   3.877   4.664   7.976 -0.1096  0.3845  0.1007
 1933SOL    HW117432   3.863   4.588   8.033  1.9385  1.4985  2.0892
 1933SOL    HW217433   3.815   4.729   8.007  0.3943  0.8992  0.0248
 1934SOL     OW17434   0.496   1.224   8.146 -0.0213  0.3927 -0.0328
 1934SOL    HW117435   0.422   1.220   8.086 -1.4190  0.6535  1.6969
 1934SOL    HW217436   0.574   1.236   8.091  1.0880 -0.0617  1.4471
 1935SOL     OW17437   1.995   1.781   7.194  0.2280 -0.0116  0.4057
 1935SOL    HW117438   1.972   1.821   7.278  2.6203 -1.5267  1.7662
 1935SOL    HW217439   1.937   1.705   7.195  1.1331 -0.6816  0.6978
 1936SOL     OW17440   2.342   0.667   4.677 -0.0003  0.0988  0.1651
 1936SOL    HW117441   2.354   0.721   4.598  1.8969 -1.6184 -0.7309
 1936SOL    HW217442   2.259   0.631   4.646 -0.9330 -0.9074  3.8433
 1937SOL     OW17443   4.635   1.416   6.200  0.0723  0.4174  0.7815
 1937SOL    HW117444   4.610   1.344   6.257  0.6599  0.6533  1.3428
 1937SOL    HW217445   4.636   1.386   6.109  0.4200  1.3447  0.4776
 1938SOL     OW17446   0.033   2.353   2.805  0.1649 -0.5628  0.0386
 1938SOL    HW117447   0.106   2.292   2.804  0.4938 -0.1413 -1.9402
 1938SOL    HW217448   4.713   2.294   2.851 -0.9937 -1.4496 -2.6139
 1939SOL     OW17449   4.608   0.427   4.108 -0.0699  0.2169 -0.3992
 1939SOL    HW117450   4.611   0.331   4.108 -1.4948  0.1753  0.4275
 1939SOL    HW217451   4.659   0.439   4.028  0.3771  1.2197  0.0359
 1940SOL     OW17452   4.079   1.598  12.511  0.4103 -0.2566  0.3897
 1940SOL    HW117453   4.110   1.529  12.570 -1.3326  0.1296  1.7587
 1940SOL    HW217454   3.989   1.601  12.543  0.0506 -0.6640 -0.5740
 1941SOL     OW17455   2.394   2.579   6.548 -0.3607  0.2604 -0.0965
 1941SOL    HW117456   2.301   2.589   6.569 -1.0259  0.4884 -3.1610
 1941SOL    HW217457   2.397   2.573   6.453  0.9582 -2.5458  0.1099
 1942SOL     OW17458   1.610   0.813  14.874  0.0198  0.2804  0.1802
 1942SOL    HW117459   1.657   0.787  14.794 -0.4370 -2.7892  0.8967
 1942SOL    HW217460   1.529   0.848  14.835 -0.5920 -0.9538  0.3124
 1943SOL     OW17461   1.217   4.472   9.308 -0.5005  0.1015 -0.2969
 1943SOL    HW117462   1.226   4.380   9.333  0.4171  0.1134 -0.5906
 1943SOL    HW217463   1.131   4.478   9.268 -0.6339  0.1813  0.0037
 1944SOL     OW17464   4.270   1.678   5.797  0.3355  0.1352 -0.7530
 1944SOL    HW117465   4.280   1.647   5.887  0.1449 -1.1886 -1.1765
 1944SOL    HW217466   4.276   1.772   5.811 -1.6617  0.0504  0.7717
 1945SOL     OW17467   2.382   3.388  15.801 -0.1322 -0.1102 -0.2738
 1945SOL    HW117468   2.424   3.474  15.807  0.6119 -0.5360  0.6441
 1945SOL    HW217469   2.333   3.403  15.721  1.8721 -3.3153 -2.0870
 1946SOL     OW17470   0.142   1.905  16.984  0.6343 -0.1374 -0.0074
 1946SOL    HW117471   0.077   1.976  16.985  0.8962  0.1078 -0.4851
 1946SOL    HW217472   0.214   1.959  17.016 -1.0669  2.6129 -0.7993
 1947SOL     OW17473   1.455   4.034  12.033 -0.1288 -0.2646 -0.0980
 1947SOL    HW117474   1.381   4.064  12.086  0.7247 -0.1451  1.0394
 1947SOL    HW217475   1.480   4.108  11.979 -1.9611  0.1534 -0.3455
 1948SOL     OW17476   3.665   1.190  17.528 -0.6245  0.0341 -0.1763
 1948SOL    HW117477   3.652   1.181  17.434  3.3933  1.4716 -0.8655
 1948SOL    HW217478   3.756   1.220  17.535 -0.4664 -0.4283 -0.2626
 1949SOL     OW17479   3.332   2.271   9.232 -0.1232  0.6281  0.2482
 1949SOL    HW117480   3.343   2.201   9.296  1.5382  2.1967  1.6550
 1949SOL    HW217481   3.415   2.318   9.232  0.6404 -0.7120 -2.7820
 1950SOL     OW17482   3.402   0.373   6.667  0.5910  0.0005  0.1754
 1950SOL    HW117483   3.481   0.398   6.618 -0.7805 -0.4184 -2.2469
 1950SOL    HW217484   3.437   0.314   6.734  2.7276 -0.3800 -1.2706
 1951SOL     OW17485   2.457   2.992  15.169 -0.1766 -0.5088 -0.2600
 1951SOL    HW117486   2.547   3.013  15.146  0.1078 -1.3982  0.0427
 1951SOL    HW217487   2.473   2.909  15.214 -1.0964 -1.2656 -1.3169
 1952SOL     OW17488   4.645   1.371   7.802 -0.0505 -0.6732  1.2201
 1952SOL    HW117489   4.643   1.461   7.836 -0.7430  0.4037 -1.6246
 1952SOL    HW217490   4.554   1.368   7.773  0.1690  2.6060  0.1459
 1953SOL     OW17491   1.228   0.020   8.985 -0.3480  0.0564  0.5737
 1953SOL    HW117492   1.172   4.698   8.937 -3.3760  2.0128  1.6083
 1953SOL    HW217493   1.304   4.704   9.001  0.2971  1.2552  1.6417
 1954SOL     OW17494   2.792   2.357   4.213 -0.5432  0.1430  0.1758
 1954SOL    HW117495   2.777   2.447   4.243 -0.7657 -0.3337  1.4821
 1954SOL    HW217496   2.713   2.337   4.164 -0.0887  0.6475 -0.7578
 1955SOL     OW17497   2.910   0.216  12.030 -0.2543  0.3900  0.5795
 1955SOL    HW117498   2.831   0.269  12.025  0.6593  1.7812  0.8675
 1955SOL    HW217499   2.883   0.143  11.975 -1.5967  0.9137  0.5534
 1956SOL     OW17500   3.285   3.737   4.422  0.4972 -0.0647  0.0624
 1956SOL    HW117501   3.348   3.720   4.353 -0.1763 -0.4341 -0.4511
 1956SOL    HW217502   3.210   3.760   4.368 -0.3846 -1.5021  0.6731
 1957SOL     OW17503   3.507   0.431  12.508  0.3976 -0.2650  0.0565
 1957SOL    HW117504   3.534   0.360  12.449 -2.0229 -0.5936 -0.6348
 1957SOL    HW217505   3.569   0.405  12.576  1.2278  2.1411  0.2259
 1958SOL     OW17506   1.260   4.305   5.619  0.1392  0.3963 -0.2441
 1958SOL    HW117507   1.247   4.220   5.662  1.5278 -0.3016 -1.1964
 1958SOL    HW217508   1.170   4.335   5.626  0.0387 -0.4566  2.4427
 1959SOL     OW17509   3.514   0.770   3.429  0.2772 -0.1080 -0.2222
 1959SOL    HW117510   3.594   0.754   3.479 -0.6989 -1.4771  0.9049
 1959SOL    HW217511   3.537   0.722   3.349 -1.3035  1.4607 -1.6278
 1960SOL     OW17512   3.388   1.350   8.945  0.2544  0.2070  0.1543
 1960SOL    HW117513   3.418   1.359   8.855  0.0624  2.5173  0.3167
 1960SOL    HW217514   3.451   1.398   9.000  1.0330 -1.1906  0.4782
 1961SOL     OW17515   0.646   2.682   3.649  0.1862  0.4765  0.8346
 1961SOL    HW117516   0.611   2.629   3.577 -2.2761 -1.7372  3.6963
 1961SOL    HW217517   0.651   2.768   3.608 -0.1872 -0.2662 -0.7879
 1962SOL     OW17518   2.535   1.369   6.489 -0.8919  0.5300 -0.7244
 1962SOL    HW117519   2.539   1.279   6.456  0.2082  0.5077 -0.5355
 1962SOL    HW217520   2.441   1.382   6.474 -1.5593 -2.6371  0.5921
 1963SOL     OW17521   1.455   3.506   3.185 -0.2024 -0.2521 -0.2977
 1963SOL    HW117522   1.366   3.497   3.219  0.2192  0.1639  0.9037
 1963SOL    HW217523   1.443   3.581   3.127  1.7183  1.0780  1.0269
 1964SOL     OW17524   3.851   3.178   4.512  0.3819 -0.1500 -0.3575
 1964SOL    HW117525   3.929   3.126   4.534  1.8085  2.1743  0.1103
 1964SOL    HW217526   3.811   3.114   4.452 -1.4805  2.2542 -1.6497
 1965SOL     OW17527   4.113   2.336   2.959 -0.2347  0.2809  0.2535
 1965SOL    HW117528   4.039   2.390   2.985 -0.8851  0.1134 -1.2546
 1965SOL    HW217529   4.095   2.259   3.013  0.3047  0.9302  1.3443
 1966SOL     OW17530   1.857   1.040   4.361  0.0760 -0.2464 -0.0867
 1966SOL    HW117531   1.847   0.995   4.445 -0.5985  0.6900  0.3392
 1966SOL    HW217532   1.797   1.113   4.376 -1.7605 -1.8269  0.3047
 1967SOL     OW17533   1.021   2.054   7.334 -0.2183  1.0033  0.2550
 1967SOL    HW117534   0.968   1.977   7.313  1.0269  0.1864  0.1334
 1967SOL    HW217535   0.954   2.096   7.389  1.0032 -1.1888  3.4326
 1968SOL     OW17536   3.749   2.452   7.655 -0.1790 -0.0548 -0.2898
 1968SOL    HW117537   3.818   2.468   7.591 -1.7958  0.0235 -1.9933
 1968SOL    HW217538   3.711   2.539   7.645 -0.5248 -0.1372  0.3157
 1969SOL     OW17539   3.951   3.531   7.484  0.0799  0.1217 -0.1166
 1969SOL    HW117540   4.036   3.542   7.527  0.3918  0.2069 -0.7624
 1969SOL    HW217541   3.899   3.595   7.533 -2.1087 -1.4757 -0.3379
 1970SOL     OW17542   2.750   3.974  12.708 -0.1176  0.1259 -0.5019
 1970SOL    HW117543   2.660   3.944  12.721 -0.6473  1.9969  0.1984
 1970SOL    HW217544   2.798   3.914  12.766 -1.4295 -1.5437 -1.1511
 1971SOL     OW17545   3.718   0.632   1.371  0.6529  0.2417  0.3310
 1971SOL    HW117546   3.758   0.714   1.340 -0.8997  1.0697  0.5354
 1971SOL    HW217547   3.764   0.563   1.322 -1.6212 -1.1119  0.1330
 1972SOL     OW17548   0.856   0.446   6.730 -0.3119 -0.0879  0.0903
 1972SOL    HW117549   0.841   0.398   6.811  0.1271  0.3068  0.3970
 1972SOL    HW217550   0.844   0.537   6.756 -3.8474 -0.0025 -1.7171
 1973SOL     OW17551   3.447   0.051   1.238  0.1600 -0.0243 -0.4855
 1973SOL    HW117552   3.368   0.001   1.216 -1.1152  1.5049  0.5772
 1973SOL    HW217553   3.411   0.119   1.295 -0.9009  0.5315 -1.8370
 1974SOL     OW17554   2.939   2.393   8.578  0.0656  0.2213  0.1040
 1974SOL    HW117555   2.909   2.484   8.574 -1.8180 -0.3766  0.8430
 1974SOL    HW217556   2.921   2.356   8.491  1.1247 -2.7252  1.1585
 1975SOL     OW17557   3.159   0.513  12.254  0.2450  0.1445 -0.0197
 1975SOL    HW117558   3.179   0.421  12.238  0.8570  0.1120  0.9318
 1975SOL    HW217559   3.131   0.514  12.345  0.2820  1.0864 -0.0180
 1976SOL     OW17560   2.308   1.202   7.530  0.0045 -0.7186  0.1336
 1976SOL    HW117561   2.254   1.281   7.529  1.0626  0.0285  0.6622
 1976SOL    HW217562   2.268   1.150   7.600  0.0546 -0.1890  0.5605
 1977SOL     OW17563   2.362   1.753   8.906  0.7076 -0.3670 -0.1905
 1977SOL    HW117564   2.449   1.780   8.877 -0.4214  1.8527 -1.5418
 1977SOL    HW217565   2.322   1.728   8.822  0.5162  1.0762 -0.5325
 1978SOL     OW17566   3.994   4.205   2.323  0.1771 -0.0858  0.3482
 1978SOL    HW117567   4.028   4.244   2.242 -0.6433  0.4004  0.2518
 1978SOL    HW217568   4.056   4.239   2.387  1.8676 -1.2534 -0.6540
 1979SOL     OW17569   4.294   3.584   0.885  0.3682  0.2717 -0.5160
 1979SOL    HW117570   4.300   3.496   0.921  0.2679  0.7887  0.7752
 1979SOL    HW217571   4.387   3.597   0.867  0.2266  1.6159 -0.3078
 1980SOL     OW17572   2.695   1.895  15.879  0.3271 -0.5851 -0.2183
 1980SOL    HW117573   2.651   1.957  15.820 -0.0896  0.8360  1.5794
 1980SOL    HW217574   2.635   1.822  15.862  0.7497 -1.2273  1.0138
 1981SOL     OW17575   2.842   1.179   6.350 -0.0271  0.7298 -0.8146
 1981SOL    HW117576   2.845   1.249   6.285  1.1314  0.9054 -0.5640
 1981SOL    HW217577   2.918   1.126   6.328 -0.1730  0.7280 -1.3178
 1982SOL     OW17578   4.312   4.612  11.124  0.1144  0.0902  0.0899
 1982SOL    HW117579   4.349   4.630  11.211  2.4104  0.9154 -1.0634
 1982SOL    HW217580   4.335   4.693  11.080 -0.1500  0.1130 -0.0069
 1983SOL     OW17581   3.375   4.172  16.820 -0.1393  0.4446 -0.1885
 1983SOL    HW117582   3.416   4.246  16.865  0.5419 -0.5202  0.7539
 1983SOL    HW217583   3.328   4.214  16.748  1.5319  1.2477 -0.7940
 1984SOL     OW17584   4.384   3.687  11.574  0.6063  0.3153  0.1450
 1984SOL    HW117585   4.338   3.709  11.655 -1.2132  1.4448 -1.1842
 1984SOL    HW217586   4.461   3.647  11.614  0.3219  1.3694  1.7336
 1985SOL     OW17587   3.139   1.851   7.994 -0.1565 -0.0572  0.0599
 1985SOL    HW117588   3.063   1.802   8.026 -1.7346  2.6497  0.3696
 1985SOL    HW217589   3.203   1.842   8.065 -0.3709 -2.0428  0.0025
 1986SOL     OW17590   4.187   3.301   3.134  0.1287 -0.3760  0.1513
 1986SOL    HW117591   4.188   3.210   3.102  2.3835 -0.4705  0.4979
 1986SOL    HW217592   4.275   3.311   3.170  0.7348  1.3339 -1.7945
 1987SOL     OW17593   1.659   3.767   9.089  0.1353  0.1214  0.2493
 1987SOL    HW117594   1.742   3.722   9.105 -0.6208 -1.3499  0.0726
 1987SOL    HW217595   1.659   3.825   9.165 -2.3792  1.6974 -0.9554
 1988SOL     OW17596   1.168   1.277   3.612 -0.6766 -0.5723 -0.0376
 1988SOL    HW117597   1.163   1.236   3.698 -1.0204  3.3759  1.8379
 1988SOL    HW217598   1.090   1.245   3.566 -2.9816 -0.2908  3.7283
 1989SOL     OW17599   1.218   2.404   2.467  0.4510 -0.0432  0.3047
 1989SOL    HW117600   1.142   2.461   2.459  1.5158  1.1876 -1.0218
 1989SOL    HW217601   1.184   2.320   2.497 -0.3386 -0.2758 -1.2316
 1990SOL     OW17602   0.404   3.444   4.098  0.1514  0.0224 -0.3024
 1990SOL    HW117603   0.391   3.350   4.083 -1.0870  0.1814 -0.2166
 1990SOL    HW217604   0.495   3.449   4.068  0.3522 -1.6331  0.0181
 1991SOL     OW17605   3.381   1.989   4.028  1.2009  0.3994 -0.2107
 1991SOL    HW117606   3.367   1.989   4.122 -1.3299  3.1928 -0.5929
 1991SOL    HW217607   3.441   1.915   4.018  1.5913  0.2754  3.2510
 1992SOL     OW17608   4.693   1.345   5.944  0.3356  0.3455 -0.5364
 1992SOL    HW117609   0.015   1.325   5.873  2.3277 -0.6824  1.5007
 1992SOL    HW217610   4.726   1.275   6.000  0.1063  1.6197  1.1779
 1993SOL     OW17611   0.884   0.436   2.415 -0.4421  0.0099  0.2262
 1993SOL    HW117612   0.795   0.410   2.439 -0.8371  1.4144  0.2646
 1993SOL    HW217613   0.924   0.351   2.397  0.3989  0.8242 -1.7260
 1994SOL     OW17614   3.081   2.457   2.193 -0.2757  0.5939  0.3338
 1994SOL    HW117615   3.125   2.373   2.182 -0.8456 -0.0252  2.8137
 1994SOL    HW217616   2.992   2.425   2.210  0.6771 -2.0480  0.2846
 1995SOL     OW17617   1.318   2.214   4.084 -0.0992 -0.4460 -0.3183
 1995SOL    HW117618   1.396   2.178   4.044  1.4809  1.2274  1.2719
 1995SOL    HW217619   1.256   2.141   4.090  0.6168 -1.0511 -0.3866
 1996SOL     OW17620   3.043   1.977   2.506 -0.5969  0.3197 -0.2217
 1996SOL    HW117621   2.949   1.984   2.524  0.0913  2.5399  2.4535
 1996SOL    HW217622   3.069   1.885   2.495 -1.3061  0.1105 -0.1932
 1997SOL     OW17623   4.479   1.680  14.981  0.2656  0.0326  0.0105
 1997SOL    HW117624   4.499   1.647  14.893 -0.7076  0.3927 -0.3435
 1997SOL    HW217625   4.497   1.771  14.959  1.0663 -0.1774 -0.2087
 1998SOL     OW17626   4.269   1.243   5.266 -0.2722 -0.0702 -0.3254
 1998SOL    HW117627   4.221   1.280   5.192  1.0107  1.1339 -0.5608
 1998SOL    HW217628   4.203   1.245   5.335 -0.3253  1.2479 -0.4001
 1999SOL     OW17629   3.535   1.739  12.571 -0.2809 -0.5666  0.0304
 1999SOL    HW117630   3.529   1.815  12.629 -1.3521 -1.2932  0.8742
 1999SOL    HW217631   3.440   1.735  12.567 -0.2763  0.6080 -0.9546
 2000SOL     OW17632   2.315   0.988   2.302 -0.1232  0.0623  0.9881
 2000SOL    HW117633   2.311   0.966   2.395  0.4944  0.8051  1.1978
 2000SOL    HW217634   2.225   1.016   2.288 -0.4821 -0.6947  1.8139
 2001SOL     OW17635   1.898   0.278   5.495 -0.0288  0.1843 -0.1584
 2001SOL    HW117636   1.894   0.197   5.445 -1.5439  1.1975 -1.6698
 2001SOL    HW217637   1.805   0.292   5.479 -0.1264 -0.7057 -0.3542
 2002SOL     OW17638   0.444   3.605  11.676 -0.5353 -0.3210 -0.2193
 2002SOL    HW117639   0.421   3.535  11.737 -0.0683 -1.2191 -1.0771
 2002SOL    HW217640   0.360   3.621  11.633 -1.1434  0.6217  1.3446
 2003SOL     OW17641   0.466   1.558  15.422 -0.0166 -0.1725  0.2118
 2003SOL    HW117642   0.448   1.564  15.329  1.0653 -0.0310  0.0065
 2003SOL    HW217643   0.390   1.591  15.469 -0.2949 -0.0628 -0.3193
 2004SOL     OW17644   3.874   0.665   1.059  0.1696  0.0854  0.2368
 2004SOL    HW117645   3.877   0.598   1.127  2.2787  0.9400  0.9905
 2004SOL    HW217646   3.849   0.734   1.121  1.6203  0.9628 -0.1599
 2005SOL     OW17647   0.260   1.356   5.982 -0.0301  0.0420  0.1326
 2005SOL    HW117648   0.272   1.442   5.941 -2.2885  0.6141  0.6581
 2005SOL    HW217649   0.343   1.335   6.025 -0.2126  1.0960  1.0206
 2006SOL     OW17650   1.579   0.183   6.984 -0.1745 -0.1379 -0.8736
 2006SOL    HW117651   1.557   0.167   7.075  3.0687 -0.4068 -0.1368
 2006SOL    HW217652   1.673   0.201   6.992 -0.3801  0.8853 -0.7803
 2007SOL     OW17653   1.758   4.125   6.034 -0.6028 -0.6413  0.4694
 2007SOL    HW117654   1.812   4.189   6.079  1.7282 -3.1420  1.1811
 2007SOL    HW217655   1.686   4.121   6.097 -0.9421 -0.6746  0.0882
 2008SOL     OW17656   4.354   1.200   6.465 -0.0400 -0.2427 -0.1931
 2008SOL    HW117657   4.336   1.164   6.552  0.1296  1.1713  0.4302
 2008SOL    HW217658   4.437   1.158   6.444 -0.0283  0.1610 -0.9619
 2009SOL     OW17659   4.243   0.884   0.246 -0.7025  0.3754 -0.3229
 2009SOL    HW117660   4.238   0.790   0.261  1.0244  0.4675  0.8447
 2009SOL    HW217661   4.315   0.876   0.183 -0.9367 -1.1818 -0.3912
 2010SOL     OW17662   3.094   1.931   7.293  0.0005 -0.2012  0.0561
 2010SOL    HW117663   3.078   1.942   7.200  0.8545  0.3209 -0.0219
 2010SOL    HW217664   3.040   1.852   7.301 -1.9292  1.3144  2.0589
 2011SOL     OW17665   3.258   0.251   2.795 -0.4468 -0.1949 -0.5927
 2011SOL    HW117666   3.172   0.219   2.765  0.9800 -2.8928 -1.8142
 2011SOL    HW217667   3.256   0.341   2.762 -1.0205 -0.2564 -0.7239
 2012SOL     OW17668   4.639   0.195   9.134 -0.3676  0.3685 -0.6175
 2012SOL    HW117669   4.699   0.173   9.062  2.6166  1.9237  1.4276
 2012SOL    HW217670   4.669   0.128   9.195  0.9479  1.5568  0.0332
 2013SOL     OW17671   1.880   4.408   1.573  0.1662  1.0521 -0.3122
 2013SOL    HW117672   1.814   4.351   1.533 -2.1792  1.8752  2.3934
 2013SOL    HW217673   1.882   4.380   1.664  2.7033  1.0833 -0.3515
 2014SOL     OW17674   0.853   3.607  14.835 -0.0522 -0.4103  0.0587
 2014SOL    HW117675   0.944   3.614  14.864 -0.0728 -0.4462  0.1331
 2014SOL    HW217676   0.843   3.649  14.750 -0.4557  1.6480  1.1132
 2015SOL     OW17677   3.287   3.037   2.283  0.2370  0.0194  0.3229
 2015SOL    HW117678   3.224   3.043   2.354 -0.5570 -0.3236 -0.3464
 2015SOL    HW217679   3.243   3.081   2.210  0.7960  0.8513  0.4944
 2016SOL     OW17680   0.911   4.130  11.972 -0.0194 -0.0230 -0.4669
 2016SOL    HW117681   0.858   4.189  11.918 -3.1048 -1.7263  0.7294
 2016SOL    HW217682   0.840   4.083  12.015 -0.5214  0.8206 -0.3656
 2017SOL     OW17683   1.765   2.819  12.026 -0.2879  0.2285 -0.1996
 2017SOL    HW117684   1.821   2.779  12.093  0.4321 -0.1560 -1.0379
 2017SOL    HW217685   1.822   2.808  11.950 -0.5604 -2.3139 -0.0115
 2018SOL     OW17686   2.843   4.379  14.461 -0.3689  0.1161  0.4822
 2018SOL    HW117687   2.906   4.365  14.391 -0.5481 -0.1201  0.3706
 2018SOL    HW217688   2.781   4.427  14.406  0.7294  0.8783 -0.0847
 2019SOL     OW17689   1.194   0.938   2.148  0.0496 -0.2784 -0.0405
 2019SOL    HW117690   1.134   0.863   2.152 -3.2773  2.4176  0.7339
 2019SOL    HW217691   1.197   0.957   2.055  2.8957 -0.3157  0.0416
 2020SOL     OW17692   2.581   3.631   4.024  0.4510  0.2681  0.2101
 2020SOL    HW117693   2.647   3.572   3.990  0.7468 -0.6303  2.3264
 2020SOL    HW217694   2.630   3.713   4.019  0.3428  0.3722  0.8536
 2021SOL     OW17695   3.746   0.872   0.256 -0.6320  0.0257  0.0006
 2021SOL    HW117696   3.770   0.925   0.332  0.9021 -0.5612 -0.0562
 2021SOL    HW217697   3.739   0.930   0.180 -1.0470  1.4489  1.1153
 2022SOL     OW17698   3.046   1.074  12.080 -0.1524 -0.0160  0.5834
 2022SOL    HW117699   3.098   1.023  12.018  1.0406 -0.3231  1.8403
 2022SOL    HW217700   3.029   1.007  12.147 -0.3519 -0.7411 -0.1918
 2023SOL     OW17701   2.803   2.636   6.298 -0.2390  0.0614  0.1402
 2023SOL    HW117702   2.788   2.687   6.377 -2.4440 -0.4504  0.0660
 2023SOL    HW217703   2.887   2.666   6.262  0.5237 -0.1537  1.7608
 2024SOL     OW17704   3.322   4.092  12.741 -0.0209 -0.3959 -0.5161
 2024SOL    HW117705   3.414   4.099  12.716  0.8388  0.5082  2.7996
 2024SOL    HW217706   3.293   4.079  12.651  0.9749  1.4369 -1.1129
 2025SOL     OW17707   1.295   3.806   9.165  0.1844  0.1529 -0.6542
 2025SOL    HW117708   1.278   3.819   9.258 -0.8674  0.8056 -0.9380
 2025SOL    HW217709   1.302   3.711   9.162 -2.4405 -0.0277 -0.7554
 2026SOL     OW17710   1.242   1.703  13.741  0.0978  0.3052  0.8210
 2026SOL    HW117711   1.253   1.794  13.714  1.5561  0.3686  1.6180
 2026SOL    HW217712   1.218   1.705  13.834  1.7057 -2.9517  1.3182
 2027SOL     OW17713   3.897   3.376   4.690 -0.2536 -0.2584  0.2151
 2027SOL    HW117714   3.885   3.303   4.630 -1.1202  0.1475 -0.1040
 2027SOL    HW217715   3.979   3.347   4.731 -0.2660 -1.1236 -0.4019
 2028SOL     OW17716   4.371   2.341   2.181  0.3648  0.8534 -0.1554
 2028SOL    HW117717   4.446   2.291   2.213 -0.8516  0.5921  2.2710
 2028SOL    HW217718   4.298   2.300   2.228  0.0908  1.2770 -0.2151
 2029SOL     OW17719   0.254   4.438   4.333  0.3031 -0.1981 -1.2974
 2029SOL    HW117720   0.342   4.412   4.307  2.4900  2.8022  3.0223
 2029SOL    HW217721   0.224   4.348   4.343  1.2604 -0.4873 -0.9932
 2030SOL     OW17722   1.326   4.361   3.537 -0.0115  0.1465 -0.5728
 2030SOL    HW117723   1.315   4.403   3.452  2.9054  1.1581 -0.4372
 2030SOL    HW217724   1.287   4.273   3.530  1.9087 -0.6448 -1.3104
 2031SOL     OW17725   4.633   2.089   7.151 -0.3585 -0.3110  0.0552
 2031SOL    HW117726   4.551   2.057   7.189  0.2602 -3.0088 -0.8824
 2031SOL    HW217727   4.604   2.093   7.060  1.5100  0.6012 -0.5052
 2032SOL     OW17728   1.740   2.245   5.993 -0.2638 -0.4535 -0.1836
 2032SOL    HW117729   1.769   2.203   5.912 -0.3154  0.9920 -0.9459
 2032SOL    HW217730   1.803   2.317   5.994  1.0032 -1.5707  0.7707
 2033SOL     OW17731   1.472   4.164   8.159  0.6371  0.3311  0.6256
 2033SOL    HW117732   1.449   4.084   8.205 -0.8298 -0.0300 -0.7323
 2033SOL    HW217733   1.558   4.141   8.122  0.1003 -0.7395  0.0562
 2034SOL     OW17734   3.500   1.956  15.328  0.2261  0.0733  0.6838
 2034SOL    HW117735   3.447   1.889  15.373  0.8705 -0.7763  0.1717
 2034SOL    HW217736   3.483   1.916  15.243  1.4355 -0.3917  0.6610
 2035SOL     OW17737   2.054   3.950   3.072 -0.0987  0.4176  0.1321
 2035SOL    HW117738   2.079   3.893   3.144 -1.1380  0.3231  0.4167
 2035SOL    HW217739   1.961   3.928   3.077 -0.4695  1.3169 -2.9572
 2036SOL     OW17740   0.166   0.754   2.056 -0.0891  0.1221 -0.1096
 2036SOL    HW117741   0.213   0.797   1.985 -0.7716  0.0153 -0.6384
 2036SOL    HW217742   0.200   0.803   2.130 -0.4637 -0.2320  0.2987
 2037SOL     OW17743   2.586   2.618   6.768 -0.1614 -0.3917  0.2835
 2037SOL    HW117744   2.592   2.713   6.775 -4.0439 -0.0195 -1.2958
 2037SOL    HW217745   2.531   2.608   6.690 -0.9904  0.0705  0.8100
 2038SOL     OW17746   3.976   0.007   5.014 -0.4072 -0.0414 -0.1320
 2038SOL    HW117747   4.031   0.066   5.067  1.4650 -1.4613 -0.4772
 2038SOL    HW217748   3.925   0.071   4.965 -0.7883  0.5204  0.9902
 2039SOL     OW17749   1.772   2.993   7.781  0.2451 -0.4771  0.4926
 2039SOL    HW117750   1.823   3.072   7.798  0.8050 -0.3006 -2.1016
 2039SOL    HW217751   1.689   3.026   7.814  1.3593  0.1299  2.7032
 2040SOL     OW17752   3.594   3.033   3.898 -0.2433  0.2684 -0.3390
 2040SOL    HW117753   3.532   3.102   3.921 -0.0890 -0.1507  1.2987
 2040SOL    HW217754   3.561   2.961   3.952  0.9873  0.1524  0.2647
 2041SOL     OW17755   2.764   1.465   7.846  0.6376  0.8564 -0.6707
 2041SOL    HW117756   2.723   1.385   7.814 -0.6707  1.1786  0.1808
 2041SOL    HW217757   2.857   1.452   7.832  0.5536 -0.1452 -0.3142
 2042SOL     OW17758   0.835   1.421   4.702  0.3406  0.1160  0.3720
 2042SOL    HW117759   0.922   1.400   4.669 -1.4471 -1.7107 -3.1519
 2042SOL    HW217760   0.792   1.338   4.678  0.7599 -0.1415  0.5148
 2043SOL     OW17761   4.144   1.922   4.792  0.0739  0.3325 -0.3488
 2043SOL    HW117762   4.087   1.866   4.845 -0.7383  0.6985 -0.8381
 2043SOL    HW217763   4.200   1.858   4.749 -0.1188  0.7266 -1.1891
 2044SOL     OW17764   2.671   3.703  17.370  0.1498 -0.0316  0.5050
 2044SOL    HW117765   2.599   3.732  17.426  1.0973  1.8812  0.7745
 2044SOL    HW217766   2.622   3.653  17.306  3.0796  0.2291 -1.9660
 2045SOL     OW17767   1.034   0.614   7.039 -0.5265  0.1264  0.1886
 2045SOL    HW117768   1.009   0.522   7.054 -0.1797  0.4139  2.6476
 2045SOL    HW217769   0.950   0.656   7.024  0.2600  1.9310  0.9236
 2046SOL     OW17770   0.699   1.583   7.255  0.1747 -0.0442 -0.1747
 2046SOL    HW117771   0.645   1.578   7.176  0.9650 -1.3202 -0.6248
 2046SOL    HW217772   0.636   1.617   7.319  1.3002  1.5290  0.1133
 2047SOL     OW17773   3.264   0.494   2.660 -0.3372 -0.0876 -0.3074
 2047SOL    HW117774   3.350   0.534   2.673 -0.9492  0.7676  1.0837
 2047SOL    HW217775   3.214   0.560   2.707 -0.1096 -0.1448  0.0106
 2048SOL     OW17776   2.512   2.863   0.463  0.2421 -0.1376 -0.1533
 2048SOL    HW117777   2.433   2.825   0.501  0.4969  0.0996  0.6153
 2048SOL    HW217778   2.475   2.925   0.400  0.7879  1.8940  1.5454
 2049SOL     OW17779   2.594   4.667  14.892 -0.1939 -0.4277 -0.7200
 2049SOL    HW117780   2.514   4.642  14.845 -0.3864  1.9326 -1.6321
 2049SOL    HW217781   2.653   4.599  14.859 -1.2245 -1.3189 -0.7307
 2050SOL     OW17782   2.428   0.738   2.525  0.3022 -0.1695 -0.2684
 2050SOL    HW117783   2.447   0.710   2.615  1.1056  0.8642 -0.1182
 2050SOL    HW217784   2.499   0.700   2.474 -0.3250  0.1285 -1.3420
 2051SOL     OW17785   4.623   1.845   2.608 -0.0777 -0.4977 -0.5389
 2051SOL    HW117786   4.656   1.760   2.636  0.2235 -0.4542 -0.7586
 2051SOL    HW217787   4.631   1.837   2.513  3.3545 -1.6304 -0.1783
 2052SOL     OW17788   2.930   2.893   5.611  0.3556 -0.0469  0.2948
 2052SOL    HW117789   2.971   2.975   5.584 -0.3479  0.4055  0.6309
 2052SOL    HW217790   2.849   2.929   5.646 -0.3021  0.8979 -2.1743
 2053SOL     OW17791   4.687   3.046   6.071 -0.7609  0.1911  0.5643
 2053SOL    HW117792   4.731   2.964   6.089  2.5463  1.5297 -1.4662
 2053SOL    HW217793   0.008   3.106   6.115  0.8821 -0.5786 -0.6959
 2054SOL     OW17794   2.071   4.579   1.887 -0.0604 -0.3901 -0.5324
 2054SOL    HW117795   2.121   4.511   1.841 -0.0045 -1.3753  0.9978
 2054SOL    HW217796   2.091   4.554   1.977 -2.2659  0.6671  0.2508
 2055SOL     OW17797   1.473   0.630   7.020  0.2537 -0.0946  0.6195
 2055SOL    HW117798   1.478   0.578   6.939  0.3999  0.2456  0.4091
 2055SOL    HW217799   1.438   0.562   7.078  0.5899 -1.2191 -0.4868
 2056SOL     OW17800   4.540   2.380   7.647 -0.2790  0.2679 -0.0815
 2056SOL    HW117801   4.482   2.332   7.588  0.9246 -0.9498 -0.2575
 2056SOL    HW217802   4.512   2.468   7.619  1.0944  0.5962 -0.4237
 2057SOL     OW17803   4.023   2.641   6.277  0.2365  0.1080  0.1486
 2057SOL    HW117804   3.951   2.581   6.262  1.1857 -0.4449 -2.0699
 2057SOL    HW217805   4.056   2.626   6.366  0.0571 -2.9484 -0.3310
 2058SOL     OW17806   0.029   3.788   3.057  0.2986  0.4207 -0.2725
 2058SOL    HW117807   4.703   3.767   3.124 -0.5826 -0.7398 -1.4800
 2058SOL    HW217808   4.724   3.758   2.977  1.5900 -1.3046 -0.3413
 2059SOL     OW17809   4.518   3.899   7.073  0.0164  0.1016  0.2752
 2059SOL    HW117810   4.509   3.811   7.035  1.5489 -0.2217  0.6531
 2059SOL    HW217811   4.542   3.868   7.161  1.3121  1.1842  0.2979
 2060SOL     OW17812   2.907   1.971   6.068 -0.1170 -0.3943 -0.1787
 2060SOL    HW117813   2.899   2.056   6.112 -1.2107  0.4655 -2.0527
 2060SOL    HW217814   2.882   1.979   5.977  0.8469 -2.7844 -0.6581
 2061SOL     OW17815   2.545   4.011   6.019  0.0566 -0.3304  0.7261
 2061SOL    HW117816   2.598   4.088   6.002  0.2771 -0.1803  2.0981
 2061SOL    HW217817   2.574   3.993   6.108 -2.1917 -2.1592  1.1076
 2062SOL     OW17818   1.748   3.244   0.446  0.1478 -1.3344 -0.2526
 2062SOL    HW117819   1.666   3.294   0.451  0.8919 -0.0251 -1.0544
 2062SOL    HW217820   1.729   3.170   0.388 -2.4209 -0.4039 -0.6355
 2063SOL     OW17821   3.667   1.841   3.429 -0.2343  0.5108 -1.1386
 2063SOL    HW117822   3.658   1.747   3.448  0.5534  0.0846 -2.8548
 2063SOL    HW217823   3.649   1.840   3.335 -0.3207  0.2375 -1.1218
 2064SOL     OW17824   4.595   1.152  16.218 -0.1693 -1.0149 -0.2812
 2064SOL    HW117825   4.608   1.189  16.130  1.6293  0.2439  0.5106
 2064SOL    HW217826   4.625   1.228  16.267  0.8576 -0.8150 -1.2117
 2065SOL     OW17827   4.509   0.662   1.866  0.2571  0.0230  0.0906
 2065SOL    HW117828   4.450   0.603   1.819 -0.9981  0.8113  0.6861
 2065SOL    HW217829   4.576   0.673   1.799 -2.0910  1.3859 -2.0738
 2066SOL     OW17830   1.969   1.635   9.307 -0.1080  0.0822 -0.4761
 2066SOL    HW117831   2.011   1.659   9.225  2.1525 -3.5820 -0.3804
 2066SOL    HW217832   1.881   1.614   9.274 -0.6048 -1.5847  1.8860
 2067SOL     OW17833   1.584   4.339   4.711 -0.2658 -0.5490 -0.4781
 2067SOL    HW117834   1.608   4.328   4.803 -0.2955 -3.7917 -0.8532
 2067SOL    HW217835   1.674   4.360   4.684  0.3947 -1.0200  1.3399
 2068SOL     OW17836   1.141   2.245  16.760 -0.0428  0.3192  0.6784
 2068SOL    HW117837   1.071   2.310  16.768 -0.4518 -0.0471  0.1222
 2068SOL    HW217838   1.167   2.253  16.668 -2.9006  1.6783 -0.0159
 2069SOL     OW17839   0.260   1.149  17.416 -0.6535 -0.3081  0.3268
 2069SOL    HW117840   0.236   1.097  17.339 -1.6125  1.0874 -0.3053
 2069SOL    HW217841   0.300   1.221  17.368  0.4203 -0.1533  1.4573
 2070SOL     OW17842   2.847   3.245   5.832  0.3641  0.8617  0.1252
 2070SOL    HW117843   2.864   3.210   5.919  0.2092  1.6918  0.4879
 2070SOL    HW217844   2.893   3.328   5.840 -0.7958  1.5021  0.2379
 2071SOL     OW17845   0.840   3.883   0.857  0.1167  0.1122 -0.6822
 2071SOL    HW117846   0.849   3.844   0.771 -0.5000 -2.3611  0.3723
 2071SOL    HW217847   0.880   3.809   0.903  1.8788  1.2112 -0.4315
 2072SOL     OW17848   3.064   4.141   2.455  0.2794  0.3818  0.1667
 2072SOL    HW117849   3.132   4.189   2.502 -0.5972  3.0960 -1.3583
 2072SOL    HW217850   3.038   4.081   2.525  1.3636  0.3123  0.5160
 2073SOL     OW17851   3.564   2.951   6.627  0.1551 -0.3078 -0.1364
 2073SOL    HW117852   3.507   2.978   6.699  1.4906  0.7721  0.5108
 2073SOL    HW217853   3.626   2.898   6.678  0.3152  0.9319  0.9518
 2074SOL     OW17854   0.790   2.535  12.294  0.0306 -0.6587  0.2065
 2074SOL    HW117855   0.855   2.527  12.364 -0.4212 -0.0494  0.6969
 2074SOL    HW217856   0.804   2.455  12.242  1.6716 -0.4853  0.3732
 2075SOL     OW17857   0.403   2.078   3.109  0.2352  0.4642 -0.2098
 2075SOL    HW117858   0.339   2.020   3.150  1.4944 -0.5634  0.3296
 2075SOL    HW217859   0.481   2.023   3.096 -0.6232 -0.3214 -2.0626
 2076SOL     OW17860   1.928   0.091  17.072 -0.4176  0.2580  0.8531
 2076SOL    HW117861   1.941   0.109  16.979  1.1092 -0.2174  0.9815
 2076SOL    HW217862   1.838   0.121  17.061 -1.8724 -3.7128  1.6629
 2077SOL     OW17863   4.631   2.200  16.357 -0.0480  0.3189 -0.3162
 2077SOL    HW117864   4.689   2.141  16.406 -0.9013 -0.1682  0.1081
 2077SOL    HW217865   4.677   2.220  16.276  0.2001 -2.7020 -0.9186
 2078SOL     OW17866   2.462   0.038   3.150  0.3313 -0.0884  0.3536
 2078SOL    HW117867   2.457   0.035   3.054  2.6885  0.7231  0.1918
 2078SOL    HW217868   2.393   0.101   3.172  0.3442 -0.3065  0.9984
 2079SOL     OW17869   4.541   3.230  11.937  0.1275 -0.2487  0.1484
 2079SOL    HW117870   4.508   3.195  12.019  0.2194  1.5816  0.9661
 2079SOL    HW217871   4.474   3.190  11.882  0.7438 -0.0337 -0.7683
 2080SOL     OW17872   3.393   1.407   4.189  0.6575 -0.6415 -1.2205
 2080SOL    HW117873   3.473   1.358   4.173  1.0092 -0.6536  0.5348
 2080SOL    HW217874   3.407   1.454   4.271 -2.0410 -1.8775 -0.0321
 2081SOL     OW17875   1.447   0.052   3.857 -0.0637 -0.2473 -0.0200
 2081SOL    HW117876   1.535   0.061   3.820 -0.5860  4.1644 -0.0992
 2081SOL    HW217877   1.422   0.144   3.865 -1.9452 -0.8271  0.7545
 2082SOL     OW17878   0.935   0.466  11.137  0.3305  0.1425 -0.6250
 2082SOL    HW117879   0.856   0.508  11.105 -1.8437 -1.3685  2.7904
 2082SOL    HW217880   0.908   0.452  11.227  0.2257 -0.7724 -0.7980
 2083SOL     OW17881   2.034   1.704  11.598 -0.2398  0.1634  0.1724
 2083SOL    HW117882   2.111   1.759  11.614 -1.6396  2.4309 -0.8925
 2083SOL    HW217883   1.957   1.757  11.620  1.2298  2.9776 -1.4595
 2084SOL     OW17884   4.357   3.216   7.182  0.7667 -0.3143  0.0421
 2084SOL    HW117885   4.424   3.147   7.178 -0.8214 -1.8736  0.3076
 2084SOL    HW217886   4.367   3.249   7.092  1.7224 -0.5523  0.0565
 2085SOL     OW17887   1.604   3.849   7.030 -0.3864  0.0660  0.1939
 2085SOL    HW117888   1.578   3.867   7.120  1.7368  0.5360  0.6947
 2085SOL    HW217889   1.661   3.773   7.039 -2.0896 -1.5805 -2.6931
 2086SOL     OW17890   0.483   0.784   1.820 -0.2871 -0.7757 -0.5666
 2086SOL    HW117891   0.391   0.768   1.803 -1.5198  2.3418  3.3474
 2086SOL    HW217892   0.492   0.862   1.874 -0.7153 -1.5235  0.5743
 2087SOL     OW17893   1.099   4.414  10.402 -0.1301  0.6815 -0.1284
 2087SOL    HW117894   1.132   4.407  10.492 -0.8565  1.6358  0.2007
 2087SOL    HW217895   1.005   4.424  10.416 -0.5216  1.2938 -3.1561
 2088SOL     OW17896   2.596   3.362   9.820  0.3459 -0.5220 -0.3231
 2088SOL    HW117897   2.619   3.447   9.785 -0.9512 -1.1253 -2.6800
 2088SOL    HW217898   2.618   3.365   9.913  1.8451 -1.4080 -0.6598
 2089SOL     OW17899   1.663   0.757   3.594 -0.5943 -0.6512 -0.7648
 2089SOL    HW117900   1.756   0.746   3.575 -0.5043 -2.0317  0.4686
 2089SOL    HW217901   1.622   0.731   3.512 -1.9769 -1.1194  0.0746
 2090SOL     OW17902   3.941   1.387   6.451  0.0017 -0.4628  0.3732
 2090SOL    HW117903   3.999   1.460   6.476 -2.4990  1.5377  0.3234
 2090SOL    HW217904   3.864   1.405   6.505 -1.9248 -0.7327 -2.3437
 2091SOL     OW17905   1.478   3.678   6.772 -0.0387  0.0897  0.2487
 2091SOL    HW117906   1.504   3.754   6.719  1.2048  0.5854  1.5817
 2091SOL    HW217907   1.541   3.620   6.728  0.6253  1.1495 -0.2185
 2092SOL     OW17908   1.624   2.969  14.810  0.6237  0.2838  0.3827
 2092SOL    HW117909   1.605   2.882  14.846 -0.7976  0.3970 -0.0925
 2092SOL    HW217910   1.706   2.959  14.760  0.4528  1.2219 -0.0758
 2093SOL     OW17911   3.878   1.423   7.773  0.0612 -0.4444  0.2800
 2093SOL    HW117912   3.808   1.487   7.777 -1.1930 -1.8992  1.4480
 2093SOL    HW217913   3.836   1.366   7.708  2.2422 -0.8493 -0.8201
 2094SOL     OW17914   4.019   1.691   5.055  0.0329 -0.2804  0.8203
 2094SOL    HW117915   3.967   1.726   4.982  1.2119 -1.4239 -0.5846
 2094SOL    HW217916   3.952   1.640   5.100 -0.5688 -0.2845 -0.0794
 2095SOL     OW17917   0.058   0.116   0.673 -0.5081  0.0831  0.1409
 2095SOL    HW117918   4.702   0.110   0.677 -0.6437  1.3376 -0.9450
 2095SOL    HW217919   0.082   0.142   0.762  0.7746  0.8406 -0.4339
 2096SOL     OW17920   2.694   0.353  11.639  0.3491  0.2605 -0.0804
 2096SOL    HW117921   2.765   0.302  11.599 -0.9580 -0.1898 -1.8238
 2096SOL    HW217922   2.668   0.412  11.568 -2.0054 -1.7048 -0.8444
 2097SOL     OW17923   3.504   1.151  14.368  0.7331 -0.1930 -0.3056
 2097SOL    HW117924   3.446   1.154  14.444 -0.3465  0.0292 -1.1356
 2097SOL    HW217925   3.570   1.094  14.407 -1.9398 -2.1048  1.4125
 2098SOL     OW17926   2.197   4.288  15.497  0.5004  0.5096 -0.0715
 2098SOL    HW117927   2.191   4.194  15.477  1.1849  0.8233 -1.7510
 2098SOL    HW217928   2.260   4.301  15.567  0.3817 -0.6946  0.2644
 2099SOL     OW17929   1.901   0.210  16.559  0.7890  0.3333 -0.1619
 2099SOL    HW117930   1.970   0.198  16.495  0.2676  0.1278 -0.6901
 2099SOL    HW217931   1.890   0.305  16.551 -1.9343 -0.0130 -0.5618
 2100SOL     OW17932   0.557   3.216   2.823 -0.2690 -0.3039 -0.0584
 2100SOL    HW117933   0.638   3.193   2.870 -0.2273 -1.4876 -0.7010
 2100SOL    HW217934   0.562   3.160   2.746  1.4082  1.0800 -0.9731
 2101SOL     OW17935   1.753   0.227   4.017 -0.5155  0.3025 -0.1862
 2101SOL    HW117936   1.722   0.292   3.954  0.2584  0.5340 -0.3201
 2101SOL    HW217937   1.670   0.222   4.064 -0.6124 -0.1100 -0.4028
 2102SOL     OW17938   1.689   2.269  15.114  0.0573 -0.0409 -0.0437
 2102SOL    HW117939   1.617   2.222  15.156  2.0858 -2.0536  1.1717
 2102SOL    HW217940   1.673   2.249  15.022  1.8267 -0.2529 -0.2858
 2103SOL     OW17941   2.369   3.998   4.449  0.3404  0.3810  0.2378
 2103SOL    HW117942   2.425   3.983   4.525  0.4553 -2.4519 -0.3965
 2103SOL    HW217943   2.411   3.939   4.387 -0.7753 -0.5987  0.3986
 2104SOL     OW17944   3.667   2.951   3.184  0.1895 -0.0857  0.2322
 2104SOL    HW117945   3.743   3.008   3.191  0.2113  0.1558 -2.1238
 2104SOL    HW217946   3.640   2.977   3.096  0.7633 -1.1256 -0.2378
 2105SOL     OW17947   1.101   2.512  15.093  0.1790  0.1662  0.5641
 2105SOL    HW117948   1.173   2.461  15.058 -0.0535  1.6241 -2.0402
 2105SOL    HW217949   1.058   2.556  15.019  0.7086  3.3555  2.1253
 2106SOL     OW17950   2.220   2.983   5.819  0.1774 -0.7769 -0.0575
 2106SOL    HW117951   2.196   3.008   5.729 -0.0996 -0.0130  0.2273
 2106SOL    HW217952   2.159   3.038   5.869  0.1343  1.1691 -2.2396
 2107SOL     OW17953   2.297   4.476   3.339  0.5307  0.3746 -0.1814
 2107SOL    HW117954   2.265   4.450   3.253 -1.8736  2.1219  0.1923
 2107SOL    HW217955   2.387   4.450   3.318  0.7126  2.0562 -1.5244
 2108SOL     OW17956   3.384   1.354   9.573  0.0107 -0.6432  0.4674
 2108SOL    HW117957   3.364   1.430   9.520 -1.4871 -1.5227 -0.2385
 2108SOL    HW217958   3.410   1.382   9.661 -0.4803 -0.0518  0.4168
 2109SOL     OW17959   2.954   1.844   1.963  0.1634  0.4431  0.1733
 2109SOL    HW117960   2.896   1.819   1.891  0.6123 -1.5476  0.5087
 2109SOL    HW217961   2.915   1.928   1.988 -1.4404  0.1170 -1.2675
 2110SOL     OW17962   2.827   0.665   2.062 -0.8461 -0.3733  0.7558
 2110SOL    HW117963   2.831   0.603   2.135  0.8408  0.7989  1.6561
 2110SOL    HW217964   2.733   0.660   2.044 -0.6820 -0.7542 -0.0015
 2111SOL     OW17965   4.092   2.639   9.443 -0.1676 -0.1144 -0.1932
 2111SOL    HW117966   4.116   2.730   9.455  1.4829 -0.7529  1.3717
 2111SOL    HW217967   4.053   2.642   9.356 -1.2938 -0.6288  0.2895
 2112SOL     OW17968   4.211   3.363   6.321 -0.0426 -0.0619 -0.0768
 2112SOL    HW117969   4.230   3.457   6.317  2.9394 -0.7469 -1.5677
 2112SOL    HW217970   4.233   3.346   6.413  1.3343  3.2579  0.2248
 2113SOL     OW17971   0.534   3.697  15.447 -0.2544 -0.2111 -0.3462
 2113SOL    HW117972   0.599   3.671  15.513  0.6927  2.0693 -0.3650
 2113SOL    HW217973   0.470   3.627  15.455  0.1546 -0.5125  0.3369
 2114SOL     OW17974   4.467   3.554   8.191  0.1144 -0.2887  0.5481
 2114SOL    HW117975   4.400   3.585   8.252 -0.3675  2.5589 -1.4285
 2114SOL    HW217976   4.422   3.473   8.165 -0.0006  0.0881 -0.4628
 2115SOL     OW17977   4.692   4.201   7.402  0.0531 -0.9511 -0.2930
 2115SOL    HW117978   0.043   4.171   7.391  0.9964  1.7295  0.0717
 2115SOL    HW217979   4.680   4.177   7.494  0.4792  1.9736  0.5341
 2116SOL     OW17980   3.943   3.635  13.715 -0.4106 -0.2324  0.2226
 2116SOL    HW117981   3.895   3.693  13.656 -1.6299 -1.2311  0.2247
 2116SOL    HW217982   3.931   3.692  13.791 -0.4963 -0.5596  0.4558
 2117SOL     OW17983   0.998   0.736   2.108 -0.0124  0.0928  0.0777
 2117SOL    HW117984   0.921   0.719   2.162  0.9374 -1.4331  0.9569
 2117SOL    HW217985   0.958   0.713   2.024  0.4923  1.8263 -0.6263
 2118SOL     OW17986   1.084   2.799   5.711  0.0224 -0.2714  0.0346
 2118SOL    HW117987   1.122   2.877   5.751 -1.8475  0.8685 -0.4138
 2118SOL    HW217988   1.130   2.738   5.769  0.4230 -1.7162 -1.8140
 2119SOL     OW17989   3.348   4.588   5.613  0.1940 -0.2467 -0.7250
 2119SOL    HW117990   3.304   4.507   5.638 -0.0549  0.2120  0.3078
 2119SOL    HW217991   3.439   4.559   5.619 -0.1040 -1.7450 -3.4955
 2120SOL     OW17992   1.205   0.847   7.808 -0.1996  0.7689 -0.0589
 2120SOL    HW117993   1.300   0.843   7.809 -0.2909 -1.7627 -2.7992
 2120SOL    HW217994   1.186   0.829   7.900  1.3674 -0.5673 -0.0093
 2121SOL     OW17995   0.544   2.809   8.533 -0.5192  0.1015 -0.3150
 2121SOL    HW117996   0.601   2.764   8.595 -1.1409  2.1595  1.7509
 2121SOL    HW217997   0.462   2.826   8.580 -0.3532 -0.3545  0.1483
 2122SOL     OW17998   1.422   2.905   3.355 -0.0844 -0.0482  0.9422
 2122SOL    HW117999   1.439   2.910   3.261  1.2636 -1.2408  1.1274
 2122SOL    HW218000   1.509   2.931   3.384  0.4224  0.0589 -0.6554
 2123SOL     OW18001   0.054   0.479   8.113 -0.1065 -0.0049  0.4882
 2123SOL    HW118002   0.039   0.385   8.123  0.3091 -0.4134 -2.7166
 2123SOL    HW218003   4.721   0.501   8.055  0.5845 -1.3776 -0.9046
 2124SOL     OW18004   0.300   2.787   0.054 -0.1296 -0.1396 -0.3993
 2124SOL    HW118005   0.395   2.775   0.067  0.0366  0.2979 -1.2439
 2124SOL    HW218006   0.275   2.718   0.115 -1.1707 -0.6778 -1.4538
 2125SOL     OW18007   2.584   4.722   7.403  0.4315  0.5592  0.2505
 2125SOL    HW118008   2.663   0.034   7.415  0.9426  0.4787 -2.8655
 2125SOL    HW218009   2.611   4.671   7.326 -1.0664 -2.2624  1.5662
 2126SOL     OW18010   3.754   4.362  11.994  0.1380  0.5925 -0.3057
 2126SOL    HW118011   3.737   4.431  12.059 -2.2137 -0.8023  0.5748
 2126SOL    HW218012   3.729   4.404  11.912 -0.5319  0.0616 -0.3748
 2127SOL     OW18013   2.877   1.309   5.630  0.2808  0.1522  0.6146
 2127SOL    HW118014   2.937   1.378   5.601 -0.1297 -0.0508 -0.7552
 2127SOL    HW218015   2.789   1.336   5.603  0.0516 -0.6301  0.5880
 2128SOL     OW18016   1.435   2.704   6.804 -0.1938 -0.0137  0.4647
 2128SOL    HW118017   1.444   2.798   6.791  1.9377 -0.4100 -0.8367
 2128SOL    HW218018   1.394   2.672   6.723 -0.4792 -0.5381  0.8093
 2129SOL     OW18019   3.977   4.073   4.732 -0.8515  0.3244  0.0561
 2129SOL    HW118020   3.985   4.164   4.704  0.2504  0.0593 -0.5377
 2129SOL    HW218021   4.018   4.066   4.818  1.8712  3.1210 -0.9821
 2130SOL     OW18022   3.923   1.535  12.993 -0.3093  0.0054 -0.5292
 2130SOL    HW118023   3.987   1.591  13.037  0.8107 -1.0906 -0.7376
 2130SOL    HW218024   3.888   1.489  13.070  1.4017 -1.7960 -0.8061
 2131SOL     OW18025   2.493   3.155   9.665  0.0574  0.0759  0.1174
 2131SOL    HW118026   2.536   3.235   9.696 -1.3380  0.5716  0.7969
 2131SOL    HW218027   2.491   3.089   9.735  2.4745  0.5597  0.6394
 2132SOL     OW18028   3.383   2.098   9.437 -0.3603 -0.0754 -0.1053
 2132SOL    HW118029   3.423   2.011   9.433  1.0976  0.6812 -1.9129
 2132SOL    HW218030   3.390   2.114   9.531 -1.7871  1.1156 -0.2040
 2133SOL     OW18031   1.511   2.917   9.133 -0.1142 -0.7761 -0.1240
 2133SOL    HW118032   1.513   2.951   9.222 -2.2455 -0.2438 -0.2720
 2133SOL    HW218033   1.515   2.999   9.083 -0.4550 -1.1376 -0.7543
 2134SOL     OW18034   1.074   4.379   2.317 -0.4317  0.2950 -0.6625
 2134SOL    HW118035   1.136   4.428   2.371 -2.6020 -0.5911  2.6287
 2134SOL    HW218036   1.000   4.365   2.375 -0.2808 -2.8185 -1.1806
 2135SOL     OW18037   4.526   0.428   9.060  0.2570  0.1625 -0.1423
 2135SOL    HW118038   4.432   0.435   9.047  0.5169 -0.6408 -2.5271
 2135SOL    HW218039   4.535   0.335   9.082 -1.7823  0.0048 -0.0081
 2136SOL     OW18040   0.569   3.598   8.286  0.5598 -0.0440 -0.0057
 2136SOL    HW118041   0.649   3.559   8.249  0.6911 -1.3989  1.6608
 2136SOL    HW218042   0.598   3.588   8.377  1.9544 -0.3380 -0.4721
 2137SOL     OW18043   4.187   4.049  10.458  0.0467 -0.1753 -0.6630
 2137SOL    HW118044   4.094   4.050  10.483  0.3033  2.9582  0.0624
 2137SOL    HW218045   4.222   3.986  10.520 -0.0049  0.1141 -0.3440
 2138SOL     OW18046   0.626   2.297   4.601  0.6970  0.1074  0.2322
 2138SOL    HW118047   0.667   2.382   4.584  1.5435 -0.2892  0.3009
 2138SOL    HW218048   0.659   2.278   4.688 -0.0802  0.4545  0.6030
 2139SOL     OW18049   2.787   0.988   9.177  0.8431  0.1257  0.6008
 2139SOL    HW118050   2.757   0.986   9.086  0.5133  0.4697  0.7001
 2139SOL    HW218051   2.876   0.951   9.178 -0.2881 -2.6318 -0.8630
 2140SOL     OW18052   2.180   1.459   7.397 -0.2003  0.0112 -0.0089
 2140SOL    HW118053   2.127   1.534   7.426  0.7071  0.6202  0.0513
 2140SOL    HW218054   2.121   1.421   7.331  1.4489  1.5377 -2.3587
 2141SOL     OW18055   1.710   3.771   3.701 -0.4596 -0.3106 -0.4779
 2141SOL    HW118056   1.686   3.817   3.781  0.1764  3.0837 -2.2539
 2141SOL    HW218057   1.665   3.687   3.703 -2.3653  0.6563 -2.4242
 2142SOL     OW18058   4.386   4.196   2.906  0.6096  0.3604  0.2495
 2142SOL    HW118059   4.336   4.135   2.961 -1.1762  0.5168 -1.2070
 2142SOL    HW218060   4.355   4.276   2.947  0.1515  0.5063 -0.3855
 2143SOL     OW18061   4.374   0.522   5.619 -0.2538 -0.5382 -0.2532
 2143SOL    HW118062   4.419   0.606   5.624 -1.4054  0.0625  0.1136
 2143SOL    HW218063   4.427   0.465   5.675  0.5098  0.8019  0.4045
 2144SOL     OW18064   0.867   3.944   7.537 -0.1029  0.0242 -0.3657
 2144SOL    HW118065   0.849   3.945   7.631 -1.1582  2.9372 -0.5988
 2144SOL    HW218066   0.947   3.996   7.534  0.7914 -1.4438 -1.2282
 2145SOL     OW18067   2.299   4.168   5.278  0.2868 -0.9722  0.5240
 2145SOL    HW118068   2.337   4.174   5.366 -0.7854 -0.6480  0.9714
 2145SOL    HW218069   2.204   4.166   5.295 -0.2438 -0.0437 -2.3636
 2146SOL     OW18070   0.771   2.709   7.910  0.1552 -0.1377  0.3372
 2146SOL    HW118071   0.754   2.755   7.992 -0.9668  0.4570 -0.2214
 2146SOL    HW218072   0.729   2.625   7.931 -2.1154  0.7699 -0.5628
 2147SOL     OW18073   1.054   1.976   2.731  0.3030  0.2054  0.3165
 2147SOL    HW118074   1.010   1.896   2.761  1.1040 -0.3209  0.0896
 2147SOL    HW218075   1.035   2.039   2.800 -0.0979  1.5575 -1.0468
 2148SOL     OW18076   0.501   3.640   1.577 -0.0253 -0.3104  0.8544
 2148SOL    HW118077   0.520   3.597   1.494  1.5919  1.5929  0.2301
 2148SOL    HW218078   0.589   3.669   1.601 -0.5425  1.9772  0.0121
 2149SOL     OW18079   2.354   3.287   5.723 -0.2274 -0.2793  0.6370
 2149SOL    HW118080   2.397   3.373   5.726 -0.4362 -0.2125  1.8812
 2149SOL    HW218081   2.270   3.308   5.684 -0.0053 -0.2512  0.1710
 2150SOL     OW18082   1.867   4.191   5.114 -0.5284  0.1720 -0.1297
 2150SOL    HW118083   1.843   4.215   5.203  0.3564  1.7000 -0.3048
 2150SOL    HW218084   1.959   4.217   5.116 -0.3061 -0.6510  0.3605
 2151SOL     OW18085   3.231   3.437  13.031 -0.2312  0.5727 -0.4614
 2151SOL    HW118086   3.176   3.382  13.086  2.1290  0.0103  1.2982
 2151SOL    HW218087   3.248   3.517  13.082  0.6894  2.0967 -3.1519
 2152SOL     OW18088   3.053   4.648   0.542  0.4955 -0.0460 -0.1022
 2152SOL    HW118089   3.105   4.592   0.601 -0.2143 -0.3376  0.2415
 2152SOL    HW218090   2.989   4.587   0.506 -0.9348  1.0766  0.5354
 2153SOL     OW18091   3.087   2.060  16.433  0.1651  0.1585  1.1652
 2153SOL    HW118092   3.093   2.000  16.359 -0.3366  0.5476  0.8034
 2153SOL    HW218093   3.145   2.016  16.495  0.4138 -1.4277 -0.1990
 2154SOL     OW18094   3.836   1.994  15.909  0.4100 -0.1610 -0.2725
 2154SOL    HW118095   3.783   1.966  15.984  0.5223 -1.0702 -0.5329
 2154SOL    HW218096   3.850   1.919  15.851  0.7937 -0.1713 -0.1680
 2155SOL     OW18097   1.885   3.009  14.681  0.4097  0.6128 -0.4547
 2155SOL    HW118098   1.917   2.977  14.597 -2.0595  1.5108 -1.7560
 2155SOL    HW218099   1.965   3.017  14.732 -0.4675 -1.3127  1.2397
 2156SOL     OW18100   3.923   2.067   4.007  0.1028  0.4545 -0.4436
 2156SOL    HW118101   3.867   2.013   3.952 -1.1427  0.3244  0.9379
 2156SOL    HW218102   3.935   2.014   4.086  2.0058  1.0375 -0.3403
 2157SOL     OW18103   3.353   2.443   2.602  0.2878 -0.3661 -0.1606
 2157SOL    HW118104   3.408   2.373   2.636  1.3687  1.2252  1.4139
 2157SOL    HW218105   3.285   2.384   2.570 -1.0690  0.1744  1.6831
 2158SOL     OW18106   0.885   2.636  11.871 -0.0536 -0.8122 -0.0665
 2158SOL    HW118107   0.978   2.659  11.865  0.0696 -1.7960 -1.6671
 2158SOL    HW218108   0.850   2.699  11.935 -0.3548  1.3596 -2.3699
 2159SOL     OW18109   0.039   0.994  13.728 -0.0016 -0.1144  0.7425
 2159SOL    HW118110   4.711   1.032  13.671  0.8027  0.3365  0.0820
 2159SOL    HW218111   4.739   0.909  13.743  0.3479 -0.2993  0.6333
 2160SOL     OW18112   0.992   4.397   3.790  0.5011 -0.0930 -0.1949
 2160SOL    HW118113   1.020   4.442   3.710  0.5206  0.1909 -0.0300
 2160SOL    HW218114   1.009   4.461   3.859  0.1705  1.0230 -1.1427
 2161SOL     OW18115   0.461   4.322   6.036 -0.4554  0.0360  0.3253
 2161SOL    HW118116   0.521   4.358   5.972 -2.3920  1.6234 -0.5969
 2161SOL    HW218117   0.522   4.315   6.109 -0.1446 -1.5026 -0.0860
 2162SOL     OW18118   0.114   1.592   8.062 -0.2668 -0.0491  0.3184
 2162SOL    HW118119   0.130   1.659   8.128 -1.6403  0.6483 -0.0687
 2162SOL    HW218120   0.127   1.516   8.118  2.3554  0.3036  0.1883
 2163SOL     OW18121   3.130   4.273   1.673  0.2640 -0.4188 -0.4111
 2163SOL    HW118122   3.115   4.356   1.717  1.9081 -0.1735 -0.3178
 2163SOL    HW218123   3.222   4.258   1.693  0.4646  0.6112 -0.5918
 2164SOL     OW18124   4.280   0.961   9.637  0.1494  0.8897  0.2235
 2164SOL    HW118125   4.259   1.035   9.580  1.7640  0.5667 -0.7744
 2164SOL    HW218126   4.271   0.887   9.577 -1.0914 -0.1554  1.6923
 2165SOL     OW18127   1.509   0.414  16.837  0.2710  0.4690 -0.4102
 2165SOL    HW118128   1.483   0.490  16.785  1.1050  0.5309 -0.7245
 2165SOL    HW218129   1.518   0.340  16.777 -0.4450  0.0366  0.0083
 2166SOL     OW18130   1.484   3.322   9.287  0.3238 -0.0028  0.1026
 2166SOL    HW118131   1.442   3.238   9.307  1.7926 -1.0335 -1.1674
 2166SOL    HW218132   1.570   3.290   9.260  0.3489 -0.6188  0.9055
 2167SOL     OW18133   3.939   1.761   2.597  0.3206  0.2075 -0.0303
 2167SOL    HW118134   3.906   1.683   2.555 -0.8854  1.5516 -1.5426
 2167SOL    HW218135   3.884   1.829   2.560  2.5336  2.3857  0.6326
 2168SOL     OW18136   3.287   1.553   2.986  1.0026 -0.0617 -0.1175
 2168SOL    HW118137   3.347   1.493   3.030 -0.5549 -2.1727 -0.8496
 2168SOL    HW218138   3.260   1.603   3.062  0.2400  1.7254 -1.5726
 2169SOL     OW18139   0.077   1.307   4.941 -1.0982 -0.2876  0.2495
 2169SOL    HW118140   0.075   1.326   4.847 -1.2689 -2.3131 -0.1501
 2169SOL    HW218141   0.012   1.371   4.971 -0.2972  1.2226 -1.2412
 2170SOL     OW18142   1.735   4.218  15.108 -0.5273 -0.4184  0.0735
 2170SOL    HW118143   1.791   4.164  15.163 -1.3212  0.4534  1.7595
 2170SOL    HW218144   1.662   4.232  15.169  0.3060  0.7461  0.8139
 2171SOL     OW18145   3.818   0.908  13.305  0.2576  0.2560  0.0994
 2171SOL    HW118146   3.890   0.904  13.368 -1.8347  0.0134  2.4712
 2171SOL    HW218147   3.741   0.885  13.358 -0.8891 -0.2543 -1.7937
 2172SOL     OW18148   0.952   4.738   2.699  0.0027  0.2131 -0.0796
 2172SOL    HW118149   0.892   4.663   2.693 -1.2628  1.0398  2.1825
 2172SOL    HW218150   0.906   0.070   2.657 -1.0197 -0.0900  0.5159
 2173SOL     OW18151   0.982   0.891   4.056  0.1214  0.8874 -0.0621
 2173SOL    HW118152   0.993   0.984   4.034  0.7663  1.0513  0.9345
 2173SOL    HW218153   0.907   0.862   4.004  0.8209  0.9570 -1.0908
 2174SOL     OW18154   3.645   0.844   5.987  0.4199  0.0655  0.0554
 2174SOL    HW118155   3.551   0.823   5.995  0.0542  2.1139  1.2243
 2174SOL    HW218156   3.644   0.872   5.896 -1.9448 -2.3851 -0.6874
 2175SOL     OW18157   3.195   0.890   4.936  0.0852  0.1391  0.3976
 2175SOL    HW118158   3.135   0.900   5.010  0.7959  2.0111  0.7376
 2175SOL    HW218159   3.226   0.978   4.912  0.7476  0.0223  0.8268
 2176SOL     OW18160   3.195   0.247   0.565 -0.6526 -0.1965 -0.1829
 2176SOL    HW118161   3.253   0.176   0.539  0.2838  0.1981  0.8290
 2176SOL    HW218162   3.225   0.249   0.656  1.2345  0.6148 -0.8119
 2177SOL     OW18163   0.725   3.335   2.493  0.2995  0.1151  0.1719
 2177SOL    HW118164   0.762   3.307   2.577 -2.8546 -0.9010  1.2542
 2177SOL    HW218165   0.771   3.276   2.433  1.5335  0.4127  0.8374
 2178SOL     OW18166   0.830   0.416   9.330  0.3474 -0.1016 -0.0786
 2178SOL    HW118167   0.921   0.397   9.351  0.3656 -1.6834 -1.5952
 2178SOL    HW218168   0.770   0.366   9.386  0.7000 -0.0859  0.3178
 2179SOL     OW18169   2.142   0.275   1.287 -0.7971  0.0289 -0.3925
 2179SOL    HW118170   2.117   0.243   1.200 -0.8244 -2.1545  0.4267
 2179SOL    HW218171   2.197   0.204   1.318  1.2127  1.1782 -1.3704
 2180SOL     OW18172   1.914   3.710   4.407  0.7992 -0.5932  0.1968
 2180SOL    HW118173   1.844   3.765   4.441  0.6996  0.0122 -0.9822
 2180SOL    HW218174   1.980   3.769   4.444  1.2985 -0.8988 -0.2015
 2181SOL     OW18175   4.162   1.124   1.863  0.1797  0.1152  0.4446
 2181SOL    HW118176   4.236   1.107   1.804  1.1422 -1.3354  2.0776
 2181SOL    HW218177   4.207   1.101   1.944 -0.3133  0.1120  0.7176
 2182SOL     OW18178   2.517   2.268   5.351  0.4100 -0.1597 -0.6184
 2182SOL    HW118179   2.467   2.260   5.270 -1.0425 -1.6268  0.4356
 2182SOL    HW218180   2.479   2.194   5.399 -2.1102  1.5772  0.1025
 2183SOL     OW18181   3.209   0.445   5.342  0.4745  0.1613  0.1326
 2183SOL    HW118182   3.198   0.540   5.328 -0.1061 -0.0748 -1.0312
 2183SOL    HW218183   3.135   0.433   5.282 -0.0018  2.0261  0.3184
 2184SOL     OW18184   1.235   0.759  16.805 -0.7243 -0.0766 -0.3752
 2184SOL    HW118185   1.255   0.852  16.792 -0.9215  0.1258  0.7987
 2184SOL    HW218186   1.143   0.769  16.784 -0.1957  1.8806 -1.7941
 2185SOL     OW18187   2.561   0.638  11.549 -0.5072 -0.1687  0.7106
 2185SOL    HW118188   2.474   0.673  11.527  0.2057  1.5417  0.6127
 2185SOL    HW218189   2.582   0.629  11.456  0.1106 -1.2365  0.9594
 2186SOL     OW18190   2.546   2.337   6.831  0.1800 -0.0313  0.9004
 2186SOL    HW118191   2.544   2.426   6.795 -0.0968 -0.8709 -1.1746
 2186SOL    HW218192   2.639   2.340   6.854  0.6007  0.1046 -0.8244
 2187SOL     OW18193   1.288   3.847   8.604 -1.2890 -0.1509 -0.3166
 2187SOL    HW118194   1.322   3.883   8.686 -0.9054 -0.5160 -0.3116
 2187SOL    HW218195   1.367   3.839   8.550  0.3235 -1.0423  2.1687
 2188SOL     OW18196   0.174   2.747   2.375  0.4179 -0.4210 -0.0876
 2188SOL    HW118197   0.258   2.719   2.338  0.9648  1.2932 -0.1589
 2188SOL    HW218198   0.164   2.840   2.397  1.9240 -0.3137  0.1887
 2189SOL     OW18199   3.708   1.588   2.983  0.0980 -0.7156  0.1819
 2189SOL    HW118200   3.663   1.521   2.932  0.4197 -0.8080  0.0228
 2189SOL    HW218201   3.644   1.659   2.996  0.1003 -0.5697 -0.6014
 2190SOL     OW18202   1.583   4.380   3.673  0.1789  0.6831 -0.1785
 2190SOL    HW118203   1.628   4.296   3.684 -1.2502 -0.0890 -0.2422
 2190SOL    HW218204   1.493   4.359   3.648  0.5530 -1.9530  0.7447
 2191SOL     OW18205   2.818   2.661   3.834  0.0504  0.4697  0.1263
 2191SOL    HW118206   2.800   2.723   3.763 -0.9868  0.1964  0.1493
 2191SOL    HW218207   2.888   2.719   3.864  0.3081  0.4847 -0.4904
 2192SOL     OW18208   0.390   3.203   1.819 -0.3546  0.0448  0.0564
 2192SOL    HW118209   0.311   3.164   1.781 -1.0691 -0.7955  2.4179
 2192SOL    HW218210   0.343   3.237   1.895  2.0736  0.0447  1.5762
 2193SOL     OW18211   0.432   3.176   5.106 -0.6174 -0.2185 -0.3195
 2193SOL    HW118212   0.448   3.204   5.016  0.2299  2.2669  0.5954
 2193SOL    HW218213   0.492   3.234   5.152  0.7895  0.1716 -2.6456
 2194SOL     OW18214   3.325   4.713  11.550 -0.1902 -0.4541  0.0280
 2194SOL    HW118215   3.280   0.055  11.573  0.2601  0.3118 -1.7853
 2194SOL    HW218216   3.317   4.670  11.635  1.6349 -1.6090 -0.3881
 2195SOL     OW18217   3.798   1.983   5.282  0.0997 -0.0630  0.1806
 2195SOL    HW118218   3.707   1.968   5.259 -0.0325  2.3012 -0.8409
 2195SOL    HW218219   3.835   1.898   5.308 -0.2353 -0.4707 -0.7029
 2196SOL     OW18220   2.424   0.223   0.661  0.3280  0.3367  0.2586
 2196SOL    HW118221   2.465   0.220   0.747 -0.9688  0.4719  0.8929
 2196SOL    HW218222   2.451   0.137   0.630 -1.4055 -0.3402  0.5945
 2197SOL     OW18223   1.549   2.775   8.755 -0.3486 -0.4004 -0.2231
 2197SOL    HW118224   1.596   2.703   8.713 -1.9984  0.1003 -2.8987
 2197SOL    HW218225   1.620   2.835   8.775 -2.8246  1.8890  1.5935
 2198SOL     OW18226   1.921   4.465  12.226 -0.3973  0.5248  0.3876
 2198SOL    HW118227   1.935   4.372  12.209  0.7918  1.0203 -1.4465
 2198SOL    HW218228   2.003   4.498  12.262 -0.3008 -0.0285  0.6728
 2199SOL     OW18229   1.010   4.255   2.089 -0.6751  0.0049  0.1107
 2199SOL    HW118230   1.030   4.287   2.177  1.3024  2.4976 -1.2590
 2199SOL    HW218231   0.976   4.329   2.038 -2.4536  1.0201  2.7535
 2200SOL     OW18232   0.341   3.643  11.405 -0.7326  0.5034 -0.2094
 2200SOL    HW118233   0.360   3.549  11.395  0.4166  0.9537 -2.2048
 2200SOL    HW218234   0.248   3.634  11.383 -0.4799 -1.0605 -0.6693
 2201SOL     OW18235   2.134   3.159   6.275 -0.2752  0.4862 -0.8541
 2201SOL    HW118236   2.099   3.133   6.189 -0.3238 -0.6929 -0.4738
 2201SOL    HW218237   2.186   3.083   6.299  0.5378  1.4492  0.3946
 2202SOL     OW18238   1.420   4.451  16.929 -0.3897  0.8279  0.2782
 2202SOL    HW118239   1.438   4.450  16.835 -0.7525  1.5229  0.1999
 2202SOL    HW218240   1.511   4.446  16.958 -1.1330  1.3306  2.7253
 2203SOL     OW18241   3.299   3.367   7.539 -0.1044 -0.6168  0.4725
 2203SOL    HW118242   3.246   3.406   7.469 -0.3046  0.2798  1.1292
 2203SOL    HW218243   3.371   3.337   7.482  0.6435 -0.3552  1.2869
 2204SOL     OW18244   0.070   2.945  11.504 -0.2910 -0.0445  0.0314
 2204SOL    HW118245   0.098   2.933  11.595 -0.4250  1.1067  0.2235
 2204SOL    HW218246   4.733   2.888  11.498  0.1684 -0.7989  1.2813
 2205SOL     OW18247   1.373   3.505   3.480 -0.4108  0.5441  0.3398
 2205SOL    HW118248   1.438   3.572   3.462 -0.1487  0.7152  1.9338
 2205SOL    HW218249   1.416   3.443   3.539 -2.4201 -0.9429  0.2494
 2206SOL     OW18250   0.891   2.107   3.632  0.2331  0.2320 -0.5038
 2206SOL    HW118251   0.837   2.093   3.711 -1.0281 -1.8992 -1.7305
 2206SOL    HW218252   0.868   2.198   3.613  1.1927  0.7046  0.6015
 2207SOL     OW18253   1.198   4.590   1.788 -0.0989  0.1894  0.2563
 2207SOL    HW118254   1.226   4.541   1.865 -0.8929 -1.9043 -0.7899
 2207SOL    HW218255   1.138   4.660   1.814  1.7259  2.5072 -1.7261
 2208SOL     OW18256   3.202   0.030   6.001 -0.2159 -0.0435 -0.3739
 2208SOL    HW118257   3.203   0.021   5.906  1.9212  1.2834 -0.4811
 2208SOL    HW218258   3.152   0.111   6.008 -2.0770 -1.0908 -1.6654
 2209SOL     OW18259   1.056   4.144  12.819 -0.3674  0.5346  0.1465
 2209SOL    HW118260   1.026   4.123  12.731 -0.8788  1.6484  0.0576
 2209SOL    HW218261   0.969   4.165  12.854 -0.6140 -1.5632  0.7709
 2210SOL     OW18262   1.453   2.083  15.169  0.4062  0.4619  0.2142
 2210SOL    HW118263   1.372   2.109  15.123  0.7807 -0.5755 -1.0454
 2210SOL    HW218264   1.433   2.098  15.261  1.3399  1.5672  0.2399
 2211SOL     OW18265   3.186   1.290  12.105  0.5875  0.2421  0.0642
 2211SOL    HW118266   3.124   1.353  12.068 -2.7705 -2.0044  1.8771
 2211SOL    HW218267   3.127   1.214  12.096  0.7784  0.2806 -1.6058
 2212SOL     OW18268   0.639   3.602   5.465 -0.0740 -0.1859 -0.1450
 2212SOL    HW118269   0.587   3.656   5.405  0.7037  0.9777  0.2358
 2212SOL    HW218270   0.725   3.612   5.423  0.4400 -2.8275  0.2945
 2213SOL     OW18271   1.963   2.278  17.115  0.1448 -0.4899  0.6924
 2213SOL    HW118272   1.971   2.195  17.068  4.9530 -0.2943  1.1776
 2213SOL    HW218273   2.057   2.294  17.114 -0.0432  0.6211  1.3160
 2214SOL     OW18274   2.053   3.051   9.855 -0.4055 -0.1718  0.3383
 2214SOL    HW118275   2.094   3.008   9.780  0.1576  1.5776 -0.3489
 2214SOL    HW218276   2.033   2.972   9.905  1.9318 -0.2164  1.2338
 2215SOL     OW18277   1.066   0.796   3.666  0.1231  0.3146  0.7929
 2215SOL    HW118278   1.088   0.880   3.707  1.0259 -0.1943  1.3595
 2215SOL    HW218279   1.150   0.780   3.621 -0.7557  3.5230 -2.0514
 2216SOL     OW18280   4.203   2.946   2.150  0.2560  0.3587 -0.7453
 2216SOL    HW118281   4.200   2.872   2.210 -0.9697  1.3950  0.4756
 2216SOL    HW218282   4.125   2.925   2.100  0.1728  2.3356 -1.4554
 2217SOL     OW18283   0.260   1.251   8.004 -0.6686  0.1405 -0.2093
 2217SOL    HW118284   0.262   1.341   8.037 -1.5620  0.0785  0.0190
 2217SOL    HW218285   0.184   1.219   8.051  0.5286 -2.1168  0.2006
 2218SOL     OW18286   4.002   4.628  11.083  0.2324 -0.0961  0.0209
 2218SOL    HW118287   4.092   4.650  11.060  0.1952  0.5941  0.5595
 2218SOL    HW218288   3.963   4.714  11.068 -0.4581  0.3888  4.6827
 2219SOL     OW18289   2.809   4.184   7.148  0.1760  0.0348  0.0004
 2219SOL    HW118290   2.776   4.267   7.182 -0.6375  0.8393 -2.7647
 2219SOL    HW218291   2.733   4.128   7.168 -0.2059  0.3040 -0.6907
 2220SOL     OW18292   1.131   1.376  11.785  0.0636 -0.7590 -0.3371
 2220SOL    HW118293   1.131   1.288  11.822  0.4622 -1.3275 -1.7131
 2220SOL    HW218294   1.136   1.425  11.867  0.6159  0.5719 -1.1666
 2221SOL     OW18295   3.024   2.536  14.936  0.1499 -0.2423 -0.8684
 2221SOL    HW118296   3.023   2.461  14.995 -0.3681  0.5059  0.0702
 2221SOL    HW218297   2.933   2.566  14.938 -0.4231 -2.2460  2.2605
 2222SOL     OW18298   1.815   2.558   5.516 -0.0899 -0.0354 -0.1762
 2222SOL    HW118299   1.780   2.488   5.462 -1.6957  2.4017 -2.2683
 2222SOL    HW218300   1.790   2.630   5.459 -0.0571  0.0374 -0.0996
 2223SOL     OW18301   2.694   3.925  17.109  0.0584 -0.3537  0.7516
 2223SOL    HW118302   2.629   3.857  17.092  3.2998 -3.3799  0.2384
 2223SOL    HW218303   2.774   3.883  17.076  0.7581  1.3548  0.3005
 2224SOL     OW18304   2.987   1.844   8.584 -0.0076  0.1606  0.2203
 2224SOL    HW118305   2.935   1.826   8.662  1.6966 -1.5367  0.9637
 2224SOL    HW218306   3.007   1.937   8.593  0.9812 -0.2910  2.8148
 2225SOL     OW18307   1.407   3.480  14.074  0.4506  0.4448 -0.5645
 2225SOL    HW118308   1.451   3.406  14.116  0.7922  1.2981  0.5797
 2225SOL    HW218309   1.474   3.547  14.083  1.5170 -0.6912  0.0542
 2226SOL     OW18310   4.621   4.091   5.177  0.0546 -0.2628 -0.6270
 2226SOL    HW118311   4.561   4.145   5.229  1.0620  1.9895 -1.7895
 2226SOL    HW218312   4.557   4.028   5.144  0.6399 -1.6665  0.8997
 2227SOL     OW18313   1.454   1.482  15.366  0.1161 -0.1604  0.1094
 2227SOL    HW118314   1.493   1.398  15.339  0.1336 -0.1969  0.2487
 2227SOL    HW218315   1.359   1.466  15.365  0.2366 -0.8610  0.0427
 2228SOL     OW18316   1.069   2.891   9.226  0.8700 -0.1225 -0.0921
 2228SOL    HW118317   1.064   2.801   9.194  1.8465  0.4360 -1.8225
 2228SOL    HW218318   0.990   2.888   9.281  2.5674  0.6914  2.3748
 2229SOL     OW18319   4.676   2.041   3.589  0.3685 -0.2283  0.0446
 2229SOL    HW118320   4.671   2.101   3.514 -1.6717  1.0963  1.2561
 2229SOL    HW218321   4.605   2.085   3.635  0.1885  2.0560 -2.4169
 2230SOL     OW18322   2.102   1.616   8.460  0.1293 -0.1615  0.3412
 2230SOL    HW118323   2.018   1.608   8.506  1.2363 -1.2283  2.1491
 2230SOL    HW218324   2.163   1.641   8.529  0.3015 -0.3841  0.2699
 2231SOL     OW18325   3.690   4.624   6.974  0.2150  0.1080  0.2277
 2231SOL    HW118326   3.760   4.559   6.963  0.6452  0.2219  2.3464
 2231SOL    HW218327   3.641   4.602   6.895  1.4412 -1.2424 -0.1559
 2232SOL     OW18328   1.985   3.653   2.260 -1.1291 -0.5433  0.6533
 2232SOL    HW118329   2.000   3.581   2.200 -0.0121  1.5311 -1.5657
 2232SOL    HW218330   1.963   3.598   2.335  2.2761 -1.5790  0.8688
 2233SOL     OW18331   4.131   4.189   1.243  0.1504 -0.5739  0.2506
 2233SOL    HW118332   4.077   4.165   1.168 -1.0638 -0.0680  0.9557
 2233SOL    HW218333   4.075   4.257   1.281 -1.5276 -1.3073 -0.8841
 2234SOL     OW18334   3.269   2.352   4.371 -0.6372  0.3698  0.7645
 2234SOL    HW118335   3.331   2.331   4.301 -1.5662  1.5081 -0.3956
 2234SOL    HW218336   3.256   2.261   4.400 -2.4824  0.0530 -1.0577
 2235SOL     OW18337   3.072   2.123   8.088  0.4125 -0.1977 -0.0532
 2235SOL    HW118338   2.995   2.106   8.143 -0.0933 -0.0318 -0.7114
 2235SOL    HW218339   3.098   2.032   8.073 -1.2757 -0.4839 -1.2202
 2236SOL     OW18340   1.578   0.932   9.578  0.2012  0.1388 -0.0213
 2236SOL    HW118341   1.640   0.928   9.650  0.6836 -1.5620 -0.5198
 2236SOL    HW218342   1.493   0.918   9.619 -0.1918  1.2513 -0.4390
 2237SOL     OW18343   2.773   1.686   3.584  0.2350 -0.2168  0.2589
 2237SOL    HW118344   2.682   1.711   3.568 -0.1273 -1.1939  0.8258
 2237SOL    HW218345   2.752   1.657   3.673 -1.7925  1.8283  0.4449
 2238SOL     OW18346   4.468   4.602   9.694 -0.2029 -0.5343 -0.2199
 2238SOL    HW118347   4.395   4.664   9.685  0.1854 -0.2272 -1.2795
 2238SOL    HW218348   4.526   4.658   9.746 -1.8257 -1.1134  2.2138
 2239SOL     OW18349   1.540   4.296  15.649 -0.0220  0.8526  0.5256
 2239SOL    HW118350   1.540   4.202  15.667  0.9797  0.2870 -2.3818
 2239SOL    HW218351   1.625   4.332  15.674  0.7707 -0.3718 -0.3687
 2240SOL     OW18352   3.951   1.337   4.839 -0.4260  0.1080 -0.7962
 2240SOL    HW118353   4.030   1.284   4.850 -0.3435  0.2286 -0.8054
 2240SOL    HW218354   3.970   1.377   4.754  0.5292  0.9499 -0.1949
 2241SOL     OW18355   2.992   4.719  12.759 -0.0341 -0.0569 -0.8435
 2241SOL    HW118356   3.075   4.732  12.806 -0.9772 -0.0956  0.8367
 2241SOL    HW218357   2.942   0.050  12.799 -0.7708 -1.6475  1.0501
 2242SOL     OW18358   3.703   4.577   2.764  0.6819 -0.2511 -0.5631
 2242SOL    HW118359   3.622   4.525   2.769  0.0775  0.7481 -0.0402
 2242SOL    HW218360   3.743   4.537   2.687  1.5605  1.1126 -0.8012
 2243SOL     OW18361   3.674   3.093  17.167 -0.1133 -0.6022  0.1540
 2243SOL    HW118362   3.592   3.129  17.134  1.2203 -0.0249 -2.5478
 2243SOL    HW218363   3.720   3.068  17.086 -2.9099 -3.0682 -0.6899
 2244SOL     OW18364   3.168   0.303   9.759  0.2540  1.1106  0.5029
 2244SOL    HW118365   3.240   0.251   9.724  1.3172  0.5441  3.5690
 2244SOL    HW218366   3.136   0.353   9.684  1.7858  0.9930 -0.2235
 2245SOL     OW18367   3.598   2.430   7.909  0.3808  0.3378  0.2418
 2245SOL    HW118368   3.595   2.408   7.816  1.1184  1.1867  0.0139
 2245SOL    HW218369   3.602   2.525   7.918 -0.0342  0.3555  0.2163
 2246SOL     OW18370   3.298   4.259   8.099  0.1726  0.6335  0.5367
 2246SOL    HW118371   3.219   4.244   8.048 -1.9732  0.0244  3.9895
 2246SOL    HW218372   3.282   4.348   8.132  1.8307  1.1583 -0.0893
 2247SOL     OW18373   1.050   4.722  12.758  0.5141  0.4418 -0.2844
 2247SOL    HW118374   1.134   0.029  12.751  1.4601 -1.4355 -1.3260
 2247SOL    HW218375   1.059   4.662  12.685  0.9738 -0.0819  0.2022
 2248SOL     OW18376   0.997   0.697   6.228  0.4097  0.4312  0.3035
 2248SOL    HW118377   1.035   0.783   6.243 -1.5534  0.9385  2.3522
 2248SOL    HW218378   0.902   0.713   6.226  0.5736  0.8755 -3.4083
 2249SOL     OW18379   3.454   0.361  13.090 -0.0665  0.0574  0.0385
 2249SOL    HW118380   3.490   0.425  13.152 -0.2121 -2.5023  2.7695
 2249SOL    HW218381   3.499   0.287  13.131  1.7836  0.9737 -0.3594
 2250SOL     OW18382   1.599   1.259   8.724  0.1267  1.0232  0.0487
 2250SOL    HW118383   1.504   1.249   8.732  0.0859  0.0504 -1.7371
 2250SOL    HW218384   1.619   1.239   8.633 -0.4563 -0.6131  0.2771
 2251SOL     OW18385   4.613   3.622   9.049  0.4835  0.4029  0.3878
 2251SOL    HW118386   4.673   3.584   9.113 -0.3854 -0.7140  0.5393
 2251SOL    HW218387   4.664   3.589   8.974 -1.3062  1.8216 -1.4552
 2252SOL     OW18388   2.932   1.325   9.163 -0.3956 -0.0606  0.2136
 2252SOL    HW118389   2.963   1.266   9.232  1.6213 -0.2852 -0.8720
 2252SOL    HW218390   2.961   1.410   9.196  1.8461 -0.2851 -1.2078
 2253SOL     OW18391   2.325   2.366   4.247  0.0791  0.2855  0.1133
 2253SOL    HW118392   2.396   2.319   4.203  1.6312  0.7413  2.1590
 2253SOL    HW218393   2.354   2.377   4.337 -0.0372  1.2644  0.0360
 2254SOL     OW18394   3.013   4.151   6.127  0.0253  0.1612  0.1231
 2254SOL    HW118395   2.997   4.164   6.033  1.1108 -1.0013 -0.2240
 2254SOL    HW218396   2.997   4.240   6.156  0.8502  0.1539  0.5831
 2255SOL     OW18397   1.194   0.863  15.816 -0.2726  0.4388 -0.3154
 2255SOL    HW118398   1.175   0.871  15.909 -0.6689  0.2095 -0.3734
 2255SOL    HW218399   1.192   0.957  15.802 -0.0414  0.4697 -0.1394
 2256SOL     OW18400   4.508   3.948   1.272  0.0461  0.2117 -0.4771
 2256SOL    HW118401   4.596   3.970   1.303  0.7714 -0.3256 -2.1469
 2256SOL    HW218402   4.523   3.866   1.225 -0.6688 -1.3142  2.0191
 2257SOL     OW18403   4.621   0.632   5.897 -0.8318 -0.0206  0.2100
 2257SOL    HW118404   4.567   0.687   5.841  1.2084  0.7505 -0.9760
 2257SOL    HW218405   4.622   0.543   5.861  1.8815 -0.3194  1.0275
 2258SOL     OW18406   1.285   0.026  12.991 -0.6505 -0.6067  0.1851
 2258SOL    HW118407   1.285   0.078  12.911 -0.0761  0.6991  1.0310
 2258SOL    HW218408   1.356   0.074  13.035 -0.4755  2.0099 -2.9718
 2259SOL     OW18409   0.898   3.788  13.791  0.3730 -0.4892 -0.4629
 2259SOL    HW118410   0.940   3.840  13.722  1.1009 -1.7639 -0.9838
 2259SOL    HW218411   0.935   3.835  13.866 -0.3276 -0.6268 -0.0349
 2260SOL     OW18412   1.782   3.551   1.259  0.2733  0.3968 -0.6048
 2260SOL    HW118413   1.792   3.558   1.354 -0.8550  0.7163 -0.4978
 2260SOL    HW218414   1.843   3.621   1.237  0.5759 -0.0433 -1.1550
 2261SOL     OW18415   1.577   3.128   7.912 -0.2500 -0.4775  0.3473
 2261SOL    HW118416   1.594   3.222   7.902 -0.0759 -0.5188  0.2491
 2261SOL    HW218417   1.540   3.109   7.998  1.8036  0.5135  1.4472
 2262SOL     OW18418   1.843   1.648   4.507  0.1868  0.3245 -0.3590
 2262SOL    HW118419   1.893   1.727   4.527  2.2051 -0.8560 -0.8026
 2262SOL    HW218420   1.890   1.582   4.557  0.8696 -1.0085 -2.7629
 2263SOL     OW18421   1.607   0.456  16.340 -0.3955 -0.2620 -0.1095
 2263SOL    HW118422   1.679   0.434  16.281  1.2575  0.8158  1.5022
 2263SOL    HW218423   1.565   0.528  16.294  0.2983  1.1750  1.5207
 2264SOL     OW18424   3.365   3.432   2.507  0.3255  0.5672  0.4840
 2264SOL    HW118425   3.301   3.453   2.575 -0.7854  0.4538 -0.5280
 2264SOL    HW218426   3.434   3.393   2.561  0.8840  0.6403 -0.1715
 2265SOL     OW18427   3.075   1.602  15.852 -0.0891  0.8864  0.2134
 2265SOL    HW118428   3.034   1.677  15.895 -2.0741  0.6492 -1.2380
 2265SOL    HW218429   3.077   1.623  15.759 -0.6910  0.5388  0.1212
 2266SOL     OW18430   2.455   0.386   3.736  0.6825  0.3434 -0.0913
 2266SOL    HW118431   2.367   0.424   3.734 -0.0992 -1.3194  1.9665
 2266SOL    HW218432   2.510   0.452   3.694 -1.2284  1.7210 -0.4010
 2267SOL     OW18433   1.681   4.150  15.422 -0.3391  0.5774 -0.1717
 2267SOL    HW118434   1.634   4.092  15.482  0.5645 -0.3598 -0.3667
 2267SOL    HW218435   1.756   4.177  15.476  0.7628  1.0648 -1.9667
 2268SOL     OW18436   2.535   4.556   6.366  0.0209 -0.0498 -0.1023
 2268SOL    HW118437   2.630   4.561   6.372 -0.2765  0.1820  4.1500
 2268SOL    HW218438   2.514   4.590   6.453 -1.6077  0.7736 -0.8068
 2269SOL     OW18439   1.379   3.376  12.369 -0.2526 -0.4353 -0.2573
 2269SOL    HW118440   1.393   3.328  12.451  1.3048 -1.0247 -0.8612
 2269SOL    HW218441   1.387   3.466  12.401 -0.3289 -0.6823  0.4610
 2270SOL     OW18442   1.183   3.330   5.473  0.0666  0.3921  0.1221
 2270SOL    HW118443   1.158   3.292   5.389  2.8723 -0.0389 -0.5261
 2270SOL    HW218444   1.099   3.367   5.501  0.2159  0.1723  0.8672
 2271SOL     OW18445   0.091   4.068   3.606 -0.3300 -0.2175 -0.2096
 2271SOL    HW118446   0.080   4.163   3.603  1.3382  0.0155  0.7817
 2271SOL    HW218447   0.004   4.042   3.638 -0.3706 -1.5893 -1.4301
 2272SOL     OW18448   4.720   1.762   3.399 -0.3942 -0.1016 -0.3148
 2272SOL    HW118449   4.667   1.755   3.319  0.7687  2.5946 -1.3165
 2272SOL    HW218450   4.653   1.761   3.467  0.7688  1.3195  0.8485
 2273SOL     OW18451   0.280   1.686   3.457 -0.3278 -0.2057  0.3017
 2273SOL    HW118452   0.287   1.721   3.546  3.3154  0.6263 -0.3303
 2273SOL    HW218453   0.190   1.715   3.440 -0.1021 -0.6594 -1.5834
 2274SOL     OW18454   2.306   4.293  15.246 -0.4163 -0.2315 -0.0731
 2274SOL    HW118455   2.306   4.323  15.337  1.6917  0.7959 -0.4047
 2274SOL    HW218456   2.215   4.309  15.221 -1.7171 -1.9903  3.4997
 2275SOL     OW18457   0.555   4.730   8.402 -0.0768 -0.6147 -0.0929
 2275SOL    HW118458   0.628   4.692   8.353 -0.3556  2.2366 -2.7013
 2275SOL    HW218459   0.573   0.084   8.394 -0.3647 -0.4813  0.8718
 2276SOL     OW18460   2.454   3.133   2.148 -1.1774 -0.0060  0.2982
 2276SOL    HW118461   2.541   3.171   2.163 -0.1880 -0.9805 -2.9797
 2276SOL    HW218462   2.424   3.121   2.238 -0.0387  1.3754  0.8740
 2277SOL     OW18463   3.190   3.717   7.250 -0.6527 -0.0310 -0.4688
 2277SOL    HW118464   3.273   3.703   7.297  0.2844  0.7626 -1.8940
 2277SOL    HW218465   3.219   3.681   7.166  0.6312 -0.9341  0.3613
 2278SOL     OW18466   4.060   1.666   7.377 -0.0944 -0.4005 -0.1113
 2278SOL    HW118467   3.987   1.606   7.392  0.2578 -0.0093  3.3128
 2278SOL    HW218468   4.072   1.708   7.463  2.0495 -0.1298 -0.5531
 2279SOL     OW18469   4.257   2.580  16.612  0.2670  0.1715 -0.1352
 2279SOL    HW118470   4.198   2.574  16.687 -2.4048  0.5873 -2.2291
 2279SOL    HW218471   4.226   2.522  16.542 -0.8737 -0.4739  0.9184
 2280SOL     OW18472   4.375   4.363   8.127  0.4293 -0.3907  0.1007
 2280SOL    HW118473   4.458   4.331   8.162  1.0884  0.1444 -1.0230
 2280SOL    HW218474   4.343   4.432   8.185  0.2782 -0.6676  0.3497
 2281SOL     OW18475   0.116   2.347   6.666 -0.2974  0.6776  0.0517
 2281SOL    HW118476   0.035   2.298   6.654 -0.3564  1.0417 -1.0624
 2281SOL    HW218477   0.134   2.356   6.572  2.0324 -2.0789  0.2600
 2282SOL     OW18478   1.092   3.706  14.651 -0.8842  0.3689  0.3120
 2282SOL    HW118479   1.068   3.778  14.592  1.2474 -1.7638 -3.1313
 2282SOL    HW218480   1.156   3.739  14.714 -0.2935  2.0160 -1.1750
 2283SOL     OW18481   1.548   3.045  16.534  0.0924 -0.1623 -0.3011
 2283SOL    HW118482   1.522   3.131  16.500  2.5685  0.1679 -1.2748
 2283SOL    HW218483   1.568   2.999  16.453  1.0760 -1.7806  0.8744
 2284SOL     OW18484   2.377   2.769   7.334  0.2008  0.1041  0.0239
 2284SOL    HW118485   2.443   2.801   7.395  0.5999  0.0333 -0.3720
 2284SOL    HW218486   2.403   2.814   7.254 -1.5303  3.4524  1.3465
 2285SOL     OW18487   3.386   1.189  16.486  0.5776  0.3364  0.7909
 2285SOL    HW118488   3.348   1.222  16.405  2.5739 -0.8423 -0.6476
 2285SOL    HW218489   3.373   1.095  16.478  1.9418  0.0721  1.5575
 2286SOL     OW18490   0.114   3.176  15.311  0.1165  0.2439  0.0507
 2286SOL    HW118491   0.196   3.176  15.360 -0.4363  0.4583  0.9756
 2286SOL    HW218492   0.137   3.117  15.239  0.4218 -0.7049  0.9238
 2287SOL     OW18493   1.899   4.215   1.847  0.2342 -0.5742  0.2451
 2287SOL    HW118494   1.878   4.268   1.923  2.2826  2.1267 -1.0776
 2287SOL    HW218495   1.973   4.163   1.880  0.9380 -0.0922 -0.5568
 2288SOL     OW18496   4.191   3.034   2.703 -0.5041 -0.2559  0.2619
 2288SOL    HW118497   4.162   3.107   2.648 -1.0446 -0.8940 -0.3048
 2288SOL    HW218498   4.185   2.958   2.645  0.8208  1.9367 -2.7626
 2289SOL     OW18499   1.530   1.014   2.271 -0.0201 -0.3428 -0.1832
 2289SOL    HW118500   1.543   1.103   2.303 -0.9551 -0.8288  1.5624
 2289SOL    HW218501   1.566   1.013   2.182 -0.9750  0.1813 -0.5793
 2290SOL     OW18502   3.972   2.877   4.969 -0.3855  0.0274  0.0296
 2290SOL    HW118503   3.950   2.802   5.024 -1.3358  1.1380  1.1545
 2290SOL    HW218504   3.891   2.917   4.938  0.0536  0.7039 -0.2551
 2291SOL     OW18505   3.640   3.205  10.422 -0.2000  0.0109  0.3419
 2291SOL    HW118506   3.592   3.141  10.370  0.5145 -1.4931  1.5209
 2291SOL    HW218507   3.696   3.249  10.358  0.1863  1.6745  1.8071
 2292SOL     OW18508   1.671   0.028  14.171  0.5200 -0.3248  0.2303
 2292SOL    HW118509   1.739   0.084  14.134 -0.2677 -0.0122 -0.7348
 2292SOL    HW218510   1.631   4.733  14.091  0.9076 -2.0656  0.7913
 2293SOL     OW18511   2.040   4.112  17.083  0.1929  0.0340 -0.0399
 2293SOL    HW118512   2.002   4.031  17.117 -2.2081  1.5405  0.9117
 2293SOL    HW218513   1.991   4.123  17.001  2.4474  0.1301 -1.3753
 2294SOL     OW18514   0.316   0.014   8.733  0.1595 -0.5193  0.3540
 2294SOL    HW118515   0.255   4.711   8.792  0.6407 -1.4226  0.1982
 2294SOL    HW218516   0.255   0.075   8.691 -0.7350 -1.8694 -0.3066
 2295SOL     OW18517   2.641   2.821   7.199  0.0718  0.2387 -0.4369
 2295SOL    HW118518   2.670   2.778   7.279 -0.4818  3.2022  1.3417
 2295SOL    HW218519   2.658   2.756   7.130  0.5113  1.0134 -1.0627
 2296SOL     OW18520   3.907   4.707   3.837 -0.5180  0.1610 -0.0681
 2296SOL    HW118521   3.906   0.031   3.909  0.3382  0.7880 -0.6178
 2296SOL    HW218522   3.836   4.737   3.780  1.8049  0.0876 -2.9591
 2297SOL     OW18523   2.990   2.134   4.249 -1.0180 -0.6055 -0.3442
 2297SOL    HW118524   3.051   2.147   4.322 -0.7442  1.8190 -1.0101
 2297SOL    HW218525   2.920   2.194   4.275  1.9095  1.5250  2.6943
 2298SOL     OW18526   1.184   0.055   6.436  0.2316  0.1384 -0.2634
 2298SOL    HW118527   1.240   4.730   6.393  1.1468  1.2088 -0.6899
 2298SOL    HW218528   1.097   0.037   6.400  0.9234 -2.0442 -0.8198
 2299SOL     OW18529   3.470   3.638  10.535  0.0277  0.8266 -0.3464
 2299SOL    HW118530   3.468   3.664  10.443 -0.2162 -2.4868 -1.2843
 2299SOL    HW218531   3.493   3.545  10.544 -0.3908  0.6695 -0.8938
 2300SOL     OW18532   1.205   1.813   7.736 -0.2627  0.4627 -0.4862
 2300SOL    HW118533   1.243   1.841   7.820 -0.1966 -2.7044  0.5272
 2300SOL    HW218534   1.208   1.894   7.685  0.3618  0.1722 -0.9037
 2301SOL     OW18535   2.387   4.550   6.619  0.4472  0.1540 -0.1354
 2301SOL    HW118536   2.452   4.558   6.688  1.0874 -2.5029 -0.4313
 2301SOL    HW218537   2.310   4.585   6.663 -0.0381 -0.7371 -0.2638
 2302SOL     OW18538   4.409   0.093  11.854 -0.3608 -0.3335  0.3281
 2302SOL    HW118539   4.415   0.031  11.780  1.2205  0.1623  0.0425
 2302SOL    HW218540   4.441   0.174  11.815  1.2218 -1.0992  0.0445
 2303SOL     OW18541   1.637   1.909  16.957 -0.0997 -0.6292  0.3262
 2303SOL    HW118542   1.634   1.967  16.881 -4.2011 -0.1721  0.8764
 2303SOL    HW218543   1.549   1.918  16.992 -0.0880  5.0013 -1.1148
 2304SOL     OW18544   3.660   2.442   3.240 -0.1195  0.5367  0.4555
 2304SOL    HW118545   3.586   2.500   3.258 -0.1731  1.1042 -1.5100
 2304SOL    HW218546   3.723   2.505   3.204  0.2418  0.8116  1.5838
 2305SOL     OW18547   0.157   3.583  17.154  0.0521  0.0610  0.6387
 2305SOL    HW118548   0.159   3.669  17.196 -0.8221 -0.4492  1.7459
 2305SOL    HW218549   0.062   3.574  17.147  0.1586 -1.4452  1.0711
 2306SOL     OW18550   0.953   2.461  16.763  0.0055 -0.2286 -0.8235
 2306SOL    HW118551   0.901   2.448  16.842  2.1087 -0.0650  0.5816
 2306SOL    HW218552   0.897   2.455  16.686 -3.0227 -0.8984  1.4464
 2307SOL     OW18553   4.338   4.264  12.325  0.3429  0.8404  0.2654
 2307SOL    HW118554   4.319   4.237  12.235 -2.0552  0.7955  0.7887
 2307SOL    HW218555   4.324   4.357  12.308 -0.9166  0.2638 -1.8249
 2308SOL     OW18556   3.031   4.145   7.011  0.0558  0.7560 -0.2944
 2308SOL    HW118557   2.956   4.143   7.070  0.4506 -3.7286  0.0636
 2308SOL    HW218558   3.030   4.057   6.974  0.1136 -0.3075  2.2223
 2309SOL     OW18559   3.090   3.843   8.643  0.4832 -0.6035 -0.1572
 2309SOL    HW118560   3.040   3.766   8.670  2.5031 -1.8874 -0.0681
 2309SOL    HW218561   3.176   3.805   8.626 -0.1388 -1.8405 -0.5469
 2310SOL     OW18562   1.720   2.027   0.550  0.0929  0.1149  0.2408
 2310SOL    HW118563   1.638   1.978   0.548  0.7865 -0.9664 -1.6701
 2310SOL    HW218564   1.679   2.113   0.543 -0.9531 -0.3300  0.8779
 2311SOL     OW18565   2.580   1.314   8.741 -0.0759  0.1925  0.1348
 2311SOL    HW118566   2.660   1.367   8.744 -0.7964  1.2386  1.2486
 2311SOL    HW218567   2.536   1.345   8.820  0.6156 -1.7729  1.2821
 2312SOL     OW18568   3.007   4.688   9.013 -0.1026 -0.1912 -0.3383
 2312SOL    HW118569   2.928   4.727   8.975 -0.9970 -0.8170  0.8618
 2312SOL    HW218570   2.974   4.634   9.086  2.2526 -0.1809  0.7255
 2313SOL     OW18571   2.170   2.900   8.867 -0.3159 -0.5143  0.1703
 2313SOL    HW118572   2.174   2.944   8.782  2.0707 -1.4124 -0.1890
 2313SOL    HW218573   2.078   2.873   8.868 -0.5339  0.1426 -1.4043
 2314SOL     OW18574   4.159   0.777   4.977  0.0366  0.2275 -0.2746
 2314SOL    HW118575   4.202   0.854   5.014 -1.4326  0.3310  1.1908
 2314SOL    HW218576   4.142   0.726   5.056  1.0137 -1.6040 -1.2391
 2315SOL     OW18577   1.107   1.497   4.346 -0.6753 -0.3927 -0.4109
 2315SOL    HW118578   1.051   1.552   4.291  0.6934 -0.0413 -1.4471
 2315SOL    HW218579   1.197   1.524   4.327 -1.3935  1.0454 -1.7208
 2316SOL     OW18580   1.084   0.665  16.126 -0.2859 -0.5855 -0.0853
 2316SOL    HW118581   1.006   0.641  16.077  0.5247 -1.0268 -1.1472
 2316SOL    HW218582   1.149   0.610  16.083  1.0787  0.7817  0.1846
 2317SOL     OW18583   2.183   3.366   4.552  0.6424 -0.1151 -0.0246
 2317SOL    HW118584   2.215   3.457   4.550 -2.0264  0.7917 -0.8859
 2317SOL    HW218585   2.219   3.330   4.471  3.8201  1.8453  0.5176
 2318SOL     OW18586   4.666   2.865  16.690  0.1985 -0.0780 -0.1362
 2318SOL    HW118587   4.691   2.797  16.752 -0.0900  0.5853  0.7030
 2318SOL    HW218588   4.576   2.838  16.671  0.3546 -0.5223 -0.2466
 2319SOL     OW18589   3.964   2.732   0.981  0.0702  0.9094  0.1668
 2319SOL    HW118590   4.013   2.695   0.909 -1.2452 -2.3176  0.9123
 2319SOL    HW218591   3.882   2.748   0.935  1.7977  1.2956 -2.7279
 2320SOL     OW18592   3.179   2.519   5.190  0.6272  0.0354  0.8297
 2320SOL    HW118593   3.263   2.564   5.200  0.7822 -0.2524  0.8319
 2320SOL    HW218594   3.208   2.451   5.128  0.4136  0.2652  0.4733
 2321SOL     OW18595   2.352   3.141   0.655  0.4633 -0.3667 -0.3989
 2321SOL    HW118596   2.300   3.218   0.630 -1.6432 -0.9413  2.2709
 2321SOL    HW218597   2.294   3.068   0.633  1.0036 -0.8043 -0.3777
 2322SOL     OW18598   0.055   2.675   0.444  0.0167 -0.0565 -0.1700
 2322SOL    HW118599   0.060   2.580   0.448 -0.4134 -0.0800 -0.2192
 2322SOL    HW218600   0.129   2.694   0.502 -0.2903 -1.3057  0.6288
 2323SOL     OW18601   2.570   3.935   3.699 -0.1426 -0.1143 -0.7889
 2323SOL    HW118602   2.630   4.009   3.701  2.9548 -2.6530 -0.8148
 2323SOL    HW218603   2.498   3.964   3.756  0.5947  0.0005  0.0851
 2324SOL     OW18604   1.934   1.129   8.323  0.2741 -0.2101  0.1791
 2324SOL    HW118605   2.002   1.147   8.387  1.1892  2.2559 -1.4705
 2324SOL    HW218606   1.919   1.221   8.302  0.0870 -0.1167  0.7263
 2325SOL     OW18607   0.889   2.599  15.259  0.1507  0.6811 -0.5836
 2325SOL    HW118608   0.895   2.508  15.290 -0.7490  0.6992 -0.3524
 2325SOL    HW218609   0.974   2.599  15.215 -0.5316  1.0707 -1.9131
 2326SOL     OW18610   1.227   1.858   5.701 -0.2717  0.2864 -0.5586
 2326SOL    HW118611   1.275   1.917   5.758  0.0746 -0.5901  0.0535
 2326SOL    HW218612   1.194   1.910   5.628  1.3488 -0.3371 -1.7520
 2327SOL     OW18613   1.899   2.369   6.603 -0.2470 -0.3966  0.0096
 2327SOL    HW118614   1.820   2.334   6.645  0.9040 -1.2354  1.4719
 2327SOL    HW218615   1.966   2.306   6.631  1.1663  1.0168 -0.1648
 2328SOL     OW18616   1.257   1.850  17.606 -0.5229 -0.3691  0.2901
 2328SOL    HW118617   1.349   1.840  17.580  0.0348  0.4569  1.9303
 2328SOL    HW218618   1.236   1.757  17.610 -0.4780 -0.3508  0.9466
 2329SOL     OW18619   4.070   3.313   3.679  0.2964  0.2783 -0.5162
 2329SOL    HW118620   3.999   3.259   3.645  0.2621 -0.4386  0.6993
 2329SOL    HW218621   4.149   3.279   3.636  0.4056  0.1090 -0.1752
 2330SOL     OW18622   3.244   2.231   1.100  0.4413  0.0322 -0.7641
 2330SOL    HW118623   3.308   2.163   1.119  1.8212  1.7178  0.6315
 2330SOL    HW218624   3.204   2.206   1.017 -1.0682  0.8099 -0.2694
 2331SOL     OW18625   3.674   2.042  11.665  0.2783 -0.3348  0.1914
 2331SOL    HW118626   3.697   1.949  11.663 -1.9854 -0.8201 -3.6252
 2331SOL    HW218627   3.579   2.041  11.676  0.0245 -0.1283 -1.9878
 2332SOL     OW18628   3.451   3.364  10.237 -0.7144  0.6368  0.0206
 2332SOL    HW118629   3.470   3.356  10.144 -2.3135 -3.4145  0.0443
 2332SOL    HW218630   3.537   3.339  10.271 -1.4614 -1.9278  0.0212
 2333SOL     OW18631   3.588   3.598  10.980  0.1494 -0.2924  0.5767
 2333SOL    HW118632   3.496   3.625  10.973  0.7809  1.7604  0.4662
 2333SOL    HW218633   3.624   3.637  11.059  0.6593 -0.7969  0.5904
 2334SOL     OW18634   3.370   1.009  11.132 -0.0436  0.4048  0.2709
 2334SOL    HW118635   3.424   1.087  11.142 -3.1826  2.3896  1.4986
 2334SOL    HW218636   3.290   1.029  11.179 -0.5093 -2.3367  0.6619
 2335SOL     OW18637   3.529   0.242   1.756  0.4348  0.2414 -0.2385
 2335SOL    HW118638   3.440   0.246   1.723 -0.3240 -1.3918  1.5848
 2335SOL    HW218639   3.500   0.263   1.845 -0.1689 -1.0119 -0.1466
 2336SOL     OW18640   2.728   4.501   3.817  0.4634  0.1503 -0.5639
 2336SOL    HW118641   2.656   4.470   3.763  0.8776  0.5671 -1.3528
 2336SOL    HW218642   2.785   4.524   3.744  1.6951 -0.0432  0.3259
 2337SOL     OW18643   4.541   0.140   0.677  1.0189 -0.1837 -0.0275
 2337SOL    HW118644   4.475   0.078   0.707  0.4258 -0.0499 -1.0550
 2337SOL    HW218645   4.490   0.194   0.617  0.7166  0.2598  0.6226
 2338SOL     OW18646   4.423   2.589   3.305  0.0548 -0.3044 -0.2218
 2338SOL    HW118647   4.360   2.640   3.355  0.9590 -0.9843  1.6280
 2338SOL    HW218648   4.399   2.501   3.334 -0.4399  0.1580  0.7513
 2339SOL     OW18649   1.161   4.372   4.413  0.6572 -0.6017  0.0194
 2339SOL    HW118650   1.080   4.347   4.457  0.0073 -0.2317 -0.9762
 2339SOL    HW218651   1.226   4.332   4.472 -1.1454  0.9397  3.0070
 2340SOL     OW18652   0.979   3.939  13.592  0.2739 -0.0075  0.5170
 2340SOL    HW118653   0.951   3.901  13.509  2.4611  1.1432 -0.7707
 2340SOL    HW218654   1.073   3.943  13.574 -0.4037  0.8706 -2.8596
 2341SOL     OW18655   1.671   2.157   7.257 -0.1564 -0.1293  0.1857
 2341SOL    HW118656   1.637   2.219   7.192  0.8152 -0.2429 -0.4351
 2341SOL    HW218657   1.703   2.213   7.328 -0.8988  1.7576 -0.9703
 2342SOL     OW18658   2.415   3.677   8.144  0.4520 -0.3268  0.2769
 2342SOL    HW118659   2.385   3.658   8.233 -1.8856 -0.0645 -0.4503
 2342SOL    HW218660   2.464   3.758   8.155 -0.2459  0.1395 -0.0112
 2343SOL     OW18661   0.962   1.288   7.585  0.1069 -0.2166  0.6603
 2343SOL    HW118662   1.021   1.361   7.602  0.0591  0.0196 -0.1844
 2343SOL    HW218663   0.891   1.325   7.532  0.8897  0.2558 -0.0569
 2344SOL     OW18664   0.974   0.314  15.976 -0.3718  0.1400  0.2444
 2344SOL    HW118665   0.925   0.263  15.912 -0.9057 -0.5394  1.1985
 2344SOL    HW218666   1.040   0.246  15.989 -0.0732  0.0894 -1.4857
 2345SOL     OW18667   1.509   4.026   4.770 -0.1700  0.4298 -0.0607
 2345SOL    HW118668   1.509   4.022   4.674 -0.2098 -0.0707 -0.0382
 2345SOL    HW218669   1.465   4.110   4.783  2.9358  1.4020  3.9063
 2346SOL     OW18670   4.529   3.780   3.232 -0.2999  0.3891 -0.1631
 2346SOL    HW118671   4.443   3.781   3.275  0.0864 -0.5958  0.6466
 2346SOL    HW218672   4.574   3.843   3.288 -0.3516  0.4108 -0.1465
 2347SOL     OW18673   4.237   3.717   7.215 -0.0665 -0.1423  0.0992
 2347SOL    HW118674   4.280   3.632   7.206 -2.1455 -1.1757 -0.1564
 2347SOL    HW218675   4.298   3.749   7.281  0.2944  1.4643 -1.0294
 2348SOL     OW18676   3.602   3.613   2.912  0.0634  0.0681 -0.1893
 2348SOL    HW118677   3.639   3.605   2.824 -1.5878 -0.9213 -0.7883
 2348SOL    HW218678   3.659   3.679   2.952 -1.4576  0.6538  1.0144
 2349SOL     OW18679   1.784   2.955   2.547 -0.0914  0.1030  0.1700
 2349SOL    HW118680   1.842   2.895   2.500  0.5837  0.8501  0.0426
 2349SOL    HW218681   1.848   3.015   2.587 -2.8921  0.7366  3.6469
 2350SOL     OW18682   0.522   2.377   5.083  0.3677 -0.2373 -1.0827
 2350SOL    HW118683   0.488   2.439   5.148 -0.0294 -0.6105 -0.9383
 2350SOL    HW218684   0.515   2.292   5.126 -1.9067  1.9051  2.7444
 2351SOL     OW18685   2.808   2.730  16.702  0.4533 -0.1277 -0.3214
 2351SOL    HW118686   2.763   2.672  16.640 -1.7636  0.7782  0.4358
 2351SOL    HW218687   2.764   2.813  16.684  0.6319  0.2169  0.8606
 2352SOL     OW18688   4.370   0.586   5.218  0.0378 -0.2115  0.3418
 2352SOL    HW118689   4.416   0.661   5.255  0.4268 -0.2427 -0.0763
 2352SOL    HW218690   4.300   0.571   5.282  0.3672  1.0435  0.9820
 2353SOL     OW18691   3.816   1.499  17.368 -0.6106 -0.0937  0.3916
 2353SOL    HW118692   3.878   1.518  17.297 -0.5612 -2.0543 -0.0926
 2353SOL    HW218693   3.733   1.530  17.334 -0.3481 -2.1267 -2.1123
 2354SOL     OW18694   4.402   0.111  14.101 -0.4648  0.0491  0.1857
 2354SOL    HW118695   4.477   0.055  14.120 -0.6333 -0.3093 -0.1850
 2354SOL    HW218696   4.438   0.195  14.128  0.5261 -0.3062 -0.0156
 2355SOL     OW18697   1.377   2.751   8.224 -0.3045 -0.1438 -0.5374
 2355SOL    HW118698   1.465   2.766   8.190  1.1642 -1.8956  2.4907
 2355SOL    HW218699   1.371   2.800   8.306  4.1344  0.5416 -0.6252
 2356SOL     OW18700   2.129   3.730  11.315 -0.3252  0.3551 -0.4988
 2356SOL    HW118701   2.077   3.651  11.330  1.1311 -0.2640  1.3075
 2356SOL    HW218702   2.103   3.782  11.391 -3.0216  1.1499 -1.9547
 2357SOL     OW18703   1.821   0.342   7.873 -0.3444 -0.2808  0.2229
 2357SOL    HW118704   1.904   0.299   7.892  0.1401  0.5742  0.0524
 2357SOL    HW218705   1.768   0.262   7.871 -2.0308  0.8077  0.4479
 2358SOL     OW18706   4.398   1.062  17.310  0.5592  0.7288  0.1209
 2358SOL    HW118707   4.493   1.069  17.309  0.7314 -1.4101  0.9887
 2358SOL    HW218708   4.381   0.970  17.292  0.9698  0.3047  1.8306
 2359SOL     OW18709   4.313   1.927   5.898  0.3918  0.2977 -0.5323
 2359SOL    HW118710   4.217   1.923   5.893  0.3748 -0.6266  0.4338
 2359SOL    HW218711   4.330   1.950   5.989  2.2879 -4.1319  0.2272
 2360SOL     OW18712   2.193   3.858   1.619 -0.2645  0.2396  0.0697
 2360SOL    HW118713   2.230   3.832   1.535 -0.8962 -0.9678  0.1738
 2360SOL    HW218714   2.276   3.887   1.658  0.0388 -0.7722  0.1821
 2361SOL     OW18715   3.010   2.185   4.726 -0.0383 -0.3269  0.2526
 2361SOL    HW118716   3.007   2.096   4.760  1.5045  0.7581  3.2825
 2361SOL    HW218717   2.928   2.204   4.681  0.6174  1.6543 -0.1115
 2362SOL     OW18718   2.422   1.325  17.065 -0.1189 -1.0362 -0.0817
 2362SOL    HW118719   2.498   1.383  17.069 -1.1170  0.2790 -0.3982
 2362SOL    HW218720   2.359   1.363  17.126  1.3937  2.6426 -0.8445
 2363SOL     OW18721   0.797   4.630   4.556  0.4563 -0.6007 -0.1251
 2363SOL    HW118722   0.815   4.590   4.470  0.2955  0.0385 -0.4547
 2363SOL    HW218723   0.713   4.673   4.537  0.9458  0.8865  1.1402
 2364SOL     OW18724   3.432   2.343   4.139  0.9834 -0.0650  0.3069
 2364SOL    HW118725   3.379   2.311   4.066  1.2213 -0.8112  0.4558
 2364SOL    HW218726   3.459   2.428   4.107 -0.6746  0.4809  0.3343
 2365SOL     OW18727   2.779   4.486  14.165 -0.0269 -0.2581 -0.0184
 2365SOL    HW118728   2.858   4.436  14.183 -1.3141 -1.5239  2.1051
 2365SOL    HW218729   2.802   4.570  14.204  1.4770  0.6909 -2.9486
 2366SOL     OW18730   3.650   4.204   8.853  0.0557  0.6895  0.5984
 2366SOL    HW118731   3.627   4.113   8.838 -0.5099  1.1929 -1.6502
 2366SOL    HW218732   3.570   4.247   8.823 -1.3742 -0.1737  3.1973
 2367SOL     OW18733   3.278   0.714   1.777 -0.4345 -0.8826  0.5152
 2367SOL    HW118734   3.250   0.796   1.737  0.1729 -1.1332 -0.4409
 2367SOL    HW218735   3.281   0.750   1.865 -0.2944  1.5887 -0.4916
 2368SOL     OW18736   3.061   2.252   1.334  0.1389  0.1585  0.5922
 2368SOL    HW118737   3.105   2.265   1.250  0.1122 -0.1656  0.5253
 2368SOL    HW218738   3.114   2.179   1.367  0.3474 -0.2471 -0.6025
 2369SOL     OW18739   4.040   2.534   5.882 -1.1434  0.0167  0.3331
 2369SOL    HW118740   4.083   2.591   5.946 -1.6449 -0.4106  1.0422
 2369SOL    HW218741   4.000   2.465   5.934 -0.4387  0.2761  1.2115
 2370SOL     OW18742   1.678   2.252   2.128  0.3224 -0.2604  0.1568
 2370SOL    HW118743   1.717   2.187   2.069 -0.8430 -0.9384  0.1231
 2370SOL    HW218744   1.624   2.300   2.065  0.4871 -1.3509 -0.8063
 2371SOL     OW18745   0.931   2.242  16.479  0.0395  0.1443 -0.1271
 2371SOL    HW118746   0.912   2.198  16.396 -4.5496  1.1242  0.3988
 2371SOL    HW218747   1.027   2.250  16.478  0.1146 -0.4728  2.4275
 2372SOL     OW18748   3.457   2.209   0.553 -0.1640 -0.0698  0.2674
 2372SOL    HW118749   3.385   2.147   0.541 -1.6221  1.4692  1.1183
 2372SOL    HW218750   3.506   2.160   0.619  0.3831  1.3567  0.9183
 2373SOL     OW18751   2.439   2.391  14.994 -0.0551 -0.0192 -0.2597
 2373SOL    HW118752   2.422   2.453  14.923  1.1319  0.2444 -0.3229
 2373SOL    HW218753   2.520   2.352  14.960 -0.4148  0.2341 -1.4067
 2374SOL     OW18754   0.135   0.054  10.608  0.1090 -0.0793 -0.1188
 2374SOL    HW118755   0.145   4.701  10.632  4.7152  0.2882 -0.5102
 2374SOL    HW218756   0.222   0.060  10.568  0.5419 -2.4154  0.4246
 2375SOL     OW18757   3.986   2.860   4.210  0.1526 -0.2360  0.1021
 2375SOL    HW118758   3.980   2.868   4.114 -0.5781 -1.7536  0.0152
 2375SOL    HW218759   4.080   2.842   4.216  0.2318  0.6657  1.4925
 2376SOL     OW18760   0.967   1.734   2.854 -0.2227 -0.1134 -0.9155
 2376SOL    HW118761   0.997   1.645   2.868 -2.8987 -1.0868 -1.2524
 2376SOL    HW218762   0.964   1.734   2.758  0.2763 -0.4965 -0.9270
 2377SOL     OW18763   0.893   4.735   6.507 -0.0852 -0.1395  0.5509
 2377SOL    HW118764   0.834   4.702   6.574  0.2608 -3.3309 -0.6805
 2377SOL    HW218765   0.843   0.068   6.471  1.7257  2.3770  3.1434
 2378SOL     OW18766   0.501   1.784   9.335  0.6487  0.2818 -0.3266
 2378SOL    HW118767   0.429   1.723   9.320 -0.4914  1.5531  0.0031
 2378SOL    HW218768   0.560   1.738   9.394  0.9204  2.0511  0.7705
 2379SOL     OW18769   4.031   1.932   5.551 -0.8915  0.1195 -0.5020
 2379SOL    HW118770   3.983   1.992   5.608  0.0930  1.8614 -1.4967
 2379SOL    HW218771   4.121   1.964   5.549 -1.3179  1.3238 -0.0890
 2380SOL     OW18772   0.902   1.635   2.304 -0.0817  0.1927 -0.1402
 2380SOL    HW118773   0.947   1.553   2.282  1.0598  0.2554  1.9373
 2380SOL    HW218774   0.813   1.602   2.315 -0.5749  1.7634  0.5173
 2381SOL     OW18775   0.476   4.335   5.659 -0.5420 -0.2074  0.2558
 2381SOL    HW118776   0.406   4.270   5.650  0.2936 -1.0268 -0.3962
 2381SOL    HW218777   0.554   4.281   5.643 -1.0468 -1.2389  1.3202
 2382SOL     OW18778   1.419   3.021   0.170 -0.8863  0.0633  0.5217
 2382SOL    HW118779   1.370   2.947   0.134 -1.0109 -0.5315  1.8774
 2382SOL    HW218780   1.356   3.090   0.189 -1.3825 -0.2781  0.1020
 2383SOL     OW18781   0.070   0.695   6.294  0.2420 -0.0634  0.7029
 2383SOL    HW118782   0.097   0.769   6.348  0.4147 -1.0463  1.9436
 2383SOL    HW218783   0.131   0.678   6.222  1.4013 -0.5812  1.8188
 2384SOL     OW18784   2.815   4.059   9.496  0.5562 -0.5344 -0.1735
 2384SOL    HW118785   2.894   4.024   9.538  1.6388  0.8816 -1.0274
 2384SOL    HW218786   2.829   4.148   9.528 -1.1291  0.4295 -2.1979
 2385SOL     OW18787   2.962   4.423   3.092 -0.8981 -1.0230  0.1292
 2385SOL    HW118788   3.047   4.421   3.136  0.0410 -0.8538 -1.7148
 2385SOL    HW218789   2.936   4.332   3.108 -1.9788 -0.5755  0.9536
 2386SOL     OW18790   3.645   0.106   2.295 -0.3124  0.0094 -0.3063
 2386SOL    HW118791   3.690   0.146   2.220  1.1919 -0.7318  0.1886
 2386SOL    HW218792   3.652   0.160   2.373 -0.2445 -3.0737  1.7976
 2387SOL     OW18793   0.459   3.394   3.777  0.8997  0.0825  0.0272
 2387SOL    HW118794   0.383   3.360   3.825  0.4564  0.2466 -0.5607
 2387SOL    HW218795   0.485   3.315   3.730 -1.8593  0.2859 -1.8517
 2388SOL     OW18796   1.326   0.709   3.603 -0.3237  0.1568 -0.1665
 2388SOL    HW118797   1.326   0.616   3.629 -0.9126  0.6857  1.7669
 2388SOL    HW218798   1.391   0.705   3.534 -0.9788  0.9983 -0.8331
 2389SOL     OW18799   0.806   3.700  14.596 -0.8362 -0.3435 -0.0860
 2389SOL    HW118800   0.814   3.623  14.539  2.7956  0.1539 -0.2528
 2389SOL    HW218801   0.740   3.751  14.549  1.4717  0.3601 -2.5317
 2390SOL     OW18802   1.871   2.132   2.605 -0.2385  0.5065  0.2690
 2390SOL    HW118803   1.806   2.111   2.538 -1.7015  1.2384  1.4422
 2390SOL    HW218804   1.847   2.224   2.618 -1.9001  0.4173 -2.1501
 2391SOL     OW18805   4.530   3.098   3.418  0.0208 -0.3518 -0.6319
 2391SOL    HW118806   4.529   3.025   3.357  3.4175 -0.2052 -0.8634
 2391SOL    HW218807   4.515   3.046   3.497  2.2934 -0.3036 -0.1566
 2392SOL     OW18808   4.092   3.194   7.109  0.2019 -0.6846  0.0910
 2392SOL    HW118809   4.179   3.214   7.144  0.8771  0.5964 -2.3216
 2392SOL    HW218810   4.032   3.248   7.160 -0.0131 -0.3828 -0.4784
 2393SOL     OW18811   0.924   3.701   3.164 -0.1282  0.0378  0.3025
 2393SOL    HW118812   0.946   3.794   3.172  0.2125 -0.0512  0.3933
 2393SOL    HW218813   0.838   3.714   3.124  0.4832 -1.2203 -1.3697
 2394SOL     OW18814   3.192   2.920   5.364  0.7252 -0.1057 -0.0609
 2394SOL    HW118815   3.232   2.938   5.448  0.4868 -0.7488  0.1895
 2394SOL    HW218816   3.182   3.002   5.314  0.0895 -0.8549 -1.1839
 2395SOL     OW18817   2.070   4.362   7.633  0.2665 -0.0834 -0.1095
 2395SOL    HW118818   2.083   4.271   7.659 -0.8890 -0.2572 -0.1526
 2395SOL    HW218819   2.007   4.341   7.565  0.0055  1.3731 -0.3222
 2396SOL     OW18820   2.642   0.969   2.766  0.3161 -0.2244  0.4826
 2396SOL    HW118821   2.611   0.969   2.676  1.1258 -1.2399  0.2069
 2396SOL    HW218822   2.623   1.058   2.796  2.2805  0.8724 -1.5617
 2397SOL     OW18823   0.346   2.208  10.180  0.0661 -0.5950 -0.5289
 2397SOL    HW118824   0.437   2.191  10.205 -0.4993  0.7848  2.3859
 2397SOL    HW218825   0.352   2.301  10.158  0.7547 -0.7421 -0.9753
 2398SOL     OW18826   1.178   0.279   1.864  0.3592 -0.2543 -0.3211
 2398SOL    HW118827   1.118   0.204   1.860 -0.8939  0.7351  0.1984
 2398SOL    HW218828   1.169   0.309   1.954  1.3513  1.2226 -0.7127
 2399SOL     OW18829   2.484   0.979  12.002  0.1949  0.9576 -0.1834
 2399SOL    HW118830   2.493   0.889  11.973 -0.1055  1.2075 -1.0378
 2399SOL    HW218831   2.489   0.978  12.098 -1.1312  0.5659 -0.1217
 2400SOL     OW18832   4.542   1.873   6.511  0.0937 -0.1686 -0.6961
 2400SOL    HW118833   4.471   1.897   6.450  0.5425  1.3630 -0.6290
 2400SOL    HW218834   4.500   1.828   6.584 -0.5706 -2.6557 -2.6298
 2401SOL     OW18835   2.341   3.192   8.686  0.0590 -0.1300  0.2060
 2401SOL    HW118836   2.281   3.118   8.685  1.4717 -1.2970  2.8380
 2401SOL    HW218837   2.423   3.144   8.694  0.0022 -0.1169  0.8484
 2402SOL     OW18838   2.254   2.210   7.992 -0.1089  0.3007  0.6236
 2402SOL    HW118839   2.295   2.275   7.934 -0.0946  0.5774  0.9401
 2402SOL    HW218840   2.299   2.132   7.961  1.2363  1.5983 -0.7227
 2403SOL     OW18841   3.414   0.805   6.260 -0.4439  0.2506 -0.1813
 2403SOL    HW118842   3.461   0.882   6.227 -2.8358  1.4621 -0.7269
 2403SOL    HW218843   3.435   0.806   6.353  0.6672 -0.0996 -0.4304
 2404SOL     OW18844   1.914   2.043   3.920 -0.7233  0.8320 -0.2327
 2404SOL    HW118845   1.910   1.951   3.947 -1.3363  1.4022  1.6506
 2404SOL    HW218846   1.995   2.046   3.868  0.4702 -1.8872  1.4351
 2405SOL     OW18847   1.873   0.882   9.362 -0.0682  0.5110 -0.9466
 2405SOL    HW118848   1.941   0.938   9.399 -0.4778  1.1721 -1.2137
 2405SOL    HW218849   1.914   0.796   9.348 -0.2352 -0.0354  1.8303
 2406SOL     OW18850   3.138   0.565   7.343  0.0265  0.3928 -0.0145
 2406SOL    HW118851   3.120   0.490   7.399 -2.2303 -0.0820 -1.4006
 2406SOL    HW218852   3.128   0.534   7.253 -2.6656  0.5937  0.2263
 2407SOL     OW18853   4.117   4.301   8.879 -0.6962  0.7263 -0.0176
 2407SOL    HW118854   4.105   4.230   8.943  2.3873 -0.8975 -1.2015
 2407SOL    HW218855   4.046   4.277   8.819 -0.4367  0.4904 -0.2353
 2408SOL     OW18856   3.237   1.127   9.648 -0.4513 -0.3254 -0.3795
 2408SOL    HW118857   3.149   1.165   9.642 -0.1926  0.1734 -1.0858
 2408SOL    HW218858   3.282   1.186   9.588 -0.1047  0.5618  0.7656
 2409SOL     OW18859   4.512   2.042   4.399  0.1943  0.2858  0.6494
 2409SOL    HW118860   4.427   2.048   4.443 -0.1639 -0.5000  0.0676
 2409SOL    HW218861   4.577   2.043   4.469 -1.0269  0.7327  1.7944
 2410SOL     OW18862   4.119   0.104   7.624 -0.0585 -0.4805 -0.2903
 2410SOL    HW118863   4.148   0.176   7.680  2.6259 -2.1194  0.4238
 2410SOL    HW218864   4.120   0.032   7.687  0.6117 -0.8256 -0.6885
 2411SOL     OW18865   0.597   4.174   1.352 -0.0464  0.8607 -0.2167
 2411SOL    HW118866   0.592   4.213   1.440 -1.3419  1.0898 -0.3967
 2411SOL    HW218867   0.509   4.138   1.352 -0.2746  1.4129 -1.6615
 2412SOL     OW18868   2.601   1.893   8.860  0.2160 -0.3011  0.1823
 2412SOL    HW118869   2.694   1.870   8.867 -0.2394 -1.8602  1.0972
 2412SOL    HW218870   2.580   1.953   8.931 -0.8394 -1.0872  0.5327
 2413SOL     OW18871   3.785   2.538   2.621  0.3246 -0.1010  0.6968
 2413SOL    HW118872   3.857   2.565   2.678  0.3821 -0.8820  0.9923
 2413SOL    HW218873   3.781   2.618   2.568 -1.4409 -0.6593 -0.0251
 2414SOL     OW18874   2.662   2.309   2.448 -0.1337 -0.1323  0.0316
 2414SOL    HW118875   2.700   2.346   2.528 -1.4941 -1.5282  1.3097
 2414SOL    HW218876   2.596   2.244   2.472 -0.6833  0.3430 -0.1823
 2415SOL     OW18877   3.253   0.020   5.392  0.0300 -0.2476 -0.3695
 2415SOL    HW118878   3.340   0.013   5.432  0.2445 -1.1428 -0.9943
 2415SOL    HW218879   3.220   4.672   5.410 -0.3567  0.7627  3.9386
 2416SOL     OW18880   2.649   2.784   9.186 -0.5595  0.0583 -0.2804
 2416SOL    HW118881   2.609   2.864   9.220 -2.3223 -1.7778  1.9341
 2416SOL    HW218882   2.736   2.818   9.162  0.2069 -2.3628 -0.8880
 2417SOL     OW18883   4.640   3.001   4.681  0.1273  0.0690  0.2714
 2417SOL    HW118884   4.584   2.955   4.743  0.0435 -1.3206 -0.8534
 2417SOL    HW218885   4.725   2.986   4.721 -0.3569  0.8552  1.6298
 2418SOL     OW18886   3.534   4.535  17.251 -0.1609  0.2522  0.3216
 2418SOL    HW118887   3.464   4.600  17.258  1.1480  1.7975 -0.7027
 2418SOL    HW218888   3.603   4.571  17.306 -1.2462 -0.0546  1.8649
 2419SOL     OW18889   3.726   3.471   1.964  0.3177 -0.0919  0.2888
 2419SOL    HW118890   3.676   3.543   2.002  0.5757  0.7510 -0.9698
 2419SOL    HW218891   3.766   3.515   1.889 -0.8392  0.8698  0.2455
 2420SOL     OW18892   2.940   0.754   4.177 -0.3339 -0.5586  0.3194
 2420SOL    HW118893   2.882   0.830   4.174 -0.9879 -1.0060  1.4758
 2420SOL    HW218894   3.024   0.791   4.152 -1.0517  2.1549  1.9493
 2421SOL     OW18895   3.371   1.360   2.317 -0.3334 -0.9855 -0.0043
 2421SOL    HW118896   3.354   1.389   2.407  2.7398  0.8057  0.0118
 2421SOL    HW218897   3.467   1.365   2.320 -0.3884  0.1245 -0.1698
 2422SOL     OW18898   4.690   3.133   1.061  0.3858 -0.4150 -0.2178
 2422SOL    HW118899   4.714   3.189   1.135 -0.3524 -2.6250  1.7131
 2422SOL    HW218900   4.627   3.074   1.102 -0.0961  0.1843 -0.0950
 2423SOL     OW18901   2.244   0.532   1.904 -0.7257 -0.2247  0.3888
 2423SOL    HW118902   2.329   0.506   1.940  0.0349 -1.0998 -2.0743
 2423SOL    HW218903   2.242   0.497   1.815 -0.0451  1.6847 -0.3680
 2424SOL     OW18904   3.203   0.055   5.716  0.4106  0.0414  0.1967
 2424SOL    HW118905   3.268   0.012   5.660  0.8299 -0.0385  0.7479
 2424SOL    HW218906   3.230   0.147   5.713 -1.3555  0.5691  0.2910
 2425SOL     OW18907   2.037   3.174   7.562  0.5486  0.3208 -0.1286
 2425SOL    HW118908   1.958   3.142   7.520 -0.1963  0.0002  1.5314
 2425SOL    HW218909   1.998   3.243   7.616 -2.2032 -1.0033 -0.4392
 2426SOL     OW18910   4.383   2.621  13.323  0.5868 -0.8886  0.1985
 2426SOL    HW118911   4.350   2.711  13.318 -2.7920 -2.1660 -0.8054
 2426SOL    HW218912   4.353   2.599  13.411  1.1769 -0.8560  0.4080
 2427SOL     OW18913   2.390   1.596  10.278 -0.2507 -0.3800  0.0538
 2427SOL    HW118914   2.466   1.564  10.327  0.0465 -3.9915 -2.7645
 2427SOL    HW218915   2.434   1.661  10.222 -0.5388  0.5167  0.8677
 2428SOL     OW18916   3.581   1.085   3.888 -0.2639 -0.0781 -0.6578
 2428SOL    HW118917   3.559   0.992   3.878  0.4129 -0.1128 -1.8895
 2428SOL    HW218918   3.503   1.124   3.848  0.3502  1.8541  0.0444
 2429SOL     OW18919   1.019   0.918   7.627 -0.0189  0.3203 -0.1111
 2429SOL    HW118920   1.080   0.882   7.691 -0.5196 -0.8213 -0.2683
 2429SOL    HW218921   0.999   1.004   7.663  0.6652 -0.2948  1.7688
 2430SOL     OW18922   1.293   3.105   5.651  0.2853  0.2790 -0.0819
 2430SOL    HW118923   1.303   3.108   5.747 -1.5608 -0.0845  0.1168
 2430SOL    HW218924   1.205   3.140   5.639 -0.2149 -1.3751 -1.2137
 2431SOL     OW18925   3.960   1.835   0.994  0.2473 -0.2521  0.2227
 2431SOL    HW118926   3.899   1.765   0.970  1.4076 -1.5036  0.9642
 2431SOL    HW218927   4.000   1.800   1.073  4.4554  0.5171 -1.6039
 2432SOL     OW18928   3.467   2.800   5.294  0.2671 -0.3933 -0.1499
 2432SOL    HW118929   3.542   2.854   5.316  1.1938 -1.9436  0.4755
 2432SOL    HW218930   3.394   2.862   5.285 -1.0207 -1.4321  3.5403
 2433SOL     OW18931   1.778   1.447  17.633  0.8326 -0.0813 -0.0099
 2433SOL    HW118932   1.841   1.382  17.600 -0.3791 -1.2293 -0.0675
 2433SOL    HW218933   1.780   1.424  17.726 -0.2054 -1.1058 -0.2435
 2434SOL     OW18934   4.405   1.921  16.418 -0.1603  0.0580 -0.2209
 2434SOL    HW118935   4.442   1.843  16.460  4.8215  1.3583 -2.2737
 2434SOL    HW218936   4.415   1.979  16.493 -1.6554  0.1190 -0.0647
 2435SOL     OW18937   3.067   4.327   8.689  0.2883 -0.1309 -0.4577
 2435SOL    HW118938   3.121   4.387   8.637 -0.6924  1.6885  0.5834
 2435SOL    HW218939   2.979   4.339   8.653 -0.2324  0.4007  0.9576
 2436SOL     OW18940   0.746   0.136  13.528 -0.1845  0.4005 -0.4079
 2436SOL    HW118941   0.726   0.136  13.622 -1.6252  0.4202 -0.7125
 2436SOL    HW218942   0.820   0.076  13.537  0.6194  1.5714  0.8214
 2437SOL     OW18943   2.800   3.196   3.501 -0.0253 -0.3603 -0.1323
 2437SOL    HW118944   2.784   3.200   3.595  0.4279 -1.3206 -0.0150
 2437SOL    HW218945   2.856   3.118   3.504 -0.3820 -0.6183 -0.2167
 2438SOL     OW18946   4.190   1.756   7.120 -0.9025 -0.1429  0.3233
 2438SOL    HW118947   4.144   1.756   7.204  0.6830  2.5529  1.2305
 2438SOL    HW218948   4.280   1.755   7.155 -1.0131 -2.9545  0.5180
 2439SOL     OW18949   1.293   3.444  15.997 -0.1974  0.3081 -0.0555
 2439SOL    HW118950   1.306   3.518  15.937  0.1930  1.8340  1.8925
 2439SOL    HW218951   1.220   3.397  15.957 -0.2211  0.4524 -0.1857
 2440SOL     OW18952   1.636   4.639   7.348  0.3892 -0.2107 -0.1212
 2440SOL    HW118953   1.715   4.688   7.324  0.0322 -0.0738 -0.9809
 2440SOL    HW218954   1.674   4.553   7.364 -0.3096 -0.3147  0.9870
 2441SOL     OW18955   4.282   2.068   5.587 -0.5798  0.3863 -0.0805
 2441SOL    HW118956   4.352   2.097   5.646  1.2962 -1.2346 -1.4705
 2441SOL    HW218957   4.331   2.006   5.532 -2.9229 -1.7777  0.3197
 2442SOL     OW18958   0.788   3.550   7.885 -0.4616 -0.2134 -0.0560
 2442SOL    HW118959   0.839   3.469   7.892 -0.1671 -0.0394 -0.1964
 2442SOL    HW218960   0.821   3.603   7.957 -0.1755  0.4662 -0.6873
 2443SOL     OW18961   1.931   3.955  11.810  0.4263  0.2389  0.4577
 2443SOL    HW118962   1.840   3.925  11.810  1.4386 -2.8825  0.7979
 2443SOL    HW218963   1.912   4.034  11.860 -0.0086 -0.7760  1.8856
 2444SOL     OW18964   4.306   3.504  14.473 -0.6535  0.3884 -0.0006
 2444SOL    HW118965   4.245   3.511  14.400 -0.3347  1.4847 -0.1620
 2444SOL    HW218966   4.248   3.500  14.550  0.5418 -1.0025  0.8405
 2445SOL     OW18967   3.089   3.556   2.035 -0.1882 -0.0565  0.0414
 2445SOL    HW118968   3.112   3.509   2.115 -0.8719 -0.6502 -0.1096
 2445SOL    HW218969   3.099   3.481   1.976 -1.9233 -0.1986 -0.0879
 2446SOL     OW18970   0.201   0.418   6.347 -0.1978  0.1279  0.1059
 2446SOL    HW118971   0.168   0.507   6.337 -0.3246  0.1626  0.8327
 2446SOL    HW218972   0.296   0.430   6.356 -0.0099 -0.3381 -1.2278
 2447SOL     OW18973   1.927   2.496   3.373 -0.3803 -0.3001  0.2602
 2447SOL    HW118974   1.974   2.535   3.447 -1.5196  2.5896 -0.5168
 2447SOL    HW218975   2.000   2.451   3.330  0.1258  0.4797  0.2944
 2448SOL     OW18976   1.299   2.082   0.674  0.2687 -0.0735 -0.0519
 2448SOL    HW118977   1.391   2.102   0.659  0.2186  0.8134  0.7886
 2448SOL    HW218978   1.276   2.172   0.652 -1.8552 -0.3772  0.9324
 2449SOL     OW18979   4.106   4.390   4.125  0.0945 -0.2130  0.5370
 2449SOL    HW118980   4.141   4.302   4.107 -1.5713 -0.9258  0.7752
 2449SOL    HW218981   4.068   4.385   4.212 -0.9517 -0.2169  0.0784
 2450SOL     OW18982   0.611   1.728   7.041 -0.1515 -0.2456  0.1473
 2450SOL    HW118983   0.660   1.810   7.041  1.9125 -1.4737 -0.0330
 2450SOL    HW218984   0.527   1.758   7.006  0.2759  2.1032  1.0930
 2451SOL     OW18985   4.036   1.082   1.125 -0.0498  0.2782  0.1415
 2451SOL    HW118986   4.025   1.126   1.041 -2.6046 -0.7173 -0.0385
 2451SOL    HW218987   4.058   1.151   1.187  0.9775  0.2238 -0.1555
 2452SOL     OW18988   1.876   3.494   4.248  0.0187 -0.7532  0.1159
 2452SOL    HW118989   1.887   3.568   4.308 -0.1685  0.5031 -1.4013
 2452SOL    HW218990   1.811   3.442   4.294  1.8084 -2.8334  0.2615
 2453SOL     OW18991   3.772   4.284   6.665 -0.1280 -0.4082 -0.2202
 2453SOL    HW118992   3.783   4.355   6.728 -0.0726 -0.2469 -0.4156
 2453SOL    HW218993   3.754   4.208   6.722 -0.9280 -1.4960 -1.9301
 2454SOL     OW18994   3.936   3.096   2.601 -0.0807  0.1612 -0.4462
 2454SOL    HW118995   3.849   3.131   2.582  0.9645  2.1182 -1.6297
 2454SOL    HW218996   3.938   3.053   2.516 -1.3387 -0.9668  0.0887
 2455SOL     OW18997   2.400   2.755   1.077  0.2860  0.7260  0.2888
 2455SOL    HW118998   2.483   2.804   1.069  0.5310  0.3166  0.3491
 2455SOL    HW218999   2.364   2.812   1.145 -0.7315 -0.4472  0.7091
 2456SOL     OW19000   3.183   4.027   5.542  0.4816 -0.1863 -0.2090
 2456SOL    HW119001   3.270   4.035   5.580  0.0009  2.4862  0.3358
 2456SOL    HW219002   3.123   4.022   5.617 -1.0351 -0.5347 -1.4406
 2457SOL     OW19003   0.262   4.170   7.305  0.5921 -0.1247 -0.6174
 2457SOL    HW119004   0.356   4.151   7.299  0.4263 -1.7867  1.8825
 2457SOL    HW219005   0.246   4.114   7.382 -0.8940 -1.0871 -1.6244
 2458SOL     OW19006   2.574   3.773  11.988  0.2828 -0.1389  0.6444
 2458SOL    HW119007   2.630   3.800  11.915 -2.1542  0.0167 -1.1462
 2458SOL    HW219008   2.529   3.698  11.951 -0.0622  0.1873  0.4016
 2459SOL     OW19009   0.561   1.091   5.291 -0.1919  0.2163 -0.0437
 2459SOL    HW119010   0.516   1.012   5.320 -0.9426  1.5276  2.3888
 2459SOL    HW219011   0.647   1.061   5.262 -0.3177  0.7289 -0.9453
 2460SOL     OW19012   4.446   1.376   3.074  0.4101  0.9093 -0.4187
 2460SOL    HW119013   4.352   1.395   3.075  0.1542 -0.4062  0.5257
 2460SOL    HW219014   4.447   1.281   3.060  0.1265  1.3647 -3.5425
 2461SOL     OW19015   1.791   3.828   4.828  0.1224 -0.3695 -0.0440
 2461SOL    HW119016   1.762   3.887   4.898  2.4007  0.0461  0.5721
 2461SOL    HW219017   1.746   3.747   4.853 -0.3238 -0.3748 -0.8685
 2462SOL     OW19018   1.933   2.208  10.764 -0.0566  0.2291 -0.0941
 2462SOL    HW119019   1.917   2.204  10.859  0.8875  1.0503  0.0960
 2462SOL    HW219020   1.973   2.292  10.744 -1.2939  0.6950 -0.6456
 2463SOL     OW19021   2.883   3.264   5.007 -0.3558 -0.2815 -0.1050
 2463SOL    HW119022   2.943   3.190   5.005 -1.1076 -0.8691 -1.3122
 2463SOL    HW219023   2.926   3.333   5.057 -3.0471  1.0744  0.3677
 2464SOL     OW19024   0.473   1.584  17.221 -0.0256 -0.3145  0.8449
 2464SOL    HW119025   0.462   1.679  17.229 -3.0057 -0.4561 -1.5989
 2464SOL    HW219026   0.562   1.584  17.185 -0.5784  1.0993 -0.5171
 2465SOL     OW19027   1.985   4.524   8.174 -0.2875 -0.0215 -1.0651
 2465SOL    HW119028   1.939   4.564   8.101 -1.5996  0.5823  0.0867
 2465SOL    HW219029   2.025   4.597   8.222 -2.1066  1.4770 -1.8105
 2466SOL     OW19030   1.530   1.753   2.897  0.3705 -0.0906 -0.3362
 2466SOL    HW119031   1.518   1.708   2.813 -1.1671 -1.4668  0.6281
 2466SOL    HW219032   1.500   1.693   2.965 -2.2400 -1.4131 -2.6567
 2467SOL     OW19033   3.236   2.943   6.963 -0.5144 -0.7732  0.1558
 2467SOL    HW119034   3.191   2.935   6.879 -1.1079 -0.3843  0.4409
 2467SOL    HW219035   3.198   3.021   7.001  1.5802  0.0796  0.4862
 2468SOL     OW19036   1.087   0.597   0.239 -0.2055 -0.6798 -0.0622
 2468SOL    HW119037   1.102   0.608   0.333 -1.0449  0.5486 -0.0673
 2468SOL    HW219038   0.995   0.624   0.237 -0.0336  0.2563  3.2689
 2469SOL     OW19039   1.984   1.572  11.009 -0.5711 -0.9526  0.0236
 2469SOL    HW119040   1.899   1.529  10.993  0.5769 -3.4391  0.5897
 2469SOL    HW219041   2.034   1.559  10.929 -2.9859 -1.7455 -1.3431
 2470SOL     OW19042   0.023   0.667   1.653 -0.9824 -0.0381  0.5426
 2470SOL    HW119043   4.696   0.730   1.627 -0.3654  0.7178  0.7792
 2470SOL    HW219044   0.023   0.617   1.572 -0.0704  0.4945  0.2103
 2471SOL     OW19045   0.802   4.236  12.863  0.2602  0.5720  0.0060
 2471SOL    HW119046   0.765   4.292  12.794 -2.4865 -0.9737  0.2060
 2471SOL    HW219047   0.726   4.211  12.916  1.6305 -0.1320  1.6178
 2472SOL     OW19048   0.730   0.857   3.929 -0.2155 -0.2336  0.0818
 2472SOL    HW119049   0.701   0.771   3.960  0.3730  0.1727  1.7169
 2472SOL    HW219050   0.656   0.875   3.872 -1.1393 -1.5069  0.8751
 2473SOL     OW19051   4.263   4.272   4.952  0.6080  0.1543  0.2842
 2473SOL    HW119052   4.299   4.185   4.965 -2.2588 -1.1065 -0.3060
 2473SOL    HW219053   4.351   4.310   4.951  0.5936  0.0812 -2.8941
 2474SOL     OW19054   3.875   1.369  15.231 -0.0606 -0.2413 -0.4004
 2474SOL    HW119055   3.938   1.358  15.159  2.4683 -0.7047  1.8843
 2474SOL    HW219056   3.933   1.399  15.301 -0.8603  0.7063 -0.1510
 2475SOL     OW19057   3.788   1.677   0.863 -0.0337 -0.4785 -0.5050
 2475SOL    HW119058   3.726   1.680   0.935 -2.3330 -0.1669 -2.4872
 2475SOL    HW219059   3.778   1.585   0.837  1.3280 -0.5137 -0.8955
 2476SOL     OW19060   1.778   1.500   2.320  0.1566  0.0052 -0.1848
 2476SOL    HW119061   1.727   1.578   2.341  1.2499  1.0069 -1.2839
 2476SOL    HW219062   1.864   1.542   2.321  0.5933 -0.8527 -2.2041
 2477SOL     OW19063   3.406   4.474   3.159 -0.2445  0.1851 -0.6362
 2477SOL    HW119064   3.345   4.545   3.179 -0.5980  0.0032 -1.0511
 2477SOL    HW219065   3.345   4.403   3.138 -0.8332  0.4565  0.1665
 2478SOL     OW19066   2.138   3.589   1.607 -0.2792 -0.0748 -0.1465
 2478SOL    HW119067   2.116   3.682   1.609 -2.6754 -0.6347 -0.4218
 2478SOL    HW219068   2.233   3.591   1.602 -0.1810 -0.3001  1.5839
 2479SOL     OW19069   1.826   4.642  15.630  0.0682  0.2004 -0.2252
 2479SOL    HW119070   1.906   4.694  15.635 -0.7218  1.5043 -1.1732
 2479SOL    HW219071   1.821   4.621  15.537  0.6521  0.2828 -0.2720
 2480SOL     OW19072   4.280   4.646   5.675 -0.2221 -0.5734  0.3858
 2480SOL    HW119073   4.317   4.718   5.726 -0.8822 -0.6378  0.9501
 2480SOL    HW219074   4.203   4.615   5.723 -0.6816  0.1632  0.1174
 2481SOL     OW19075   1.614   0.241  15.624  0.0016  0.1390  0.5023
 2481SOL    HW119076   1.543   0.187  15.589 -0.7623  0.5923  1.3195
 2481SOL    HW219077   1.628   0.316  15.567  2.4904 -1.4550 -0.9470
 2482SOL     OW19078   0.756   3.767   4.899 -0.4732  0.0561  0.3765
 2482SOL    HW119079   0.731   3.752   4.990 -1.0424  0.1277  0.2334
 2482SOL    HW219080   0.689   3.711   4.859  0.0968  1.0977 -2.0041
 2483SOL     OW19081   0.950   2.705   4.380 -0.5771 -0.0901  0.3995
 2483SOL    HW119082   0.924   2.768   4.313  1.4242 -1.2114 -1.4509
 2483SOL    HW219083   1.041   2.734   4.376  0.2511 -2.8183 -0.5306
 2484SOL     OW19084   1.331   0.399  17.153 -0.7293 -0.2268  0.1593
 2484SOL    HW119085   1.296   0.414  17.066 -2.4101 -0.6822  0.7629
 2484SOL    HW219086   1.302   0.311  17.177  0.8940 -0.9275 -0.4353
 2485SOL     OW19087   1.692   4.527   2.616  0.1086  0.0707 -0.1843
 2485SOL    HW119088   1.740   4.512   2.535  0.4413 -1.2055  0.2508
 2485SOL    HW219089   1.603   4.517   2.582  0.1142 -0.2067 -0.1197
 2486SOL     OW19090   2.645   2.530   5.010  0.1399  0.1288  0.5091
 2486SOL    HW119091   2.662   2.519   5.104  1.5311  0.1208  0.2692
 2486SOL    HW219092   2.736   2.512   4.984 -0.2706 -0.2512 -0.6415
 2487SOL     OW19093   0.629   4.095   9.084  0.4095 -0.4549  0.2432
 2487SOL    HW119094   0.558   4.100   9.147  0.9074  0.8754  0.6930
 2487SOL    HW219095   0.593   4.046   9.010 -0.4322 -0.6471  0.7902
 2488SOL     OW19096   2.919   2.692   7.353  0.3007  0.3935  0.2359
 2488SOL    HW119097   2.987   2.626   7.364  1.6742  1.4965 -1.5771
 2488SOL    HW219098   2.976   2.765   7.379  1.6750 -1.1761  1.5976
 2489SOL     OW19099   0.875   0.568  16.019  0.5599 -0.0035  0.0768
 2489SOL    HW119100   0.824   0.590  15.941 -1.9136  0.8975  1.9879
 2489SOL    HW219101   0.897   0.484  15.977 -2.4369 -0.2639 -0.9337
 2490SOL     OW19102   0.794   1.137   4.322 -0.4107 -0.5404 -0.0403
 2490SOL    HW119103   0.810   1.093   4.406 -0.1429 -0.5609 -0.1010
 2490SOL    HW219104   0.885   1.148   4.294  0.0212 -0.2079  1.4680
 2491SOL     OW19105   3.583   1.756   8.094 -0.1842  0.3490 -0.8023
 2491SOL    HW119106   3.522   1.706   8.149 -0.8433  0.8491 -1.0738
 2491SOL    HW219107   3.639   1.802   8.157  0.5047  2.0722 -2.6729
 2492SOL     OW19108   2.737   4.199   3.529 -0.0552  0.3555  0.5625
 2492SOL    HW119109   2.657   4.238   3.564 -1.7314 -1.8159 -0.8652
 2492SOL    HW219110   2.705   4.174   3.442  1.1148 -0.8618  0.4938
 2493SOL     OW19111   3.286   1.520   4.772 -0.3865 -0.0768 -0.2714
 2493SOL    HW119112   3.215   1.542   4.712 -2.1023  1.8748  2.4741
 2493SOL    HW219113   3.324   1.449   4.720 -0.6905 -0.6094  0.2329
 2494SOL     OW19114   4.730   3.831   8.606 -0.4813 -0.3019  0.4111
 2494SOL    HW119115   0.065   3.878   8.569  0.8427 -1.7134  1.2507
 2494SOL    HW219116   4.726   3.756   8.547 -0.0849  0.0182 -0.0217
 2495SOL     OW19117   2.529   0.978  10.964  0.1034  0.0490  0.1758
 2495SOL    HW119118   2.509   1.070  10.947  1.4385  0.2546 -0.3457
 2495SOL    HW219119   2.486   0.955  11.046 -2.0247  1.6157 -0.5023
 2496SOL     OW19120   4.033   2.162   4.453 -0.0402  0.6296  0.4801
 2496SOL    HW119121   4.051   2.225   4.383  0.2878 -0.7974 -0.7342
 2496SOL    HW219122   4.042   2.079   4.405 -3.0984  1.8605 -2.2584
 2497SOL     OW19123   4.341   0.278   0.554 -0.4027  0.4566  0.6284
 2497SOL    HW119124   4.380   0.340   0.493  0.8674  0.2853  1.2748
 2497SOL    HW219125   4.291   0.329   0.617  0.6602  0.7071  1.2661
 2498SOL     OW19126   4.704   0.376   0.742  0.2429  0.0561 -0.3313
 2498SOL    HW119127   4.676   0.297   0.696 -0.7912 -0.0919  0.5647
 2498SOL    HW219128   4.617   0.414   0.754  0.1588 -0.4864  0.7754
 2499SOL     OW19129   1.096   1.615   1.829 -0.6634  0.5592  0.5393
 2499SOL    HW119130   1.072   1.597   1.920  0.6596  3.0921  1.4076
 2499SOL    HW219131   1.115   1.530   1.791  1.0247  2.4786 -2.9651
 2500SOL     OW19132   3.527   1.727   4.635 -0.3150  0.0719  0.1555
 2500SOL    HW119133   3.572   1.656   4.679 -2.1434 -0.8933  0.4788
 2500SOL    HW219134   3.585   1.782   4.583  1.2240  1.0503  2.9259
 2501SOL     OW19135   0.316   3.775   2.410 -0.0756  0.2508  0.8474
 2501SOL    HW119136   0.243   3.831   2.439 -0.4016  0.3689 -0.1870
 2501SOL    HW219137   0.338   3.817   2.327 -2.2868  0.8020  0.5183
 2502SOL     OW19138   1.701   3.735   6.165 -0.1025 -0.3580  0.0768
 2502SOL    HW119139   1.754   3.714   6.241 -0.1088  1.2687  0.5477
 2502SOL    HW219140   1.763   3.751   6.094 -1.7193  1.1461 -1.0165
 2503SOL     OW19141   1.684   2.073   8.904  0.2262 -0.2669 -0.1247
 2503SOL    HW119142   1.764   2.020   8.896  1.3808  1.7819 -2.2418
 2503SOL    HW219143   1.701   2.121   8.824  3.2200 -0.9546  0.1014
 2504SOL     OW19144   4.345   0.674  17.363  0.7897  0.1945 -0.1584
 2504SOL    HW119145   4.342   0.725  17.444  1.8906 -1.5614  0.9917
 2504SOL    HW219146   4.257   0.640  17.350  0.4192  0.7477  0.9738
 2505SOL     OW19147   4.347   0.060   2.770  0.5327  0.8911  0.1081
 2505SOL    HW119148   4.266   0.009   2.764  1.9186 -0.9810 -2.7119
 2505SOL    HW219149   4.360   0.071   2.676 -0.2148  2.3900  0.1817
 2506SOL     OW19150   2.092   3.645   5.869  0.2587  0.2991 -0.6811
 2506SOL    HW119151   2.022   3.710   5.875 -1.5723 -1.6675 -1.0048
 2506SOL    HW219152   2.149   3.673   5.797  1.8683 -0.9173  0.1194
 2507SOL     OW19153   4.646   1.985   5.304  0.6488  0.3517 -0.2545
 2507SOL    HW119154   4.733   1.947   5.295  1.6351  2.4425  0.3222
 2507SOL    HW219155   4.618   1.992   5.212  4.0026  0.8375 -1.2343
 2508SOL     OW19156   4.650   0.841   6.089  0.5257 -0.3258 -0.3438
 2508SOL    HW119157   4.636   0.810   6.178  0.0720 -1.6463 -0.8852
 2508SOL    HW219158   4.649   0.760   6.039 -0.7649 -0.0630 -0.7315
 2509SOL     OW19159   1.215   4.572  12.368  0.7425 -0.3162  0.0266
 2509SOL    HW119160   1.187   4.649  12.418 -1.0104  0.4578 -2.1188
 2509SOL    HW219161   1.240   4.503  12.429 -2.0885 -2.5090 -1.2841
 2510SOL     OW19162   4.126   2.402  15.210 -0.2365  0.1417 -0.3135
 2510SOL    HW119163   4.171   2.431  15.289 -0.4321  1.1796 -0.5808
 2510SOL    HW219164   4.194   2.343  15.179  0.5033  1.4796 -1.2386
 2511SOL     OW19165   3.728   3.979   7.428 -0.3238 -0.3914  0.5090
 2511SOL    HW119166   3.735   3.885   7.409 -1.6671 -0.4650  0.3947
 2511SOL    HW219167   3.801   3.982   7.491 -0.1529 -3.0992  0.4579
 2512SOL     OW19168   3.387   4.128   4.300 -0.3589 -0.0893  0.1372
 2512SOL    HW119169   3.384   4.062   4.230 -1.1036 -0.9346  0.9610
 2512SOL    HW219170   3.479   4.155   4.293 -0.8387  1.0147 -2.0457
 2513SOL     OW19171   0.735   2.260  10.463  0.0157 -0.1486  0.0546
 2513SOL    HW119172   0.754   2.177  10.506 -1.3820  0.3788  1.7098
 2513SOL    HW219173   0.717   2.233  10.373  0.2264  3.4898 -1.0594
 2514SOL     OW19174   0.881   0.245  11.324 -0.4240  0.7371 -0.2746
 2514SOL    HW119175   0.901   0.182  11.255 -0.6931  1.8114 -1.3473
 2514SOL    HW219176   0.970   0.272  11.349  0.5229 -2.4268 -0.3010
 2515SOL     OW19177   2.864   0.663  12.314  0.0899 -0.0360  0.3247
 2515SOL    HW119178   2.784   0.656  12.263 -2.1230 -1.0348  3.9126
 2515SOL    HW219179   2.904   0.577  12.300  0.1381  0.0706 -0.1775
 2516SOL     OW19180   0.271   0.972   6.672 -0.5986 -0.2547 -0.3653
 2516SOL    HW119181   0.261   1.065   6.690  2.0025 -0.2358  0.9988
 2516SOL    HW219182   0.214   0.932   6.738 -1.0070  0.4958 -0.2695
 2517SOL     OW19183   3.640   0.245  14.864 -0.0607 -0.0349 -0.2539
 2517SOL    HW119184   3.675   0.264  14.951  2.6116  0.0214 -1.3310
 2517SOL    HW219185   3.719   0.214  14.820  0.5356  1.3729 -0.1766
 2518SOL     OW19186   2.329   3.218  14.269 -0.2006 -0.2506 -0.2076
 2518SOL    HW119187   2.411   3.209  14.222 -1.5157  0.2257 -2.5727
 2518SOL    HW219188   2.272   3.257  14.203 -0.1080 -0.4415 -0.4007
 2519SOL     OW19189   3.044   4.236   8.016 -0.5260  0.8503  0.0771
 2519SOL    HW119190   2.965   4.254   7.966 -0.6385  0.5388  0.1406
 2519SOL    HW219191   3.012   4.257   8.104  0.3465 -3.0156  1.3406
 2520SOL     OW19192   3.991   3.568  16.578 -0.1145  0.0316 -0.2262
 2520SOL    HW119193   3.957   3.520  16.503 -0.7607 -0.9895  0.7305
 2520SOL    HW219194   4.079   3.534  16.595 -0.6659 -1.8665 -1.1693
 2521SOL     OW19195   4.155   4.243   3.482  0.2566 -0.5622 -0.4762
 2521SOL    HW119196   4.130   4.214   3.569  1.8383 -1.4621 -0.3206
 2521SOL    HW219197   4.177   4.332   3.508  0.7444 -1.6234  2.7286
 2522SOL     OW19198   1.242   0.803   4.807  0.2331 -0.5718 -0.3014
 2522SOL    HW119199   1.330   0.843   4.807  0.0158 -0.0888 -0.1997
 2522SOL    HW219200   1.230   0.817   4.901 -0.8296 -1.6724 -0.2859
 2523SOL     OW19201   2.385   4.707  17.103  0.2489  0.0666 -0.3771
 2523SOL    HW119202   2.354   0.056  17.086  1.9021  0.7921  0.3809
 2523SOL    HW219203   2.459   4.724  17.160 -0.3363  0.9922  0.1005
 2524SOL     OW19204   0.069   1.059  10.770  0.1211  0.2684  0.4884
 2524SOL    HW119205   0.157   1.051  10.732 -0.5950 -1.1450 -0.8760
 2524SOL    HW219206   0.042   1.144  10.737 -0.1922 -0.2733 -0.6632
 2525SOL     OW19207   3.095   4.198  15.720  0.4583  0.2204 -0.3807
 2525SOL    HW119208   3.049   4.118  15.696 -1.2634  1.7175 -1.9994
 2525SOL    HW219209   3.168   4.200  15.659  3.6316  0.5181  3.3806
 2526SOL     OW19210   3.739   1.501  15.727  0.2854  0.1893  0.3855
 2526SOL    HW119211   3.796   1.578  15.719 -0.7983  0.8917 -0.5983
 2526SOL    HW219212   3.799   1.435  15.692  1.5122  2.0204 -0.9868
 2527SOL     OW19213   2.075   0.484  17.385  0.2897 -0.1481  0.5329
 2527SOL    HW119214   2.040   0.472  17.297 -1.2226 -1.2882  1.2850
 2527SOL    HW219215   2.023   0.555  17.424 -1.2085 -0.0103 -1.6677
 2528SOL     OW19216   3.574   3.405  10.583  0.3714 -0.4759 -0.4529
 2528SOL    HW119217   3.608   3.388  10.671 -0.9978  0.3089  0.2286
 2528SOL    HW219218   3.600   3.324  10.540  0.7528 -1.2994  1.3274
 2529SOL     OW19219   3.627   2.795   4.378 -0.2591 -0.0204  0.5083
 2529SOL    HW119220   3.545   2.750   4.354  0.3293 -0.5048 -0.6182
 2529SOL    HW219221   3.689   2.727   4.403  1.0128  1.0959  0.4065
 2530SOL     OW19222   3.172   4.500   3.682 -0.1129  0.3145  0.4381
 2530SOL    HW119223   3.152   4.453   3.601  1.6119 -1.1687  0.8645
 2530SOL    HW219224   3.165   4.585   3.639  4.6158  0.8091  0.6560
 2531SOL     OW19225   3.224   0.308  11.338  0.5487 -0.2882  0.2400
 2531SOL    HW119226   3.285   0.289  11.411  0.7932  0.2809  0.1816
 2531SOL    HW219227   3.153   0.327  11.400 -0.2463  2.8711 -1.6612
 2532SOL     OW19228   4.462   3.849   8.422  0.0110 -0.3154 -0.0853
 2532SOL    HW119229   4.526   3.799   8.473  0.7797 -0.4700 -1.2093
 2532SOL    HW219230   4.512   3.889   8.351 -0.2747  0.9312  0.4030
 2533SOL     OW19231   4.217   4.140   1.985  0.3467  0.0840 -0.3779
 2533SOL    HW119232   4.279   4.184   1.927  0.4732  0.5610  0.1161
 2533SOL    HW219233   4.131   4.172   1.958 -1.1411 -2.1922  1.6002
 2534SOL     OW19234   4.678   1.969  16.742 -0.1872 -0.3989  0.2030
 2534SOL    HW119235   0.010   1.905  16.738 -1.4108 -1.9708  3.3716
 2534SOL    HW219236   4.610   1.901  16.746 -1.0653  0.4329 -0.7430
 2535SOL     OW19237   3.358   1.016  11.652 -0.0567  0.8574 -0.0986
 2535SOL    HW119238   3.423   1.033  11.721  2.6462 -2.6900 -1.7468
 2535SOL    HW219239   3.419   0.999  11.580  0.8994  3.1211  0.1800
 2536SOL     OW19240   3.788   3.371   5.741  0.0840 -0.4619 -0.1040
 2536SOL    HW119241   3.744   3.344   5.822  2.3192  0.8514  1.5591
 2536SOL    HW219242   3.712   3.421   5.709 -0.6344 -1.6485 -0.2431
 2537SOL     OW19243   1.729   2.349   7.031 -0.0327  0.3829  0.0863
 2537SOL    HW119244   1.808   2.318   6.985  0.4180  0.0441  1.0880
 2537SOL    HW219245   1.771   2.370   7.115 -2.7432  0.9690  1.2836
 2538SOL     OW19246   3.462   3.047   6.876 -0.2697  0.3432 -0.0671
 2538SOL    HW119247   3.427   3.131   6.846 -1.0052  0.5583  1.4207
 2538SOL    HW219248   3.386   3.003   6.913 -0.7555  0.7560 -0.5716
 2539SOL     OW19249   3.426   4.003   5.669 -0.1296 -0.3202 -0.3554
 2539SOL    HW119250   3.394   3.927   5.719 -0.9961 -0.4190 -1.0603
 2539SOL    HW219251   3.518   3.983   5.650 -0.3586 -1.6521 -0.1161
 2540SOL     OW19252   1.875   3.166   5.458  0.1659 -0.5272  0.2670
 2540SOL    HW119253   1.827   3.237   5.417  3.0892  0.6906 -1.0670
 2540SOL    HW219254   1.960   3.200   5.430 -0.0577 -0.3835 -0.2458
 2541SOL     OW19255   3.542   2.676   3.814 -0.0490  0.1171 -0.2831
 2541SOL    HW119256   3.556   2.634   3.898 -2.7801  0.6836  0.4630
 2541SOL    HW219257   3.579   2.607   3.758  0.3332 -0.2093  0.3689
 2542SOL     OW19258   1.258   1.950  16.535 -0.1065 -0.3204 -0.3845
 2542SOL    HW119259   1.179   1.906  16.504 -0.4889  0.4514 -0.4989
 2542SOL    HW219260   1.317   1.874  16.526  0.3933 -0.1220  1.1323
 2543SOL     OW19261   4.168   0.439   1.215 -0.3671 -0.0490  0.5211
 2543SOL    HW119262   4.228   0.368   1.237  1.0398  0.0958 -2.8341
 2543SOL    HW219263   4.218   0.487   1.148 -0.1566 -0.4915  0.3618
 2544SOL     OW19264   2.562   4.443   6.841 -0.3326  0.1304  0.6492
 2544SOL    HW119265   2.495   4.400   6.894  0.3056 -0.1862  1.1927
 2544SOL    HW219266   2.642   4.392   6.856 -0.6333 -0.5108  0.0936
 2545SOL     OW19267   3.855   2.395  16.721 -0.5020 -0.3626  0.5909
 2545SOL    HW119268   3.832   2.432  16.636 -0.2211 -0.0246  0.6620
 2545SOL    HW219269   3.790   2.437  16.777 -2.7162 -2.1043 -0.7013
 2546SOL     OW19270   4.226   2.247   9.289 -0.2408  0.1928  0.1048
 2546SOL    HW119271   4.286   2.175   9.309  0.4956  0.8415  0.2132
 2546SOL    HW219272   4.165   2.250   9.363 -2.5372  1.7577 -1.8481
 2547SOL     OW19273   2.174   1.177   3.661 -0.0585 -0.4842 -0.1147
 2547SOL    HW119274   2.152   1.149   3.750 -1.2918 -1.4075 -0.7162
 2547SOL    HW219275   2.103   1.239   3.645  0.3199  0.1668  0.6834
 2548SOL     OW19276   4.459   3.860   7.983 -0.1774  0.0586  0.1178
 2548SOL    HW119277   4.404   3.933   7.953 -0.2079 -0.0947 -0.1983
 2548SOL    HW219278   4.405   3.781   7.978 -0.1056  0.0428 -0.3663
 2549SOL     OW19279   3.987   4.354   3.890 -0.1604  0.3984  0.0401
 2549SOL    HW119280   3.994   4.380   3.982  2.4644 -0.1679  0.0198
 2549SOL    HW219281   3.896   4.372   3.869 -1.1046 -1.3758  2.6274
 2550SOL     OW19282   1.493   3.476   4.764 -0.2764 -0.2717 -0.0975
 2550SOL    HW119283   1.487   3.427   4.846 -0.7234  1.2543  0.7706
 2550SOL    HW219284   1.504   3.402   4.704  1.5594 -0.9914  1.1356
 2551SOL     OW19285   1.267   0.047   2.245 -0.1127 -0.1510  0.1133
 2551SOL    HW119286   1.246   4.713   2.187  0.5063  0.5448 -0.9906
 2551SOL    HW219287   1.359   0.032   2.264 -0.6363 -0.6189  2.2326
 2552SOL     OW19288   0.789   0.530  16.425  0.3377  0.0501 -0.0442
 2552SOL    HW119289   0.744   0.462  16.476 -1.0137  0.8372 -0.1806
 2552SOL    HW219290   0.817   0.480  16.349 -0.4317 -0.6883  0.1579
 2553SOL     OW19291   0.471   4.610  14.776 -0.0628 -0.5317  0.1417
 2553SOL    HW119292   0.487   4.644  14.864 -0.1946  0.6432 -0.2827
 2553SOL    HW219293   0.391   4.661  14.764  1.0082  0.9003 -0.9220
 2554SOL     OW19294   1.671   2.610   4.960 -0.1349 -0.2008  0.0595
 2554SOL    HW119295   1.743   2.569   5.008 -0.8786 -0.0238  1.3045
 2554SOL    HW219296   1.696   2.608   4.867 -0.7741 -0.6946 -0.0927
 2555SOL     OW19297   3.653   4.084  17.068  0.1073 -0.2038  0.1272
 2555SOL    HW119298   3.687   4.079  16.979  1.3853 -0.4864  0.6364
 2555SOL    HW219299   3.635   4.178  17.068 -1.2419 -0.4603  0.4247
 2556SOL     OW19300   4.402   3.851   5.439  0.1253 -0.2958 -0.2651
 2556SOL    HW119301   4.360   3.765   5.446 -1.9566  0.7445 -0.0046
 2556SOL    HW219302   4.345   3.908   5.388 -1.5628 -0.0481  1.8817
 2557SOL     OW19303   1.341   0.432   3.634 -0.5696 -0.4729  0.0977
 2557SOL    HW119304   1.332   0.392   3.720 -2.6437  1.0844  0.6238
 2557SOL    HW219305   1.318   0.359   3.577  0.2035 -1.6428  1.3051
 2558SOL     OW19306   4.365   1.017   7.229  0.5824 -0.0404 -0.5585
 2558SOL    HW119307   4.320   0.994   7.147 -0.4786 -2.4038  0.6618
 2558SOL    HW219308   4.349   1.111   7.231  1.7446  0.1397 -0.0407
 2559SOL     OW19309   0.493   3.925   6.550  0.4981 -0.2299 -0.4699
 2559SOL    HW119310   0.509   4.008   6.594 -0.2284 -0.3245 -0.0233
 2559SOL    HW219311   0.464   3.867   6.621  2.2380  0.7972  1.0769
 2560SOL     OW19312   3.770   1.122  13.124  0.2175  0.0161 -0.3435
 2560SOL    HW119313   3.804   1.069  13.195  2.1286  0.6232 -0.8024
 2560SOL    HW219314   3.853   1.114  13.077  0.7660  0.3527  0.5734
 2561SOL     OW19315   3.593   1.029   6.886  0.3529  0.9887 -0.8937
 2561SOL    HW119316   3.527   0.970   6.849 -1.5936  1.9014  1.0598
 2561SOL    HW219317   3.672   0.981   6.861 -0.0248 -1.7567  3.0832
 2562SOL     OW19318   4.475   2.978   8.936  0.4789 -0.2352 -0.1466
 2562SOL    HW119319   4.398   2.964   8.991  0.5860  0.9010  0.2854
 2562SOL    HW219320   4.523   2.896   8.949 -0.1465 -0.9587 -2.3078
 2563SOL     OW19321   2.421   2.451   5.518 -0.3164  0.3730 -0.0647
 2563SOL    HW119322   2.466   2.406   5.447 -1.0912 -2.6513  1.3473
 2563SOL    HW219323   2.330   2.443   5.491 -0.0126 -0.6778 -0.7913
 2564SOL     OW19324   0.119   1.692   9.665 -0.0712 -0.2062  0.5065
 2564SOL    HW119325   0.207   1.658   9.647 -0.5945 -1.5371  0.4874
 2564SOL    HW219326   0.127   1.762   9.729 -0.6548  0.9324 -0.6764
 2565SOL     OW19327   3.873   4.146  15.869 -0.7275 -0.1716  0.0958
 2565SOL    HW119328   3.804   4.156  15.935 -0.0434 -0.7679  0.9002
 2565SOL    HW219329   3.838   4.071  15.820 -1.2435  0.8823 -1.1400
 2566SOL     OW19330   4.579   0.551   7.922 -0.7205 -0.2036  0.1554
 2566SOL    HW119331   4.591   0.641   7.891  1.5793 -0.9881 -1.2496
 2566SOL    HW219332   4.527   0.583   7.996 -0.9326 -0.4876  0.1292
 2567SOL     OW19333   2.159   4.038   1.949  0.4862  0.1255  0.1824
 2567SOL    HW119334   2.206   3.966   1.989  0.5048  0.0142 -0.0413
 2567SOL    HW219335   2.230   4.086   1.907 -0.7895  1.3718 -0.5735
 2568SOL     OW19336   0.364   2.670   5.025 -0.3371 -0.0004 -0.0511
 2568SOL    HW119337   0.346   2.762   5.043  0.2087 -0.2278  1.7067
 2568SOL    HW219338   0.359   2.629   5.112 -1.0821 -0.7736 -0.4562
 2569SOL     OW19339   0.630   4.161   2.145 -0.0402 -0.1409  0.6442
 2569SOL    HW119340   0.642   4.109   2.225  0.8427 -1.5696 -0.4129
 2569SOL    HW219341   0.689   4.107   2.093 -0.5335  1.3399 -1.4701
 2570SOL     OW19342   1.494   1.176   2.616  0.7051 -0.2589  0.0546
 2570SOL    HW119343   1.547   1.191   2.538 -0.4754  1.2517 -0.4735
 2570SOL    HW219344   1.528   1.096   2.657  1.5548  0.4126  0.6725
 2571SOL     OW19345   0.817   1.975   8.215  0.5543 -0.8872 -0.4025
 2571SOL    HW119346   0.872   1.984   8.292  0.5458  0.9761 -0.6155
 2571SOL    HW219347   0.760   2.048   8.237  1.3579  0.4974 -2.8206
 2572SOL     OW19348   1.181   3.259   7.827 -0.2133 -0.4347  0.4557
 2572SOL    HW119349   1.188   3.252   7.923 -1.4176 -0.6320  0.5260
 2572SOL    HW219350   1.210   3.174   7.796  0.9596  0.0450  0.2397
 2573SOL     OW19351   0.029   2.384   8.044 -0.5171 -0.1679 -0.6370
 2573SOL    HW119352   0.055   2.458   8.100 -0.7184 -2.1271  2.0692
 2573SOL    HW219353   0.037   2.315   8.110  0.0157  0.2802 -0.2284
 2574SOL     OW19354   0.645   3.382  16.879 -0.3528 -0.4671  0.0023
 2574SOL    HW119355   0.694   3.332  16.945 -1.8748  0.3786  1.7541
 2574SOL    HW219356   0.563   3.332  16.882  0.0051 -1.0632 -0.0780
 2575SOL     OW19357   4.074   1.135   8.459 -0.2524 -0.2900 -0.6571
 2575SOL    HW119358   4.066   1.050   8.503  1.8438 -0.7675 -1.1997
 2575SOL    HW219359   4.048   1.111   8.370  1.1591 -0.3332 -1.0500
 2576SOL     OW19360   1.654   2.654  14.040 -0.2758 -0.2697  0.3045
 2576SOL    HW119361   1.685   2.578  14.090 -0.4178 -0.4799  0.0793
 2576SOL    HW219362   1.568   2.666  14.081 -0.6336 -1.9941  0.0656
 2577SOL     OW19363   0.885   2.876   3.774  0.1315 -0.3122  0.1494
 2577SOL    HW119364   0.940   2.799   3.787 -0.3534 -0.4810  1.1987
 2577SOL    HW219365   0.829   2.865   3.850  0.7678  0.1701  0.6902
 2578SOL     OW19366   3.761   1.001   2.416  0.4790 -0.4958 -0.0151
 2578SOL    HW119367   3.815   0.966   2.345  0.0725  3.1374 -2.1220
 2578SOL    HW219368   3.712   1.070   2.372  0.4153  0.1810  1.1118
 2579SOL     OW19369   4.138   4.632   9.838  0.0859  0.1294 -0.4671
 2579SOL    HW119370   4.197   4.682   9.894 -0.9056 -1.2140  1.7912
 2579SOL    HW219371   4.056   4.682   9.838  0.2761  0.4391 -0.6368
 2580SOL     OW19372   2.473   0.075  12.543 -0.6345 -0.4683  0.2455
 2580SOL    HW119373   2.466   0.051  12.635 -0.6885  0.6086  0.5272
 2580SOL    HW219374   2.562   0.042  12.531 -1.0291 -1.0592 -1.0387
 2581SOL     OW19375   1.419   3.115   2.232 -0.1065 -0.3916  0.2711
 2581SOL    HW119376   1.380   3.028   2.246  0.3937 -1.0941 -2.5360
 2581SOL    HW219377   1.488   3.109   2.297 -0.2220  0.0569  0.4312
 2582SOL     OW19378   2.535   1.103   6.278  0.1832 -0.3504  0.4892
 2582SOL    HW119379   2.609   1.050   6.310  0.1861  1.1174  2.9571
 2582SOL    HW219380   2.579   1.148   6.207  0.1645  0.5228  1.0386
 2583SOL     OW19381   2.366   3.932   4.832 -0.0832 -0.2272 -0.0686
 2583SOL    HW119382   2.421   3.993   4.783 -3.0833  1.3105 -1.5218
 2583SOL    HW219383   2.421   3.855   4.848  1.5406  1.0923  0.7072
 2584SOL     OW19384   1.482   1.644   5.884  0.9544 -0.1488 -0.1941
 2584SOL    HW119385   1.490   1.604   5.971 -1.8461  1.0555  0.6059
 2584SOL    HW219386   1.460   1.730   5.919 -1.0529 -1.1568  1.0245
 2585SOL     OW19387   2.182   2.041   2.955  0.8762 -0.0166  0.1714
 2585SOL    HW119388   2.136   2.031   2.871 -1.9006  0.5558  1.6349
 2585SOL    HW219389   2.251   1.975   2.947 -0.1984 -0.9267 -1.5128
 2586SOL     OW19390   0.666   1.183  11.501  0.3017  0.6424 -0.0328
 2586SOL    HW119391   0.757   1.184  11.471  0.6104 -2.8223  0.7031
 2586SOL    HW219392   0.665   1.088  11.514 -1.3182  1.1105  3.1956
 2587SOL     OW19393   2.814   2.496   9.777 -0.1495  0.1266  0.4568
 2587SOL    HW119394   2.821   2.492   9.681  2.1196  0.5099  0.6137
 2587SOL    HW219395   2.903   2.486   9.810  0.2908 -0.5010 -0.9221
 2588SOL     OW19396   1.331   4.237   7.918 -0.1774  0.1480  0.0001
 2588SOL    HW119397   1.365   4.198   7.999 -2.2151 -1.8362 -0.0928
 2588SOL    HW219398   1.316   4.327   7.947 -1.3649  0.2425 -0.9371
 2589SOL     OW19399   0.101   1.777   1.594  0.4479  0.7711  0.2482
 2589SOL    HW119400   0.115   1.741   1.682  1.5503  1.8389  0.5016
 2589SOL    HW219401   0.153   1.856   1.605  0.9844  0.4829 -0.1728
 2590SOL     OW19402   1.038   1.680   7.090 -0.1737  0.1171  0.0384
 2590SOL    HW119403   1.099   1.689   7.163  0.2318 -1.0429 -0.1453
 2590SOL    HW219404   1.007   1.589   7.100  1.3856 -0.6450 -2.1479
 2591SOL     OW19405   4.099   4.215   7.018 -0.3035  0.1558 -1.2321
 2591SOL    HW119406   4.191   4.197   7.035 -0.3141  1.5853  0.3101
 2591SOL    HW219407   4.044   4.203   7.095 -0.2286 -1.2845 -1.3968
 2592SOL     OW19408   0.605   0.627  11.554  0.2030 -0.1116 -0.2891
 2592SOL    HW119409   0.687   0.669  11.578  0.8180 -0.2447 -2.1345
 2592SOL    HW219410   0.619   0.608  11.461 -1.7347 -0.5829 -0.4906
 2593SOL     OW19411   4.342   1.246   6.970 -0.4468 -0.4052  0.5953
 2593SOL    HW119412   4.380   1.288   6.893 -1.8539  2.0456  1.2366
 2593SOL    HW219413   4.404   1.254   7.042 -2.9067 -2.9977  3.0352
 2594SOL     OW19414   0.188   0.564   3.970 -0.4908 -0.7428  0.2658
 2594SOL    HW119415   0.139   0.644   3.987  0.1041 -0.4480  0.5735
 2594SOL    HW219416   0.232   0.588   3.888  0.9440 -1.6783  0.7486
 2595SOL     OW19417   3.884   3.540  10.657 -0.4487 -0.4564  0.0818
 2595SOL    HW119418   3.830   3.619  10.657 -2.5898 -1.9301  0.0483
 2595SOL    HW219419   3.822   3.473  10.631 -0.1599 -0.1764 -1.2955
 2596SOL     OW19420   1.370   2.450  15.897  0.5118  0.1209  0.3204
 2596SOL    HW119421   1.385   2.541  15.873  3.3475  0.0368  1.8270
 2596SOL    HW219422   1.351   2.413  15.811  2.1646  1.2456 -0.5230
 2597SOL     OW19423   2.291   0.551   2.170 -0.4081  0.1433 -0.0614
 2597SOL    HW119424   2.294   0.647   2.165 -3.1787  0.2576  0.6592
 2597SOL    HW219425   2.225   0.528   2.105 -1.7535 -1.0473  1.7473
 2598SOL     OW19426   1.949   0.335   4.248  0.0312 -0.0306  0.0299
 2598SOL    HW119427   1.893   0.265   4.215 -0.3245  0.5645 -0.6277
 2598SOL    HW219428   1.967   0.378   4.165 -0.7668 -1.0532 -0.6636
 2599SOL     OW19429   1.851   3.789   8.539 -0.3598 -0.4289 -0.5450
 2599SOL    HW119430   1.896   3.864   8.500 -0.2839 -0.8689 -1.3132
 2599SOL    HW219431   1.899   3.784   8.621  0.0340  0.9444 -0.6829
 2600SOL     OW19432   1.802   0.441   1.949 -0.1419  0.3782 -0.3073
 2600SOL    HW119433   1.832   0.353   1.969 -0.4062 -0.3518 -3.2333
 2600SOL    HW219434   1.713   0.418   1.920 -1.1478  2.2142  1.3093
 2601SOL     OW19435   3.634   1.948   6.791  0.4436 -0.0008 -0.2497
 2601SOL    HW119436   3.661   1.859   6.773  0.6649 -0.1383  0.7702
 2601SOL    HW219437   3.547   1.956   6.753 -1.3485 -1.4775  3.4650
 2602SOL     OW19438   4.016   2.977   6.646 -0.9188 -0.0840 -0.0528
 2602SOL    HW119439   4.079   2.957   6.577 -0.0757 -0.8493  0.9399
 2602SOL    HW219440   4.068   3.019   6.714 -2.1318 -0.2701  1.0015
 2603SOL     OW19441   2.780   4.537  14.762  0.8042  0.4705 -0.3091
 2603SOL    HW119442   2.756   4.484  14.686 -0.5775 -1.4955  1.5430
 2603SOL    HW219443   2.838   4.601  14.720 -0.9666  2.1504 -0.1810
 2604SOL     OW19444   3.799   0.675   6.928  0.0008 -0.5646  0.2042
 2604SOL    HW119445   3.887   0.704   6.903  0.0670  2.8235  4.2829
 2604SOL    HW219446   3.811   0.658   7.022  1.2768 -0.0776  0.1295
 2605SOL     OW19447   2.266   3.235   4.859 -0.1324  0.2268  0.0665
 2605SOL    HW119448   2.303   3.196   4.780 -0.1055 -0.5706  0.4623
 2605SOL    HW219449   2.342   3.241   4.917  0.5114 -0.7520 -0.6746
 2606SOL     OW19450   2.781   3.730   7.523 -0.3085  0.4289  0.1960
 2606SOL    HW119451   2.836   3.669   7.573  0.0920 -0.3978 -1.2458
 2606SOL    HW219452   2.744   3.665   7.463 -0.0390 -2.4439  3.1049
 2607SOL     OW19453   1.591   3.161   9.014  0.5560  0.4077 -0.4237
 2607SOL    HW119454   1.623   3.237   8.966 -0.6031  1.8360  1.0247
 2607SOL    HW219455   1.649   3.152   9.090  0.2452 -0.1007 -0.2437
 2608SOL     OW19456   0.808   3.053  17.171 -0.4852  0.0010  0.7879
 2608SOL    HW119457   0.872   3.040  17.101 -0.0538  1.6559  0.8780
 2608SOL    HW219458   0.729   3.087  17.128  0.3199 -0.9374 -1.4134
 2609SOL     OW19459   1.856   1.724   4.014 -0.1676  0.3037  0.6521
 2609SOL    HW119460   1.845   1.665   4.088 -1.4158 -1.3676 -0.8789
 2609SOL    HW219461   1.952   1.719   4.007 -0.0259  4.0423 -0.5855
 2610SOL     OW19462   2.077   0.552   5.080 -0.1763 -0.9930  0.4518
 2610SOL    HW119463   2.087   0.525   5.171 -2.1195  0.6667  1.1603
 2610SOL    HW219464   1.992   0.595   5.085 -0.1410 -0.3775 -3.9035
 2611SOL     OW19465   0.758   2.919   5.446 -0.1019 -0.4653  0.5102
 2611SOL    HW119466   0.667   2.926   5.416 -0.9546 -0.4969  3.0519
 2611SOL    HW219467   0.743   2.869   5.526  0.6307 -0.8149  0.4242
 2612SOL     OW19468   4.701   3.443   6.747 -0.2393 -0.5001  0.2031
 2612SOL    HW119469   4.708   3.401   6.833 -3.3612 -1.8114 -0.1719
 2612SOL    HW219470   4.723   3.535   6.765  1.9879 -0.8627 -0.7033
 2613SOL     OW19471   2.315   1.410   6.824  0.0462 -0.0433  0.1866
 2613SOL    HW119472   2.229   1.378   6.796 -0.0202 -0.7062  1.1499
 2613SOL    HW219473   2.309   1.456   6.907  0.9209  2.9236 -1.3990
 2614SOL     OW19474   1.030   3.454   1.988  0.3289 -0.4020 -0.2492
 2614SOL    HW119475   1.006   3.434   2.079  4.1725 -0.0323  0.8291
 2614SOL    HW219476   1.096   3.387   1.972  0.5374 -0.8772  2.5585
 2615SOL     OW19477   1.519   1.782   7.192 -0.2700 -0.3378 -0.0089
 2615SOL    HW119478   1.512   1.800   7.285 -0.2681  1.6524 -0.3888
 2615SOL    HW219479   1.469   1.701   7.181 -2.3982  1.1242 -1.1377
 2616SOL     OW19480   1.503   1.404   1.731 -0.1214 -0.0928 -0.0191
 2616SOL    HW119481   1.515   1.499   1.735  0.1174 -0.0876 -0.6831
 2616SOL    HW219482   1.437   1.395   1.799  1.0236  1.1718  1.2691
 2617SOL     OW19483   1.867   2.602  14.739  0.9288  0.3962 -0.1860
 2617SOL    HW119484   1.889   2.509  14.750  0.8489  0.3839 -0.1313
 2617SOL    HW219485   1.784   2.599  14.787  0.8153  0.4142 -0.3817
 2618SOL     OW19486   3.187   2.908   3.486  0.2518  0.6853  0.7882
 2618SOL    HW119487   3.223   2.852   3.555 -0.4091  3.2881  3.2413
 2618SOL    HW219488   3.264   2.925   3.432 -1.5320  2.3321 -1.2305
 2619SOL     OW19489   4.432   2.145   4.164 -0.2063 -0.3707 -0.4415
 2619SOL    HW119490   4.493   2.129   4.236 -1.0365 -0.4018  0.2605
 2619SOL    HW219491   4.382   2.214   4.207 -0.6892  0.1922 -1.9344
 2620SOL     OW19492   3.132   3.255  12.834  0.1882 -0.6066  0.4688
 2620SOL    HW119493   3.054   3.263  12.890 -0.5175  3.3944 -1.0562
 2620SOL    HW219494   3.184   3.333  12.856  2.9993 -1.9572 -1.4222
 2621SOL     OW19495   4.221   0.370   6.204 -0.1119 -0.0691 -0.0282
 2621SOL    HW119496   4.308   0.369   6.245 -0.3705  2.5632  0.5903
 2621SOL    HW219497   4.221   0.462   6.182 -0.8006 -0.1895 -0.5002
 2622SOL     OW19498   0.158   1.180   6.451 -0.0832 -0.1365 -0.0508
 2622SOL    HW119499   0.152   1.239   6.526 -2.6819 -0.6760  0.1655
 2622SOL    HW219500   0.217   1.231   6.395  0.4365  0.6424  1.2048
 2623SOL     OW19501   1.933   1.862  10.961 -1.0366 -0.3760 -0.6218
 2623SOL    HW119502   1.922   1.768  10.976  0.4754 -0.1349  2.1260
 2623SOL    HW219503   1.996   1.864  10.890 -2.7394  1.9732 -2.0545
 2624SOL     OW19504   0.779   0.297  17.061  0.2851  0.8686 -0.4257
 2624SOL    HW119505   0.773   0.381  17.106  1.4013  2.2716 -2.8991
 2624SOL    HW219506   0.818   0.315  16.975 -1.8668  0.0548 -1.5635
 2625SOL     OW19507   2.426   3.725   9.565  0.1444  0.0910 -0.0004
 2625SOL    HW119508   2.455   3.810   9.532 -2.0648  1.6611  2.1262
 2625SOL    HW219509   2.345   3.757   9.605 -0.3013 -0.2289 -0.6400
 2626SOL     OW19510   3.389   1.712  15.407 -0.2481  0.1834 -0.1995
 2626SOL    HW119511   3.302   1.728  15.442 -0.5154  0.1027 -0.8151
 2626SOL    HW219512   3.419   1.636  15.458  1.0033 -0.0873 -1.3418
 2627SOL     OW19513   3.747   1.409   0.692  0.2174  1.0991  0.0610
 2627SOL    HW119514   3.789   1.404   0.777 -1.5098  0.8585  0.8931
 2627SOL    HW219515   3.813   1.368   0.635 -0.9502 -1.1904  0.3847
 2628SOL     OW19516   4.564   2.958   1.502 -0.4710 -0.3580  0.2879
 2628SOL    HW119517   4.580   3.037   1.554 -0.9000 -1.1127  1.5749
 2628SOL    HW219518   4.579   2.892   1.569 -2.9315 -0.6720  0.5023
 2629SOL     OW19519   4.479   0.795  15.100 -0.2721  0.0260 -0.1684
 2629SOL    HW119520   4.403   0.738  15.109  0.5520 -0.9252  0.9048
 2629SOL    HW219521   4.547   0.732  15.125 -1.3091  0.0176  2.6440
 2630SOL     OW19522   1.679   2.373   7.821  0.4103  0.0841  0.0521
 2630SOL    HW119523   1.664   2.279   7.826  1.6050 -0.1973 -1.4079
 2630SOL    HW219524   1.775   2.368   7.815  0.3296 -1.6257  0.0650
 2631SOL     OW19525   3.026   4.419  12.387  0.0621  0.1692  0.0867
 2631SOL    HW119526   3.030   4.502  12.434 -1.3360  0.4047 -0.2224
 2631SOL    HW219527   3.033   4.358  12.461 -0.0864  0.1750  0.1064
 2632SOL     OW19528   2.016   2.095  13.877  0.4075  0.1598 -0.1279
 2632SOL    HW119529   1.956   2.036  13.831  0.4001  0.6514 -0.7525
 2632SOL    HW219530   1.968   2.178  13.879  1.4721  0.8041 -0.7337
 2633SOL     OW19531   0.518   3.398   6.985 -0.4197  0.6247  0.3755
 2633SOL    HW119532   0.584   3.457   7.021  1.5662  0.5167 -3.1371
 2633SOL    HW219533   0.463   3.449   6.926 -1.4909  0.0822  0.8999
 2634SOL     OW19534   1.333   4.561   5.669 -0.0194 -0.2690  0.7740
 2634SOL    HW119535   1.311   4.469   5.651  0.5005 -0.1344 -0.5808
 2634SOL    HW219536   1.428   4.552   5.662 -0.1799 -1.0727 -0.4454
 2635SOL     OW19537   2.482   1.518  16.560  0.4118  0.4256  0.5049
 2635SOL    HW119538   2.533   1.594  16.590  0.0613  0.0981  1.9149
 2635SOL    HW219539   2.406   1.530  16.616 -0.2283 -2.8710  0.3356
 2636SOL     OW19540   3.736   3.304  14.697 -0.1408 -0.1462  0.2190
 2636SOL    HW119541   3.681   3.256  14.636 -0.0645  1.5990 -1.1910
 2636SOL    HW219542   3.804   3.238  14.710 -0.4680 -0.3909  0.6926
 2637SOL     OW19543   2.153   3.456   5.558 -0.3696  0.5578  0.5530
 2637SOL    HW119544   2.202   3.531   5.591  2.0398 -1.1141  0.7870
 2637SOL    HW219545   2.200   3.441   5.476  0.3163  0.7406  0.9199
 2638SOL     OW19546   3.421   1.380   5.498 -0.6720  0.1934 -0.0466
 2638SOL    HW119547   3.484   1.332   5.445  0.7387 -0.9795  2.6732
 2638SOL    HW219548   3.483   1.447   5.526 -1.5029  0.1711  1.8503
 2639SOL     OW19549   3.980   4.282   8.109  0.0094  0.1483 -0.4982
 2639SOL    HW119550   3.908   4.345   8.110  1.2098  1.5070  0.4913
 2639SOL    HW219551   3.959   4.239   8.192 -4.5894 -0.0503 -1.7622
 2640SOL     OW19552   3.867   0.339   9.158  0.0588  0.2714  0.2743
 2640SOL    HW119553   3.775   0.327   9.182 -0.5573  2.0367 -1.2628
 2640SOL    HW219554   3.902   0.280   9.225 -0.4924 -2.3443 -1.7466
 2641SOL     OW19555   1.996   4.267   5.359  0.5049 -0.8561 -0.2890
 2641SOL    HW119556   1.998   4.172   5.369  1.4604 -0.7591  0.3727
 2641SOL    HW219557   1.902   4.282   5.374  0.6779  0.9752 -1.0261
 2642SOL     OW19558   2.505   0.159   4.602  0.1918  0.3675 -0.1869
 2642SOL    HW119559   2.535   0.152   4.693  1.9684 -1.3592 -0.9042
 2642SOL    HW219560   2.437   0.226   4.616 -0.0554  0.4725 -1.9097
 2643SOL     OW19561   1.464   2.898  15.561  0.2079  0.3976  0.1145
 2643SOL    HW119562   1.463   2.991  15.542  1.1615 -0.1384 -2.6000
 2643SOL    HW219563   1.526   2.853  15.503  1.8247  0.2202  1.9746
 2644SOL     OW19564   1.207   4.353   7.169  0.0863 -0.0586  0.2746
 2644SOL    HW119565   1.145   4.303   7.114 -0.0842  0.9759 -0.4732
 2644SOL    HW219566   1.160   4.347   7.252 -2.1040  1.1102 -0.8630
 2645SOL     OW19567   0.666   1.393   9.619 -0.1262  0.5634  0.3595
 2645SOL    HW119568   0.679   1.374   9.712  0.1675 -1.3508 -0.0745
 2645SOL    HW219569   0.615   1.316   9.593  2.0674  0.0200 -2.3983
 2646SOL     OW19570   2.352   2.288   2.901 -0.1692  0.1831  0.1740
 2646SOL    HW119571   2.326   2.223   2.966  0.9442 -0.4817 -0.0564
 2646SOL    HW219572   2.271   2.314   2.858  0.9089  1.4542 -1.0932
 2647SOL     OW19573   3.449   3.085   9.277 -0.1935 -0.5948 -0.3544
 2647SOL    HW119574   3.505   3.162   9.274 -1.1621  0.1286  0.1320
 2647SOL    HW219575   3.497   3.018   9.228  2.0228 -0.4314  1.6042
 2648SOL     OW19576   3.420   1.674   7.110 -0.0176  0.3988 -0.1746
 2648SOL    HW119577   3.439   1.752   7.163 -0.2519  0.0342  0.4492
 2648SOL    HW219578   3.373   1.708   7.034 -1.5421 -0.2820  0.4826
 2649SOL     OW19579   2.875   2.980   7.754 -0.0647 -0.4253 -0.5310
 2649SOL    HW119580   2.886   2.886   7.738  3.5278 -0.5663  2.7170
 2649SOL    HW219581   2.895   2.980   7.848 -0.9247  3.0370 -0.3287
 2650SOL     OW19582   3.866   2.682   9.664 -0.0075  0.1319 -0.1514
 2650SOL    HW119583   3.926   2.638   9.724 -0.3781 -2.1923 -1.4725
 2650SOL    HW219584   3.886   2.773   9.681  1.4780 -0.3589  0.6824
 2651SOL     OW19585   4.004   0.544   7.786  0.1298 -0.2150  0.1575
 2651SOL    HW119586   3.959   0.502   7.712  0.7736 -0.3457 -0.1527
 2651SOL    HW219587   3.936   0.603   7.819  0.1454  0.9257 -1.8857
 2652SOL     OW19588   4.208   2.494   8.088 -0.5327  0.4944  0.6673
 2652SOL    HW119589   4.173   2.459   8.006 -1.3599 -1.0738  1.6869
 2652SOL    HW219590   4.298   2.462   8.088  0.2058  2.5889  3.3979
 2653SOL     OW19591   3.252   0.212   7.829 -0.0794  0.4691 -0.9369
 2653SOL    HW119592   3.175   0.166   7.796 -0.8737 -1.2912  3.3696
 2653SOL    HW219593   3.317   0.199   7.760 -0.1102 -1.8483 -0.5159
 2654SOL     OW19594   3.967   3.968   6.569  0.0735 -0.5509  0.8125
 2654SOL    HW119595   3.905   3.964   6.642  1.2497 -2.8586  1.7083
 2654SOL    HW219596   4.017   3.887   6.581 -0.1894 -0.7435  0.6134
 2655SOL     OW19597   3.013   4.660   2.849 -0.0494 -0.2645  0.5526
 2655SOL    HW119598   2.972   0.006   2.837 -0.9697 -0.8082 -0.0832
 2655SOL    HW219599   3.042   4.664   2.941 -0.7740  1.3680  0.7019
 2656SOL     OW19600   2.812   4.583   1.994 -0.3522 -0.4854  0.0887
 2656SOL    HW119601   2.784   4.602   2.084 -0.0982 -0.1771  0.1062
 2656SOL    HW219602   2.862   4.659   1.962 -1.7487  0.3420 -0.1190
 2657SOL     OW19603   1.286   4.484   2.524  0.3324 -0.1318  0.2447
 2657SOL    HW119604   1.274   4.577   2.545 -1.8891 -0.8475  2.1504
 2657SOL    HW219605   1.355   4.482   2.458  0.9997 -0.8634  0.9574
 2658SOL     OW19606   0.297   1.038   5.446  0.3128  0.1064 -0.2025
 2658SOL    HW119607   0.332   1.032   5.535  0.7333  2.0233 -0.2197
 2658SOL    HW219608   0.270   1.130   5.440  2.2372  0.6580 -0.6253
 2659SOL     OW19609   0.449   3.889  15.709  0.1419  0.2320 -0.7180
 2659SOL    HW119610   0.385   3.841  15.656  0.6855 -0.5420 -0.6639
 2659SOL    HW219611   0.491   3.939  15.639  1.5565 -1.3133 -0.9793
 2660SOL     OW19612   4.052   4.583   3.635 -0.0502  0.1908  0.3937
 2660SOL    HW119613   4.127   4.531   3.663  1.0348  2.4630  1.6287
 2660SOL    HW219614   4.006   4.599   3.718  2.1635  0.1175  1.6250
 2661SOL     OW19615   2.681   4.518   4.345 -0.1598  0.2313  0.9641
 2661SOL    HW119616   2.672   4.613   4.355  1.1547  0.5230 -0.5275
 2661SOL    HW219617   2.730   4.521   4.263  2.1822  0.9725  2.3685
 2662SOL     OW19618   4.264   4.083   5.979 -0.3156  0.1349 -0.1861
 2662SOL    HW119619   4.334   4.050   5.923 -0.7821 -2.3512  0.6938
 2662SOL    HW219620   4.248   4.174   5.953  2.3922  0.1405 -1.9006
 2663SOL     OW19621   1.296   2.815  10.049 -0.1446 -0.3015 -0.6680
 2663SOL    HW119622   1.202   2.833  10.047  0.0203  0.7893  1.5515
 2663SOL    HW219623   1.324   2.836  10.137  2.6049  0.6575 -1.7853
 2664SOL     OW19624   2.000   1.010   5.181 -0.1877 -0.3547 -0.3027
 2664SOL    HW119625   2.010   1.098   5.147  0.6835 -0.6507 -0.8127
 2664SOL    HW219626   1.999   0.956   5.102 -0.6845  0.2468 -0.7056
 2665SOL     OW19627   0.222   2.095   6.247 -0.0215 -0.3427 -0.1437
 2665SOL    HW119628   0.186   2.012   6.215 -0.1174  0.1902 -1.4065
 2665SOL    HW219629   0.260   2.127   6.165 -1.5916 -0.9768 -1.1100
 2666SOL     OW19630   2.070   3.432   5.168 -0.6444  0.1080 -0.0327
 2666SOL    HW119631   2.091   3.518   5.131 -0.0402 -0.7348 -1.6892
 2666SOL    HW219632   2.014   3.401   5.096  1.3173 -0.4420 -1.3353
 2667SOL     OW19633   1.701   0.992  13.068  0.2094  1.1870 -0.2243
 2667SOL    HW119634   1.677   0.914  13.119 -1.2456  1.4995 -0.4456
 2667SOL    HW219635   1.744   0.945  12.997  0.7645  1.6766 -0.2139
 2668SOL     OW19636   1.011   0.055   4.061  0.4758  0.0324  0.2927
 2668SOL    HW119637   0.936   0.012   4.103  0.9867 -1.5065 -0.3435
 2668SOL    HW219638   1.021   0.134   4.113  1.6237  0.4984 -0.6476
 2669SOL     OW19639   4.302   2.935   9.281  0.2146 -0.0668 -0.3806
 2669SOL    HW119640   4.296   3.014   9.227  0.6212  0.1995 -0.0353
 2669SOL    HW219641   4.282   2.868   9.215 -0.1851 -1.4739  1.1757
 2670SOL     OW19642   4.532   3.491   5.291 -0.2981  0.8535 -0.5510
 2670SOL    HW119643   4.470   3.525   5.356 -1.3119 -0.4532 -0.8268
 2670SOL    HW219644   4.473   3.512   5.218 -0.0109 -2.7288 -1.8382
 2671SOL     OW19645   3.935   0.267  12.739 -0.3300 -0.5447  0.5150
 2671SOL    HW119646   4.009   0.212  12.765  1.6569  1.3782 -1.0310
 2671SOL    HW219647   3.917   0.227  12.653 -1.0179  1.0747 -0.0859
 2672SOL     OW19648   2.510   4.425   5.299 -0.0110 -0.1793 -0.2476
 2672SOL    HW119649   2.536   4.390   5.214  0.5488 -0.8618  0.2072
 2672SOL    HW219650   2.437   4.367   5.320 -0.6975  1.5988  2.2625
 2673SOL     OW19651   3.202   4.679   2.148  0.3294  0.0332 -0.0105
 2673SOL    HW119652   3.111   4.693   2.175  0.3851 -1.9885  1.2263
 2673SOL    HW219653   3.244   4.707   2.229  1.9102 -0.9879 -0.4671
 2674SOL     OW19654   0.937   3.863   0.307  0.2849  0.3125  0.0055
 2674SOL    HW119655   0.874   3.934   0.294  0.3473  0.3982  0.1704
 2674SOL    HW219656   0.882   3.805   0.359 -2.1041  2.1495 -0.4386
 2675SOL     OW19657   0.816   3.009   6.090  0.8783 -0.1773  0.0794
 2675SOL    HW119658   0.749   3.019   6.158 -1.1475 -0.5775 -1.8614
 2675SOL    HW219659   0.846   3.099   6.079 -1.9932  1.0055  2.0364
 2676SOL     OW19660   3.830   2.177   7.570 -0.4263 -0.1485 -0.0383
 2676SOL    HW119661   3.767   2.157   7.500 -2.6602 -3.4023  2.9085
 2676SOL    HW219662   3.771   2.230   7.625 -1.0178  0.8514 -1.6290
 2677SOL     OW19663   2.723   3.862   9.318  0.1747 -0.1989 -0.2903
 2677SOL    HW119664   2.771   3.922   9.375 -1.0368 -0.0845  0.6270
 2677SOL    HW219665   2.688   3.810   9.391 -0.9480 -0.5014 -1.0427
 2678SOL     OW19666   4.061   2.846   8.410  0.5817  0.7767  0.0285
 2678SOL    HW119667   4.090   2.832   8.320 -1.0297 -0.1524 -0.3575
 2678SOL    HW219668   4.131   2.791   8.445 -0.7194 -2.2157 -2.1022
 2679SOL     OW19669   0.668   4.037  17.699 -0.8635  0.5240 -0.2935
 2679SOL    HW119670   0.687   3.963  17.756  1.2211  0.2493 -1.3667
 2679SOL    HW219671   0.574   4.023  17.688 -0.7037 -0.9170  0.2215
 2680SOL     OW19672   3.537   4.257  12.561  0.0708 -0.5126  0.1830
 2680SOL    HW119673   3.567   4.177  12.518  1.9065 -1.0725  2.4788
 2680SOL    HW219674   3.456   4.273  12.513  0.1771 -0.3845  0.0484
 2681SOL     OW19675   0.390   4.598  13.952  0.4463  0.4630  0.2450
 2681SOL    HW119676   0.366   4.542  13.878  0.5770  0.7275  0.0072
 2681SOL    HW219677   0.467   4.547  13.979  0.9644  1.4963  0.7197
 2682SOL     OW19678   4.020   3.053   5.819 -0.0861 -0.5297  0.1015
 2682SOL    HW119679   4.083   2.985   5.796  0.0746 -0.9499  1.7828
 2682SOL    HW219680   3.938   3.009   5.799 -0.3863  0.6653 -1.2308
 2683SOL     OW19681   1.031   3.704   6.030  0.7781  0.8617 -0.2109
 2683SOL    HW119682   1.077   3.718   6.112  1.8890 -2.8499 -0.1748
 2683SOL    HW219683   0.944   3.674   6.057  0.7518  1.3444  0.2287
 2684SOL     OW19684   2.617   0.695   7.909  0.3978 -0.0568 -0.0546
 2684SOL    HW119685   2.685   0.680   7.974 -0.1330  0.3205  0.5944
 2684SOL    HW219686   2.621   0.630   7.839 -0.9181 -0.3499  0.1243
 2685SOL     OW19687   2.745   4.681  13.258  0.0692  0.2303  0.2719
 2685SOL    HW119688   2.735   4.736  13.181  1.7262  1.4388  0.9151
 2685SOL    HW219689   2.831   4.711  13.288  0.0278 -0.5839  1.2298
 2686SOL     OW19690   3.062   2.411  17.313 -0.0840  0.5563 -0.2127
 2686SOL    HW119691   3.037   2.319  17.316 -1.5384  0.8916 -1.8235
 2686SOL    HW219692   3.130   2.418  17.380  0.5608  2.1276 -1.0266
 2687SOL     OW19693   2.276   1.508  17.196  0.3649  0.2105 -0.5642
 2687SOL    HW119694   2.264   1.589  17.246 -0.5748 -0.3030  0.0495
 2687SOL    HW219695   2.194   1.467  17.224  0.5448  0.7761  0.8040
 2688SOL     OW19696   4.032   4.329  16.387 -0.5293 -0.2192 -0.0835
 2688SOL    HW119697   3.976   4.270  16.336  0.6823 -0.0780 -1.5982
 2688SOL    HW219698   4.062   4.392  16.321  0.1570  0.4742  0.8999
 2689SOL     OW19699   4.623   3.396   3.781  0.8925  0.0292  0.2629
 2689SOL    HW119700   4.680   3.432   3.849  0.5614 -1.3073  1.2392
 2689SOL    HW219701   4.643   3.455   3.708  0.2136  0.2763  0.2776
 2690SOL     OW19702   2.311   2.683   8.544  0.5228 -0.0625 -0.2451
 2690SOL    HW119703   2.260   2.603   8.558 -0.2158  0.4463 -0.0487
 2690SOL    HW219704   2.231   2.733   8.558 -0.0112 -1.7052  2.5764
 2691SOL     OW19705   2.426   2.763   4.329 -0.0287  0.0260  0.0958
 2691SOL    HW119706   2.347   2.708   4.329 -0.4853  0.6903  1.2039
 2691SOL    HW219707   2.433   2.781   4.235 -1.3890 -0.5772 -0.1315
 2692SOL     OW19708   2.817   3.848   6.301 -0.0134  0.3834 -0.3822
 2692SOL    HW119709   2.909   3.827   6.287 -0.4208  1.2243 -4.2170
 2692SOL    HW219710   2.766   3.777   6.260 -3.8517  2.4680  0.8076
 2693SOL     OW19711   1.029   2.520   7.261 -0.4692  0.0040  0.5166
 2693SOL    HW119712   1.108   2.542   7.212 -1.1901  1.0713 -0.1817
 2693SOL    HW219713   1.041   2.566   7.344 -1.0126  0.2999  0.4348
 2694SOL     OW19714   4.652   4.691   7.711  0.3047  0.2637  0.0259
 2694SOL    HW119715   4.667   4.675   7.617 -3.0053 -0.1897 -0.4425
 2694SOL    HW219716   4.559   4.670   7.713 -0.0796  1.7589 -1.8184
 2695SOL     OW19717   0.677   2.459   4.258  0.2458 -0.5390 -0.0674
 2695SOL    HW119718   0.684   2.363   4.261  0.8849 -0.5608 -1.9859
 2695SOL    HW219719   0.699   2.477   4.349  0.0148 -1.1152  0.1006
 2696SOL     OW19720   0.753   3.867   8.438  0.1181  0.6865 -0.2154
 2696SOL    HW119721   0.778   3.930   8.370 -1.2672  0.1637 -1.1991
 2696SOL    HW219722   0.840   3.870   8.479  1.5647  0.0445 -3.2402
 2697SOL     OW19723   3.021   0.892  11.755 -0.1428  0.0276 -0.1372
 2697SOL    HW119724   3.034   0.798  11.741  2.5491  0.3564  0.1690
 2697SOL    HW219725   2.931   0.895  11.785  0.3065  1.7256  1.0054
 2698SOL     OW19726   3.540   3.458   3.141 -0.0308 -0.7005  0.2357
 2698SOL    HW119727   3.471   3.500   3.192 -1.2455 -2.9620  0.4606
 2698SOL    HW219728   3.560   3.531   3.082  0.6978 -1.2926 -0.2611
 2699SOL     OW19729   2.187   0.662   9.170 -0.1884 -0.0755  0.1907
 2699SOL    HW119730   2.255   0.598   9.151 -0.5116 -0.3629 -0.0022
 2699SOL    HW219731   2.231   0.746   9.162  1.2641 -0.8310  0.2409
 2700SOL     OW19732   4.722   3.740   6.009  0.0605  0.3865 -1.0074
 2700SOL    HW119733   4.642   3.710   6.052  0.0224  0.3393 -1.1117
 2700SOL    HW219734   0.000   3.670   5.946  3.2338 -1.3704  1.8529
 2701SOL     OW19735   3.516   3.688   9.338 -0.1462  0.2072 -0.4438
 2701SOL    HW119736   3.602   3.720   9.312 -1.1129  3.5783  0.5117
 2701SOL    HW219737   3.480   3.774   9.360  0.7925  0.7305 -0.9588
 2702SOL     OW19738   2.063   4.482   2.408 -0.4511  0.2245  0.3327
 2702SOL    HW119739   2.015   4.564   2.417 -1.6763 -0.4310 -0.3209
 2702SOL    HW219740   1.998   4.418   2.436 -1.1930  0.2709 -1.2977
 2703SOL     OW19741   2.881   2.321   3.147  0.2969 -0.5904  0.1489
 2703SOL    HW119742   2.977   2.325   3.153  0.3615 -2.3621  0.2945
 2703SOL    HW219743   2.867   2.405   3.192 -0.9831 -1.1014  0.6975
 2704SOL     OW19744   1.123   2.384   6.002 -0.7928  0.2682  0.3330
 2704SOL    HW119745   1.038   2.402   6.042  0.8324  0.1303  3.8275
 2704SOL    HW219746   1.152   2.342   6.083 -1.4382  0.3351  0.5945
 2705SOL     OW19747   2.832   3.649  16.246  0.7238 -0.4831 -0.0573
 2705SOL    HW119748   2.900   3.609  16.300 -0.2316  1.2261  2.4364
 2705SOL    HW219749   2.832   3.590  16.171  0.3052  0.8288 -1.0829
 2706SOL     OW19750   1.131   1.148  15.838 -0.5120 -0.2936  0.5974
 2706SOL    HW119751   1.192   1.190  15.899  0.4665  0.1980 -0.7138
 2706SOL    HW219752   1.117   1.221  15.779  0.6519  1.0860  2.0339
 2707SOL     OW19753   2.316   1.477   4.337  0.0109  0.0099 -0.0625
 2707SOL    HW119754   2.309   1.382   4.326 -0.8119  0.1544 -0.8079
 2707SOL    HW219755   2.332   1.478   4.431  1.7113 -0.9225 -0.3461
 2708SOL     OW19756   3.376   3.212   5.796  0.0562  0.4924 -0.4480
 2708SOL    HW119757   3.394   3.278   5.729  0.1969 -0.0885 -0.9806
 2708SOL    HW219758   3.314   3.258   5.853 -1.2768 -0.3637 -1.2160
 2709SOL     OW19759   1.389   2.019  16.780 -0.0193  0.1120  0.0019
 2709SOL    HW119760   1.329   1.988  16.712 -0.4429 -0.7383  0.7486
 2709SOL    HW219761   1.330   2.087  16.814 -0.6160 -0.7445  0.6946
 2710SOL     OW19762   4.321   2.282   7.033  0.0785  0.4400  0.2353
 2710SOL    HW119763   4.261   2.213   7.062 -0.9052  1.1785 -0.0361
 2710SOL    HW219764   4.273   2.314   6.957 -1.2250 -0.4571  0.6817
 2711SOL     OW19765   0.982   3.887  13.301  0.5548 -0.1873  0.0324
 2711SOL    HW119766   0.941   3.967  13.269  0.0364 -0.3178  0.3604
 2711SOL    HW219767   1.074   3.911  13.288 -0.0413  2.2002  0.2801
 2712SOL     OW19768   2.717   2.987   5.740  0.4224 -0.2498 -0.1351
 2712SOL    HW119769   2.626   3.013   5.723 -0.3048 -0.3349  3.5444
 2712SOL    HW219770   2.748   3.061   5.793  1.0534  0.6511 -1.7659
 2713SOL     OW19771   0.529   0.702  17.204 -0.0290 -0.1524  0.0866
 2713SOL    HW119772   0.467   0.763  17.164  0.8323  1.1154  0.7033
 2713SOL    HW219773   0.541   0.636  17.136  1.0395  1.1980 -1.0399
 2714SOL     OW19774   4.566   0.257   9.915 -0.5138  0.4235  0.0819
 2714SOL    HW119775   4.567   0.308   9.996 -2.1139 -0.8734  0.9117
 2714SOL    HW219776   4.529   0.330   9.865 -3.5822  1.2624  3.6236
 2715SOL     OW19777   1.407   0.590   5.329 -0.1618 -0.1854 -0.0178
 2715SOL    HW119778   1.397   0.637   5.411  2.5441  0.3116  0.0244
 2715SOL    HW219779   1.366   0.505   5.347 -0.9339 -0.3034 -2.2120
 2716SOL     OW19780   0.013   3.985   4.863  0.4058 -0.4215  0.1641
 2716SOL    HW119781   0.075   4.026   4.924 -1.6923 -1.3649  2.9287
 2716SOL    HW219782   4.721   3.916   4.922 -0.3137 -0.7050 -0.5409
 2717SOL     OW19783   2.291   3.841   1.270  0.0237  0.1238 -0.0876
 2717SOL    HW119784   2.367   3.791   1.300  0.5271  1.4509  0.8474
 2717SOL    HW219785   2.316   3.876   1.185 -3.4989  4.7412  0.7734
 2718SOL     OW19786   0.320   4.190   2.182 -0.4935 -0.6694 -0.0739
 2718SOL    HW119787   0.329   4.240   2.263 -0.1253 -0.3482 -0.3073
 2718SOL    HW219788   0.241   4.221   2.137 -1.2279 -2.7251 -0.1536
 2719SOL     OW19789   0.535   3.963  13.197  0.0161  0.6687  0.1777
 2719SOL    HW119790   0.463   3.974  13.260  0.1444  0.4745  0.3594
 2719SOL    HW219791   0.547   3.868  13.204  2.8520  0.7952 -2.7130
 2720SOL     OW19792   2.987   2.438   8.190  0.1665  0.4900  0.1592
 2720SOL    HW119793   3.012   2.530   8.195  1.8709  0.1303 -2.0048
 2720SOL    HW219794   3.071   2.402   8.216 -0.4890 -1.7263 -0.7357
 2721SOL     OW19795   4.169   0.355   7.878 -0.3677  0.7995  0.3967
 2721SOL    HW119796   4.129   0.434   7.842 -1.1403 -0.0789 -0.6412
 2721SOL    HW219797   4.263   0.373   7.869 -0.5460  2.1046  1.0504
 2722SOL     OW19798   2.843   2.080   4.508  0.3711 -0.7750  0.3803
 2722SOL    HW119799   2.783   2.006   4.511 -0.0636 -0.4247  0.4498
 2722SOL    HW219800   2.779   2.139   4.468  0.2308 -0.7382  0.6525
 2723SOL     OW19801   2.617   0.100   1.370  0.0330 -0.0875  0.1680
 2723SOL    HW119802   2.620   0.009   1.398  1.5898 -0.1545 -0.2186
 2723SOL    HW219803   2.622   0.154   1.449 -1.7565  0.1521  0.1250
 2724SOL     OW19804   2.770   3.992   4.444 -0.0660  0.2234 -0.4644
 2724SOL    HW119805   2.748   3.955   4.530 -1.1659  1.5005 -0.1993
 2724SOL    HW219806   2.769   3.915   4.387 -0.3442  1.1093 -1.6541
 2725SOL     OW19807   3.959   4.470   9.578 -0.1417 -0.0608 -0.1358
 2725SOL    HW119808   4.054   4.476   9.579 -0.0547 -1.7452  1.2317
 2725SOL    HW219809   3.944   4.412   9.653  0.9237 -0.4552 -0.2321
 2726SOL     OW19810   1.259   3.325   1.858 -0.3627 -0.1109  0.0922
 2726SOL    HW119811   1.256   3.400   1.799  0.7481  1.2377  1.7618
 2726SOL    HW219812   1.242   3.262   1.788 -0.0548  0.4040 -0.4518
 2727SOL     OW19813   0.180   3.163   5.310 -0.3684 -0.2126 -0.4381
 2727SOL    HW119814   0.180   3.102   5.384  0.3619  1.5693  1.0544
 2727SOL    HW219815   0.265   3.145   5.271 -0.5714 -0.2482 -0.8648
 2728SOL     OW19816   0.217   4.237   8.905 -0.2811  0.1917 -0.2338
 2728SOL    HW119817   0.255   4.321   8.876  2.0820 -0.9662 -0.5273
 2728SOL    HW219818   0.225   4.237   9.001  1.2325  3.5774 -0.3478
 2729SOL     OW19819   2.452   1.047   3.673  0.4836  0.6020 -0.2667
 2729SOL    HW119820   2.364   1.085   3.676  0.4664  0.4488  1.1243
 2729SOL    HW219821   2.439   0.952   3.666  0.6808  0.5328  0.3438
 2730SOL     OW19822   1.534   2.845   5.362  0.2531 -0.2707 -0.0304
 2730SOL    HW119823   1.492   2.759   5.369 -2.2233  0.8333 -1.2671
 2730SOL    HW219824   1.624   2.814   5.367  0.5486  0.3393 -1.7399
 2731SOL     OW19825   1.937   4.494   0.172  0.0978 -0.0188  0.5488
 2731SOL    HW119826   2.026   4.498   0.135 -0.6011  1.2782 -0.9715
 2731SOL    HW219827   1.886   4.529   0.099 -0.7048 -1.4124  0.4542
 2732SOL     OW19828   2.990   2.133  17.244  0.2496  0.4772 -0.3429
 2732SOL    HW119829   2.899   2.156  17.260  0.3493  0.3381  0.4263
 2732SOL    HW219830   2.992   2.040  17.270 -0.1692  0.4282 -0.4907
 2733SOL     OW19831   1.012   3.330   6.677  0.5098  0.4499  0.1193
 2733SOL    HW119832   1.054   3.385   6.743  0.5553 -0.0987  0.5479
 2733SOL    HW219833   0.924   3.338   6.715 -0.1496 -0.2740 -1.2597
 2734SOL     OW19834   4.590   3.747   5.642 -0.0761  0.5364 -0.0615
 2734SOL    HW119835   4.543   3.812   5.589 -1.0880 -0.5029 -0.4456
 2734SOL    HW219836   4.524   3.681   5.663  0.1555  1.2096  2.7636
 2735SOL     OW19837   2.132   3.685   5.058 -0.1580 -0.3059 -0.2556
 2735SOL    HW119838   2.164   3.668   4.970  1.3942 -1.0246  0.4616
 2735SOL    HW219839   2.196   3.754   5.076 -0.2212 -0.0731 -0.9121
 2736SOL     OW19840   1.084   0.502   3.525 -0.1047  0.3376  0.3591
 2736SOL    HW119841   1.142   0.426   3.518  0.5610  1.0016 -1.3080
 2736SOL    HW219842   1.117   0.549   3.449  1.4540 -0.9035  0.2697
 2737SOL     OW19843   1.712   3.344   6.867  0.0577 -0.0756 -0.2668
 2737SOL    HW119844   1.708   3.423   6.813 -2.7517  0.8459  1.2788
 2737SOL    HW219845   1.689   3.277   6.802  1.5482 -0.0588 -0.8018
 2738SOL     OW19846   0.113   0.242   2.461 -0.4615  0.0852 -0.0727
 2738SOL    HW119847   0.197   0.281   2.439 -0.0984 -0.6524  0.0107
 2738SOL    HW219848   0.152   0.159   2.490 -0.2242  0.0170 -0.5834
 2739SOL     OW19849   2.206   0.902   5.375 -0.3953  0.6149  0.3248
 2739SOL    HW119850   2.240   0.986   5.407  0.0883  1.0060 -1.1786
 2739SOL    HW219851   2.141   0.929   5.309 -0.3071  2.3465  0.9475
 2740SOL     OW19852   1.683   4.233   1.490  0.0425 -0.1685 -0.0399
 2740SOL    HW119853   1.644   4.294   1.552  1.6946  0.9603 -0.1292
 2740SOL    HW219854   1.669   4.155   1.545 -0.3430 -0.4191 -0.4895
 2741SOL     OW19855   1.009   4.736  17.481  0.2082  0.0612 -0.1886
 2741SOL    HW119856   0.942   0.000  17.413 -0.6534  3.0084  0.8060
 2741SOL    HW219857   1.037   0.088  17.489  0.7166 -0.2984  2.2836
 2742SOL     OW19858   0.189   1.902   2.411 -0.7571  0.0198  0.5080
 2742SOL    HW119859   0.185   1.956   2.490  0.7182  1.7826 -0.6306
 2742SOL    HW219860   0.266   1.936   2.365 -0.3831  0.1780  1.2372
 2743SOL     OW19861   1.296   3.219   9.818  0.1975 -0.0836  0.6886
 2743SOL    HW119862   1.209   3.180   9.823 -0.1072  0.6033  0.8290
 2743SOL    HW219863   1.302   3.250   9.728  0.5637  0.4085  0.8805
 2744SOL     OW19864   1.056   2.662   6.858  0.2568 -0.1448 -0.0469
 2744SOL    HW119865   0.975   2.662   6.807 -0.2105 -0.0693  0.6979
 2744SOL    HW219866   1.094   2.580   6.826 -0.6863 -0.6993  0.2692
 2745SOL     OW19867   4.648   4.594   5.643 -0.6278 -0.0747 -0.3755
 2745SOL    HW119868   0.002   4.591   5.622 -1.0051 -2.6121 -1.6462
 2745SOL    HW219869   4.642   4.517   5.699 -0.5911  0.5830  0.5363
 2746SOL     OW19870   3.835   1.899  14.780  0.4110 -0.2310  0.5268
 2746SOL    HW119871   3.798   1.890  14.868 -1.9962 -1.4558 -0.6234
 2746SOL    HW219872   3.767   1.944  14.730  2.1758  0.3141 -1.3958
 2747SOL     OW19873   2.000   0.307   9.438  0.1246 -0.2653  0.4292
 2747SOL    HW119874   2.087   0.277   9.464  0.7415 -0.0119 -1.3842
 2747SOL    HW219875   1.995   0.393   9.478 -0.1077 -0.1581  0.1688
 2748SOL     OW19876   4.074   2.547   4.491  0.5222  0.3415 -0.0828
 2748SOL    HW119877   4.022   2.525   4.568  0.9766 -0.0731  0.0988
 2748SOL    HW219878   4.164   2.525   4.514 -0.1322  0.7490  2.8082
 2749SOL     OW19879   0.825   4.007   8.180  0.3305  0.2299 -0.3796
 2749SOL    HW119880   0.912   4.022   8.143  0.9795  1.8452  1.8020
 2749SOL    HW219881   0.797   4.097   8.198 -2.9965 -1.0373  0.8939
 2750SOL     OW19882   4.261   3.649   7.987 -0.2362 -0.0328  0.0494
 2750SOL    HW119883   4.231   3.686   8.070 -0.6983  1.0043 -0.5845
 2750SOL    HW219884   4.251   3.556   8.007  0.2819  0.2443  1.5711
 2751SOL     OW19885   3.420   0.285   3.014  0.2003  0.2164 -0.4672
 2751SOL    HW119886   3.357   0.279   2.942 -1.4501  0.4166  0.9663
 2751SOL    HW219887   3.463   0.200   3.019 -0.4536 -0.0838 -0.0385
 2752SOL     OW19888   3.929   1.138  16.893 -0.3860  0.5394  0.0682
 2752SOL    HW119889   3.997   1.071  16.887 -0.2348  0.5444  1.6617
 2752SOL    HW219890   3.865   1.092  16.948 -0.5036 -0.7960 -1.1851
 2753SOL     OW19891   3.250   1.461   8.045 -0.5728 -0.1570 -0.1131
 2753SOL    HW119892   3.293   1.377   8.061 -2.3452 -0.9383  0.5233
 2753SOL    HW219893   3.162   1.430   8.066 -0.8900  2.0780  1.7395
 2754SOL     OW19894   4.106   1.440   3.445  0.6108  0.5641 -0.3594
 2754SOL    HW119895   4.018   1.473   3.462 -0.2292 -1.0967 -1.4052
 2754SOL    HW219896   4.161   1.517   3.461  2.1913 -0.6710  0.2140
 2755SOL     OW19897   2.368   1.690   1.956  0.1835  0.0103 -0.3680
 2755SOL    HW119898   2.290   1.731   1.917  0.5645 -2.0019 -3.2305
 2755SOL    HW219899   2.340   1.598   1.964  4.0859 -1.2567 -1.5415
 2756SOL     OW19900   4.562   2.898   0.642  0.0154 -0.2149 -0.3572
 2756SOL    HW119901   4.576   2.815   0.596 -0.3203  0.6052 -1.9213
 2756SOL    HW219902   4.473   2.921   0.614 -0.6947 -2.7049 -0.1814
 2757SOL     OW19903   1.052   0.631   8.597  0.2729  0.0959  0.3888
 2757SOL    HW119904   1.135   0.589   8.575  0.5605 -0.2272  2.0493
 2757SOL    HW219905   1.045   0.702   8.533  2.4813  1.0483  1.1963
 2758SOL     OW19906   2.744   1.980   0.952 -0.0455  0.9403 -0.2081
 2758SOL    HW119907   2.688   2.053   0.978 -1.1417  0.0971 -0.2060
 2758SOL    HW219908   2.711   1.911   1.009 -1.4840  1.3478 -0.5285
 2759SOL     OW19909   3.970   4.602   1.608  0.3938 -0.4392  0.0484
 2759SOL    HW119910   4.030   4.674   1.625 -1.3667  0.9019  0.5481
 2759SOL    HW219911   4.024   4.532   1.645  1.3598 -0.0529 -0.6602
 2760SOL     OW19912   2.379   0.410   7.612 -0.1463 -0.3381  0.0088
 2760SOL    HW119913   2.425   0.381   7.534  1.4916  2.8152 -0.1635
 2760SOL    HW219914   2.342   0.326   7.639  1.2471 -0.5733  1.1893
 2761SOL     OW19915   2.103   2.454   5.592 -0.0376  0.3804 -0.2953
 2761SOL    HW119916   2.043   2.504   5.537  0.3824 -1.3709 -2.3611
 2761SOL    HW219917   2.043   2.401   5.645 -0.8614 -0.9557 -2.5508
 2762SOL     OW19918   2.247   1.816   1.613 -0.0840  0.7470 -0.0909
 2762SOL    HW119919   2.218   1.848   1.699 -0.4724  1.8806 -0.6464
 2762SOL    HW219920   2.166   1.813   1.563 -1.7364  0.7700  2.5671
 2763SOL     OW19921   4.614   3.803   0.234  0.4424  0.4674 -0.7225
 2763SOL    HW119922   4.638   3.715   0.262  1.2767  1.0706  0.4800
 2763SOL    HW219923   4.639   3.859   0.308  1.7972  0.6259 -1.3002
 2764SOL     OW19924   2.741   0.193   1.938  0.1730 -0.6013  0.5993
 2764SOL    HW119925   2.733   0.130   1.866 -1.4692 -0.1308  0.3597
 2764SOL    HW219926   2.829   0.224   1.917 -0.4937 -0.0400 -1.4252
 2765SOL     OW19927   3.137   2.972   6.615 -0.3048  0.3664  0.1833
 2765SOL    HW119928   3.145   2.878   6.634 -1.0647 -0.5173 -3.7947
 2765SOL    HW219929   3.193   2.980   6.538  2.0049  0.3385  1.8825
 2766SOL     OW19930   0.049   1.188  11.143  0.4538  0.6313 -0.3599
 2766SOL    HW119931   0.012   1.267  11.182  3.9734  2.6899 -1.2297
 2766SOL    HW219932   0.048   1.222  11.054  0.4174 -2.3989 -1.5042
 2767SOL     OW19933   0.025   3.937   4.524  0.1802  0.2411  0.2351
 2767SOL    HW119934   4.675   3.967   4.508 -0.0496 -0.1417  0.8186
 2767SOL    HW219935   0.024   3.941   4.619 -0.7490 -0.9292  0.2779
 2768SOL     OW19936   2.194   2.368   4.006 -0.7008 -0.4395  0.0367
 2768SOL    HW119937   2.228   2.370   4.095 -2.3606 -1.3811  0.6856
 2768SOL    HW219938   2.263   2.414   3.958 -1.7051  0.3337 -0.6644
 2769SOL     OW19939   1.804   4.052   7.746  0.3662 -0.1786  0.4788
 2769SOL    HW119940   1.853   4.117   7.798 -2.9482  1.7076  1.2733
 2769SOL    HW219941   1.717   4.093   7.742  0.7737  0.8606  2.0697
 2770SOL     OW19942   0.732   3.782   3.449 -0.0079 -0.0229  0.8376
 2770SOL    HW119943   0.791   3.852   3.423  0.3761 -0.5642  0.2559
 2770SOL    HW219944   0.654   3.834   3.470 -0.0483 -0.4593  1.7445
 2771SOL     OW19945   0.808   2.802   5.696 -0.0392  0.0684  0.0930
 2771SOL    HW119946   0.903   2.796   5.712 -0.3670  1.2679  2.4673
 2771SOL    HW219947   0.783   2.873   5.755 -3.2697 -2.1355  1.3625
 2772SOL     OW19948   1.968   4.004   1.593 -0.3350  0.2828  0.8632
 2772SOL    HW119949   2.051   3.957   1.587 -0.4501  0.0978  0.7053
 2772SOL    HW219950   1.998   4.091   1.618 -2.1290  0.8895  0.9433
 2773SOL     OW19951   0.391   4.564  12.261 -0.4883  0.0825  0.2238
 2773SOL    HW119952   0.482   4.588  12.280 -0.0548 -0.8785 -0.5709
 2773SOL    HW219953   0.366   4.650  12.228  1.4515  0.7414  0.4312
 2774SOL     OW19954   4.610   0.909   2.317 -0.0635 -0.2621  0.3358
 2774SOL    HW119955   4.617   0.840   2.251  0.3072 -2.0501  2.2118
 2774SOL    HW219956   4.685   0.876   2.368  0.4586  1.9340  0.9726
 2775SOL     OW19957   0.571   2.987  12.149 -0.1677 -0.0725 -0.5199
 2775SOL    HW119958   0.524   3.069  12.169 -1.4043 -0.9505  0.1587
 2775SOL    HW219959   0.554   2.936  12.228 -1.9416 -0.1127 -0.9313
 2776SOL     OW19960   3.805   0.094   6.762 -0.1035  0.7283  0.2613
 2776SOL    HW119961   3.805   0.022   6.699  2.9397 -0.3852  1.5084
 2776SOL    HW219962   3.860   0.043   6.821 -0.3823  0.2566  0.1124
 2777SOL     OW19963   4.313   3.472   4.155 -0.4549 -0.2888  0.1524
 2777SOL    HW119964   4.371   3.546   4.172 -1.1489  0.4132 -0.5115
 2777SOL    HW219965   4.348   3.440   4.072  0.5430  0.8329  0.1446
 2778SOL     OW19966   3.428   2.817   4.931 -0.0448  0.2518 -0.7088
 2778SOL    HW119967   3.431   2.898   4.982  1.0231 -0.2693  0.0739
 2778SOL    HW219968   3.396   2.858   4.851 -0.2696 -0.4461 -0.9809
 2779SOL     OW19969   3.695   0.040   8.621  0.4462  0.1787  1.2375
 2779SOL    HW119970   3.695   0.112   8.557  2.0788 -0.0126  1.0239
 2779SOL    HW219971   3.723   0.082   8.702  0.2825  3.7668 -0.5397
 2780SOL     OW19972   4.322   0.552  15.682 -0.1620 -0.2318 -0.0933
 2780SOL    HW119973   4.348   0.637  15.648 -3.6476  1.3479  1.2504
 2780SOL    HW219974   4.358   0.495  15.614  1.4853 -1.3804  1.7109
 2781SOL     OW19975   1.523   2.930   1.513  0.0844 -0.3623  0.0089
 2781SOL    HW119976   1.475   2.895   1.587 -0.6022  1.6316  0.5109
 2781SOL    HW219977   1.518   3.026   1.515 -0.8853 -0.3881 -1.2299
 2782SOL     OW19978   4.508   2.250   3.706 -0.0148  0.0569 -0.5764
 2782SOL    HW119979   4.455   2.208   3.773 -0.5196  2.2082  0.3762
 2782SOL    HW219980   4.568   2.304   3.757  0.0532 -0.0776 -0.5150
 2783SOL     OW19981   2.078   3.705   2.732  0.7464 -0.2243  0.0029
 2783SOL    HW119982   2.058   3.617   2.700 -0.1780  0.5234 -1.4196
 2783SOL    HW219983   2.100   3.674   2.820 -2.5678 -1.4921  0.3934
 2784SOL     OW19984   4.082   3.729   3.080  0.4629 -0.6397  0.1495
 2784SOL    HW119985   4.120   3.706   2.995 -2.7460 -0.7850 -1.2312
 2784SOL    HW219986   4.046   3.653   3.126 -1.9477  0.3614 -0.0943
 2785SOL     OW19987   2.797   1.986   4.903 -0.2598 -0.1393  0.3317
 2785SOL    HW119988   2.866   1.978   4.837 -1.5643 -1.4044 -0.8989
 2785SOL    HW219989   2.815   1.909   4.957 -1.5343 -0.5250  0.2235
 2786SOL     OW19990   0.958   0.643   4.387  0.3961  0.2254  0.1235
 2786SOL    HW119991   1.031   0.657   4.328  0.4536 -0.3655  0.0534
 2786SOL    HW219992   1.000   0.574   4.439  0.5604  2.0833  2.4988
 2787SOL     OW19993   3.070   1.107   3.692  0.3424  0.5165 -0.4731
 2787SOL    HW119994   2.997   1.168   3.703 -1.6351 -1.7686 -1.0302
 2787SOL    HW219995   3.033   1.042   3.751 -0.6718  2.0947  0.6057
 2788SOL     OW19996   1.318   1.272  13.963  0.2686  0.4593 -0.4082
 2788SOL    HW119997   1.311   1.179  13.982  1.3405  0.1026 -1.7818
 2788SOL    HW219998   1.328   1.273  13.868  0.0159  1.8059 -0.4252
 2789SOL     OW19999   4.673   3.587   3.583 -0.1465  0.9195  0.2186
 2789SOL    HW120000   4.723   3.575   3.502  1.9962 -1.6111  1.9617
 2789SOL    HW220001   4.735   3.647   3.625  1.1079  0.2486 -0.6936
 2790SOL     OW20002   2.511   3.046   6.513 -0.4583  0.4769 -0.1796
 2790SOL    HW120003   2.519   2.958   6.477  0.0827  0.3687  0.2029
 2790SOL    HW220004   2.508   3.106   6.439  1.5099  1.0510  0.2060
 2791SOL     OW20005   2.812   4.483  16.645  0.1145  0.1160  0.1627
 2791SOL    HW120006   2.775   4.546  16.707 -0.2194  1.2192 -1.1508
 2791SOL    HW220007   2.816   4.397  16.687  1.9441  1.1095  2.0881
 2792SOL     OW20008   3.901   1.805   2.264 -0.0684  0.3058 -0.5277
 2792SOL    HW120009   3.862   1.736   2.318 -0.3346  0.2968 -0.7344
 2792SOL    HW220010   3.915   1.873   2.331 -0.4436 -1.1356  1.0272
 2793SOL     OW20011   2.641   3.323   1.645  0.5908 -0.2472 -0.0555
 2793SOL    HW120012   2.577   3.252   1.656  1.4310 -1.0884 -0.5707
 2793SOL    HW220013   2.586   3.398   1.666  0.4170 -0.7335  1.2657
 2794SOL     OW20014   3.791   4.420  16.066 -0.6266 -0.3933  0.3507
 2794SOL    HW120015   3.883   4.401  16.081 -0.9525 -0.9814  1.6282
 2794SOL    HW220016   3.745   4.361  16.126  1.3921 -1.6774  0.6013
 2795SOL     OW20017   0.006   1.155   8.012  0.2058  0.2632  0.2154
 2795SOL    HW120018   4.725   1.181   7.922 -0.6901  0.4219  0.4661
 2795SOL    HW220019   4.663   1.156   8.060  0.4798  0.8264  0.6703
 2796SOL     OW20020   3.140   0.950   0.839 -0.1323  0.2471 -0.3129
 2796SOL    HW120021   3.067   0.986   0.890 -0.0926  3.4348 -2.4889
 2796SOL    HW220022   3.103   0.862   0.829 -0.1231  0.0950  0.9781
 2797SOL     OW20023   1.450   0.138   1.381 -0.0995  0.6285 -0.3652
 2797SOL    HW120024   1.420   0.077   1.447 -1.7228  1.0237 -0.7560
 2797SOL    HW220025   1.545   0.123   1.390 -0.4554 -3.2701 -3.1579
 2798SOL     OW20026   2.008   0.025   6.156  0.0115 -0.4551 -0.0948
 2798SOL    HW120027   2.028   0.062   6.069 -0.0382  0.3693  0.2425
 2798SOL    HW220028   2.027   4.672   6.144  1.6978  0.0768 -1.4466
 2799SOL     OW20029   0.389   1.812  12.720  0.2155  0.1376 -0.4375
 2799SOL    HW120030   0.448   1.752  12.765  1.9298  3.7534  2.0884
 2799SOL    HW220031   0.350   1.745  12.664  0.3355 -1.6094  1.6145
 2800SOL     OW20032   0.663   2.238   1.679  0.3905  0.0169 -0.2684
 2800SOL    HW120033   0.755   2.261   1.683  0.3179  0.3380 -0.4294
 2800SOL    HW220034   0.654   2.165   1.617 -2.0637 -0.4147  0.5771
 2801SOL     OW20035   2.000   2.571   8.905 -0.0118 -0.0299  0.0981
 2801SOL    HW120036   2.045   2.603   8.984 -1.0520  1.1728  0.2073
 2801SOL    HW220037   1.923   2.626   8.891 -0.0958 -0.6918 -1.9472
 2802SOL     OW20038   1.448   1.520   7.698 -0.1049 -0.1475  1.0812
 2802SOL    HW120039   1.503   1.447   7.670  0.4735  0.8604 -0.4303
 2802SOL    HW220040   1.401   1.528   7.615 -0.8690  2.6817  1.7593
 2803SOL     OW20041   3.362   2.575   2.966  0.2305  0.3779 -0.4028
 2803SOL    HW120042   3.351   2.485   2.996 -1.0378  1.4926  2.5049
 2803SOL    HW220043   3.445   2.582   2.919  1.3053 -1.7338  1.2191
 2804SOL     OW20044   0.282   3.238   3.929 -0.0473  0.5123  0.0630
 2804SOL    HW120045   0.210   3.295   3.957  0.3039  0.2911  1.4168
 2804SOL    HW220046   0.272   3.153   3.970  0.1973  0.0411 -0.8537
 2805SOL     OW20047   4.625   1.913   6.264 -0.1724 -0.3744  0.4565
 2805SOL    HW120048   4.720   1.902   6.276 -0.0766  0.0556  0.0864
 2805SOL    HW220049   4.599   1.907   6.356 -2.1117  1.2549  0.0232
 2806SOL     OW20050   1.672   4.606   3.783 -0.2790 -0.7921 -0.2024
 2806SOL    HW120051   1.625   4.552   3.719  0.6971 -1.1409 -0.6388
 2806SOL    HW220052   1.631   4.597   3.869 -0.7772  1.6896 -0.2020
 2807SOL     OW20053   3.730   4.421   3.839 -0.1506 -0.2929 -0.4212
 2807SOL    HW120054   3.682   4.501   3.818  2.5506  1.8227  1.5359
 2807SOL    HW220055   3.686   4.382   3.915  2.8870 -2.4807  0.2403
 2808SOL     OW20056   3.317   2.614   7.991 -0.2389  0.2140 -0.2766
 2808SOL    HW120057   3.402   2.571   7.998  0.7921  2.3413  0.2480
 2808SOL    HW220058   3.343   2.705   8.002  2.2155 -0.2538 -2.1681
 2809SOL     OW20059   1.658   3.988   4.251 -0.2962  0.9330  0.4575
 2809SOL    HW120060   1.580   4.032   4.217 -1.7254  0.2240  2.8588
 2809SOL    HW220061   1.725   4.056   4.237 -0.0087  0.4780 -0.3545
 2810SOL     OW20062   4.722   2.583   6.651  0.3305 -0.1092 -0.3539
 2810SOL    HW120063   0.039   2.514   6.685 -1.4168 -0.5768  1.5698
 2810SOL    HW220064   4.739   2.656   6.710 -0.4792  1.7633 -2.4544
 2811SOL     OW20065   1.058   3.108  14.188  0.0988 -0.1964 -0.0787
 2811SOL    HW120066   1.040   3.057  14.109 -2.8046  0.1917  0.3131
 2811SOL    HW220067   1.068   3.193  14.145 -1.6426  0.6604  1.1704
 2812SOL     OW20068   0.094   1.842   6.483  0.2751  0.5396  0.0267
 2812SOL    HW120069   0.009   1.856   6.525  0.9775 -0.4246  1.7844
 2812SOL    HW220070   0.141   1.916   6.521  1.3773 -1.6930  3.0518
 2813SOL     OW20071   4.166   0.296   2.087  0.0538 -0.1152 -0.1229
 2813SOL    HW120072   4.155   0.378   2.136  0.5650 -0.4848  0.6035
 2813SOL    HW220073   4.192   0.328   2.001 -1.3619  0.2561 -0.4068
 2814SOL     OW20074   4.372   3.590  10.088 -0.1677 -0.4607  0.1768
 2814SOL    HW120075   4.460   3.575  10.121 -0.5491  0.6201  1.7254
 2814SOL    HW220076   4.315   3.575  10.164  1.8595 -1.1117  1.5609
 2815SOL     OW20077   3.381   0.294  14.790  0.2332 -0.1729 -0.1990
 2815SOL    HW120078   3.417   0.374  14.753 -0.3754 -0.0119 -0.4372
 2815SOL    HW220079   3.463   0.268  14.832 -1.4142  0.4093  3.3977
 2816SOL     OW20080   0.392   1.862   7.856 -0.1623 -0.2404 -0.0475
 2816SOL    HW120081   0.323   1.928   7.841  2.3649  1.7938 -2.7206
 2816SOL    HW220082   0.425   1.910   7.932 -1.9671  1.7474 -0.5076
 2817SOL     OW20083   1.832   1.280   9.443 -0.5246  1.1026 -0.3207
 2817SOL    HW120084   1.760   1.219   9.424  1.0822 -1.2346  1.0783
 2817SOL    HW220085   1.902   1.255   9.383  0.0723  1.9350  0.0317
 2818SOL     OW20086   0.168   4.095   7.038 -0.6547  0.6815  0.5329
 2818SOL    HW120087   0.249   4.107   6.989  0.4745  0.0015  2.2316
 2818SOL    HW220088   0.183   4.115   7.130 -0.4379  1.9393  0.2256
 2819SOL     OW20089   1.411   4.139   4.192  0.2215 -0.1894 -0.5741
 2819SOL    HW120090   1.320   4.123   4.167  0.2424 -0.5664 -0.4027
 2819SOL    HW220091   1.421   4.222   4.145  0.5788  0.5077  0.7294
 2820SOL     OW20092   0.976   0.422  10.677  0.0859  0.0010  0.7492
 2820SOL    HW120093   1.024   0.463  10.750  0.7721  1.0645 -0.2926
 2820SOL    HW220094   1.043   0.375  10.627  1.7830  2.6679  0.5243
 2821SOL     OW20095   0.697   1.652  11.606  0.0265  0.1939 -0.0824
 2821SOL    HW120096   0.748   1.583  11.648  0.2800  1.4643  1.6781
 2821SOL    HW220097   0.773   1.676  11.554  0.6875  0.6683  1.1092
 2822SOL     OW20098   3.474   1.090   9.785 -0.3906 -0.0251 -0.1037
 2822SOL    HW120099   3.459   1.090   9.880 -0.5782 -1.0151 -0.1353
 2822SOL    HW220100   3.382   1.103   9.766 -0.3475 -2.0595 -1.6421
 2823SOL     OW20101   4.468   4.710   2.989 -0.3036  0.7097 -0.1573
 2823SOL    HW120102   4.450   0.040   2.925  2.2602 -0.0606 -1.6773
 2823SOL    HW220103   4.383   4.690   3.028  0.2868 -1.4048  0.0157
 2824SOL     OW20104   4.541   0.765   8.462  0.4206 -0.3453  0.3552
 2824SOL    HW120105   4.447   0.748   8.457 -0.0163  1.6331  2.1383
 2824SOL    HW220106   4.572   0.709   8.533 -1.6609 -3.1358 -0.9153
 2825SOL     OW20107   2.727   4.307   4.511  0.0012 -0.3282 -0.9414
 2825SOL    HW120108   2.721   4.365   4.435  4.1418 -1.8620 -2.4475
 2825SOL    HW220109   2.719   4.219   4.474  0.4934 -1.5007  1.7035
 2826SOL     OW20110   0.780   1.138  11.201  1.0988 -0.4776 -0.5403
 2826SOL    HW120111   0.744   1.067  11.254 -0.5905  1.0878  0.4121
 2826SOL    HW220112   0.808   1.080  11.130  2.8903 -0.0888 -0.1483
 2827SOL     OW20113   1.250   0.225   3.429 -0.2050 -0.2735  0.2374
 2827SOL    HW120114   1.337   0.186   3.438  0.1846  1.0948  2.2587
 2827SOL    HW220115   1.221   0.198   3.342 -2.1584 -1.7102  1.3414
 2828SOL     OW20116   4.433   3.507   3.425 -0.3400 -0.1523 -0.2495
 2828SOL    HW120117   4.393   3.587   3.458  0.3337 -0.3793  1.1226
 2828SOL    HW220118   4.521   3.520   3.461 -0.4537 -1.1884  0.4040
 2829SOL     OW20119   1.053   3.669   3.702 -0.3021 -0.4556  0.0051
 2829SOL    HW120120   1.070   3.744   3.759  0.4030 -0.9245  0.4192
 2829SOL    HW220121   0.960   3.654   3.719 -0.6188  0.4483 -0.9541
 2830SOL     OW20122   1.882   1.108   7.467 -0.2664 -0.1984 -0.3594
 2830SOL    HW120123   1.900   1.021   7.504  0.6874  0.0940 -0.1440
 2830SOL    HW220124   1.837   1.084   7.386 -0.9997  0.2557 -0.0828
 2831SOL     OW20125   3.468   3.396   9.359 -0.0585 -0.1154  0.3517
 2831SOL    HW120126   3.470   3.372   9.266 -0.1684 -2.4282  0.9489
 2831SOL    HW220127   3.494   3.488   9.365 -2.0087  0.4158  0.4707
 2832SOL     OW20128   3.990   0.271   4.245  0.6030  0.0645  0.5543
 2832SOL    HW120129   4.065   0.291   4.190  0.0190  1.6195  0.3369
 2832SOL    HW220130   3.927   0.331   4.206 -0.2924 -1.0056  0.3472
 2833SOL     OW20131   3.434   2.440   6.104  0.0191 -0.8195  0.1455
 2833SOL    HW120132   3.485   2.403   6.032 -2.1958  1.5265 -2.6084
 2833SOL    HW220133   3.451   2.533   6.088 -1.1905 -0.3012  1.8242
 2834SOL     OW20134   4.732   3.857  11.664  0.3902 -0.1425 -0.0866
 2834SOL    HW120135   4.720   3.798  11.590  0.8233 -0.8752  0.4310
 2834SOL    HW220136   4.642   3.878  11.689 -0.9062 -2.4550 -2.8181
 2835SOL     OW20137   4.055   2.425   1.249 -0.5597  0.5111  0.5060
 2835SOL    HW120138   3.985   2.481   1.281 -0.7491  0.7712 -0.3857
 2835SOL    HW220139   4.091   2.463   1.169 -0.2250  1.5461  1.1617
 2836SOL     OW20140   0.514   0.634   3.535  0.4995 -0.8248  0.2199
 2836SOL    HW120141   0.566   0.561   3.503 -1.4257 -2.5846  1.0481
 2836SOL    HW220142   0.569   0.712   3.532 -0.6779 -0.0300 -1.1816
 2837SOL     OW20143   4.176   3.761  17.104 -0.3215  0.2773  0.1551
 2837SOL    HW120144   4.133   3.761  17.190 -0.1051 -1.0805  0.2577
 2837SOL    HW220145   4.145   3.844  17.067  0.0272 -0.1389 -1.0751
 2838SOL     OW20146   2.342   3.542  17.515  0.0841  0.0472 -0.5445
 2838SOL    HW120147   2.360   3.634  17.492 -0.5460  0.3436  0.1676
 2838SOL    HW220148   2.429   3.505  17.500  0.3055  0.0640  0.7706
 2839SOL     OW20149   4.113   4.662   2.783  0.1045  0.1519  0.7085
 2839SOL    HW120150   4.102   4.574   2.749  1.7486  0.4670 -0.6783
 2839SOL    HW220151   4.059   4.648   2.860 -1.5271  2.0305 -0.0898
 2840SOL     OW20152   0.043   0.860   6.767  0.1337  0.4242  0.2399
 2840SOL    HW120153   4.697   0.823   6.744  1.8784 -1.0494 -3.9279
 2840SOL    HW220154   0.019   0.931   6.827 -2.2100  0.5184 -0.7965
 2841SOL     OW20155   1.507   4.470  15.869 -0.4105  0.3566  0.1412
 2841SOL    HW120156   1.512   4.416  15.791 -0.4906  1.0151 -0.3198
 2841SOL    HW220157   1.601   4.487  15.880 -0.6183  1.2858  0.4654
 2842SOL     OW20158   4.482   2.804  11.957  0.8496  0.2788 -0.2970
 2842SOL    HW120159   4.473   2.720  11.912 -2.0561  0.2668  0.3223
 2842SOL    HW220160   4.483   2.778  12.049 -1.6336 -1.3682 -0.7345
 2843SOL     OW20161   3.009   0.441  17.654  0.7902 -0.5710  0.0880
 2843SOL    HW120162   2.999   0.501  17.581 -0.0108 -2.1488 -1.1022
 2843SOL    HW220163   3.104   0.449  17.663  0.9913 -0.7075 -2.0463
 2844SOL     OW20164   3.912   4.630   2.976  0.2434  0.1215 -0.2764
 2844SOL    HW120165   3.935   4.562   3.039 -1.1271  0.3283  0.4415
 2844SOL    HW220166   3.821   4.604   2.960 -0.0573  1.5888 -1.0106
 2845SOL     OW20167   3.224   2.585   4.500 -0.3726 -0.8060  0.1902
 2845SOL    HW120168   3.143   2.628   4.474  0.9579  1.6273  0.1195
 2845SOL    HW220169   3.226   2.495   4.465 -0.6702 -1.4747  1.8844
 2846SOL     OW20170   3.371   4.048   3.018 -0.0081  0.1025  0.2215
 2846SOL    HW120171   3.316   4.087   2.950 -0.0197  0.8295  0.6486
 2846SOL    HW220172   3.451   4.099   3.028 -1.1321  1.7160  0.9202
 2847SOL     OW20173   2.865   3.261  15.342  0.4014 -0.4046  0.3630
 2847SOL    HW120174   2.845   3.171  15.368 -1.5371 -0.2834 -0.6816
 2847SOL    HW220175   2.936   3.250  15.279  0.2036  2.3017 -0.3482
 2848SOL     OW20176   2.727   1.379   3.603  0.1857 -0.1745  0.1938
 2848SOL    HW120177   2.763   1.382   3.514 -0.4416  0.2040 -0.0435
 2848SOL    HW220178   2.643   1.425   3.598  0.0992 -0.5484 -1.6892
 2849SOL     OW20179   4.320   1.235   1.039 -1.1966  0.2722  0.3128
 2849SOL    HW120180   4.409   1.219   1.006 -2.3211 -3.0441 -1.1115
 2849SOL    HW220181   4.263   1.201   0.971 -0.7420  0.0589  0.0374
 2850SOL     OW20182   4.601   4.163   3.140 -0.2610  0.3815 -0.3178
 2850SOL    HW120183   4.575   4.124   3.057 -0.8039  1.2081 -0.5343
 2850SOL    HW220184   4.526   4.221   3.150 -1.0035 -0.8509  1.3319
 2851SOL     OW20185   2.805   4.608   6.704  0.0356 -0.1238  0.1682
 2851SOL    HW120186   2.743   4.543   6.736  0.5973 -0.8398 -0.1852
 2851SOL    HW220187   2.892   4.575   6.728 -0.4395 -1.6152 -0.1907
 2852SOL     OW20188   2.276   2.304   6.346  0.0023  0.0745  0.0460
 2852SOL    HW120189   2.334   2.265   6.411  1.7349  1.7425 -0.4798
 2852SOL    HW220190   2.301   2.396   6.334 -2.9480  1.3337  3.7837
 2853SOL     OW20191   0.152   3.126   6.600  0.2963  0.0781 -0.4842
 2853SOL    HW120192   0.072   3.085   6.566 -0.2502 -1.1580  2.3434
 2853SOL    HW220193   0.143   3.211   6.558 -0.8491 -0.1921 -0.8017
 2854SOL     OW20194   3.894   3.105   3.190 -0.0153 -0.3640 -0.0621
 2854SOL    HW120195   3.985   3.115   3.163  0.0745 -0.2988  0.2580
 2854SOL    HW220196   3.859   3.193   3.202  1.1662 -0.5178  4.5500
 2855SOL     OW20197   2.429   1.172  13.458 -0.7318  0.4852 -0.0791
 2855SOL    HW120198   2.512   1.184  13.502  0.0707 -1.7173 -0.9730
 2855SOL    HW220199   2.437   1.246  13.398  1.9215 -0.9549 -1.4880
 2856SOL     OW20200   1.367   0.404   7.171 -0.4699  0.4761  0.4732
 2856SOL    HW120201   1.322   0.329   7.134 -0.5959  1.0340 -0.5016
 2856SOL    HW220202   1.334   0.406   7.261  0.8773 -1.9807  1.0208
 2857SOL     OW20203   0.286   2.252  13.336 -0.1509 -0.2053  0.1668
 2857SOL    HW120204   0.368   2.294  13.310  1.3489 -2.4444  1.2632
 2857SOL    HW220205   0.302   2.171  13.287  0.2826  1.2687 -2.1144
 2858SOL     OW20206   1.804   0.943   9.768 -0.4693  0.0135 -0.5127
 2858SOL    HW120207   1.880   0.888   9.787 -0.4041  0.6227  0.9879
 2858SOL    HW220208   1.849   1.001   9.706 -1.9271  0.2508 -1.3452
 2859SOL     OW20209   1.937   3.708   9.138 -0.3562  0.0518  0.7296
 2859SOL    HW120210   2.020   3.686   9.095 -2.7133 -0.5620 -3.4919
 2859SOL    HW220211   1.964   3.731   9.226  0.7478  0.1073  0.3785
 2860SOL     OW20212   0.170   3.993  11.491 -0.2171 -0.2897  0.0886
 2860SOL    HW120213   0.093   3.965  11.540  0.8607  1.2283  2.6332
 2860SOL    HW220214   0.232   3.984  11.563  0.5981  0.5721 -0.4968
 2861SOL     OW20215   0.682   2.183   7.032  0.0439  0.1057 -0.6828
 2861SOL    HW120216   0.725   2.235   7.101  1.4650 -1.4377 -0.3778
 2861SOL    HW220217   0.728   2.099   7.044 -1.1620 -0.3962  0.4629
 2862SOL     OW20218   3.237   4.007  10.916  0.0648  0.3336 -0.2243
 2862SOL    HW120219   3.161   4.065  10.909  0.7673  1.3117  0.2652
 2862SOL    HW220220   3.258   3.977  10.828 -0.7264 -1.0915  0.0680
 2863SOL     OW20221   3.327   0.297   5.714  0.3120  0.2102 -0.2169
 2863SOL    HW120222   3.278   0.378   5.703  1.2929  0.6382 -1.3206
 2863SOL    HW220223   3.372   0.320   5.795 -0.2470  0.8705 -0.0931
 2864SOL     OW20224   4.730   2.169  11.983 -0.7784  0.2193  0.3292
 2864SOL    HW120225   4.709   2.243  11.926 -2.7277 -1.3130 -0.9369
 2864SOL    HW220226   4.643   2.133  12.004 -0.6131 -0.5517 -0.3090
 2865SOL     OW20227   3.375   4.278  16.126  0.1457 -0.1827  0.4716
 2865SOL    HW120228   3.305   4.344  16.125  1.6095  1.3705  0.7200
 2865SOL    HW220229   3.323   4.200  16.145 -1.1737  0.5692 -0.0408
 2866SOL     OW20230   4.599   2.839   1.986  0.2896 -0.1890  0.1943
 2866SOL    HW120231   4.534   2.908   1.970 -0.1389 -1.3946 -3.3645
 2866SOL    HW220232   4.558   2.797   2.061  1.9442 -2.0890  0.0291
 2867SOL     OW20233   1.187   1.420   5.531  0.3861  0.4673  0.4398
 2867SOL    HW120234   1.210   1.379   5.615  0.0129 -0.6984 -0.0322
 2867SOL    HW220235   1.218   1.508   5.551  0.1103  0.2155  2.0626
 2868SOL     OW20236   0.194   2.567  15.522 -0.0368 -0.4626  0.5368
 2868SOL    HW120237   0.182   2.662  15.528 -0.8626 -0.5701  0.5467
 2868SOL    HW220238   0.161   2.537  15.607  0.4616  1.3410  1.3795
 2869SOL     OW20239   0.373   0.327   3.414 -0.9423  0.3643 -0.1640
 2869SOL    HW120240   0.348   0.266   3.483 -1.1789 -1.5867 -1.9852
 2869SOL    HW220241   0.468   0.313   3.410 -0.9164  0.5294 -0.1345
 2870SOL     OW20242   2.807   1.118   3.089  0.6492 -0.0544 -0.9213
 2870SOL    HW120243   2.801   1.205   3.050  0.8025  0.0619 -0.6785
 2870SOL    HW220244   2.830   1.071   3.009  0.7459 -0.0207 -0.9126
 2871SOL     OW20245   3.353   0.581   2.330  0.3978  0.1693  0.0829
 2871SOL    HW120246   3.354   0.628   2.414 -1.5277  0.6965 -0.1852
 2871SOL    HW220247   3.277   0.624   2.292  2.5648  1.1754 -3.0880
 2872SOL     OW20248   1.698   3.395   7.755  0.5402  0.4904 -0.6514
 2872SOL    HW120249   1.671   3.485   7.771 -0.7850 -0.3796  2.0074
 2872SOL    HW220250   1.681   3.387   7.662  3.1339  1.7736 -1.2264
 2873SOL     OW20251   0.829   2.330  15.420 -0.1726  0.0196 -0.3413
 2873SOL    HW120252   0.804   2.395  15.486 -2.6401 -1.2309 -0.0591
 2873SOL    HW220253   0.743   2.300  15.392 -0.8565  0.9076  0.8429
 2874SOL     OW20254   0.490   3.133   0.910  0.6927 -0.7643 -0.1115
 2874SOL    HW120255   0.493   3.179   0.994 -2.3503 -1.9911  0.6630
 2874SOL    HW220256   0.527   3.048   0.935  0.9844  0.4539  3.5535
 2875SOL     OW20257   1.548   3.431   2.341  0.1032  0.6152  0.0833
 2875SOL    HW120258   1.453   3.425   2.351  0.4526 -1.7519  2.0090
 2875SOL    HW220259   1.560   3.485   2.263  1.5953 -2.0118 -1.5289
 2876SOL     OW20260   4.171   1.277   4.168 -0.0461  0.3301  0.3279
 2876SOL    HW120261   4.263   1.299   4.187  0.4844 -1.6840  0.0911
 2876SOL    HW220262   4.160   1.208   4.233 -1.5054  1.3582  1.1467
 2877SOL     OW20263   0.265   0.311   5.862 -0.0336 -0.3022  0.2730
 2877SOL    HW120264   0.201   0.350   5.920 -0.6402 -3.0176  1.4222
 2877SOL    HW220265   0.331   0.381   5.867  0.4902 -0.8765  1.2339
 2878SOL     OW20266   0.317   3.180   3.162  0.3645 -0.6887 -0.2095
 2878SOL    HW120267   0.304   3.202   3.070  0.5794  0.0275 -0.0692
 2878SOL    HW220268   0.233   3.138   3.180 -0.1636  0.4623  0.0692
 2879SOL     OW20269   0.909   2.365   1.323 -0.0046 -0.2608  0.1226
 2879SOL    HW120270   0.905   2.457   1.347  4.2604 -0.5226  1.8066
 2879SOL    HW220271   0.951   2.323   1.399  0.6009  0.6844  0.3069
 2880SOL     OW20272   2.099   0.789   1.857 -0.0755 -0.4230 -0.7045
 2880SOL    HW120273   2.153   0.715   1.887  1.6231  1.3948  0.7204
 2880SOL    HW220274   2.166   0.846   1.819  0.8662  0.5252  2.3738
 2881SOL     OW20275   3.482   2.659  11.709  0.4338 -0.2620  0.6396
 2881SOL    HW120276   3.555   2.699  11.756  2.3507 -1.6226 -1.1851
 2881SOL    HW220277   3.407   2.704  11.748 -0.5856 -0.0436 -1.5729
 2882SOL     OW20278   1.453   1.047   4.399  0.1495  0.2488 -0.5700
 2882SOL    HW120279   1.411   1.125   4.435  2.8282  1.4164  0.0561
 2882SOL    HW220280   1.521   1.023   4.462 -0.0297 -0.0712 -0.4971
 2883SOL     OW20281   0.051   4.559  12.481  0.4106  0.1934 -0.2867
 2883SOL    HW120282   0.001   4.640  12.468  1.3889  1.0179  1.0035
 2883SOL    HW220283   0.055   4.582  12.574  1.2093 -0.9030 -0.0546
 2884SOL     OW20284   1.597   3.137   2.468 -0.1643 -0.0307 -0.0759
 2884SOL    HW120285   1.657   3.067   2.494 -0.7542 -0.4061  0.2824
 2884SOL    HW220286   1.640   3.204   2.520 -0.2541  0.0689 -0.1292
 2885SOL     OW20287   3.504   0.016   8.910  0.1564 -0.4352 -0.5182
 2885SOL    HW120288   3.597   4.736   8.918  0.5496  0.2828 -3.5753
 2885SOL    HW220289   3.482   0.037   9.001 -0.4582  0.8238 -0.9538
 2886SOL     OW20290   0.574   1.533   2.169 -0.3011 -0.0696 -0.0336
 2886SOL    HW120291   0.582   1.536   2.074 -2.5401 -0.7344 -0.2533
 2886SOL    HW220292   0.480   1.549   2.177 -0.2513  0.4192 -0.4631
 2887SOL     OW20293   1.488   1.652   3.125  0.7136  0.3279  0.8216
 2887SOL    HW120294   1.425   1.617   3.188 -0.5704  1.6239  0.2600
 2887SOL    HW220295   1.502   1.736   3.166  1.6963  1.1504 -1.1802
 2888SOL     OW20296   1.469   1.354   2.806 -0.2466 -0.1302 -0.5049
 2888SOL    HW120297   1.506   1.434   2.770 -0.6983  1.2160  1.9907
 2888SOL    HW220298   1.470   1.301   2.726 -1.2431 -0.3125 -0.3986
 2889SOL     OW20299   3.243   4.197   7.219 -0.1686 -0.5095 -0.3289
 2889SOL    HW120300   3.246   4.122   7.279 -1.0318  1.0571  1.6416
 2889SOL    HW220301   3.197   4.156   7.145 -0.4376  2.1313 -1.6023
 2890SOL     OW20302   3.557   1.361  13.312 -0.4734  0.0185  0.3533
 2890SOL    HW120303   3.484   1.350  13.373 -0.2692 -1.9774  0.2179
 2890SOL    HW220304   3.511   1.403  13.239 -1.2601  0.2004  0.9592
 2891SOL     OW20305   2.132   1.823  10.765  0.0295 -0.0546 -0.2441
 2891SOL    HW120306   2.190   1.809  10.690  0.7199 -2.9458  0.8331
 2891SOL    HW220307   2.166   1.770  10.837  0.2366  0.2865 -0.0888
 2892SOL     OW20308   0.434   3.510   2.322 -0.0418  0.7750  0.4621
 2892SOL    HW120309   0.528   3.501   2.309 -0.1927 -1.9494  1.4002
 2892SOL    HW220310   0.406   3.564   2.248  1.6736  0.4369 -0.4136
 2893SOL     OW20311   3.491   2.922  12.596  0.1147  0.2790 -0.7803
 2893SOL    HW120312   3.562   2.954  12.650 -0.9243  1.2342  0.0189
 2893SOL    HW220313   3.467   2.845  12.648 -0.0538  0.8172 -0.0695
 2894SOL     OW20314   0.414   0.657   8.604 -0.4028 -0.3410  0.5292
 2894SOL    HW120315   0.406   0.666   8.509 -0.4197 -0.2278  0.5417
 2894SOL    HW220316   0.506   0.632   8.609 -0.5702 -1.4696 -1.8840
 2895SOL     OW20317   4.147   0.575   5.769  0.6754 -0.1773 -0.0238
 2895SOL    HW120318   4.214   0.548   5.706  0.1995  1.2405 -1.1448
 2895SOL    HW220319   4.163   0.669   5.770 -0.3513  0.0163 -0.9992
 2896SOL     OW20320   4.620   2.761   1.682 -0.0474 -0.0481  0.3832
 2896SOL    HW120321   4.552   2.699   1.658 -1.1395  1.6989 -1.0200
 2896SOL    HW220322   4.615   2.768   1.777  1.5465 -0.3444  0.4978
 2897SOL     OW20323   0.198   1.177   8.651 -0.0874 -0.3345 -0.3264
 2897SOL    HW120324   0.263   1.246   8.667  0.5323 -0.8737 -0.5330
 2897SOL    HW220325   0.255   1.100   8.652 -2.2571 -1.9119  2.6067
 2898SOL     OW20326   4.308   4.534   5.998 -0.0936 -0.7900  0.2726
 2898SOL    HW120327   4.225   4.562   6.037 -0.9086 -2.3509 -0.3682
 2898SOL    HW220328   4.351   4.480   6.064 -0.9913  0.3472  1.7840
 2899SOL     OW20329   0.637   3.830  10.091  0.0723  0.1657 -0.2965
 2899SOL    HW120330   0.647   3.816  10.185 -1.1631  1.2788  0.0123
 2899SOL    HW220331   0.607   3.746  10.056 -0.7951  0.1290  0.5151
 2900SOL     OW20332   1.715   4.003   8.756 -0.1608 -0.2577  0.1917
 2900SOL    HW120333   1.624   3.980   8.776  0.2857 -1.1842  1.1651
 2900SOL    HW220334   1.707   4.028   8.664  1.8064 -0.0407  0.0798
 2901SOL     OW20335   4.224   4.622  16.911 -0.4266  0.3841  0.7531
 2901SOL    HW120336   4.268   4.694  16.956 -0.4130 -0.2210  1.6934
 2901SOL    HW220337   4.252   4.549  16.966 -0.6929 -2.1053 -2.3810
 2902SOL     OW20338   3.957   3.703   5.082 -0.2162 -0.3264 -0.9841
 2902SOL    HW120339   4.048   3.731   5.068 -0.1581 -0.2502 -0.4575
 2902SOL    HW220340   3.923   3.695   4.993 -0.2261  1.5671 -1.1461
 2903SOL     OW20341   4.079   2.944  16.534  0.0876  0.0329  0.0406
 2903SOL    HW120342   4.012   2.979  16.475 -0.8055 -1.8944 -0.0638
 2903SOL    HW220343   4.130   3.023  16.553  1.3739 -0.8620  0.3542
 2904SOL     OW20344   2.457   4.061   9.187  0.1691  0.2897 -0.3660
 2904SOL    HW120345   2.521   3.995   9.214 -1.5209 -1.3555 -0.3985
 2904SOL    HW220346   2.506   4.140   9.209 -0.4076  0.8545 -1.0877
 2905SOL     OW20347   2.291   2.512   7.385  0.3228  0.0004  0.2357
 2905SOL    HW120348   2.322   2.602   7.380 -0.0294  0.0268 -1.3141
 2905SOL    HW220349   2.289   2.505   7.290 -0.0429  1.6857  0.1183
 2906SOL     OW20350   2.027   3.232   3.324 -0.0595 -0.0874  0.0089
 2906SOL    HW120351   2.101   3.171   3.330 -0.1000 -0.2200 -0.8334
 2906SOL    HW220352   2.007   3.225   3.231 -0.8297 -2.7835  0.3759
 2907SOL     OW20353   2.131   4.307   3.690  0.2320  0.0937 -0.2072
 2907SOL    HW120354   2.040   4.278   3.699 -0.4393  2.1935 -0.3174
 2907SOL    HW220355   2.169   4.263   3.613 -1.9989  0.9343 -1.7848
 2908SOL     OW20356   2.832   4.307   6.861 -0.4306 -0.5216  0.2555
 2908SOL    HW120357   2.860   4.292   6.770 -2.4415  1.5541 -0.6941
 2908SOL    HW220358   2.887   4.247   6.912  0.6366  1.9661  2.0445
 2909SOL     OW20359   3.485   4.431  11.321 -0.2880 -0.1938  0.0963
 2909SOL    HW120360   3.420   4.436  11.392 -0.0718 -1.2278  0.3677
 2909SOL    HW220361   3.550   4.488  11.361 -1.2305  0.9500 -0.0038
 2910SOL     OW20362   0.565   0.819   3.028 -0.1866  0.2322 -0.1382
 2910SOL    HW120363   0.575   0.725   3.042 -1.4298 -0.2661 -2.5259
 2910SOL    HW220364   0.637   0.853   3.080  0.4867 -0.4338 -0.6421
 2911SOL     OW20365   2.919   2.639  17.367  0.5592 -0.3281  0.6191
 2911SOL    HW120366   2.983   2.574  17.338 -0.4769  0.0832 -2.5625
 2911SOL    HW220367   2.885   2.605  17.450  0.1890  2.3681  1.5682
 2912SOL     OW20368   3.377   4.003   6.038 -0.6446  0.5012  0.7166
 2912SOL    HW120369   3.356   3.989   5.946  1.0027 -1.0251  0.5782
 2912SOL    HW220370   3.472   3.993   6.030 -0.4055  0.6343  3.6197
 2913SOL     OW20371   0.469   0.573   3.102  0.7250  0.0854  0.0077
 2913SOL    HW120372   0.392   0.588   3.158  0.6676 -0.1081 -0.0192
 2913SOL    HW220373   0.472   0.477   3.095 -3.0067 -0.0347  0.0770
 2914SOL     OW20374   4.462   2.539  11.830 -0.3550 -0.6604  0.4957
 2914SOL    HW120375   4.415   2.456  11.838 -2.1445  0.5105  2.0222
 2914SOL    HW220376   4.488   2.545  11.738 -0.9995  0.6550  0.3931
 2915SOL     OW20377   4.333   3.286  10.396 -0.3011 -0.3977 -0.4542
 2915SOL    HW120378   4.293   3.243  10.472  0.0495  1.8490  0.9979
 2915SOL    HW220379   4.424   3.257  10.403  0.3714  1.6832 -0.7053
 2916SOL     OW20380   4.208   4.138   9.650 -0.4474  0.4065 -0.1607
 2916SOL    HW120381   4.232   4.090   9.729  0.4434 -1.1094 -1.3666
 2916SOL    HW220382   4.229   4.231   9.666  1.6197 -0.5048  2.4066
 2917SOL     OW20383   0.024   2.333   5.742  0.5331 -0.3149 -0.3587
 2917SOL    HW120384   0.054   2.242   5.749 -0.8032 -0.8420 -1.5631
 2917SOL    HW220385   4.672   2.310   5.732  0.6523 -0.5536 -0.8643
 2918SOL     OW20386   3.996   3.429   2.065 -0.1024 -0.4957  0.3982
 2918SOL    HW120387   3.914   3.478   2.074 -0.2643 -0.3066 -2.1789
 2918SOL    HW220388   4.015   3.446   1.973  3.1092 -0.3939  1.0969
 2919SOL     OW20389   3.061   2.358   2.886  0.1632 -0.3607 -0.1138
 2919SOL    HW120390   2.976   2.318   2.864  0.3475 -1.2438  0.7848
 2919SOL    HW220391   3.022   2.436   2.926 -2.5421 -0.7032 -2.0143
 2920SOL     OW20392   0.827   0.005   5.337 -1.0937  0.7948  0.4483
 2920SOL    HW120393   0.825   4.705   5.249  0.8717  1.2413  0.1990
 2920SOL    HW220394   0.737   0.038   5.340 -1.9018 -1.3768  0.2998
 2921SOL     OW20395   1.875   2.940  15.621  0.2944 -0.2524  0.4125
 2921SOL    HW120396   1.833   2.963  15.538 -0.5626 -3.3118  0.0166
 2921SOL    HW220397   1.856   3.015  15.678  1.7672  0.6690 -0.2908
 2922SOL     OW20398   4.016   4.401   3.161  0.0314 -0.2850 -0.4797
 2922SOL    HW120399   4.010   4.456   3.240  0.6561  0.4400 -0.9403
 2922SOL    HW220400   3.959   4.326   3.177 -1.4054  1.1849  1.4551
 2923SOL     OW20401   2.251   0.157  12.398  0.5561 -0.2236  0.1704
 2923SOL    HW120402   2.278   0.150  12.306 -2.9135 -0.0559 -0.8654
 2923SOL    HW220403   2.322   0.107  12.437  1.8435  1.4590 -0.0217
 2924SOL     OW20404   1.457   2.363   1.976  0.3288  0.3203 -0.3064
 2924SOL    HW120405   1.452   2.356   1.881  1.8657  3.3068 -0.6361
 2924SOL    HW220406   1.374   2.410   1.989  0.9337  1.3206 -0.0352
 2925SOL     OW20407   3.762   3.385   6.654  0.0886  0.1390  0.7260
 2925SOL    HW120408   3.841   3.436   6.634  0.6283 -0.0123  2.4354
 2925SOL    HW220409   3.793   3.295   6.640 -1.0298  0.1139 -1.5118
 2926SOL     OW20410   1.666   3.679   8.377  0.2161  0.2430  0.1424
 2926SOL    HW120411   1.708   3.649   8.296  1.3709  3.3636 -0.4019
 2926SOL    HW220412   1.731   3.732   8.423  0.7201 -1.7371  1.7061
 2927SOL     OW20413   0.213   0.926   7.188  0.5658 -0.0716 -0.1880
 2927SOL    HW120414   0.179   0.989   7.250  2.9513  0.5855  0.4458
 2927SOL    HW220415   0.141   0.919   7.125 -1.4844 -0.9533  2.2903
 2928SOL     OW20416   1.650   1.083   6.226  0.2980  0.5839  0.6084
 2928SOL    HW120417   1.666   1.126   6.310 -0.0528  0.0654  0.9441
 2928SOL    HW220418   1.620   1.159   6.177 -1.7718  0.8540  2.3087
 2929SOL     OW20419   2.445   0.208   6.242 -0.2364 -0.7622  0.6226
 2929SOL    HW120420   2.446   0.158   6.161  0.4312 -0.4477  0.4323
 2929SOL    HW220421   2.470   0.295   6.209 -0.6007 -0.6912  0.5367
 2930SOL     OW20422   3.922   3.208   7.987 -0.6988 -0.3521 -0.3382
 2930SOL    HW120423   3.894   3.294   8.019 -0.5881 -0.6152  0.4645
 2930SOL    HW220424   3.957   3.227   7.900 -1.2302  0.6858 -0.3254
 2931SOL     OW20425   1.380   0.773   4.075  0.1704 -0.2534  0.2025
 2931SOL    HW120426   1.416   0.729   3.998  1.6038 -0.5364  1.0246
 2931SOL    HW220427   1.449   0.830   4.110  1.6332 -1.3640 -0.8272
 2932SOL     OW20428   3.916   4.257   5.146 -0.0304  0.7153  0.5279
 2932SOL    HW120429   3.836   4.305   5.126 -0.2939  0.1736  0.2769
 2932SOL    HW220430   3.979   4.302   5.090 -0.5224 -0.9431 -1.3767
 2933SOL     OW20431   0.825   3.524   3.425  0.3354  0.5241 -0.2735
 2933SOL    HW120432   0.799   3.617   3.427  1.6080  0.8378  2.1366
 2933SOL    HW220433   0.918   3.531   3.401  0.8546  1.0605  1.8804
 2934SOL     OW20434   3.218   3.558   5.630  0.5910  0.0858  0.0970
 2934SOL    HW120435   3.220   3.533   5.723  1.0289  1.5298  0.4739
 2934SOL    HW220436   3.283   3.628   5.626 -0.4051  1.0399  0.4260
 2935SOL     OW20437   2.788   0.119  12.251  0.3925  0.0229  0.7237
 2935SOL    HW120438   2.848   0.127  12.325  0.8291  1.4669  0.2166
 2935SOL    HW220439   2.843   0.163  12.187 -0.1583 -1.3798 -0.7234
 2936SOL     OW20440   2.435   2.946   3.598  0.1182  0.3805  0.2848
 2936SOL    HW120441   2.518   2.973   3.559  0.1980  1.4371  1.2106
 2936SOL    HW220442   2.400   2.890   3.528 -0.2130  4.0102 -2.4402
 2937SOL     OW20443   4.554   0.835   3.725 -0.2279  0.0624  0.1572
 2937SOL    HW120444   4.461   0.822   3.740 -0.4230  1.3440  0.0515
 2937SOL    HW220445   4.549   0.919   3.680 -1.7594  1.2636  2.5491
 2938SOL     OW20446   2.759   4.592   5.748  0.2664 -0.8395  0.1556
 2938SOL    HW120447   2.789   4.655   5.683 -0.4318  0.4941  1.1315
 2938SOL    HW220448   2.843   4.578   5.793  0.2581 -0.3620  0.3171
 2939SOL     OW20449   2.869   3.963   5.169  0.2180 -0.4110  0.0134
 2939SOL    HW120450   2.789   3.977   5.119  0.2392  0.4244  0.2168
 2939SOL    HW220451   2.932   4.015   5.119 -1.1206  2.5874  1.4114
 2940SOL     OW20452   3.485   3.672  14.905  0.6925  0.0384  0.3182
 2940SOL    HW120453   3.539   3.623  14.842 -1.4653 -2.4264  0.3579
 2940SOL    HW220454   3.541   3.744  14.931  0.5758  0.4063 -0.4477
 2941SOL     OW20455   4.629   2.584   8.586  0.5671  0.0809  0.1926
 2941SOL    HW120456   4.669   2.514   8.637  0.5503 -1.3353 -1.7326
 2941SOL    HW220457   4.620   2.653   8.652  0.3174  0.0280  0.2143
 2942SOL     OW20458   3.026   3.923   9.602 -0.1595  0.3980  0.4723
 2942SOL    HW120459   3.045   3.975   9.680  1.4069  3.7327 -2.1755
 2942SOL    HW220460   3.116   3.902   9.577 -0.4241  2.2359 -2.0070
 2943SOL     OW20461   1.498   0.792   5.529 -0.5048  0.4315 -0.2239
 2943SOL    HW120462   1.409   0.767   5.552  0.7240 -1.1097  2.8537
 2943SOL    HW220463   1.478   0.871   5.479 -1.7725 -0.5577 -1.2845
 2944SOL     OW20464   3.737   2.468   4.326 -0.0318 -0.0401  0.5429
 2944SOL    HW120465   3.722   2.462   4.420 -1.1754  1.4633  0.4544
 2944SOL    HW220466   3.726   2.377   4.296 -2.7432  1.1110 -2.0161
 2945SOL     OW20467   0.868   3.905  15.951 -0.1534 -0.0109 -0.2848
 2945SOL    HW120468   0.847   3.994  15.924  0.4176  0.5641  1.1864
 2945SOL    HW220469   0.946   3.911  16.007 -2.7886  1.7616  3.1363
 2946SOL     OW20470   4.088   3.132   9.592 -1.0430 -0.3125 -0.1241
 2946SOL    HW120471   4.005   3.156   9.551 -0.0473 -1.2421 -2.6353
 2946SOL    HW220472   4.143   3.189   9.540  1.0569 -1.6192  0.6761
 2947SOL     OW20473   0.538   4.440   4.659 -0.3865 -0.3578 -0.0258
 2947SOL    HW120474   0.582   4.356   4.670  3.1097  1.8305  2.5584
 2947SOL    HW220475   0.444   4.430   4.678  0.6413 -3.6196  3.2822
 2948SOL     OW20476   1.488   0.640   3.110 -0.1263 -0.1451 -0.1984
 2948SOL    HW120477   1.511   0.733   3.110 -2.0467  0.3342 -1.0065
 2948SOL    HW220478   1.575   0.610   3.082 -0.8571 -1.9114 -0.5467
 2949SOL     OW20479   4.430   0.609   4.173 -0.1209  0.4968 -0.1314
 2949SOL    HW120480   4.405   0.619   4.081  3.4043 -0.4530 -1.2058
 2949SOL    HW220481   4.488   0.534   4.159 -0.5081  0.1749  0.0028
 2950SOL     OW20482   4.055   4.407   6.520 -0.1023  0.3809  0.0259
 2950SOL    HW120483   3.999   4.332   6.540 -0.0053  0.8681  2.0545
 2950SOL    HW220484   3.994   4.467   6.477 -1.4691 -1.1002 -0.1257
 2951SOL     OW20485   3.268   2.914   4.378  0.1306 -0.3002  0.1375
 2951SOL    HW120486   3.307   2.963   4.306 -0.3132  0.1819  0.2154
 2951SOL    HW220487   3.180   2.903   4.341  0.0837 -0.6037  0.3386
 2952SOL     OW20488   3.721   0.963   1.461 -0.1046  0.3483 -0.8131
 2952SOL    HW120489   3.797   0.984   1.515 -0.2909 -0.2558 -0.3077
 2952SOL    HW220490   3.762   0.936   1.379 -0.7318 -1.9993 -0.3630
 2953SOL     OW20491   2.290   4.660   0.241 -0.6233  0.5652 -0.0149
 2953SOL    HW120492   2.245   4.658   0.326  1.0388  1.6753  0.8877
 2953SOL    HW220493   2.357   4.727   0.255  0.2062 -0.4211  0.7224
 2954SOL     OW20494   3.166   1.434   3.527  0.1558  0.8873  0.2625
 2954SOL    HW120495   3.211   1.480   3.598  1.2194  1.6401 -0.9043
 2954SOL    HW220496   3.096   1.382   3.566  0.5524 -1.9609 -2.8213
 2955SOL     OW20497   1.589   3.497  17.012 -0.6369 -0.4264 -0.2455
 2955SOL    HW120498   1.658   3.451  17.059 -3.7011 -3.4278  1.3983
 2955SOL    HW220499   1.538   3.530  17.086 -1.6827  0.6277 -1.4392
 2956SOL     OW20500   3.093   3.375   6.069  0.1113  0.0744 -0.0158
 2956SOL    HW120501   3.093   3.287   6.108  0.0752 -0.7196 -1.8096
 2956SOL    HW220502   3.002   3.404   6.063  0.2614  0.4924 -0.2743
 2957SOL     OW20503   2.540   2.334   3.575  0.0803 -0.1481 -0.2163
 2957SOL    HW120504   2.464   2.360   3.523  0.3464 -0.6445 -0.8583
 2957SOL    HW220505   2.591   2.413   3.558  1.1277 -0.3153  2.1416
 2958SOL     OW20506   2.613   2.524  15.279  0.0662  0.0323 -0.2290
 2958SOL    HW120507   2.557   2.450  15.301 -0.8461  0.9268  0.4697
 2958SOL    HW220508   2.688   2.497  15.332  0.3489  1.0300 -0.1170
 2959SOL     OW20509   0.037   1.482   6.514 -0.6208 -0.3983  0.0800
 2959SOL    HW120510   0.040   1.474   6.418  0.9201  1.4383 -0.0348
 2959SOL    HW220511   0.131   1.499   6.521 -0.2592 -1.5216 -2.0102
 2960SOL     OW20512   3.843   2.859   6.354  0.0709  0.3766 -0.0168
 2960SOL    HW120513   3.914   2.921   6.337  0.4718  0.2235  1.0428
 2960SOL    HW220514   3.886   2.796   6.296 -2.2590 -0.2004 -1.1123
 2961SOL     OW20515   0.159   4.625   8.891 -0.8956 -0.4504  0.5634
 2961SOL    HW120516   0.090   4.600   8.830 -0.8058  2.8798 -0.9404
 2961SOL    HW220517   0.118   4.600   8.974 -1.3986  0.2193  0.5137
 2962SOL     OW20518   4.557   3.185   5.017  1.0804 -0.1907 -0.4919
 2962SOL    HW120519   4.587   3.098   5.042  0.0334 -0.2827  0.4499
 2962SOL    HW220520   4.617   3.237   5.071  2.2131 -0.6604 -1.2888
 2963SOL     OW20521   0.828   0.216  11.843  0.2458  0.7404 -0.2455
 2963SOL    HW120522   0.819   0.176  11.929 -1.1652 -0.6151 -1.0182
 2963SOL    HW220523   0.904   0.274  11.851  1.8286 -1.0919 -1.7689
 2964SOL     OW20524   2.509   3.854   6.372 -0.1817 -0.0573 -0.0737
 2964SOL    HW120525   2.423   3.826   6.403 -0.2406  0.6994  0.4351
 2964SOL    HW220526   2.486   3.933   6.324  0.7999  0.3100  0.0617
 2965SOL     OW20527   0.786   0.978   4.571  0.1190 -0.0384 -0.3005
 2965SOL    HW120528   0.874   0.952   4.597 -0.6895 -1.3753  1.0947
 2965SOL    HW220529   0.729   0.903   4.590 -0.6308  0.6195  0.0514
 2966SOL     OW20530   1.661   1.405   5.171 -0.6996  0.8100 -0.0178
 2966SOL    HW120531   1.635   1.313   5.163  3.2564 -0.2391 -1.1542
 2966SOL    HW220532   1.695   1.391   5.259 -3.1050  0.8283  0.9196
 2967SOL     OW20533   0.407   0.592   1.198 -0.5843 -0.2735  0.2240
 2967SOL    HW120534   0.345   0.528   1.234  0.2146  0.0520  2.1571
 2967SOL    HW220535   0.366   0.618   1.115 -0.7037  1.0303  0.6907
 2968SOL     OW20536   4.394   1.917  15.921  0.1292  0.1330 -0.1533
 2968SOL    HW120537   4.306   1.947  15.896  0.8930  1.0140 -1.8234
 2968SOL    HW220538   4.408   1.967  16.001 -2.4729 -2.0190  1.6335
 2969SOL     OW20539   1.663   0.983  14.083 -0.0790 -0.0279  0.6458
 2969SOL    HW120540   1.683   0.897  14.045 -0.2631  0.6851 -1.0755
 2969SOL    HW220541   1.691   1.036  14.008  0.7585  1.1141  1.7716
 2970SOL     OW20542   3.206   3.770   8.283 -0.0849 -0.2188  0.7010
 2970SOL    HW120543   3.298   3.797   8.283  0.8503 -3.3218 -0.9585
 2970SOL    HW220544   3.209   3.704   8.213 -1.0002  1.5996 -1.0298
 2971SOL     OW20545   3.939   1.422   7.426  0.3346 -0.1863  0.0583
 2971SOL    HW120546   3.983   1.338   7.441  1.9095  0.4881 -0.7246
 2971SOL    HW220547   3.856   1.410   7.471 -0.2898 -2.9588 -1.8415
 2972SOL     OW20548   0.478   3.302   8.308 -0.7361 -0.0865  0.5401
 2972SOL    HW120549   0.536   3.325   8.235  0.6411 -0.1032  1.6261
 2972SOL    HW220550   0.540   3.294   8.380  1.0641  2.5630 -0.6948
 2973SOL     OW20551   2.884   0.365   5.890 -0.3851  0.3613 -0.3198
 2973SOL    HW120552   2.967   0.333   5.925 -0.5247 -1.7429 -1.8765
 2973SOL    HW220553   2.848   0.394   5.974  0.4026 -0.0030  0.1394
 2974SOL     OW20554   1.064   4.181   2.789 -0.4903 -0.2877  0.3401
 2974SOL    HW120555   1.065   4.168   2.694 -2.7002  2.8642 -0.1265
 2974SOL    HW220556   1.145   4.231   2.797 -0.8362  0.2667  0.3926
 2975SOL     OW20557   2.420   2.310   5.969  0.6378  0.8134 -0.5765
 2975SOL    HW120558   2.475   2.332   6.044  1.8155 -0.0845 -1.1740
 2975SOL    HW220559   2.436   2.216   5.964 -0.1727  0.5386  2.4012
 2976SOL     OW20560   4.647   2.425  11.444 -0.0044 -0.2370 -0.0248
 2976SOL    HW120561   4.715   2.399  11.506 -1.7895 -0.5865  1.7893
 2976SOL    HW220562   4.698   2.449  11.366  0.7120  2.5490  1.2991
 2977SOL     OW20563   2.178   2.151   7.587  0.3582  0.7639 -0.1334
 2977SOL    HW120564   2.274   2.151   7.590  0.3467 -3.9106  1.0823
 2977SOL    HW220565   2.161   2.245   7.586 -1.2158  0.4691 -2.0990
 2978SOL     OW20566   1.610   0.402   1.591  0.0447 -0.1075  0.7742
 2978SOL    HW120567   1.676   0.377   1.655 -0.3604  0.6209  1.4767
 2978SOL    HW220568   1.536   0.351   1.624  1.3857 -1.1927  2.1370
 2979SOL     OW20569   1.840   0.332  13.502  0.3497  0.3994  0.6064
 2979SOL    HW120570   1.776   0.261  13.502 -0.8086  1.4435 -2.6044
 2979SOL    HW220571   1.915   0.285  13.538  0.5891  0.4377  0.1601
 2980SOL     OW20572   4.347   3.988  12.717 -0.0887 -0.2683 -0.4439
 2980SOL    HW120573   4.356   3.897  12.745  0.9889  0.9361  3.0493
 2980SOL    HW220574   4.368   3.989  12.623 -0.6909 -1.1716 -0.5939
 2981SOL     OW20575   3.107   2.056  14.078  0.1391 -0.6278  0.0306
 2981SOL    HW120576   3.074   1.967  14.082 -1.3035 -0.0734  0.3530
 2981SOL    HW220577   3.190   2.055  14.031 -1.0594 -0.2639 -2.0608
 2982SOL     OW20578   4.691   1.583   2.640  0.6174 -0.8496 -0.1839
 2982SOL    HW120579   4.641   1.516   2.688  2.7044 -1.5021  1.1065
 2982SOL    HW220580   4.678   1.553   2.551 -1.5300 -0.5969  0.0459
 2983SOL     OW20581   1.139   0.304   6.606 -0.3788  0.1040 -0.3484
 2983SOL    HW120582   1.151   0.366   6.678 -1.6957  0.2656 -0.2779
 2983SOL    HW220583   1.077   0.248   6.652 -0.0908  1.0855  1.2237
 2984SOL     OW20584   2.040   0.160  13.590  0.2768 -0.3690  0.3974
 2984SOL    HW120585   2.070   0.092  13.651  2.8358  0.3457 -0.1053
 2984SOL    HW220586   2.122   0.205  13.571  0.0423  1.1259  2.9094
 2985SOL     OW20587   3.674   3.476   4.824 -0.1570  0.1599 -0.0147
 2985SOL    HW120588   3.754   3.448   4.779  0.0850 -1.5649  1.4830
 2985SOL    HW220589   3.650   3.541   4.758  0.4188 -0.3030 -0.6794
 2986SOL     OW20590   1.731   4.478   4.191 -0.1533 -0.1834 -0.0607
 2986SOL    HW120591   1.644   4.487   4.154 -0.1154 -1.0707 -0.3780
 2986SOL    HW220592   1.756   4.570   4.188  2.3875 -0.8587  0.1129
 2987SOL     OW20593   0.530   3.637   4.826  0.3641  0.2848 -0.4447
 2987SOL    HW120594   0.443   3.671   4.806 -0.8964 -2.5901  0.1646
 2987SOL    HW220595   0.540   3.575   4.754 -0.5505 -0.9155  0.4591
 2988SOL     OW20596   4.434   4.490   5.486  0.2048 -0.2014  0.9210
 2988SOL    HW120597   4.392   4.522   5.566  0.9413  0.4360  1.0473
 2988SOL    HW220598   4.525   4.513   5.500 -0.0424  0.9010  0.7648
 2989SOL     OW20599   4.719   2.105   2.979  0.2374  0.0208  0.6052
 2989SOL    HW120600   0.046   2.038   2.967 -0.8039 -0.9979  0.5153
 2989SOL    HW220601   4.641   2.074   2.933 -1.2139  3.8285  0.5042
 2990SOL     OW20602   2.268   0.661  10.321  0.3800  0.6668 -0.2765
 2990SOL    HW120603   2.195   0.717  10.346  0.6344  0.7286  0.3059
 2990SOL    HW220604   2.340   0.724  10.317  0.9147  0.0618 -0.2212
 2991SOL     OW20605   2.478   0.699   3.791 -0.4835  0.4040 -0.5629
 2991SOL    HW120606   2.471   0.647   3.871  1.5147  0.8661 -0.0859
 2991SOL    HW220607   2.401   0.668   3.744 -1.9189 -0.6580  2.4740
 2992SOL     OW20608   2.980   1.348   4.712  0.2674 -0.4271 -0.0936
 2992SOL    HW120609   2.984   1.307   4.626 -1.3442 -0.5648 -0.1078
 2992SOL    HW220610   3.026   1.430   4.691  0.0385 -0.1416  0.5160
 2993SOL     OW20611   3.864   2.417   7.939  0.3591 -0.8585  0.6781
 2993SOL    HW120612   3.771   2.395   7.936 -0.4585  2.4908  2.3504
 2993SOL    HW220613   3.901   2.357   7.875  0.9533  1.2016 -0.8968
 2994SOL     OW20614   4.722   2.387   8.765  0.2973  0.5397 -0.1459
 2994SOL    HW120615   0.076   2.369   8.775 -0.1298 -0.5495  1.8315
 2994SOL    HW220616   4.716   2.447   8.840  0.1945  2.0665 -1.3724
 2995SOL     OW20617   1.094   3.794   1.703  0.2651 -0.8569 -1.2655
 2995SOL    HW120618   1.030   3.725   1.721  0.7681 -0.7778  0.7861
 2995SOL    HW220619   1.046   3.835   1.631  1.4512  1.6807 -0.5962
 2996SOL     OW20620   2.287   0.627   2.811 -0.2824 -0.1475 -0.3016
 2996SOL    HW120621   2.359   0.689   2.801  0.8814 -1.3042  0.8995
 2996SOL    HW220622   2.297   0.597   2.901  1.1335  1.7577  0.1686
 2997SOL     OW20623   0.791   4.638   5.078 -0.6419 -0.1270 -0.4635
 2997SOL    HW120624   0.706   4.657   5.036 -0.1274  2.3815 -0.3732
 2997SOL    HW220625   0.842   4.602   5.005  1.2333 -0.6506  1.0999
 2998SOL     OW20626   2.180   2.798  16.550  0.2320  0.8023  0.2436
 2998SOL    HW120627   2.163   2.772  16.641 -0.1941  1.5516  0.3860
 2998SOL    HW220628   2.100   2.841  16.521 -1.4468 -1.7360  1.1515
 2999SOL     OW20629   3.269   3.385   3.193  0.3454  0.5548 -0.3080
 2999SOL    HW120630   3.296   3.363   3.282 -2.9830 -2.0794  0.0377
 2999SOL    HW220631   3.201   3.319   3.178 -0.1597  0.8894  0.5264
 3000SOL     OW20632   2.355   2.772   3.148  0.5164 -0.0171  0.2843
 3000SOL    HW120633   2.423   2.796   3.085 -0.1036 -1.3497 -0.8943
 3000SOL    HW220634   2.356   2.678   3.135 -0.8630  0.0523 -0.3112
 3001SOL     OW20635   2.018   3.527  10.196  0.5860  0.0059  0.3446
 3001SOL    HW120636   1.936   3.483  10.176  0.1318  0.5147  1.0634
 3001SOL    HW220637   2.028   3.478  10.278  1.6107 -1.5570 -0.7104
 3002SOL     OW20638   0.778   0.137   0.111 -0.1014  0.0137 -0.1947
 3002SOL    HW120639   0.789   0.181   0.026  1.3140 -0.0985 -0.0560
 3002SOL    HW220640   0.782   0.045   0.083  1.7575 -0.7725  2.6883
 3003SOL     OW20641   4.462   3.987  11.734 -0.1548 -0.4335 -0.3698
 3003SOL    HW120642   4.396   3.928  11.771 -0.9571  0.7101  0.0350
 3003SOL    HW220643   4.419   4.070  11.754 -0.2553 -0.5506 -0.1013
 3004SOL     OW20644   0.867   3.522   4.452 -0.4532 -0.2615  0.3344
 3004SOL    HW120645   0.885   3.428   4.458  0.7217  0.0039  0.8574
 3004SOL    HW220646   0.868   3.543   4.545  0.9332 -1.8556  0.6958
 3005SOL     OW20647   2.953   0.706   1.487 -0.5248  0.0984 -0.1956
 3005SOL    HW120648   2.995   0.658   1.558 -1.7097 -0.6628 -0.0008
 3005SOL    HW220649   2.861   0.696   1.512 -0.7749 -1.4775 -1.7418
 3006SOL     OW20650   1.104   4.376  13.142  0.4231 -0.2571  0.0881
 3006SOL    HW120651   1.110   4.411  13.053  0.4421 -2.3200 -0.7302
 3006SOL    HW220652   1.196   4.377  13.170  0.5618 -0.8939 -0.3548
 3007SOL     OW20653   4.662   4.100   6.944 -0.3046 -0.0374  0.3522
 3007SOL    HW120654   4.608   4.058   7.011  0.3989  0.7952  1.4414
 3007SOL    HW220655   0.009   4.093   6.985 -0.0474 -1.8239 -0.4984
 3008SOL     OW20656   0.133   2.761  16.023 -0.0830  0.2395  0.1635
 3008SOL    HW120657   0.077   2.727  15.954 -0.7863 -0.0639  0.8869
 3008SOL    HW220658   0.078   2.744  16.099  1.0689 -1.6012  0.5852
 3009SOL     OW20659   4.510   3.546   6.036  0.1711 -0.4377  0.2683
 3009SOL    HW120660   4.559   3.520   5.958  0.1848  1.7833 -0.4958
 3009SOL    HW220661   4.433   3.489   6.030  0.6209 -1.1178  1.0209
 3010SOL     OW20662   4.454   0.107  13.076  0.1332 -0.2068  0.1416
 3010SOL    HW120663   4.450   0.030  13.019 -0.1575 -0.0041 -0.1153
 3010SOL    HW220664   4.362   0.118  13.100  0.2063  0.1902  0.2273
 3011SOL     OW20665   0.800   4.610  13.141  0.1087 -0.0470 -0.2344
 3011SOL    HW120666   0.852   4.571  13.070 -2.3424 -0.5362 -1.7975
 3011SOL    HW220667   0.845   4.694  13.137 -0.4557  0.2643 -0.1650
 3012SOL     OW20668   0.169   3.563  12.219 -0.5337  0.0552  0.1742
 3012SOL    HW120669   0.088   3.532  12.178 -0.2797  0.9634 -0.9974
 3012SOL    HW220670   0.230   3.510  12.167 -0.9884 -0.6319  0.3340
 3013SOL     OW20671   1.934   2.927  16.482 -0.1294 -0.0514 -1.1723
 3013SOL    HW120672   1.923   2.989  16.410 -2.5613  0.0729 -0.6903
 3013SOL    HW220673   1.869   2.860  16.460  1.0544 -1.7215  0.3767
 3014SOL     OW20674   1.705   1.672   8.211  0.2187 -0.4291 -0.6825
 3014SOL    HW120675   1.666   1.609   8.272 -3.5139  1.5577 -1.0012
 3014SOL    HW220676   1.686   1.757   8.252 -2.8850 -0.5448 -1.8854
 3015SOL     OW20677   4.307   3.909   1.466 -1.0345 -0.1207 -0.2911
 3015SOL    HW120678   4.279   4.000   1.478 -0.1832  0.1955 -0.7597
 3015SOL    HW220679   4.354   3.908   1.383 -0.9972  3.2055 -0.2910
 3016SOL     OW20680   2.676   0.107   3.899  0.1415  0.2158  0.2811
 3016SOL    HW120681   2.670   0.138   3.809  0.0372  0.3624  0.3396
 3016SOL    HW220682   2.761   0.064   3.898 -0.2132 -0.5078  1.2253
 3017SOL     OW20683   0.702   1.707   8.297  0.3411 -0.2185 -1.2357
 3017SOL    HW120684   0.684   1.794   8.334  2.1135  0.3211 -1.6572
 3017SOL    HW220685   0.622   1.693   8.245 -0.7836 -1.6158  0.8588
 3018SOL     OW20686   1.722   2.531   8.654  0.3599  0.3136  0.3330
 3018SOL    HW120687   1.811   2.519   8.622 -0.1683 -1.5082 -0.4405
 3018SOL    HW220688   1.670   2.482   8.590  2.4855 -0.7799 -0.5476
 3019SOL     OW20689   0.350   3.915   0.845  0.6734 -0.0631 -0.6816
 3019SOL    HW120690   0.271   3.896   0.795  0.7871  0.7597 -1.1774
 3019SOL    HW220691   0.370   3.833   0.890 -1.1811 -0.4128 -0.4725
 3020SOL     OW20692   3.343   4.566   2.481  0.0982  0.2952 -0.3961
 3020SOL    HW120693   3.354   4.631   2.551  1.4070  0.8163 -1.0808
 3020SOL    HW220694   3.349   4.626   2.406 -1.1102 -0.6856 -1.2604
 3021SOL     OW20695   2.806   0.795   6.184 -0.2707  0.0707 -0.1902
 3021SOL    HW120696   2.738   0.732   6.205  0.9898 -1.0380  0.5509
 3021SOL    HW220697   2.814   0.779   6.090  0.6717  0.1345 -0.1231
 3022SOL     OW20698   1.288   2.599   6.612 -0.0017 -0.2883 -0.1650
 3022SOL    HW120699   1.316   2.601   6.521  0.6130 -0.9354  0.0069
 3022SOL    HW220700   1.196   2.590   6.587 -0.6253  1.4760  1.4654
 3023SOL     OW20701   0.278   3.678   4.441 -1.0600 -0.2667 -0.2386
 3023SOL    HW120702   0.257   3.604   4.384 -0.0734 -0.6327 -0.1329
 3023SOL    HW220703   0.294   3.748   4.377 -1.3483  2.6860  2.9555
 3024SOL     OW20704   1.199   0.198  17.246 -0.6202  0.0485  0.3056
 3024SOL    HW120705   1.151   0.138  17.188 -0.2541  1.2368 -1.2090
 3024SOL    HW220706   1.159   0.197  17.334 -1.0373 -0.8524  0.1079
 3025SOL     OW20707   4.045   1.766   6.051  0.4194 -0.2160 -0.0465
 3025SOL    HW120708   4.127   1.717   6.057 -0.1974 -1.2698 -0.1597
 3025SOL    HW220709   4.044   1.828   6.124 -2.2302 -0.7131  0.3365
 3026SOL     OW20710   3.760   1.332   8.990 -0.0352 -0.1580  0.2843
 3026SOL    HW120711   3.842   1.331   8.940 -1.0277 -1.7233 -1.2903
 3026SOL    HW220712   3.735   1.422   8.970  1.2239 -0.0692 -0.9398
 3027SOL     OW20713   3.868   3.727   1.397  0.0275 -0.5338 -0.4288
 3027SOL    HW120714   3.959   3.731   1.369  0.3492 -1.2109  0.5218
 3027SOL    HW220715   3.857   3.674   1.476  0.8456  0.3121  0.2431
 3028SOL     OW20716   4.062   0.077   9.324  0.1488  0.1893  0.4315
 3028SOL    HW120717   4.135   0.020   9.300 -1.3657  0.2294 -4.4301
 3028SOL    HW220718   4.004   0.009   9.360 -0.1475 -1.1014 -2.4617
 3029SOL     OW20719   0.984   1.145   7.273 -0.1683  0.3934  0.0369
 3029SOL    HW120720   0.962   1.231   7.309  0.0287 -0.2162  1.6375
 3029SOL    HW220721   1.013   1.162   7.184 -1.5398 -1.6837 -0.8060
 3030SOL     OW20722   2.572   0.497   5.552 -0.2696  0.3333 -0.3271
 3030SOL    HW120723   2.543   0.510   5.642 -2.1625  2.3717 -1.2222
 3030SOL    HW220724   2.494   0.483   5.498 -1.2459 -1.5301  1.5421
 3031SOL     OW20725   4.587   1.697  16.532 -0.4506 -0.0226 -0.4031
 3031SOL    HW120726   4.623   1.756  16.466 -0.5944  1.1402  0.5648
 3031SOL    HW220727   4.610   1.616  16.487  0.9527 -0.8779  1.8624
 3032SOL     OW20728   0.939   0.437   4.905  0.4307  0.1788  0.1409
 3032SOL    HW120729   0.947   0.519   4.953 -0.2154  0.1508  0.2998
 3032SOL    HW220730   0.979   0.379   4.970 -2.2787 -0.1219  1.5322
 3033SOL     OW20731   2.249   3.879   0.253 -0.1057 -0.0642  0.0703
 3033SOL    HW120732   2.215   3.955   0.301  0.0258 -0.6488  1.0859
 3033SOL    HW220733   2.171   3.823   0.258  1.5185 -2.3229  0.1918
 3034SOL     OW20734   1.911   0.465   7.221 -0.3862 -0.1297 -0.8369
 3034SOL    HW120735   1.873   0.397   7.276 -0.7006 -1.0305 -2.1710
 3034SOL    HW220736   1.842   0.532   7.214 -0.5322 -0.0582  1.4129
 3035SOL     OW20737   2.379   1.956   4.492 -0.7307 -0.1954 -0.0241
 3035SOL    HW120738   2.293   1.922   4.467 -0.5415 -0.8171  0.1556
 3035SOL    HW220739   2.387   2.041   4.449 -0.7631 -0.1635  0.0318
 3036SOL     OW20740   4.392   4.170   0.991  0.0520 -0.0752  0.3220
 3036SOL    HW120741   4.332   4.111   1.036 -0.8546  0.3286 -0.3449
 3036SOL    HW220742   4.433   4.107   0.932 -2.3525  0.0803 -1.5471
 3037SOL     OW20743   4.196   1.073   8.181  0.0310  0.3430 -0.4114
 3037SOL    HW120744   4.179   1.024   8.101 -1.0825 -1.3468  0.8581
 3037SOL    HW220745   4.160   1.156   8.149  0.2229  0.8226  0.6254
 3038SOL     OW20746   2.814   3.539  14.246 -0.1167  0.2538 -0.4115
 3038SOL    HW120747   2.863   3.466  14.283 -2.6400 -1.8704 -1.2204
 3038SOL    HW220748   2.806   3.494  14.161 -0.8969 -1.1329  0.3917
 3039SOL     OW20749   3.113   0.295   3.465  0.4373 -0.0535 -0.4164
 3039SOL    HW120750   3.045   0.344   3.513  0.1807 -1.6091  0.8116
 3039SOL    HW220751   3.194   0.339   3.489  0.8009  0.1143 -1.9360
 3040SOL     OW20752   0.122   3.035  16.008 -0.2471  0.1782  0.3193
 3040SOL    HW120753   0.121   2.941  15.988  1.6083  0.0481  0.8065
 3040SOL    HW220754   0.104   3.033  16.102  0.4737  3.6480  0.5155
 3041SOL     OW20755   0.625   2.261   9.118 -0.6607 -0.2451 -0.4877
 3041SOL    HW120756   0.573   2.198   9.167 -0.5789 -0.4374 -0.6469
 3041SOL    HW220757   0.683   2.198   9.075  1.3268  1.6766 -0.6524
 3042SOL     OW20758   1.098   1.123   5.899 -0.3654 -0.3392  0.8168
 3042SOL    HW120759   1.048   1.153   5.823  1.4244 -2.1985 -1.0689
 3042SOL    HW220760   1.148   1.055   5.854 -0.6190 -0.2083  0.3404
 3043SOL     OW20761   0.375   0.642   4.604  0.5427  0.0310 -0.1482
 3043SOL    HW120762   0.377   0.547   4.596  1.5762 -0.0880  1.4980
 3043SOL    HW220763   0.362   0.680   4.517  1.3212  1.8611  0.5276
 3044SOL     OW20764   4.130   2.847   7.399  0.7236 -0.0678 -0.2476
 3044SOL    HW120765   4.079   2.777   7.359 -1.3125 -0.0391  2.3197
 3044SOL    HW220766   4.077   2.879   7.472  0.7272 -1.4896  0.3785
 3045SOL     OW20767   2.901   1.028   9.826 -0.9362 -0.1566  0.1657
 3045SOL    HW120768   2.915   0.990   9.912  1.0059 -1.0839 -0.5705
 3045SOL    HW220769   2.806   1.031   9.813 -0.8816  1.2287  0.0614
 3046SOL     OW20770   3.657   2.046   8.216 -0.2416 -0.1397 -0.0808
 3046SOL    HW120771   3.709   2.120   8.248 -0.0666 -0.5502  0.5797
 3046SOL    HW220772   3.686   1.982   8.281  1.2546 -0.7716 -1.3478
 3047SOL     OW20773   2.468   3.632   7.540  0.1182 -0.0542  0.0985
 3047SOL    HW120774   2.405   3.638   7.612  0.3227  1.4370  0.1481
 3047SOL    HW220775   2.532   3.576   7.584  2.4317  1.4483 -1.3735
 3048SOL     OW20776   0.448   1.017   6.213 -0.2382  0.2593  0.6898
 3048SOL    HW120777   0.365   1.063   6.206 -1.4014 -2.0312 -0.7820
 3048SOL    HW220778   0.477   1.006   6.304 -1.0169 -0.6313  0.8296
 3049SOL     OW20779   3.208   0.163   4.418  0.6978  0.3339  0.1551
 3049SOL    HW120780   3.129   0.215   4.426  0.4477  0.5485 -3.6200
 3049SOL    HW220781   3.254   0.197   4.494 -1.4255  0.7709  1.2309
 3050SOL     OW20782   3.874   1.180   7.237 -0.5448 -0.8032 -0.2878
 3050SOL    HW120783   3.838   1.268   7.244  2.6494  0.6552 -2.0177
 3050SOL    HW220784   3.857   1.156   7.328  1.0486  1.6908  0.6539
 3051SOL     OW20785   1.296   1.727   0.624  0.0986  0.4956 -0.2373
 3051SOL    HW120786   1.361   1.796   0.606  0.8560  0.0374  0.7440
 3051SOL    HW220787   1.216   1.777   0.637 -0.9956 -1.2311 -0.3775
 3052SOL     OW20788   0.649   4.228  11.285 -0.1101 -0.2592  0.2849
 3052SOL    HW120789   0.627   4.158  11.346  2.3490 -0.0456  1.4189
 3052SOL    HW220790   0.627   4.178  11.207 -0.2478 -1.1501  0.9021
 3053SOL     OW20791   1.972   0.694   8.168 -0.2985 -0.0140  0.4703
 3053SOL    HW120792   2.022   0.728   8.094  1.6205 -0.6982  1.4650
 3053SOL    HW220793   1.921   0.628   8.120 -1.0563 -1.8015  3.7072
 3054SOL     OW20794   2.386   3.689   2.553 -0.2804  0.4783 -0.7636
 3054SOL    HW120795   2.347   3.602   2.565 -1.0455  0.4885 -3.3331
 3054SOL    HW220796   2.325   3.747   2.599  0.4405 -0.0632  0.8903
 3055SOL     OW20797   2.117   0.561   9.543 -0.0353  0.0408  0.3028
 3055SOL    HW120798   2.065   0.572   9.622 -0.4990  2.4537 -0.3471
 3055SOL    HW220799   2.205   0.569   9.580  0.1807 -1.5716  0.1402
 3056SOL     OW20800   2.979   3.508  16.405 -0.4451 -0.3068  0.4186
 3056SOL    HW120801   2.979   3.556  16.488  1.6717  0.5710 -0.0825
 3056SOL    HW220802   3.067   3.474  16.388 -1.1177 -1.5972 -0.4641
 3057SOL     OW20803   1.840   1.364   6.459 -0.2208 -0.1139 -0.0714
 3057SOL    HW120804   1.912   1.377   6.397 -0.0791 -1.0961 -0.1083
 3057SOL    HW220805   1.879   1.426   6.521  1.3132  0.3009 -1.4487
 3058SOL     OW20806   0.952   1.156   3.975 -0.1982  0.1702 -0.3687
 3058SOL    HW120807   0.927   1.230   3.920 -0.0586 -1.5262 -2.7099
 3058SOL    HW220808   0.974   1.199   4.058 -0.7294  1.2368 -0.7844
 3059SOL     OW20809   2.696   1.619   3.865 -0.8298 -0.8110 -0.3599
 3059SOL    HW120810   2.769   1.564   3.892 -0.3266  0.4609  0.8816
 3059SOL    HW220811   2.703   1.688   3.931 -1.1173 -0.9757 -0.1610
 3060SOL     OW20812   1.694   3.324   1.131  0.1007  0.3906 -0.0574
 3060SOL    HW120813   1.721   3.406   1.173 -1.9501 -0.1191  2.2746
 3060SOL    HW220814   1.663   3.283   1.212  1.6409  1.9416  1.3294
 3061SOL     OW20815   3.668   1.509   2.251  0.0455  0.3495 -0.2211
 3061SOL    HW120816   3.669   1.535   2.159 -0.0234  2.1118  0.2791
 3061SOL    HW220817   3.753   1.539   2.283  1.5791  0.0499 -3.9470
 3062SOL     OW20818   2.831   3.285   0.903  0.1720  0.0817  0.1805
 3062SOL    HW120819   2.810   3.342   0.977  0.5931  1.5119 -0.8022
 3062SOL    HW220820   2.807   3.200   0.939 -1.4305  1.2437  1.8571
 3063SOL     OW20821   1.491   0.909  10.181  0.7144 -0.0044  0.1326
 3063SOL    HW120822   1.509   0.986  10.234 -0.3603  0.5712 -0.3428
 3063SOL    HW220823   1.571   0.899  10.129  0.8481 -2.2603  0.7705
 3064SOL     OW20824   2.226   4.263  16.108 -0.2892  0.1127  0.3136
 3064SOL    HW120825   2.233   4.247  16.203 -2.1448 -0.4007  0.3571
 3064SOL    HW220826   2.144   4.220  16.087  0.6922 -2.0291  0.8280
 3065SOL     OW20827   0.929   1.530  14.656  0.2792  0.2497  0.3829
 3065SOL    HW120828   0.946   1.511  14.564 -1.8526 -1.2945  0.3011
 3065SOL    HW220829   0.921   1.624  14.644 -0.4195 -0.2790 -3.4363
 3066SOL     OW20830   2.301   1.723  11.029 -0.3949 -0.0336  0.1895
 3066SOL    HW120831   2.300   1.818  11.015 -0.6175 -0.1791 -0.7602
 3066SOL    HW220832   2.231   1.707  11.092 -1.2408  2.9763 -0.0023
 3067SOL     OW20833   0.358   4.383   6.755 -0.0177  0.0469  0.0662
 3067SOL    HW120834   0.275   4.348   6.722  0.0099  0.9738 -1.0019
 3067SOL    HW220835   0.374   4.442   6.681  1.2021 -2.3503 -1.5618
 3068SOL     OW20836   0.580   3.401  15.068 -0.2765  0.7298  0.1726
 3068SOL    HW120837   0.611   3.394  14.978 -1.8344  0.6801 -0.3480
 3068SOL    HW220838   0.498   3.451  15.070 -1.1739 -0.7041 -1.0698
 3069SOL     OW20839   3.910   1.150   5.924 -0.4304  0.1211  0.1526
 3069SOL    HW120840   3.915   1.067   5.972 -1.2904 -0.1643 -0.2538
 3069SOL    HW220841   4.005   1.157   5.909 -0.0670 -4.5650  0.4139
 3070SOL     OW20842   4.110   3.455   9.262  0.1605  0.7059 -0.2147
 3070SOL    HW120843   4.145   3.514   9.195  3.5577  0.8717  1.7002
 3070SOL    HW220844   4.019   3.484   9.263  0.1190  0.5308  0.8769
 3071SOL     OW20845   0.759   4.327   8.413 -0.0741  0.2996 -0.2528
 3071SOL    HW120846   0.842   4.282   8.424 -0.3027  0.2225  1.2254
 3071SOL    HW220847   0.770   4.384   8.337  0.3662  2.1987  1.2223
 3072SOL     OW20848   3.997   0.103   7.391 -0.0457 -0.0775  0.3129
 3072SOL    HW120849   4.015   0.115   7.484  2.3100 -0.6223 -0.0860
 3072SOL    HW220850   4.049   0.172   7.349 -0.8272  0.9027  0.9497
 3073SOL     OW20851   3.383   0.791   8.911  0.1754 -0.3442  0.3434
 3073SOL    HW120852   3.288   0.787   8.902  0.3877  0.4433 -2.3109
 3073SOL    HW220853   3.406   0.726   8.844 -1.7271 -0.7175  0.0624
 3074SOL     OW20854   0.376   3.378  11.411 -0.9074 -0.5738  0.0786
 3074SOL    HW120855   0.428   3.325  11.350 -1.3351 -1.0739  0.1489
 3074SOL    HW220856   0.351   3.312  11.476 -1.6806 -0.0786  0.2828
 3075SOL     OW20857   4.720   1.393   6.851 -0.3617  0.4675 -0.2910
 3075SOL    HW120858   4.671   1.452   6.909  1.1708  0.4803  0.9570
 3075SOL    HW220859   4.651   1.338   6.812 -0.8861  0.6501  0.3699
 3076SOL     OW20860   1.921   4.721   3.784  0.0692 -0.3701  0.1379
 3076SOL    HW120861   1.840   4.672   3.797 -0.9423  1.4882  0.8871
 3076SOL    HW220862   1.983   4.665   3.831  1.4277  1.4529  0.5609
 3077SOL     OW20863   3.987   2.337   6.764  0.1121 -0.2712  0.1357
 3077SOL    HW120864   3.902   2.360   6.727 -0.5493  0.5962  2.2061
 3077SOL    HW220865   3.959   2.264   6.819  1.9229 -3.0874 -2.6806
 3078SOL     OW20866   1.237   3.993  12.972  0.0680 -0.3201 -0.1268
 3078SOL    HW120867   1.164   4.053  12.958  0.9645  0.9133  0.6085
 3078SOL    HW220868   1.260   3.975  12.881  0.6723  0.0623 -0.0458
 3079SOL     OW20869   0.579   0.607   6.108 -0.3263  0.0251  0.0539
 3079SOL    HW120870   0.626   0.690   6.103  1.8890 -1.1263  1.5056
 3079SOL    HW220871   0.653   0.551   6.134  0.0810 -0.1007 -1.3967
 3080SOL     OW20872   1.353   2.901   7.402 -0.2483 -0.6813  0.5178
 3080SOL    HW120873   1.407   2.884   7.325 -0.6599 -1.2439  0.3502
 3080SOL    HW220874   1.301   2.977   7.378  1.1284  0.2924  0.6518
 3081SOL     OW20875   3.525   3.196   1.751  0.3756  0.2134  0.4455
 3081SOL    HW120876   3.618   3.186   1.772  0.1556 -1.7503  0.4628
 3081SOL    HW220877   3.491   3.106   1.752  0.9289  0.0151  1.5046
 3082SOL     OW20878   4.495   2.640   7.575  0.4866 -0.4269  0.7131
 3082SOL    HW120879   4.525   2.713   7.521  0.8177  0.5671  2.2385
 3082SOL    HW220880   4.410   2.623   7.534  0.8390 -3.9779  1.3876
 3083SOL     OW20881   2.801   2.941   4.102  0.1509 -0.1168 -0.8746
 3083SOL    HW120882   2.753   2.861   4.123 -3.3398  1.1226 -4.1894
 3083SOL    HW220883   2.757   3.013   4.147  1.0247 -0.6676  0.8694
 3084SOL     OW20884   1.784   0.890   2.525 -0.1273 -0.1932  0.1373
 3084SOL    HW120885   1.875   0.915   2.540 -0.0739 -0.4706  0.2877
 3084SOL    HW220886   1.784   0.878   2.430 -1.5424 -0.4991  0.1657
 3085SOL     OW20887   4.272   1.058   3.944 -0.4752  0.5612  0.5738
 3085SOL    HW120888   4.240   1.129   3.888 -1.7480  0.3307  1.0279
 3085SOL    HW220889   4.358   1.091   3.971 -0.2804  1.4262 -1.0686
 3086SOL     OW20890   2.030   1.145  15.733  0.0702 -0.0353  0.0276
 3086SOL    HW120891   2.010   1.235  15.706 -1.0675  0.0077  1.0132
 3086SOL    HW220892   2.087   1.119  15.661  0.3953  1.7668 -0.3820
 3087SOL     OW20893   0.465   0.301   3.075 -0.0937 -0.0272 -0.3483
 3087SOL    HW120894   0.418   0.249   3.010 -0.6610 -0.2670  0.2519
 3087SOL    HW220895   0.499   0.238   3.138  3.6224  1.1788 -1.1471
 3088SOL     OW20896   2.703   0.944   4.327  0.2698  0.5274 -0.0876
 3088SOL    HW120897   2.743   0.947   4.414 -1.6852 -0.7449  0.8620
 3088SOL    HW220898   2.680   1.035   4.312 -2.0036 -0.1897 -0.9825
 3089SOL     OW20899   4.186   2.560   5.427 -0.0201 -0.0261 -0.0295
 3089SOL    HW120900   4.161   2.538   5.337  1.2596  0.4522 -0.5092
 3089SOL    HW220901   4.112   2.526   5.477  0.0068 -0.8187 -0.5233
 3090SOL     OW20902   1.498   2.845   9.827  0.3204  0.3535  0.1780
 3090SOL    HW120903   1.542   2.760   9.821 -1.0994 -0.3996  0.2957
 3090SOL    HW220904   1.417   2.816   9.870  1.9437 -1.2225  2.1417
 3091SOL     OW20905   0.393   1.864   2.126  0.1372 -0.7256  0.6338
 3091SOL    HW120906   0.323   1.929   2.129  0.2136 -0.6835  1.4504
 3091SOL    HW220907   0.445   1.889   2.203  2.6497  1.3565 -1.7578
 3092SOL     OW20908   2.202   0.646  13.817 -0.5287 -0.0076  0.0508
 3092SOL    HW120909   2.256   0.568  13.832 -0.9552 -0.4989 -0.9732
 3092SOL    HW220910   2.156   0.660  13.900 -1.2471 -1.1501 -0.1461
 3093SOL     OW20911   1.619   0.235   5.406 -0.2534  0.1539 -0.3723
 3093SOL    HW120912   1.533   0.202   5.380 -0.9196  1.2523  0.4895
 3093SOL    HW220913   1.597   0.297   5.475  1.4644 -0.1981  0.5034
 3094SOL     OW20914   3.651   0.558   1.951  0.2903  0.1606  0.6839
 3094SOL    HW120915   3.617   0.551   1.862  2.9998 -1.8314 -0.2215
 3094SOL    HW220916   3.722   0.494   1.949 -0.6729 -0.8705 -0.4178
 3095SOL     OW20917   3.412   0.540   4.845 -0.1505 -0.2096 -0.0117
 3095SOL    HW120918   3.445   0.520   4.933 -1.6961  1.5284  0.9491
 3095SOL    HW220919   3.414   0.464   4.788 -1.5029 -0.9833  0.9479
 3096SOL     OW20920   3.443   1.056   7.487  0.1279 -0.0408 -1.3848
 3096SOL    HW120921   3.352   1.071   7.464 -0.5117 -1.4129  0.3198
 3096SOL    HW220922   3.492   1.128   7.447  0.2176 -0.4169 -1.9574
 3097SOL     OW20923   0.151   1.654   1.340 -0.1807 -0.3989 -0.8344
 3097SOL    HW120924   0.134   1.685   1.429  1.4412  2.0740 -1.3869
 3097SOL    HW220925   0.187   1.567   1.357 -1.1519 -0.4267  1.1020
 3098SOL     OW20926   1.778   1.812   8.003  0.3303 -0.5472 -0.0625
 3098SOL    HW120927   1.706   1.765   7.960 -1.2833  0.9506  1.0178
 3098SOL    HW220928   1.754   1.780   8.090 -0.3981  0.5163  0.1236
 3099SOL     OW20929   0.011   3.549   5.427  0.2298 -0.5291 -0.0065
 3099SOL    HW120930   4.680   3.527   5.365 -0.7892 -1.1987  1.4005
 3099SOL    HW220931   0.015   3.470   5.480  0.0958  1.7166  3.3103
 3100SOL     OW20932   1.153   4.735   8.402  0.4382  0.5590  0.0635
 3100SOL    HW120933   1.130   4.677   8.474  0.1883  0.5578 -0.0168
 3100SOL    HW220934   1.247   4.718   8.388  0.2659  0.6386 -1.1810
 3101SOL     OW20935   2.714   3.457   6.692 -0.6649 -0.0693 -0.1377
 3101SOL    HW120936   2.755   3.474   6.777  0.9767  2.3824 -1.4135
 3101SOL    HW220937   2.785   3.415   6.644  0.2468 -0.1384  1.2790
 3102SOL     OW20938   2.550   4.450   8.023  0.6115  0.1641  0.8480
 3102SOL    HW120939   2.577   4.401   8.100  2.1460  1.5644  1.2144
 3102SOL    HW220940   2.456   4.438   8.013  0.2912  0.9859  2.7519
 3103SOL     OW20941   4.055   4.412   7.332  0.1547  0.2867  0.1293
 3103SOL    HW120942   4.048   4.316   7.329  0.1414  0.3264 -1.0979
 3103SOL    HW220943   3.961   4.433   7.335  0.5547  2.0235  0.4456
 3104SOL     OW20944   3.876   2.498   7.415  0.3311 -0.0951 -0.9746
 3104SOL    HW120945   3.901   2.590   7.400 -0.4479  0.6199  2.0948
 3104SOL    HW220946   3.781   2.505   7.410  0.2498 -1.2753 -0.9415
 3105SOL     OW20947   0.140   3.504   3.400 -0.1609  0.2883  0.6235
 3105SOL    HW120948   0.211   3.485   3.338 -0.2215  0.8132  0.3923
 3105SOL    HW220949   0.081   3.428   3.397  0.4247 -0.1872  1.1245
 3106SOL     OW20950   4.500   0.810   4.462  0.5333 -0.6525  0.2854
 3106SOL    HW120951   4.537   0.831   4.547 -1.2336 -2.1433  1.4281
 3106SOL    HW220952   4.500   0.714   4.467 -3.1279 -0.5711  1.9631
 3107SOL     OW20953   0.807   2.160  14.284  0.2586 -0.3681 -0.0988
 3107SOL    HW120954   0.758   2.138  14.363 -0.1547  1.9673  0.2865
 3107SOL    HW220955   0.738   2.150  14.219 -1.5578  1.6757  1.5242
 3108SOL     OW20956   2.017   3.887  11.113 -0.3795  0.0161 -0.5428
 3108SOL    HW120957   2.047   3.825  11.180 -0.3295  0.0518 -0.5322
 3108SOL    HW220958   2.070   3.856  11.040 -0.0130 -2.2999  0.6964
 3109SOL     OW20959   4.103   1.292   6.745 -0.0009 -0.2023  0.2922
 3109SOL    HW120960   4.096   1.215   6.802 -3.0833  0.0207  0.2354
 3109SOL    HW220961   4.013   1.324   6.739 -0.1336 -0.4586  1.0022
 3110SOL     OW20962   1.065   0.559   5.380 -0.3974  0.1959 -0.1408
 3110SOL    HW120963   0.975   0.566   5.412 -0.4852  1.6371 -0.6998
 3110SOL    HW220964   1.084   0.470   5.352 -0.8356  0.1415 -0.2624
 3111SOL     OW20965   1.636   4.030   3.231  0.7729  0.1065  0.5958
 3111SOL    HW120966   1.595   4.095   3.173 -0.4446 -0.6807  0.5640
 3111SOL    HW220967   1.644   4.076   3.314  1.6923  2.5498 -0.8466
 3112SOL     OW20968   2.495   4.647   5.451 -0.1280 -0.3594  0.1609
 3112SOL    HW120969   2.408   4.687   5.445  0.0472  0.0271  0.2365
 3112SOL    HW220970   2.492   4.565   5.401 -0.9199 -0.1170 -0.1956
 3113SOL     OW20971   3.279   3.732   4.891 -0.2648 -0.5891 -0.0265
 3113SOL    HW120972   3.212   3.793   4.862 -0.2309  0.4612  2.1739
 3113SOL    HW220973   3.345   3.755   4.825 -2.3225  1.2427 -1.4485
 3114SOL     OW20974   3.218   1.912   3.813 -0.2146  0.6908  0.0513
 3114SOL    HW120975   3.286   1.947   3.870  0.6998 -1.1573  0.0915
 3114SOL    HW220976   3.142   1.957   3.852  0.1524 -0.5363  2.2325
 3115SOL     OW20977   1.326   2.825  17.300 -0.5822 -0.1826  0.1263
 3115SOL    HW120978   1.306   2.854  17.211 -1.4699 -0.1602  0.3295
 3115SOL    HW220979   1.394   2.889  17.320 -1.1879  0.0551  1.4613
 3116SOL     OW20980   2.620   3.327   3.106  0.4777 -0.4062 -0.1602
 3116SOL    HW120981   2.628   3.368   3.192 -0.3330  1.5706 -1.0350
 3116SOL    HW220982   2.604   3.391   3.037 -0.3410 -2.4326 -1.8333
 3117SOL     OW20983   4.553   4.495   1.791  0.0107  0.4725 -0.0699
 3117SOL    HW120984   4.609   4.492   1.869  0.0714 -1.3817 -0.1787
 3117SOL    HW220985   4.605   4.555   1.737 -1.8014  0.7784 -1.4549
 3118SOL     OW20986   2.572   2.360  15.600 -0.3239  0.6871 -0.0463
 3118SOL    HW120987   2.586   2.314  15.518  0.1749  0.1517  0.3382
 3118SOL    HW220988   2.487   2.400  15.583 -0.7538 -0.2227 -0.0169
 3119SOL     OW20989   1.135   0.350  11.426 -0.3997 -0.1780  0.0313
 3119SOL    HW120990   1.082   0.421  11.465  1.3864  1.2598 -0.1575
 3119SOL    HW220991   1.190   0.309  11.493  0.3518  0.6059 -0.0956
 3120SOL     OW20992   1.874   2.605   8.058  0.4506 -0.4561 -0.0189
 3120SOL    HW120993   1.816   2.652   7.998 -0.2089 -0.7636  0.3695
 3120SOL    HW220994   1.897   2.524   8.013 -0.1431 -1.1952  0.9934
 3121SOL     OW20995   4.524   3.571   2.778 -0.1293  0.4658  0.1178
 3121SOL    HW120996   4.472   3.513   2.724 -1.5376 -0.5229  2.5291
 3121SOL    HW220997   4.573   3.513   2.837 -0.7173  1.1099  1.2511
 3122SOL     OW20998   4.194   2.878   9.518 -0.1785 -0.8742  0.1941
 3122SOL    HW120999   4.240   2.908   9.439  2.4174  0.1597  2.0840
 3122SOL    HW221000   4.139   2.953   9.542  0.2047 -0.5836  0.1808
 3123SOL     OW21001   3.644   1.937   1.263  0.1428  0.1929 -0.0956
 3123SOL    HW121002   3.709   1.992   1.219  1.6804 -0.1755  1.7114
 3123SOL    HW221003   3.687   1.923   1.348  0.9496  3.1076 -0.0045
 3124SOL     OW21004   4.697   1.317   7.459  0.9783 -0.1144  0.0714
 3124SOL    HW121005   4.720   1.364   7.379 -0.0085  0.0683 -0.1027
 3124SOL    HW221006   0.004   1.360   7.530  0.1466  1.6808 -0.4607
 3125SOL     OW21007   1.892   2.309   1.756 -0.3204  0.3243  0.4927
 3125SOL    HW121008   1.919   2.308   1.848  1.3754  1.7674  0.0027
 3125SOL    HW221009   1.923   2.222   1.730 -0.9657  0.3585 -0.4059
 3126SOL     OW21010   3.914   4.142  13.044  0.0249 -0.6743  0.1200
 3126SOL    HW121011   3.971   4.082  12.996  0.3499 -1.6858  1.7569
 3126SOL    HW221012   3.954   4.153  13.131 -0.8301 -1.1385  0.5723
 3127SOL     OW21013   2.226   3.800   6.673  0.5042 -0.5192 -0.2244
 3127SOL    HW121014   2.253   3.778   6.584  2.8371 -1.9421  0.8293
 3127SOL    HW221015   2.275   3.730   6.716  1.6005 -0.2555 -1.0530
 3128SOL     OW21016   0.284   4.674   4.456  0.3213  0.2289 -0.6397
 3128SOL    HW121017   0.273   4.598   4.399 -1.3067 -1.6285  2.1266
 3128SOL    HW221018   0.291   4.624   4.538  0.7953  0.9708 -0.2262
 3129SOL     OW21019   2.990   1.530   4.171 -0.4776 -0.2033  0.1395
 3129SOL    HW121020   3.077   1.558   4.144 -1.1629 -0.2936 -2.1157
 3129SOL    HW221021   2.949   1.491   4.094 -0.2797 -0.6572  0.2592
 3130SOL     OW21022   1.686   0.479  11.081 -0.0153  0.0535 -0.5082
 3130SOL    HW121023   1.617   0.432  11.129  0.9606  0.3613  1.2133
 3130SOL    HW221024   1.720   0.543  11.145 -1.5332 -0.9690  1.3389
 3131SOL     OW21025   3.062   1.546  14.914  1.0702  0.0641 -0.3515
 3131SOL    HW121026   2.968   1.532  14.917  0.9897  1.0314  1.7579
 3131SOL    HW221027   3.096   1.466  14.953 -0.0400 -0.1077  0.2465
 3132SOL     OW21028   1.289   3.807   4.618 -0.7513 -1.1756  0.4096
 3132SOL    HW121029   1.264   3.827   4.528  1.2755  1.5511  0.4412
 3132SOL    HW221030   1.384   3.798   4.608 -0.5231 -1.7102  2.9690
 3133SOL     OW21031   1.399   3.822   3.067 -0.2705  0.0202 -0.0928
 3133SOL    HW121032   1.464   3.893   3.071 -1.4535  1.2366 -2.4761
 3133SOL    HW221033   1.371   3.817   3.158 -2.1423  2.4725 -0.5300
 3134SOL     OW21034   1.742   3.500  13.203  0.1015 -0.8595 -0.0659
 3134SOL    HW121035   1.833   3.511  13.176  0.6564 -1.9159  1.3261
 3134SOL    HW221036   1.742   3.437  13.276  0.4796 -2.7264 -1.6887
 3135SOL     OW21037   3.896   0.224   5.763  0.1523 -0.0335  1.0698
 3135SOL    HW121038   3.839   0.153   5.735  1.5232  0.8172 -4.0055
 3135SOL    HW221039   3.943   0.238   5.680  0.3459  0.8963  1.3391
 3136SOL     OW21040   2.293   1.651   2.611 -0.0914 -0.6380  0.3347
 3136SOL    HW121041   2.358   1.591   2.576 -0.8226  0.1538 -2.3681
 3136SOL    HW221042   2.263   1.703   2.536  1.9054  2.6680  1.8403
 3137SOL     OW21043   3.193   1.344   9.867  0.4264  0.1688 -0.6947
 3137SOL    HW121044   3.269   1.390   9.830 -0.6880  2.0174 -0.6605
 3137SOL    HW221045   3.133   1.325   9.795 -0.6772  2.1231 -0.2771
 3138SOL     OW21046   3.292   3.703  11.703 -0.2690 -0.3334  0.4811
 3138SOL    HW121047   3.254   3.695  11.616 -0.2101  2.4827  0.1813
 3138SOL    HW221048   3.269   3.794  11.725  1.3895  0.5099 -1.2330
 3139SOL     OW21049   0.638   2.972   5.192 -0.0980  0.2776 -0.3631
 3139SOL    HW121050   0.713   2.947   5.138 -0.4867 -2.2923  0.2979
 3139SOL    HW221051   0.586   3.013   5.123 -3.1510  0.5619  2.1362
 3140SOL     OW21052   4.418   1.872   8.605  0.6956  0.6846  0.2156
 3140SOL    HW121053   4.346   1.846   8.663  0.3755 -1.0663 -0.9687
 3140SOL    HW221054   4.488   1.871   8.670 -1.5701  1.4382  2.6597
 3141SOL     OW21055   0.837   3.109  12.048 -0.1543  0.3003 -0.1132
 3141SOL    HW121056   0.932   3.092  12.049  0.1403  1.8067 -2.7979
 3141SOL    HW221057   0.814   3.082  12.137  0.5506 -0.3388 -0.1274
 3142SOL     OW21058   1.853   2.930   5.629 -0.0910  0.3802  0.6607
 3142SOL    HW121059   1.901   2.872   5.571  1.9347  1.7545  0.9844
 3142SOL    HW221060   1.846   3.005   5.571  0.0745  1.2000  1.6947
 3143SOL     OW21061   4.431   2.732  13.865  0.2677  0.8260 -0.3003
 3143SOL    HW121062   4.403   2.666  13.929 -0.3694  0.2846 -1.1382
 3143SOL    HW221063   4.364   2.800  13.863 -0.7031 -0.0832  1.0364
 3144SOL     OW21064   0.062   1.413  10.696  0.2075  0.3622  0.0930
 3144SOL    HW121065   0.130   1.418  10.629  1.6232  0.2069  1.5106
 3144SOL    HW221066   0.062   1.503  10.728  0.0263  1.1966 -2.2607
 3145SOL     OW21067   0.736   3.758   4.062  0.0039  0.0711  0.0946
 3145SOL    HW121068   0.768   3.669   4.075 -0.4640  0.2637  2.5546
 3145SOL    HW221069   0.664   3.758   4.125 -0.1772  1.3370 -0.1003
 3146SOL     OW21070   1.243   4.169   9.295  0.1658  0.0402  0.0074
 3146SOL    HW121071   1.334   4.201   9.294 -0.2865  1.3245  0.3101
 3146SOL    HW221072   1.216   4.194   9.207 -0.8482 -0.2927  0.2298
 3147SOL     OW21073   0.284   1.482   9.020  0.0873 -0.2484  0.5589
 3147SOL    HW121074   0.376   1.487   8.996 -0.6347  0.7799 -1.9549
 3147SOL    HW221075   0.286   1.390   9.048  3.7789 -0.1983  0.3700
 3148SOL     OW21076   3.107   4.021  10.262 -0.1080 -0.1890  0.5453
 3148SOL    HW121077   3.057   4.088  10.216  1.6381  0.6613 -0.1160
 3148SOL    HW221078   3.039   3.954  10.269 -0.6577  0.3494  0.3263
 3149SOL     OW21079   0.137   1.038   3.078  0.1549  0.2726  0.0238
 3149SOL    HW121080   0.108   1.106   3.139 -0.3028  1.3507 -1.4154
 3149SOL    HW221081   0.213   1.082   3.041  0.3325  1.9624  2.4063
 3150SOL     OW21082   2.726   3.859   5.755 -0.2583  0.0973  0.3336
 3150SOL    HW121083   2.729   3.917   5.678 -0.8569 -1.1816 -0.6426
 3150SOL    HW221084   2.676   3.788   5.717  1.0306 -1.5812  1.7920
 3151SOL     OW21085   4.538   2.696   2.347 -0.2067 -0.3998 -0.0393
 3151SOL    HW121086   4.624   2.652   2.352 -0.4324 -0.3905  4.2664
 3151SOL    HW221087   4.486   2.635   2.399 -0.6291  0.5980  0.6933
 3152SOL     OW21088   2.203   4.020  15.504 -0.5379 -0.6359  0.6564
 3152SOL    HW121089   2.168   3.987  15.587 -1.5694 -0.5615  0.2625
 3152SOL    HW221090   2.219   3.937  15.460 -0.6738  0.2769 -1.1442
 3153SOL     OW21091   2.815   0.365   6.189 -0.2040 -0.2711  0.3308
 3153SOL    HW121092   2.905   0.364   6.222  0.2431 -1.7074 -0.9589
 3153SOL    HW221093   2.766   0.412   6.256 -2.2492  0.7433 -1.8875
 3154SOL     OW21094   0.550   4.174   4.780  0.3232  0.1440 -0.6356
 3154SOL    HW121095   0.582   4.111   4.845  0.6078  0.6349 -0.2976
 3154SOL    HW221096   0.535   4.248   4.839 -1.2881 -1.0248  0.4005
 3155SOL     OW21097   2.151   3.255   3.627 -0.1440 -0.0503  0.1766
 3155SOL    HW121098   2.095   3.326   3.660 -1.7709 -0.9159 -0.7159
 3155SOL    HW221099   2.128   3.262   3.535 -3.0498 -2.1722  0.7155
 3156SOL     OW21100   3.956   3.391   4.156  0.2279  0.0109 -0.6109
 3156SOL    HW121101   3.967   3.422   4.066  1.6521 -0.9124 -0.7525
 3156SOL    HW221102   4.028   3.328   4.155  0.8868  0.7223  1.1422
 3157SOL     OW21103   1.604   2.813   8.097  0.2194  1.1041  0.0310
 3157SOL    HW121104   1.681   2.841   8.147  0.9632  0.3258 -0.6716
 3157SOL    HW221105   1.646   2.807   8.011  3.0552 -1.1810  1.5631
 3158SOL     OW21106   2.401   0.600  13.276  0.1293  0.3580  0.5340
 3158SOL    HW121107   2.495   0.585  13.264 -0.1137 -0.5055 -0.3069
 3158SOL    HW221108   2.394   0.686  13.235  1.3098  0.8810  1.4305
 3159SOL     OW21109   4.265   2.427   9.700  0.1533 -0.2215 -0.9046
 3159SOL    HW121110   4.239   2.518   9.716  0.2595 -0.3246 -0.0982
 3159SOL    HW221111   4.361   2.429   9.698  0.2019 -0.1980  1.2534
 3160SOL     OW21112   2.714   4.470   0.854 -0.1036 -0.4528  0.0614
 3160SOL    HW121113   2.688   4.406   0.788 -0.0637 -2.0896  1.6213
 3160SOL    HW221114   2.804   4.485   0.825 -0.1502 -0.3275 -0.0200
 3161SOL     OW21115   1.180   0.218  14.059  0.0944  0.4250 -0.6298
 3161SOL    HW121116   1.129   0.158  14.114  0.4209  1.9279  1.2961
 3161SOL    HW221117   1.218   0.157  13.995  0.8624  0.4655 -0.2046
 3162SOL     OW21118   1.635   2.654   1.729  0.2671  0.1794  0.1718
 3162SOL    HW121119   1.550   2.619   1.754  0.5926 -0.6805  0.0709
 3162SOL    HW221120   1.642   2.717   1.801 -1.4763  1.0683 -0.4508
 3163SOL     OW21121   2.367   0.238   5.559  0.0939  0.2072  0.6082
 3163SOL    HW121122   2.359   0.248   5.465 -0.5185 -1.9821  0.4365
 3163SOL    HW221123   2.462   0.243   5.573  0.7188 -2.1293 -3.1357
 3164SOL     OW21124   2.656   2.129   2.179 -0.0168  0.6482  0.7631
 3164SOL    HW121125   2.624   2.041   2.161  0.6938  0.4558  0.4488
 3164SOL    HW221126   2.568   2.165   2.191 -1.0811 -0.6871 -3.2218
 3165SOL     OW21127   3.422   1.196  17.651  0.1478  0.0152  0.1862
 3165SOL    HW121128   3.412   1.265  17.717 -2.7873  1.1088 -1.3974
 3165SOL    HW221129   3.511   1.207  17.617  0.4125  1.3227  1.2718
 3166SOL     OW21130   0.436   0.954   7.049 -0.2780  0.0588 -0.1508
 3166SOL    HW121131   0.373   0.950   7.121 -0.3805  3.4593 -0.0846
 3166SOL    HW221132   0.436   0.866   7.012  0.1171 -1.1349  2.6499
 3167SOL     OW21133   0.886   4.269   1.595 -0.2170  0.7780  0.1934
 3167SOL    HW121134   0.809   4.312   1.632 -0.2984  0.9288 -0.1506
 3167SOL    HW221135   0.931   4.341   1.552  0.4075  0.8794  1.0067
 3168SOL     OW21136   1.628   1.365   4.901  0.1139  0.4371  0.2023
 3168SOL    HW121137   1.610   1.380   4.994 -3.1919  0.8471 -0.4965
 3168SOL    HW221138   1.688   1.292   4.914  2.0445  2.1862  1.1554
 3169SOL     OW21139   0.972   1.792   3.847  0.0967  0.3329  0.4085
 3169SOL    HW121140   0.947   1.843   3.924 -0.4884  0.0600  0.3974
 3169SOL    HW221141   1.062   1.822   3.833 -0.4302  1.6301 -0.2032
 3170SOL     OW21142   3.156   4.392   7.374  0.3228 -0.1736 -0.0835
 3170SOL    HW121143   3.185   4.316   7.324 -0.4834 -0.8825  0.5235
 3170SOL    HW221144   3.061   4.396   7.364  0.2746 -0.4161  0.2779
 3171SOL     OW21145   0.963   3.102   1.523 -0.1000 -0.0199 -0.0686
 3171SOL    HW121146   1.024   3.099   1.450 -0.5904  1.9306 -0.5560
 3171SOL    HW221147   0.910   3.026   1.497 -0.6639  0.3407  0.0174
 3172SOL     OW21148   3.711   2.703   9.446 -0.6679  0.0877 -0.0875
 3172SOL    HW121149   3.764   2.699   9.525 -1.1509  0.0969  0.2345
 3172SOL    HW221150   3.704   2.797   9.435  0.5199  0.3467  1.3242
 3173SOL     OW21151   0.584   0.448   6.702 -0.1884  0.3930  0.4569
 3173SOL    HW121152   0.554   0.539   6.712 -0.4905  0.1875  1.4253
 3173SOL    HW221153   0.679   0.457   6.690  0.2945 -3.1205  1.7638
 3174SOL     OW21154   2.994   1.788   5.066 -0.2607 -0.0518  0.1960
 3174SOL    HW121155   2.914   1.778   5.117 -0.1687 -0.0331  0.3450
 3174SOL    HW221156   3.025   1.869   5.108  0.5115  0.3031 -1.0504
 3175SOL     OW21157   4.109   4.436   6.799 -0.0355 -0.2496 -0.9173
 3175SOL    HW121158   4.114   4.457   6.706  1.4031 -0.9062 -0.9884
 3175SOL    HW221159   4.154   4.351   6.797 -1.5710 -1.0855  0.3053
 3176SOL     OW21160   1.695   2.837   4.449 -0.1148 -0.2028  0.1281
 3176SOL    HW121161   1.622   2.775   4.452 -1.6222  1.5446  0.1420
 3176SOL    HW221162   1.661   2.903   4.388 -0.5502 -0.2296  0.3392
 3177SOL     OW21163   0.715   4.420  11.652  0.4675  0.8290 -0.5461
 3177SOL    HW121164   0.808   4.441  11.667  0.2402  1.2932  0.1872
 3177SOL    HW221165   0.710   4.345  11.711  2.7774  0.8603 -0.3049
 3178SOL     OW21166   0.114   0.085   5.130 -0.0436  0.5937 -0.3205
 3178SOL    HW121167   0.057   0.008   5.126  2.6290 -1.4917  1.6090
 3178SOL    HW221168   0.057   0.149   5.087 -0.6337  0.4654  0.2590
 3179SOL     OW21169   0.049   0.649  13.870  0.3731 -0.3815  0.0380
 3179SOL    HW121170   4.711   0.697  13.840  0.4691 -1.4518 -1.9710
 3179SOL    HW221171   0.113   0.663  13.800  0.8677  0.2256  0.6139
 3180SOL     OW21172   4.293   4.483   8.560  0.8587 -0.5137 -0.3595
 3180SOL    HW121173   4.211   4.436   8.575  0.4029  0.5548  0.5080
 3180SOL    HW221174   4.293   4.484   8.464  0.5769 -1.3409 -0.3668
 3181SOL     OW21175   3.530   0.627   1.723 -0.0938 -0.1614  0.2764
 3181SOL    HW121176   3.519   0.610   1.629  2.5153  1.7881 -0.3848
 3181SOL    HW221177   3.445   0.659   1.751  0.5480  0.5220  1.4569
 3182SOL     OW21178   3.288   0.243   1.670  0.2000  0.1989 -0.1168
 3182SOL    HW121179   3.256   0.333   1.665 -1.6022 -0.3560  1.2617
 3182SOL    HW221180   3.207   0.194   1.679  0.6204 -0.8331 -2.0971
 3183SOL     OW21181   0.463   0.997   8.385  0.3809 -0.8472 -0.0311
 3183SOL    HW121182   0.517   0.942   8.328 -1.4187  0.6810 -3.2085
 3183SOL    HW221183   0.471   1.067   8.319  1.7372  0.1309  1.1838
 3184SOL     OW21184   4.355   2.512   7.222 -0.0611 -0.6607  0.4033
 3184SOL    HW121185   4.418   2.461   7.273 -0.8850 -0.1200  1.9669
 3184SOL    HW221186   4.363   2.477   7.133  1.3993  2.5618 -0.7350
 3185SOL     OW21187   2.522   3.162   8.963 -0.2058 -0.1745 -0.1491
 3185SOL    HW121188   2.426   3.168   8.956 -0.1246 -0.5537 -1.7287
 3185SOL    HW221189   2.543   3.252   8.988 -0.4479 -0.1713  0.0488
 3186SOL     OW21190   1.537   4.258   1.254  0.3285  0.9120 -0.0775
 3186SOL    HW121191   1.467   4.284   1.313  1.9508 -0.6215  2.5085
 3186SOL    HW221192   1.610   4.240   1.314 -0.7594 -0.2560  0.8694
 3187SOL     OW21193   4.266   2.566   7.482 -0.0124 -0.0066  0.9625
 3187SOL    HW121194   4.172   2.586   7.479  0.3130  1.0380 -2.1419
 3187SOL    HW221195   4.277   2.535   7.392 -0.0995 -1.1466  1.3411
 3188SOL     OW21196   0.895   4.586   8.000 -0.5004 -0.4501 -0.0174
 3188SOL    HW121197   0.883   4.681   7.996 -0.1894 -0.4171 -0.2616
 3188SOL    HW221198   0.978   4.583   8.048  0.8331 -0.0025 -2.2502
 3189SOL     OW21199   2.190   4.457   5.293  0.7329  0.1651  0.3065
 3189SOL    HW121200   2.116   4.397   5.303 -0.5254  1.5717 -0.6262
 3189SOL    HW221201   2.217   4.440   5.203  2.5062 -1.3399  1.1113
 3190SOL     OW21202   0.293   2.969   7.814 -0.5243 -0.1530 -0.0617
 3190SOL    HW121203   0.379   2.965   7.857  0.2692 -1.4079 -1.7478
 3190SOL    HW221204   0.320   2.997   7.726 -1.6248  0.2265 -0.2781
 3191SOL     OW21205   4.376   4.621   5.247 -0.0887  0.4124 -0.5369
 3191SOL    HW121206   4.389   4.592   5.337  3.7091 -0.5915 -1.4005
 3191SOL    HW221207   4.285   4.600   5.226 -0.8479  1.9264  1.2680
 3192SOL     OW21208   4.183   2.869   5.705  0.1593 -0.3701 -0.3502
 3192SOL    HW121209   4.122   2.825   5.645  0.0098  0.3816 -0.7534
 3192SOL    HW221210   4.248   2.801   5.723 -1.2808 -1.3567  1.0217
 3193SOL     OW21211   0.606   4.444   2.130  0.3791 -0.0265 -0.2672
 3193SOL    HW121212   0.614   4.350   2.142  0.8170  0.1512  0.8586
 3193SOL    HW221213   0.554   4.473   2.206  2.3363 -2.4874  2.0104
 3194SOL     OW21214   1.884   4.437  16.616 -0.0249  0.0093 -0.5769
 3194SOL    HW121215   1.851   4.469  16.701 -1.3272 -0.6796 -0.8162
 3194SOL    HW221216   1.925   4.515  16.579 -2.0108  0.8225 -1.0806
 3195SOL     OW21217   4.545   4.647   4.065 -0.2299  0.1899 -0.0964
 3195SOL    HW121218   4.568   4.610   4.150  0.7101 -2.0342 -1.3067
 3195SOL    HW221219   4.453   4.625   4.052  0.4507 -2.5521 -0.4650
 3196SOL     OW21220   0.717   3.099  14.964  0.1625 -0.2934  0.3233
 3196SOL    HW121221   0.732   3.182  15.010  0.3678 -0.2805  0.2296
 3196SOL    HW221222   0.779   3.116  14.894 -1.6808  1.6083 -0.8656
 3197SOL     OW21223   1.702   0.137   8.820 -0.3716  0.1099 -0.3494
 3197SOL    HW121224   1.656   0.132   8.904 -0.0075  1.3116 -0.0838
 3197SOL    HW221225   1.677   0.053   8.782 -0.7285 -0.8402  1.9677
 3198SOL     OW21226   4.303   1.762   8.372 -0.8848  0.1143 -0.0221
 3198SOL    HW121227   4.291   1.670   8.393 -0.3308 -0.2593 -1.3392
 3198SOL    HW221228   4.359   1.787   8.446  1.0365 -2.0369 -0.7398
 3199SOL     OW21229   0.218   2.448   6.895 -0.1185 -0.2912 -0.1216
 3199SOL    HW121230   0.144   2.403   6.936 -0.9052 -0.4959 -1.7359
 3199SOL    HW221231   0.226   2.410   6.807  0.1666 -0.9136  0.1719
 3200SOL     OW21232   0.009   1.311  13.197  0.3697 -0.4277 -0.5058
 3200SOL    HW121233   4.706   1.227  13.176  1.9445 -0.9222 -1.7241
 3200SOL    HW221234   4.724   1.319  13.290  0.7765  1.3795 -0.5709
 3201SOL     OW21235   1.902   3.675   7.655  0.2344  0.1193  0.0797
 3201SOL    HW121236   1.808   3.660   7.666 -0.0244  0.2931 -1.8710
 3201SOL    HW221237   1.903   3.733   7.731 -1.5813 -1.2916  1.1822
 3202SOL     OW21238   3.727   0.776   8.919 -0.3174  0.0564 -0.2071
 3202SOL    HW121239   3.712   0.859   8.964 -0.1164  0.2210 -0.4379
 3202SOL    HW221240   3.645   0.764   8.873  0.3156 -3.8915 -0.2585
 3203SOL     OW21241   3.336   2.520   1.567 -0.1327 -0.1699  0.1258
 3203SOL    HW121242   3.275   2.571   1.514 -1.3808 -1.1433  0.6452
 3203SOL    HW221243   3.305   2.438   1.531  0.3982  0.5992 -2.0863
 3204SOL     OW21244   1.808   2.684   9.733 -0.1729 -0.0966 -0.1876
 3204SOL    HW121245   1.903   2.677   9.737 -0.1862  0.7383  1.7964
 3204SOL    HW221246   1.778   2.597   9.758 -0.9703 -0.2217 -1.5945
 3205SOL     OW21247   0.929   0.367   7.082 -0.3415 -0.4903 -0.0751
 3205SOL    HW121248   0.926   0.354   7.176  0.4253  1.7011  0.2533
 3205SOL    HW221249   0.877   0.296   7.046  0.9194 -2.1897  1.4922
 3206SOL     OW21250   0.663   3.483   3.999  0.0886 -0.1801 -0.3572
 3206SOL    HW121251   0.747   3.486   3.954  1.0595  1.6526  1.5627
 3206SOL    HW221252   0.609   3.470   3.921 -0.1242 -1.0614 -0.0533
 3207SOL     OW21253   0.743   0.901  17.299  0.2780 -0.6795  0.1293
 3207SOL    HW121254   0.753   0.996  17.291 -3.6848 -0.2782 -0.3568
 3207SOL    HW221255   0.673   0.891  17.234  0.8649  0.5855 -0.6841
 3208SOL     OW21256   0.947   4.515  10.051 -0.9505  0.0743  0.2677
 3208SOL    HW121257   0.882   4.532  10.119  1.8775  2.0344  2.4841
 3208SOL    HW221258   1.030   4.537  10.092 -0.5663 -0.3804 -0.2595
 3209SOL     OW21259   4.634   4.085   8.604  0.0291  0.2307 -0.3311
 3209SOL    HW121260   4.673   4.124   8.682 -0.0996 -2.8671  1.2775
 3209SOL    HW221261   4.648   3.991   8.613 -0.8313  0.2271  1.0038
 3210SOL     OW21262   4.626   0.710  17.275  0.1419  0.0851 -0.7240
 3210SOL    HW121263   4.664   0.623  17.262  1.6839  0.6910 -0.1974
 3210SOL    HW221264   4.535   0.688  17.297  0.6560 -0.8748  0.4430
 3211SOL     OW21265   2.136   3.126   8.174 -0.5838  0.0435 -0.1917
 3211SOL    HW121266   2.211   3.174   8.212  0.8934 -1.2122 -1.5233
 3211SOL    HW221267   2.175   3.106   8.089  1.0588 -0.8134  0.7488
 3212SOL     OW21268   4.590   3.288   9.249 -0.2587 -0.9063 -0.0680
 3212SOL    HW121269   4.579   3.289   9.344  1.6045  0.6623  0.1314
 3212SOL    HW221270   4.621   3.378   9.242  1.4603 -1.4895 -0.0267
 3213SOL     OW21271   2.204   0.413   2.393 -0.4506  0.3771 -0.2152
 3213SOL    HW121272   2.280   0.382   2.443 -0.2310 -0.4705 -1.0681
 3213SOL    HW221273   2.251   0.450   2.319  1.5718  2.2690  2.0092
 3214SOL     OW21274   4.632   3.193   4.051  0.2403 -0.1159 -0.3595
 3214SOL    HW121275   4.616   3.252   4.125 -3.2787 -1.2159 -0.2491
 3214SOL    HW221276   4.635   3.242   3.969  1.2095  0.6428  0.1271
 3215SOL     OW21277   3.198   0.346   2.397 -0.3123  0.5288  0.1114
 3215SOL    HW121278   3.277   0.400   2.387  1.5175 -2.3863 -1.1231
 3215SOL    HW221279   3.180   0.367   2.488  2.8456 -0.8394  1.0732
 3216SOL     OW21280   4.222   0.379   4.092 -0.4718  0.1460 -0.0713
 3216SOL    HW121281   4.287   0.380   4.162 -0.6299 -1.9056  0.1330
 3216SOL    HW221282   4.269   0.430   4.027 -0.4207 -0.2684 -0.3589
 3217SOL     OW21283   1.613   4.608   8.041 -0.1342 -0.0463  0.5573
 3217SOL    HW121284   1.581   4.564   7.962 -1.1466  0.7539  0.5200
 3217SOL    HW221285   1.692   4.644   8.002 -0.9474  2.1125  0.9216
 3218SOL     OW21286   3.972   0.190   8.756  0.1357 -0.2515  0.0011
 3218SOL    HW121287   3.973   0.270   8.809  2.9214  0.0530 -0.5335
 3218SOL    HW221288   3.998   0.125   8.822  0.6526  1.7970  1.8310
 3219SOL     OW21289   3.489   4.207  10.826  0.1459  0.4022  0.6712
 3219SOL    HW121290   3.404   4.193  10.784  0.7334 -0.5552 -0.2058
 3219SOL    HW221291   3.460   4.246  10.908  2.8123  1.2866  1.1902
 3220SOL     OW21292   4.487   3.639  16.717 -0.3923  0.4518  0.5201
 3220SOL    HW121293   4.542   3.576  16.764  1.1279  0.2395 -1.5662
 3220SOL    HW221294   4.510   3.719  16.764 -0.6455 -0.1942  1.7583
 3221SOL     OW21295   0.538   1.603  12.855 -0.5133  0.2978  0.3441
 3221SOL    HW121296   0.514   1.566  12.940 -1.2312  0.0269  0.0238
 3221SOL    HW221297   0.594   1.535  12.820 -1.0990  0.5775 -1.1384
 3222SOL     OW21298   3.311   3.264   5.017  0.0595  0.3030 -0.2135
 3222SOL    HW121299   3.265   3.279   4.935 -2.8682  0.3939  1.4295
 3222SOL    HW221300   3.310   3.351   5.056 -1.8865  0.3954 -0.4831
 3223SOL     OW21301   3.468   0.288   7.967 -0.4352 -0.1689  0.0152
 3223SOL    HW121302   3.451   0.315   8.058  0.4028 -1.0219  0.4179
 3223SOL    HW221303   3.380   0.260   7.942 -0.6284  0.6319 -0.2099
 3224SOL     OW21304   2.369   3.148   1.600 -0.0603 -0.0612 -0.4631
 3224SOL    HW121305   2.321   3.166   1.519  1.5604  1.1596 -1.1348
 3224SOL    HW221306   2.368   3.052   1.596  2.3739 -0.0557 -1.2022
 3225SOL     OW21307   1.872   0.183   5.032  0.1246  0.4144 -0.0524
 3225SOL    HW121308   1.864   0.118   5.102  0.5789  0.4532  0.0362
 3225SOL    HW221309   1.803   0.245   5.058 -0.3336  0.0976 -0.5084
 3226SOL     OW21310   4.495   4.684  11.625 -0.1806 -0.3271 -0.4340
 3226SOL    HW121311   4.576   4.735  11.626 -1.4563  1.6774  0.1108
 3226SOL    HW221312   4.506   4.650  11.536  0.8639 -4.2888  1.2130
 3227SOL     OW21313   1.353   4.656   6.178  0.1613  0.2165  0.1804
 3227SOL    HW121314   1.405   4.653   6.259 -1.2863 -2.7783  0.9880
 3227SOL    HW221315   1.398   4.721   6.124  1.0685  0.2401  0.9654
 3228SOL     OW21316   2.521   1.234  12.019 -0.3853  0.3222  0.2023
 3228SOL    HW121317   2.476   1.151  12.001 -0.7830 -0.1320  3.2642
 3228SOL    HW221318   2.609   1.194  12.023 -1.5890 -1.9458  4.9690
 3229SOL     OW21319   2.711   1.978   7.238  0.3709 -0.3380  0.6639
 3229SOL    HW121320   2.689   1.959   7.147  0.1086 -1.8490  1.0487
 3229SOL    HW221321   2.733   1.887   7.257 -4.3359 -1.5915  0.2972
 3230SOL     OW21322   3.258   0.233   7.468 -0.1137 -0.2393  0.1707
 3230SOL    HW121323   3.349   0.210   7.487 -0.3415 -2.3986 -1.2816
 3230SOL    HW221324   3.238   0.165   7.404  0.1380  2.0413 -2.3235
 3231SOL     OW21325   1.667   2.423   2.523  0.1022  0.8093 -0.5912
 3231SOL    HW121326   1.625   2.428   2.437 -0.9741  0.0012 -0.1102
 3231SOL    HW221327   1.646   2.330   2.531  1.2887  0.5810 -0.1102
 3232SOL     OW21328   3.568   2.813  13.197 -0.3651 -0.4408  0.2475
 3232SOL    HW121329   3.569   2.829  13.291 -1.3828  1.3513 -0.0425
 3232SOL    HW221330   3.553   2.902  13.166 -2.4336  0.9737  5.2777
 3233SOL     OW21331   2.792   1.267  17.075  0.3752 -0.6366 -0.1497
 3233SOL    HW121332   2.794   1.256  16.980  1.6591 -0.0766 -0.1903
 3233SOL    HW221333   2.841   1.349  17.075 -1.8878  0.7090  2.6889
 3234SOL     OW21334   1.626   4.391   3.311 -0.1167  0.1052  0.2918
 3234SOL    HW121335   1.689   4.365   3.243 -0.2130 -2.0797  1.0695
 3234SOL    HW221336   1.649   4.326   3.377  1.3725  0.8068  0.4738
 3235SOL     OW21337   0.703   0.779  16.432 -0.1323 -0.2483 -0.0607
 3235SOL    HW121338   0.724   0.819  16.348  0.5561  0.7002  0.5595
 3235SOL    HW221339   0.743   0.693  16.418  1.9903  0.7972 -0.5341
 3236SOL     OW21340   4.680   0.486   8.417 -0.4246 -0.3241  0.2356
 3236SOL    HW121341   4.612   0.425   8.389 -1.3249  0.5259  0.5690
 3236SOL    HW221342   4.640   0.562   8.374  2.0193  0.5397 -0.5270
 3237SOL     OW21343   1.028   3.857   1.446 -0.1305 -0.8426  0.5254
 3237SOL    HW121344   0.954   3.917   1.437  2.1219  1.7465 -0.3162
 3237SOL    HW221345   1.005   3.780   1.393 -0.4960  0.6169 -1.4281
 3238SOL     OW21346   4.119   0.544   8.653 -0.2101 -0.0921  0.2084
 3238SOL    HW121347   4.092   0.453   8.636 -0.9536  0.3317 -0.8022
 3238SOL    HW221348   4.034   0.588   8.658 -0.3045 -0.3598  1.0081
 3239SOL     OW21349   3.427   1.685   9.697  0.1379 -0.4962  0.3686
 3239SOL    HW121350   3.520   1.689   9.718  0.7995 -1.1793 -2.4076
 3239SOL    HW221351   3.388   1.705   9.782  2.8531  2.1484  0.9806
 3240SOL     OW21352   0.941   0.338   7.377  0.2814 -0.0860 -0.0715
 3240SOL    HW121353   0.921   0.255   7.335  1.6432 -1.1408  1.3756
 3240SOL    HW221354   0.863   0.353   7.430 -0.9318 -0.9440 -1.6134
 3241SOL     OW21355   3.216   1.464   7.736  0.2589  0.2121  0.8578
 3241SOL    HW121356   3.310   1.452   7.731  0.2797  0.4809  0.5147
 3241SOL    HW221357   3.196   1.503   7.821 -0.6173  0.1115  0.7002
 3242SOL     OW21358   0.995   1.959   9.526 -0.1454 -0.4589  0.3471
 3242SOL    HW121359   0.942   1.881   9.542  2.5851 -2.1670  1.2541
 3242SOL    HW221360   0.976   2.008   9.606 -0.7377 -1.3738  0.7684
 3243SOL     OW21361   0.358   2.573   7.970  0.1406 -0.0696  0.1018
 3243SOL    HW121362   0.360   2.652   8.024  2.2704  0.6368 -1.0123
 3243SOL    HW221363   0.327   2.604   7.884  0.8523  1.7779  0.5277
 3244SOL     OW21364   1.439   3.826  16.728  0.0027 -0.0030  0.0051
 3244SOL    HW121365   1.508   3.792  16.784  0.6554  1.3422  0.0004
 3244SOL    HW221366   1.353   3.790  16.752  0.8764 -2.4648 -0.5218
 3245SOL     OW21367   1.002   0.216   5.047 -0.3914  0.2922 -0.2808
 3245SOL    HW121368   0.906   0.214   5.043 -0.3891  0.3297 -0.3475
 3245SOL    HW221369   1.033   0.153   4.982  1.4637  1.2568 -0.3206
 3246SOL     OW21370   3.366   0.083   9.151  0.3901  0.0307 -0.4682
 3246SOL    HW121371   3.348   0.063   9.243  2.8363  1.3537  0.3030
 3246SOL    HW221372   3.286   0.131   9.127  1.0007  0.2296 -2.0975
 3247SOL     OW21373   3.169   1.074   6.537  0.4799  0.2642 -0.3458
 3247SOL    HW121374   3.151   1.165   6.511  0.3769  0.7816  1.5614
 3247SOL    HW221375   3.251   1.054   6.492  0.8662  0.0357  0.4753
 3248SOL     OW21376   0.960   1.542   1.541  0.1891 -0.4917  0.0473
 3248SOL    HW121377   0.958   1.559   1.447 -3.4827  1.7544  0.5373
 3248SOL    HW221378   1.012   1.463   1.554  0.9191  0.0024  0.1209
 3249SOL     OW21379   0.125   4.501   2.260 -0.3923 -0.4964  0.2578
 3249SOL    HW121380   0.096   4.490   2.169  0.2338  0.0005  0.0028
 3249SOL    HW221381   0.041   4.505   2.306 -1.0859  2.9552 -1.2905
 3250SOL     OW21382   1.360   1.880   8.685 -0.9708 -0.2833 -0.0147
 3250SOL    HW121383   1.267   1.857   8.695 -0.7406 -1.2609 -0.1512
 3250SOL    HW221384   1.370   1.854   8.594  0.8098 -1.8691  0.6565
 3251SOL     OW21385   1.372   1.850   7.969 -0.3330 -0.0457  0.6299
 3251SOL    HW121386   1.342   1.788   8.036  0.9871 -0.8936  0.4368
 3251SOL    HW221387   1.450   1.809   7.932 -0.4933  0.1911  0.0259
 3252SOL     OW21388   2.924   3.440  15.555  0.5919  0.1344 -0.8508
 3252SOL    HW121389   2.830   3.456  15.545  0.5802  0.3177 -0.4589
 3252SOL    HW221390   2.946   3.407  15.468  0.7510  0.1427 -0.8135
 3253SOL     OW21391   4.236   1.724  15.785  0.2531 -0.1268  0.2130
 3253SOL    HW121392   4.185   1.804  15.797 -2.0127 -1.8099  1.9255
 3253SOL    HW221393   4.316   1.746  15.833  0.5269 -1.5987  0.4179
 3254SOL     OW21394   4.382   4.368   0.005 -0.4390  0.3811 -0.1069
 3254SOL    HW121395   4.425   4.286   0.030 -2.0127 -0.7136 -0.9990
 3254SOL    HW221396   4.442   4.428   0.049 -0.6470  0.1860  0.4534
 3255SOL     OW21397   0.418   1.409   5.263  0.0799  0.1796 -0.8172
 3255SOL    HW121398   0.402   1.367   5.179 -1.4565  1.6499 -1.2731
 3255SOL    HW221399   0.509   1.436   5.254  0.4497 -1.3499 -1.5862
 3256SOL     OW21400   3.437   1.052   8.695 -0.3987 -0.0171  0.0543
 3256SOL    HW121401   3.419   1.145   8.713 -0.7849 -0.2039  0.6629
 3256SOL    HW221402   3.480   1.035   8.779  0.6730  0.8144 -0.3268
 3257SOL     OW21403   3.777   0.204   1.600 -0.4609 -0.0113  0.1689
 3257SOL    HW121404   3.703   0.260   1.623 -0.1149  0.3437  0.4460
 3257SOL    HW221405   3.739   0.122   1.628 -0.7805  0.0209 -0.1776
 3258SOL     OW21406   4.109   1.143   4.456 -0.1592  0.4715  0.8306
 3258SOL    HW121407   4.060   1.081   4.511 -1.1254  1.3519  0.9470
 3258SOL    HW221408   4.197   1.106   4.446 -0.1127 -0.5852  5.2695
 3259SOL     OW21409   0.631   2.443   2.236 -0.3722  0.1008 -0.0097
 3259SOL    HW121410   0.596   2.391   2.164 -1.5836 -0.3861  0.9233
 3259SOL    HW221411   0.664   2.384   2.303  1.0805  0.8632 -0.0474
 3260SOL     OW21412   3.147   1.221   1.470 -0.4507 -0.6197  0.0324
 3260SOL    HW121413   3.132   1.128   1.454  0.5155 -0.5320 -1.4015
 3260SOL    HW221414   3.239   1.215   1.495  0.0783  0.6051 -1.6118
 3261SOL     OW21415   2.390   2.198   2.261  0.1895 -0.0174 -0.3554
 3261SOL    HW121416   2.411   2.221   2.352  0.3906  0.3465 -0.4953
 3261SOL    HW221417   2.337   2.276   2.246  2.3064  1.2940 -1.0351
 3262SOL     OW21418   0.839   3.667  13.399  0.2639 -0.1764 -0.4395
 3262SOL    HW121419   0.930   3.643  13.417 -0.0902  0.1721  1.7419
 3262SOL    HW221420   0.848   3.735  13.332 -0.1226 -0.8721 -1.2113
 3263SOL     OW21421   4.664   1.967   4.630 -0.0175 -0.6028  0.2477
 3263SOL    HW121422   0.004   2.002   4.670 -0.8324 -0.5978  1.8890
 3263SOL    HW221423   4.598   1.973   4.700  1.6298 -0.9367  1.8382
 3264SOL     OW21424   0.986   1.069  15.572 -0.1582 -0.4484  0.4877
 3264SOL    HW121425   0.896   1.100  15.574 -0.7893 -2.3156  1.3163
 3264SOL    HW221426   0.994   1.076  15.667  0.1929  1.1239  0.3443
 3265SOL     OW21427   1.771   1.137   1.871 -0.5105  0.0656 -0.2153
 3265SOL    HW121428   1.767   1.197   1.945  2.3306  1.2160 -0.9982
 3265SOL    HW221429   1.783   1.201   1.800 -0.7628 -0.6437 -0.9083
 3266SOL     OW21430   3.062   1.550   8.767  0.7377  0.8205 -0.1461
 3266SOL    HW121431   3.102   1.549   8.680  1.1264  0.9496  0.0325
 3266SOL    HW221432   3.132   1.577   8.826  0.5951  2.3970 -0.6790
 3267SOL     OW21433   2.222   0.125   4.206 -0.3944  0.0765 -0.3268
 3267SOL    HW121434   2.261   0.130   4.119  2.9042  2.5075  1.2915
 3267SOL    HW221435   2.248   0.215   4.225  0.9054 -0.7016  1.5572
 3268SOL     OW21436   0.156   2.526   4.887  0.0923  0.2168  0.0473
 3268SOL    HW121437   0.138   2.573   4.968 -0.3259  2.0828 -1.1069
 3268SOL    HW221438   0.250   2.520   4.900  0.1909  0.3228 -0.5947
 3269SOL     OW21439   3.895   0.677   2.347  0.0467  0.3571 -0.3232
 3269SOL    HW121440   3.955   0.684   2.421  1.1433 -1.4115 -1.0545
 3269SOL    HW221441   3.878   0.583   2.339  3.3383 -0.4272  1.9798
 3270SOL     OW21442   4.588   0.013   0.219 -0.0682  0.8623  0.1257
 3270SOL    HW121443   4.666   0.022   0.274  1.2039 -1.6166 -1.2913
 3270SOL    HW221444   4.529   0.072   0.265 -0.3940 -0.0088  0.8283
 3271SOL     OW21445   3.827   1.600  12.581 -0.4880  0.1689  0.1189
 3271SOL    HW121446   3.761   1.532  12.595  1.2237 -1.7606 -1.2084
 3271SOL    HW221447   3.790   1.652  12.509 -2.7442  2.0903  2.6534
 3272SOL     OW21448   1.088   4.368   7.489  0.2623 -0.5225 -0.0511
 3272SOL    HW121449   1.161   4.425   7.513 -1.5617  1.3779  1.0748
 3272SOL    HW221450   1.032   4.390   7.563  0.5211 -0.1297  0.0313
 3273SOL     OW21451   2.116   1.603   8.858  0.6482 -0.5245 -0.6897
 3273SOL    HW121452   2.113   1.681   8.913 -1.1182 -0.3641 -1.0107
 3273SOL    HW221453   2.106   1.641   8.771  1.2905 -0.7996 -0.8858
 3274SOL     OW21454   3.656   3.414   6.903  0.0313  0.0354  0.1566
 3274SOL    HW121455   3.705   3.389   6.982  0.8780 -0.9790 -0.6941
 3274SOL    HW221456   3.718   3.398   6.832  0.8282 -1.9169  1.2682
 3275SOL     OW21457   0.161   2.410  11.553  0.3535  0.8797 -0.0237
 3275SOL    HW121458   0.211   2.489  11.571  1.4118  0.3940 -0.8476
 3275SOL    HW221459   0.186   2.347  11.621 -0.0966  1.5931  0.7983
 3276SOL     OW21460   2.995   2.209   6.948 -0.5291 -0.1337 -0.0349
 3276SOL    HW121461   2.943   2.232   7.025 -1.7903 -2.0238 -0.3429
 3276SOL    HW221462   3.057   2.147   6.985 -0.3853  0.7848  1.2665
 3277SOL     OW21463   2.311   4.738  10.905 -0.4416 -0.3341 -0.1200
 3277SOL    HW121464   2.257   0.039  10.973 -0.4793 -0.9008  0.1839
 3277SOL    HW221465   2.253   0.014  10.830 -0.1717  0.8505 -0.0939
 3278SOL     OW21466   2.604   0.269   6.483 -0.1320 -0.4064  0.1511
 3278SOL    HW121467   2.589   0.254   6.390  4.1638 -2.4098 -0.1928
 3278SOL    HW221468   2.518   0.251   6.523 -0.2800  1.2915  0.6268
 3279SOL     OW21469   3.124   1.644   6.809 -0.1631 -0.3308 -0.6110
 3279SOL    HW121470   3.122   1.552   6.836 -2.4272 -0.6672 -1.9782
 3279SOL    HW221471   3.047   1.674   6.858  1.2150 -0.5586  1.7090
 3280SOL     OW21472   1.080   2.831  16.175 -0.0830 -0.8825 -0.2679
 3280SOL    HW121473   1.073   2.856  16.267  1.0843  2.5424 -1.1133
 3280SOL    HW221474   1.007   2.770  16.166 -1.6385  1.1080 -1.2486
 3281SOL     OW21475   2.266   0.202   8.958 -0.0628  0.0515 -0.2100
 3281SOL    HW121476   2.285   0.254   9.036  0.9425  0.3619 -0.6675
 3281SOL    HW221477   2.282   0.273   8.896 -1.7712  0.7002  0.0981
 3282SOL     OW21478   2.259   1.446  16.411  0.0269  0.3033  0.4184
 3282SOL    HW121479   2.220   1.379  16.467 -0.6573  2.6872  2.7945
 3282SOL    HW221480   2.346   1.446  16.451 -0.1729 -0.3489  0.8581
 3283SOL     OW21481   1.027   4.565  11.537  0.2264 -0.0038 -0.4887
 3283SOL    HW121482   0.993   4.648  11.569  0.1621  0.0030 -0.5751
 3283SOL    HW221483   1.088   4.536  11.605  0.1405  0.7238 -0.1032
 3284SOL     OW21484   2.225   2.305   4.752 -0.0532 -0.0253  0.6950
 3284SOL    HW121485   2.289   2.319   4.822  0.9973  0.9835 -0.4771
 3284SOL    HW221486   2.169   2.241   4.797 -1.6189  2.0754  1.7527
 3285SOL     OW21487   0.561   4.490  17.495 -0.1866  0.0887  0.4762
 3285SOL    HW121488   0.568   4.559  17.430 -1.5767 -0.4826 -0.2803
 3285SOL    HW221489   0.624   4.429  17.455  0.8037  0.6678  1.1458
 3286SOL     OW21490   1.068   0.842   6.640 -0.1432 -0.2812 -0.2930
 3286SOL    HW121491   1.082   0.930   6.605  1.8146 -0.7191 -0.6373
 3286SOL    HW221492   0.981   0.817   6.610  0.3252 -0.9792 -1.0749
 3287SOL     OW21493   2.475   2.980   1.814 -0.0512  0.4843  0.3823
 3287SOL    HW121494   2.472   3.071   1.785 -1.9377  0.3111  0.0341
 3287SOL    HW221495   2.385   2.951   1.830 -0.0092 -1.1410 -2.3164
 3288SOL     OW21496   4.257   1.964   4.163 -1.0096  0.8289 -0.6025
 3288SOL    HW121497   4.320   2.033   4.186 -1.4999 -0.0165  3.3385
 3288SOL    HW221498   4.260   1.975   4.068  1.0554  0.2807 -0.6013
 3289SOL     OW21499   3.986   1.293   3.955  0.7264 -0.1008  0.0020
 3289SOL    HW121500   4.032   1.330   3.879  2.5758  1.8762  2.0790
 3289SOL    HW221501   4.055   1.299   4.022  1.3574  0.8818 -0.7338
 3290SOL     OW21502   4.533   3.412   0.329  0.0869  0.5232  0.1730
 3290SOL    HW121503   4.498   3.403   0.241  1.8802  0.3425 -0.5227
 3290SOL    HW221504   4.469   3.357   0.374 -0.8237  1.9699  0.6486
 3291SOL     OW21505   3.592   2.637  12.992 -0.4927  0.0710 -0.4604
 3291SOL    HW121506   3.566   2.597  13.075  0.2973 -1.8996 -1.1535
 3291SOL    HW221507   3.593   2.720  13.039  1.0228 -0.5877  0.6897
 3292SOL     OW21508   0.433   4.602   2.888 -0.6626 -0.7338 -0.1684
 3292SOL    HW121509   0.350   4.555   2.886 -2.0207  1.5540  1.9316
 3292SOL    HW221510   0.449   4.597   2.982  0.6707  0.8366 -0.2997
 3293SOL     OW21511   1.984   4.514  10.726 -0.3586 -0.1817  0.3741
 3293SOL    HW121512   1.927   4.514  10.803 -0.1789  1.1621  0.4970
 3293SOL    HW221513   1.931   4.541  10.651 -1.6610  0.3236  1.4740
 3294SOL     OW21514   3.294   2.608   4.005  0.1877 -0.6403  0.4293
 3294SOL    HW121515   3.217   2.607   4.061 -2.5956  1.4724 -3.3095
 3294SOL    HW221516   3.265   2.545   3.938 -1.9360  1.7813 -0.9373
 3295SOL     OW21517   3.761   4.665  16.164 -0.0837  0.9080  0.2587
 3295SOL    HW121518   3.777   4.579  16.125 -1.6168  0.7637 -0.0572
 3295SOL    HW221519   3.786   4.652  16.255  0.6721  2.0476  0.2108
 3296SOL     OW21520   0.499   3.862  11.885  0.6012  0.1870  0.4995
 3296SOL    HW121521   0.534   3.937  11.934  0.2619  1.4612 -1.1825
 3296SOL    HW221522   0.404   3.869  11.898  0.5016  1.5801 -0.9753
 3297SOL     OW21523   2.929   0.078   5.652  0.2456  0.5390  0.0411
 3297SOL    HW121524   3.016   0.061   5.687 -1.1638  1.1844  3.8488
 3297SOL    HW221525   2.956   0.116   5.569 -1.4241  0.7973 -0.3868
 3298SOL     OW21526   4.486   1.107   7.789 -0.7553 -0.0547  0.3390
 3298SOL    HW121527   4.446   1.187   7.822  1.4118  0.3954  1.9047
 3298SOL    HW221528   4.450   1.090   7.702 -0.0936 -0.8033  0.2148
 3299SOL     OW21529   3.398   4.351  11.072 -0.1321 -0.3174  0.4907
 3299SOL    HW121530   3.464   4.373  11.138 -0.3443 -1.5792  1.1187
 3299SOL    HW221531   3.323   4.406  11.094  0.3212  0.1353  0.9024
 3300SOL     OW21532   0.450   2.770   9.024  0.1461 -0.0838  0.0860
 3300SOL    HW121533   0.475   2.689   9.068  2.9182  2.4955  3.2309
 3300SOL    HW221534   0.535   2.813   9.021 -0.7173  1.5427 -0.8383
 3301SOL     OW21535   3.743   0.817   9.420 -0.5101 -0.0396 -0.1069
 3301SOL    HW121536   3.760   0.725   9.398 -1.6799 -0.1497 -0.5648
 3301SOL    HW221537   3.687   0.812   9.497  0.2024 -0.1435  0.3982
 3302SOL     OW21538   0.977   0.230   0.794 -0.6536 -0.5309  0.2968
 3302SOL    HW121539   0.918   0.295   0.833 -0.0755 -1.7548  3.2332
 3302SOL    HW221540   0.986   0.269   0.707 -0.2497 -0.9567  0.1440
 3303SOL     OW21541   0.671   0.660   9.434 -0.8574 -0.2819 -0.3700
 3303SOL    HW121542   0.698   0.632   9.347 -0.7729 -1.4906  0.0385
 3303SOL    HW221543   0.713   0.597   9.493 -0.2414  0.1937 -0.3005
 3304SOL     OW21544   4.522   0.411  16.691 -0.3951  0.2059  0.6516
 3304SOL    HW121545   4.495   0.502  16.683 -1.5640 -0.1663  0.3316
 3304SOL    HW221546   4.510   0.377  16.602  0.2247 -0.9875  1.0220
 3305SOL     OW21547   1.451   2.817   6.042  0.4315 -0.0355  0.6644
 3305SOL    HW121548   1.469   2.790   5.952 -1.0353  1.3444 -0.0412
 3305SOL    HW221549   1.531   2.787   6.085 -0.1950 -2.5824  0.0387
 3306SOL     OW21550   1.831   3.832   5.533  0.0599 -0.1579 -0.3025
 3306SOL    HW121551   1.906   3.780   5.505 -1.0485 -2.5613  1.1581
 3306SOL    HW221552   1.873   3.917   5.538  0.3201 -0.1670 -2.2414
 3307SOL     OW21553   1.456   1.449  17.588  0.4145  0.1678  0.6141
 3307SOL    HW121554   1.551   1.456  17.597  0.3527  0.3211  1.1074
 3307SOL    HW221555   1.448   1.354  17.595 -0.0279  0.0075 -1.8622
 3308SOL     OW21556   2.067   1.959  13.519 -0.2008 -0.2209  0.4173
 3308SOL    HW121557   2.023   1.943  13.435 -1.6534 -2.6223  1.6501
 3308SOL    HW221558   2.052   1.880  13.571 -0.1313 -0.1413  0.5592
 3309SOL     OW21559   4.609   1.478   8.361 -0.1791  0.1383 -0.1724
 3309SOL    HW121560   4.657   1.396   8.376 -0.5274 -0.3163 -1.4860
 3309SOL    HW221561   4.574   1.485   8.449 -0.4474  1.2319 -0.3672
 3310SOL     OW21562   3.673   1.704   9.776 -0.3317  0.3416  0.0694
 3310SOL    HW121563   3.676   1.707   9.871  1.7077 -1.8741  0.0663
 3310SOL    HW221564   3.761   1.735   9.756 -0.4266 -0.7268 -1.9900
 3311SOL     OW21565   2.506   3.705  16.997  0.0676 -0.3683  0.0802
 3311SOL    HW121566   2.554   3.728  16.918 -0.5973  0.9648  0.0517
 3311SOL    HW221567   2.417   3.735  16.976  0.1902 -0.7194 -0.9073
 3312SOL     OW21568   3.961   4.033   7.596 -0.0683  0.0476  0.6035
 3312SOL    HW121569   4.007   4.117   7.594  0.1006 -0.0721 -0.7279
 3312SOL    HW221570   3.931   4.033   7.687 -2.2425  2.5601 -0.1390
 3313SOL     OW21571   3.711   3.795   8.314 -0.4777  0.0432  0.3289
 3313SOL    HW121572   3.620   3.795   8.343 -0.7359 -1.3618 -0.4592
 3313SOL    HW221573   3.731   3.886   8.337 -0.1890  0.0694 -0.0243
 3314SOL     OW21574   0.215   0.178   4.366  0.2874  0.0727 -0.1124
 3314SOL    HW121575   0.212   0.091   4.404 -2.7526  0.0643 -0.3671
 3314SOL    HW221576   0.276   0.216   4.430 -3.7003  0.6348  3.3213
 3315SOL     OW21577   1.508   3.666   1.213  0.2593 -0.0401  0.4075
 3315SOL    HW121578   1.589   3.618   1.228 -1.5830 -2.4124  2.8772
 3315SOL    HW221579   1.532   3.745   1.165  0.8578  0.1806  1.0676
 3316SOL     OW21580   4.694   3.281  11.533 -0.4451  1.1769 -0.8925
 3316SOL    HW121581   4.610   3.272  11.489 -0.6080 -2.2946  0.1343
 3316SOL    HW221582   0.022   3.245  11.475 -0.2173 -2.3514  1.5508
 3317SOL     OW21583   2.658   3.516   8.431 -0.0617 -0.1825 -0.0630
 3317SOL    HW121584   2.594   3.572   8.386 -0.9208 -0.5000  0.7697
 3317SOL    HW221585   2.622   3.478   8.511  0.6922 -0.8773 -0.0540
 3318SOL     OW21586   4.734   1.767   1.919  0.3326  0.1330 -0.2228
 3318SOL    HW121587   0.027   1.828   1.984 -1.7189  0.2336  0.7228
 3318SOL    HW221588   4.648   1.738   1.952 -0.5561  2.8627 -0.1161
 3319SOL     OW21589   4.542   2.645   4.482 -0.1444 -0.4627 -0.0068
 3319SOL    HW121590   4.582   2.636   4.568 -0.6749  1.2878  0.4340
 3319SOL    HW221591   4.620   2.681   4.439  0.6622  0.8926  2.5881
 3320SOL     OW21592   4.503   3.810   5.137 -1.3479 -0.5463  0.0633
 3320SOL    HW121593   4.577   3.756   5.110 -2.3538 -1.5199 -0.7327
 3320SOL    HW221594   4.512   3.811   5.232  1.0000 -0.9199 -0.1660
 3321SOL     OW21595   2.279   4.378   7.092 -0.1438 -0.0642  0.2016
 3321SOL    HW121596   2.319   4.315   7.033 -2.8305  0.2081 -1.9121
 3321SOL    HW221597   2.327   4.460   7.074 -0.5870  0.0199 -0.6006
 3322SOL     OW21598   4.566   3.601  12.983  0.1807 -0.6965 -0.3056
 3322SOL    HW121599   4.579   3.597  13.078 -0.8625  1.7251 -0.0499
 3322SOL    HW221600   4.656   3.588  12.955  0.6961  1.3112  0.3974
 3323SOL     OW21601   2.383   1.805  16.249  0.3432  0.4940 -0.1412
 3323SOL    HW121602   2.297   1.771  16.273  0.2550 -0.1413 -1.3404
 3323SOL    HW221603   2.398   1.757  16.167 -2.0989  2.4314 -1.7374
 3324SOL     OW21604   1.264   0.097   7.072  0.7453  0.0308  0.5933
 3324SOL    HW121605   1.351   0.106   7.111 -0.6296  0.9065  3.4987
 3324SOL    HW221606   1.267   0.005   7.047 -0.4198  0.1272  0.1056
 3325SOL     OW21607   4.577   2.215   6.894 -0.2368  0.2836 -0.4103
 3325SOL    HW121608   4.599   2.303   6.924 -3.5412  1.5702 -1.7132
 3325SOL    HW221609   4.481   2.211   6.898 -0.2515  1.9552  1.0653
 3326SOL     OW21610   0.295   1.317   7.275 -0.6889 -0.3661  0.0265
 3326SOL    HW121611   0.227   1.253   7.297  0.2299 -1.0375  0.8873
 3326SOL    HW221612   0.324   1.287   7.188 -0.2765  1.2329 -0.3843
 3327SOL     OW21613   1.983   2.138   8.126 -0.2998  0.0195 -0.0535
 3327SOL    HW121614   1.961   2.103   8.040  0.2848 -0.2838 -0.0788
 3327SOL    HW221615   2.056   2.193   8.100  0.5402 -1.1488 -0.1740
 3328SOL     OW21616   0.515   1.885   7.279  0.2440 -0.0992  0.4532
 3328SOL    HW121617   0.547   1.937   7.352  0.0165 -1.8373  1.7755
 3328SOL    HW221618   0.510   1.795   7.312 -1.2853 -0.1666  0.0711
 3329SOL     OW21619   0.949   1.022  17.005  0.6105 -0.3748  0.0305
 3329SOL    HW121620   1.000   1.049  17.081 -0.6243  2.3557 -0.1033
 3329SOL    HW221621   0.995   1.077  16.943 -0.6906  3.0679  2.1125
 3330SOL     OW21622   4.585   2.114   5.602 -0.0393  0.1763 -0.0802
 3330SOL    HW121623   4.650   2.166   5.554  0.8881 -0.6591  0.2854
 3330SOL    HW221624   4.557   2.046   5.542  3.1259 -1.2113  0.0063
 3331SOL     OW21625   2.158   4.513   2.125  0.0348 -0.2435 -0.0943
 3331SOL    HW121626   2.157   4.418   2.122  0.2185 -0.2519  0.0913
 3331SOL    HW221627   2.139   4.524   2.219 -1.5455 -1.6638 -0.2563
 3332SOL     OW21628   1.408   2.107   6.704  0.2405 -0.8451  0.0694
 3332SOL    HW121629   1.484   2.059   6.735 -0.8735 -1.3375  2.0302
 3332SOL    HW221630   1.367   2.134   6.786 -1.8745 -0.2485 -1.1898
 3333SOL     OW21631   3.177   1.693   2.683 -0.2849  0.2253  0.2034
 3333SOL    HW121632   3.237   1.634   2.728  0.4471  0.0018 -1.0613
 3333SOL    HW221633   3.226   1.743   2.618 -2.2440 -0.0336 -1.4790
 3334SOL     OW21634   2.043   0.965  11.846  0.2762 -0.9597  0.0195
 3334SOL    HW121635   2.105   0.910  11.798  1.6747  1.4232 -0.9440
 3334SOL    HW221636   2.080   0.970  11.934  1.8156 -0.5959 -0.6266
 3335SOL     OW21637   1.913   1.740   2.419  0.8577  0.7929  0.3147
 3335SOL    HW121638   1.890   1.747   2.512 -0.2632 -1.1704  0.2054
 3335SOL    HW221639   1.830   1.762   2.377  1.9290  0.6557 -1.8568
 3336SOL     OW21640   1.244   1.473   8.639 -0.5410  0.2125 -0.6985
 3336SOL    HW121641   1.273   1.382   8.650  1.6330  0.8651 -1.0185
 3336SOL    HW221642   1.159   1.463   8.595  0.9419 -0.4979 -3.4230
 3337SOL     OW21643   0.241   0.467   1.813  0.4919 -0.1184  0.1625
 3337SOL    HW121644   0.243   0.482   1.719  0.7391 -2.8376 -0.2777
 3337SOL    HW221645   0.182   0.530   1.855 -1.3563 -1.6318 -0.1869
 3338SOL     OW21646   1.635   2.184   8.176 -0.5080  0.1247  0.3189
 3338SOL    HW121647   1.594   2.269   8.192 -1.3372 -0.1660 -0.2399
 3338SOL    HW221648   1.724   2.215   8.193 -0.5222 -0.5184  1.5131
 3339SOL     OW21649   0.766   0.184   2.882 -0.2754 -0.1024 -0.0890
 3339SOL    HW121650   0.805   0.137   2.956  1.7740  3.0702  0.8795
 3339SOL    HW221651   0.769   0.125   2.807  0.6798 -0.5075  0.2710
 3340SOL     OW21652   1.327   0.648   4.620  0.1734  0.1795 -0.0567
 3340SOL    HW121653   1.287   0.717   4.673  0.8856  1.1262 -0.7401
 3340SOL    HW221654   1.421   0.663   4.636  0.7641 -3.3065 -0.3622
 3341SOL     OW21655   2.599   3.546  11.158 -0.5192  0.2876  0.2589
 3341SOL    HW121656   2.529   3.610  11.175  0.9308  1.5531  1.3992
 3341SOL    HW221657   2.604   3.559  11.064 -0.2765 -0.7625  0.1278
 3342SOL     OW21658   2.995   4.663  12.497  0.1248  0.0330  0.0701
 3342SOL    HW121659   3.010   4.682  12.589  0.8539  2.2976 -0.5012
 3342SOL    HW221660   3.017   0.012  12.466 -3.0914  0.4410 -1.1375
 3343SOL     OW21661   4.588   4.538  10.124 -0.5707 -0.6495  0.2423
 3343SOL    HW121662   4.572   4.480  10.198  2.0502 -1.5743  0.0686
 3343SOL    HW221663   4.520   4.503  10.066 -1.2118  2.1864 -0.7156
 3344SOL     OW21664   0.100   3.842   0.762  0.0211 -0.6717  0.2622
 3344SOL    HW121665   0.014   3.878   0.783  0.1095 -0.2988 -0.0102
 3344SOL    HW221666   0.077   3.775   0.698  0.1034 -0.7276  0.2906
 3345SOL     OW21667   4.165   4.525  14.750 -0.2178  0.2027  0.1260
 3345SOL    HW121668   4.101   4.593  14.729 -0.6675  0.2788  1.8146
 3345SOL    HW221669   4.217   4.557  14.823  1.5672 -2.5975  0.0785
 3346SOL     OW21670   1.193   2.315  16.044 -0.9463 -0.4373 -0.3291
 3346SOL    HW121671   1.159   2.393  16.088 -2.1933 -1.6213  0.8030
 3346SOL    HW221672   1.250   2.357  15.979 -0.7864 -0.7130 -0.3692
 3347SOL     OW21673   2.043   1.879  17.383 -0.5227  0.2274  0.0401
 3347SOL    HW121674   2.036   1.828  17.302 -0.3417  1.7928 -0.9792
 3347SOL    HW221675   2.065   1.809  17.444 -0.1191  0.4607  0.1632
 3348SOL     OW21676   1.193   0.904  16.078 -0.0708  0.1433  0.1643
 3348SOL    HW121677   1.154   0.963  16.143  1.1714 -0.3184  1.3513
 3348SOL    HW221678   1.193   0.826  16.133  3.4893 -0.9273 -1.3985
 3349SOL     OW21679   2.109   1.611   1.858 -0.3591  0.1658  0.6981
 3349SOL    HW121680   2.094   1.599   1.765  0.4946  3.1578  0.1512
 3349SOL    HW221681   2.128   1.522   1.887 -1.9487  0.2997  2.1884
 3350SOL     OW21682   4.200   4.404   1.622 -0.0299 -0.2484  0.1902
 3350SOL    HW121683   4.229   4.423   1.711  3.4642 -1.1021 -0.7621
 3350SOL    HW221684   4.258   4.453   1.564  0.5206 -0.7110  0.3428
 3351SOL     OW21685   3.978   2.863   2.988 -0.3767 -0.6032  0.1301
 3351SOL    HW121686   3.959   2.915   3.066  1.8900 -2.2637  1.7927
 3351SOL    HW221687   3.952   2.937   2.933 -0.2825  0.1752  1.1302
 3352SOL     OW21688   0.007   3.283   2.450 -0.3916 -0.3609  0.2475
 3352SOL    HW121689   4.665   3.311   2.407 -0.4433 -1.1007 -0.1354
 3352SOL    HW221690   0.047   3.365   2.477  0.5953  0.3403 -3.3002
 3353SOL     OW21691   1.292   0.851   0.227 -0.4043 -0.0553 -0.4324
 3353SOL    HW121692   1.336   0.769   0.206 -0.7303 -0.3401 -0.0065
 3353SOL    HW221693   1.204   0.838   0.193 -0.2697 -1.3172 -0.2904
 3354SOL     OW21694   1.272   4.122   4.932 -0.3210  0.2822  0.0518
 3354SOL    HW121695   1.232   4.041   4.901  0.0086  0.2146 -0.2007
 3354SOL    HW221696   1.209   4.180   4.889  2.3208  0.1570 -3.9806
 3355SOL     OW21697   3.142   3.542   8.418 -0.1928 -0.2689 -0.2680
 3355SOL    HW121698   3.105   3.490   8.347 -4.4450 -1.9039  3.1530
 3355SOL    HW221699   3.141   3.628   8.377  0.6233  0.1516  0.6129
 3356SOL     OW21700   1.534   3.044   2.797  0.4746  0.2768  0.2309
 3356SOL    HW121701   1.604   3.091   2.842  0.9724  1.0612 -1.3588
 3356SOL    HW221702   1.457   3.099   2.811 -1.5273 -1.6294 -3.3309
 3357SOL     OW21703   2.290   1.799   6.369  0.2549  0.9029  0.1465
 3357SOL    HW121704   2.325   1.766   6.286  0.9038  2.1183 -0.0738
 3357SOL    HW221705   2.360   1.862   6.388  0.0347  0.4485  2.3996
 3358SOL     OW21706   3.345   2.133   1.904  0.7053 -0.2561  0.6420
 3358SOL    HW121707   3.285   2.062   1.883  1.0493 -1.2136  2.8326
 3358SOL    HW221708   3.286   2.205   1.924  1.9435  0.3301  2.2190
 3359SOL     OW21709   1.109   2.730   3.472 -0.3612 -0.3786  0.0889
 3359SOL    HW121710   1.090   2.772   3.387  0.3799 -2.0211 -0.8810
 3359SOL    HW221711   1.048   2.657   3.474 -1.1716  0.3395  1.4012
 3360SOL     OW21712   4.365   2.782  10.523  0.2056 -0.0811 -0.1543
 3360SOL    HW121713   4.341   2.809  10.611  1.8359  0.9143 -0.0047
 3360SOL    HW221714   4.353   2.867  10.480 -0.9373 -0.9450 -1.5457
 3361SOL     OW21715   4.371   2.936   1.887 -0.0053  0.0122  0.2003
 3361SOL    HW121716   4.338   2.868   1.828  2.5358 -0.6696 -0.4149
 3361SOL    HW221717   4.312   2.941   1.962  1.1418 -0.4414  1.1260
 3362SOL     OW21718   3.746   3.587  15.143 -0.4299  0.7799 -0.6245
 3362SOL    HW121719   3.757   3.656  15.078  2.1967  1.1155  0.2017
 3362SOL    HW221720   3.724   3.514  15.084  1.6304  0.3905 -0.9083
 3363SOL     OW21721   3.126   0.660   2.834  0.0535  0.5474 -0.1255
 3363SOL    HW121722   3.060   0.634   2.898  0.8007 -1.4909 -0.1727
 3363SOL    HW221723   3.155   0.744   2.870 -0.0161 -0.1924  1.6588
 3364SOL     OW21724   2.010   0.118  14.188 -0.7349 -0.5338  0.4189
 3364SOL    HW121725   2.001   0.123  14.092 -1.5580 -0.9017  0.4726
 3364SOL    HW221726   2.085   0.175  14.202 -0.1008 -1.0514 -0.8819
 3365SOL     OW21727   3.901   4.184   8.764  0.7129  0.0714  0.2315
 3365SOL    HW121728   3.819   4.218   8.800  1.6739  0.3674  2.0909
 3365SOL    HW221729   3.888   4.091   8.748 -1.0273  0.5036 -0.9570
 3366SOL     OW21730   2.789   0.794  13.561  0.3273  0.1205 -0.0983
 3366SOL    HW121731   2.769   0.844  13.481  1.3304  0.5872 -0.0654
 3366SOL    HW221732   2.880   0.823  13.569  0.4676 -0.1706 -0.6554
 3367SOL     OW21733   3.112   1.241   3.098  0.2559 -0.7873  0.4996
 3367SOL    HW121734   3.066   1.166   3.136  0.5315 -1.3035 -0.1898
 3367SOL    HW221735   3.194   1.254   3.146  0.0715  2.0090  0.0535
 3368SOL     OW21736   0.986   3.500  13.890 -0.0808 -0.2150 -0.2969
 3368SOL    HW121737   0.927   3.442  13.841  1.7502 -1.7318 -0.7148
 3368SOL    HW221738   0.940   3.584  13.882 -3.2199 -1.7984  1.0666
 3369SOL     OW21739   3.117   1.918   5.613 -0.1937 -0.2237 -0.5042
 3369SOL    HW121740   3.163   1.836   5.631 -1.2617  0.0640  3.5923
 3369SOL    HW221741   3.115   1.951   5.703 -2.8566 -2.7113  0.3704
 3370SOL     OW21742   4.676   0.744   8.689 -0.2508 -0.4421  0.5767
 3370SOL    HW121743   4.699   0.660   8.729 -0.8604 -1.2698 -0.8012
 3370SOL    HW221744   0.021   0.784   8.669 -0.7549  0.2281 -0.2331
 3371SOL     OW21745   1.186   3.795   8.279  0.0851 -0.3436 -0.2134
 3371SOL    HW121746   1.257   3.732   8.269  2.3148  1.7956  2.0681
 3371SOL    HW221747   1.112   3.735   8.283  0.1832 -0.5085 -0.7926
 3372SOL     OW21748   2.082   4.630  10.116  0.5063 -0.3687  0.4648
 3372SOL    HW121749   2.114   4.616  10.205 -0.5759 -0.3121  0.8691
 3372SOL    HW221750   2.078   4.538  10.089 -0.1674  0.1823 -1.3260
 3373SOL     OW21751   2.029   1.708   3.507  0.5645 -0.6127 -0.4428
 3373SOL    HW121752   2.048   1.786   3.456 -1.0435  0.1229  0.0665
 3373SOL    HW221753   2.112   1.660   3.509  0.5199 -0.7033 -0.9040
 3374SOL     OW21754   4.139   4.280   7.592 -0.7021 -0.2757  0.2888
 3374SOL    HW121755   4.176   4.325   7.668  0.5220 -3.5092  1.5831
 3374SOL    HW221756   4.055   4.325   7.587 -0.7275 -0.1145  2.4666
 3375SOL     OW21757   0.302   2.484   3.087  0.1068 -0.2633 -0.0340
 3375SOL    HW121758   0.324   2.559   3.032 -2.2208 -0.9030 -1.8739
 3375SOL    HW221759   0.387   2.444   3.072 -1.1108 -2.6789 -0.4961
 3376SOL     OW21760   3.003   4.435   0.823  0.6378  0.6191 -0.1977
 3376SOL    HW121761   3.050   4.412   0.903 -0.5676 -3.2296 -0.6276
 3376SOL    HW221762   3.051   4.388   0.755 -1.8358 -0.9970 -0.8533
 3377SOL     OW21763   3.683   4.487   8.557 -0.5226 -0.2060  0.1877
 3377SOL    HW121764   3.633   4.495   8.639  1.0631 -0.3984  1.1643
 3377SOL    HW221765   3.739   4.563   8.570 -1.0141  0.2233 -0.1975
 3378SOL     OW21766   2.197   4.665   6.409 -0.2439  0.2243 -0.1126
 3378SOL    HW121767   2.209   0.020   6.400 -1.2463  0.2032 -1.6844
 3378SOL    HW221768   2.265   4.643   6.473  0.2080 -1.3948 -1.1334
 3379SOL     OW21769   2.723   1.017   7.108  0.3065 -0.8574 -0.3061
 3379SOL    HW121770   2.738   1.059   7.023 -2.1882 -2.1705 -1.4034
 3379SOL    HW221771   2.645   1.066   7.137  1.4097 -0.8183  2.6100
 3380SOL     OW21772   3.371   3.734   7.959  0.0892  0.3639  0.0418
 3380SOL    HW121773   3.460   3.742   7.994  0.1527 -2.3388  0.4457
 3380SOL    HW221774   3.337   3.670   8.020 -1.5464 -0.5059 -1.7757
 3381SOL     OW21775   3.944   2.211   5.331  0.3628 -0.1070 -0.3505
 3381SOL    HW121776   3.908   2.126   5.305 -0.3292  0.0673  0.0429
 3381SOL    HW221777   3.951   2.202   5.426 -0.4702 -0.4694 -0.3222
 3382SOL     OW21778   1.492   2.729   4.622  0.3743 -0.4696  0.2371
 3382SOL    HW121779   1.485   2.824   4.624 -1.4566 -0.6332  1.2579
 3382SOL    HW221780   1.583   2.723   4.653  0.7862  0.1474 -0.8496
 3383SOL     OW21781   3.997   0.673   9.829 -0.3727 -0.3217 -0.0312
 3383SOL    HW121782   3.948   0.643   9.905  0.9408 -0.8644  0.6118
 3383SOL    HW221783   3.977   0.765   9.812 -0.3679 -0.9856 -3.6618
 3384SOL     OW21784   1.844   2.324   4.909  0.4357 -0.6539 -0.2750
 3384SOL    HW121785   1.887   2.388   4.853 -2.1379  1.6615  0.4009
 3384SOL    HW221786   1.862   2.238   4.869  1.0802 -1.8197  2.5079
 3385SOL     OW21787   1.539   3.653   8.869  0.3182 -0.6691 -0.2353
 3385SOL    HW121788   1.587   3.700   8.937 -2.9529 -1.8901  2.9312
 3385SOL    HW221789   1.611   3.603   8.831 -0.1496 -0.5493 -1.3007
 3386SOL     OW21790   2.315   3.653   6.438 -0.0139 -0.2628  0.0520
 3386SOL    HW121791   2.297   3.570   6.395  1.3928 -0.2462 -0.5531
 3386SOL    HW221792   2.350   3.618   6.520 -3.7093 -2.2100  0.7884
 3387SOL     OW21793   3.747   3.908   9.540 -0.5553 -0.3856  0.0787
 3387SOL    HW121794   3.766   3.888   9.448  0.1305  0.0965  0.1131
 3387SOL    HW221795   3.833   3.937   9.572 -0.3911 -0.2909 -0.4507
 3388SOL     OW21796   2.328   0.682   5.100  0.0702 -0.2245 -0.3200
 3388SOL    HW121797   2.245   0.634   5.095 -0.0575  0.0537 -0.8623
 3388SOL    HW221798   2.345   0.684   5.194  1.7600  2.6132 -0.6921
 3389SOL     OW21799   4.483   1.547  15.227 -0.5478 -0.0302 -0.2318
 3389SOL    HW121800   4.404   1.497  15.207  0.8218 -1.3144 -2.4677
 3389SOL    HW221801   4.503   1.580  15.139 -1.5811  0.1603 -0.3979
 3390SOL     OW21802   3.477   3.360   2.089  0.4150  0.0765  0.2501
 3390SOL    HW121803   3.568   3.330   2.091  0.8336  1.1010 -3.5928
 3390SOL    HW221804   3.477   3.422   2.162 -1.1381  1.0835 -0.5912
 3391SOL     OW21805   1.028   2.799   8.924  0.2660 -0.4390  0.6420
 3391SOL    HW121806   0.966   2.863   8.889  1.8353  1.0886  0.6876
 3391SOL    HW221807   1.104   2.830   8.874 -1.4738  0.4921 -1.4233
 3392SOL     OW21808   4.039   1.403   4.539  0.1819  0.4774 -0.1384
 3392SOL    HW121809   4.065   1.338   4.473  1.0054 -0.3878  1.0310
 3392SOL    HW221810   4.127   1.413   4.575 -0.2080 -1.9800  1.4862
 3393SOL     OW21811   0.435   1.092   0.688 -0.0492 -0.1750  0.0901
 3393SOL    HW121812   0.523   1.081   0.652 -0.4802 -0.4954 -0.8760
 3393SOL    HW221813   0.408   1.181   0.668 -1.6009 -0.6543  0.0217
 3394SOL     OW21814   0.349   1.341   6.304  0.2717 -0.4780  0.1137
 3394SOL    HW121815   0.438   1.368   6.283  0.6375 -2.5266 -0.9352
 3394SOL    HW221816   0.336   1.397   6.381  2.6868  1.2029 -0.7086
 3395SOL     OW21817   4.300   2.910  16.860  0.0819  0.9599  0.0862
 3395SOL    HW121818   4.271   2.996  16.890 -0.4569  0.7322  0.2169
 3395SOL    HW221819   4.217   2.863  16.851  0.5331 -0.3238  2.5426
 3396SOL     OW21820   0.627   1.117   4.093 -0.1770  0.1492  0.0406
 3396SOL    HW121821   0.673   1.079   4.018  0.8004  0.7088  0.3587
 3396SOL    HW221822   0.693   1.152   4.153  0.8895 -2.5058  0.4060
 3397SOL     OW21823   3.187   2.630   8.586 -0.2604 -0.0644  0.4927
 3397SOL    HW121824   3.199   2.552   8.639 -0.7001 -2.4605 -2.9390
 3397SOL    HW221825   3.267   2.670   8.620  0.5399 -1.6403  0.4404
 3398SOL     OW21826   0.254   2.418   9.182 -0.5773 -0.4175  0.2896
 3398SOL    HW121827   0.279   2.339   9.135 -1.3714  0.9451 -2.4781
 3398SOL    HW221828   0.178   2.378   9.225  0.5270 -1.6195  1.1073
 3399SOL     OW21829   3.582   3.723   5.335 -0.6058 -0.0015  0.0521
 3399SOL    HW121830   3.505   3.718   5.278 -1.7132 -1.6018  1.7077
 3399SOL    HW221831   3.657   3.675   5.299 -0.0744 -0.0672  1.2413
 3400SOL     OW21832   1.466   2.921   3.769 -0.1364 -0.3662  0.5701
 3400SOL    HW121833   1.444   3.002   3.723  1.4373 -0.0089  0.4568
 3400SOL    HW221834   1.395   2.859   3.751  1.8623 -2.5416  0.2482
 3401SOL     OW21835   4.470   3.330   2.367 -0.4016 -0.3860 -0.3651
 3401SOL    HW121836   4.388   3.323   2.318 -0.7535 -1.6799  0.4159
 3401SOL    HW221837   4.500   3.412   2.326 -0.1766 -1.4296 -2.2640
 3402SOL     OW21838   0.045   4.338  11.320  0.2376  0.3490  0.4395
 3402SOL    HW121839   0.016   4.283  11.248  0.9433 -0.9147  1.1273
 3402SOL    HW221840   0.140   4.323  11.313  0.4602  1.5595  0.8398
 3403SOL     OW21841   3.538   0.469  13.869 -0.5260  0.2786  0.8858
 3403SOL    HW121842   3.560   0.558  13.898  2.1573  0.0127 -0.3634
 3403SOL    HW221843   3.593   0.415  13.925 -0.1900  0.4219  0.6937
 3404SOL     OW21844   0.371   0.127   6.326 -0.0096 -0.0078  0.3793
 3404SOL    HW121845   0.341   0.216   6.311  0.7773  0.2836  0.5090
 3404SOL    HW221846   0.357   0.127   6.420  1.5891 -0.9998  0.6308
 3405SOL     OW21847   4.301   3.876   1.058  0.0986  0.0190 -0.9191
 3405SOL    HW121848   4.227   3.829   1.097 -0.3447  0.6730 -0.9713
 3405SOL    HW221849   4.373   3.828   1.099 -1.2096  2.0065  3.6102
 3406SOL     OW21850   2.145   2.739   5.161 -0.2910 -0.2632  0.4291
 3406SOL    HW121851   2.143   2.828   5.195 -0.8451 -1.5721  3.8196
 3406SOL    HW221852   2.199   2.752   5.083 -0.1594 -2.6256  0.1296
 3407SOL     OW21853   0.017   2.957   8.814 -0.0852 -0.4616 -0.3510
 3407SOL    HW121854   0.097   2.956   8.868 -0.6440 -1.0564  0.4831
 3407SOL    HW221855   4.698   3.001   8.875 -1.2576 -1.3497 -0.8440
 3408SOL     OW21856   0.144   3.782   1.860 -0.0403  0.3976 -0.1489
 3408SOL    HW121857   0.199   3.777   1.782  0.4246 -0.8074  0.2514
 3408SOL    HW221858   0.100   3.867   1.854  1.0013  0.9421 -0.1062
 3409SOL     OW21859   3.687   0.763   2.538  0.7807 -0.6641  0.1691
 3409SOL    HW121860   3.700   0.857   2.525  1.9160 -1.0730 -1.7283
 3409SOL    HW221861   3.738   0.734   2.462  1.4756  2.5455 -0.5852
 3410SOL     OW21862   1.013   0.729  16.666  0.3989  0.2500 -0.5227
 3410SOL    HW121863   1.048   0.761  16.582 -0.9817  2.7867 -0.1207
 3410SOL    HW221864   1.029   0.635  16.652 -0.4371  0.1563 -0.8398
 3411SOL     OW21865   0.813   0.116   8.033  0.2454 -0.0256 -0.1926
 3411SOL    HW121866   0.730   0.165   8.025  0.6587  0.7488  0.2962
 3411SOL    HW221867   0.861   0.166   8.099  0.6966  0.4053 -0.8447
 3412SOL     OW21868   3.625   2.473   7.299  0.2877 -0.1105  0.6032
 3412SOL    HW121869   3.615   2.378   7.299 -0.3028 -0.0491 -2.6342
 3412SOL    HW221870   3.636   2.482   7.204  2.4045 -1.0766  0.7698
 3413SOL     OW21871   0.883   4.601   6.156 -0.3738 -0.8272 -0.3325
 3413SOL    HW121872   0.955   4.572   6.213  0.3123 -0.0727 -0.8329
 3413SOL    HW221873   0.900   4.541   6.083  1.3493 -1.7530  0.8106
 3414SOL     OW21874   1.618   1.476   5.455 -0.6317 -0.6842  0.6704
 3414SOL    HW121875   1.655   1.564   5.452 -0.3414 -0.7875  1.1971
 3414SOL    HW221876   1.667   1.431   5.524  0.4694 -0.0541  0.3021
 3415SOL     OW21877   1.008   1.345   6.016 -0.0375  0.4631 -0.0448
 3415SOL    HW121878   0.974   1.385   5.936 -1.3492  0.3862  0.4689
 3415SOL    HW221879   1.035   1.260   5.980  0.9296  1.2610 -1.2037
 3416SOL     OW21880   1.495   0.847   7.894  0.5323 -0.2715  0.2092
 3416SOL    HW121881   1.514   0.774   7.953 -1.4802  0.4043  1.6930
 3416SOL    HW221882   1.473   0.910   7.962 -0.6612 -0.5127  0.0453
 3417SOL     OW21883   3.856   2.665   5.115 -0.2604 -0.0038  0.4310
 3417SOL    HW121884   3.786   2.622   5.067 -0.1442  1.5501 -1.1531
 3417SOL    HW221885   3.866   2.603   5.186  1.4351 -0.6926 -0.3957
 3418SOL     OW21886   3.786   2.934   8.338  0.0104  0.2037 -0.0604
 3418SOL    HW121887   3.854   2.879   8.377 -0.6773 -1.2246 -0.8617
 3418SOL    HW221888   3.845   2.991   8.289  1.4054 -0.9537  0.2794
 3419SOL     OW21889   4.219   2.560  10.463  0.3487  0.2683  0.2562
 3419SOL    HW121890   4.260   2.619  10.527  0.2588  0.5876  0.0187
 3419SOL    HW221891   4.246   2.614  10.389  1.8031 -0.5717  0.1849
 3420SOL     OW21892   0.797   1.512   6.990  0.0048 -0.5361 -0.0356
 3420SOL    HW121893   0.846   1.565   6.927  0.0927  0.3257  0.7536
 3420SOL    HW221894   0.757   1.583   7.040  2.0558  0.0250  0.7944
 3421SOL     OW21895   3.843   3.868   2.141  0.2512  0.1429  0.5902
 3421SOL    HW121896   3.851   3.789   2.193 -2.3808 -0.2000  0.4711
 3421SOL    HW221897   3.937   3.885   2.132  0.5517 -1.8395 -0.0183
 3422SOL     OW21898   3.555   2.319   3.465  0.1726 -0.8234 -0.3923
 3422SOL    HW121899   3.630   2.260   3.467  0.6709 -0.1175  1.7806
 3422SOL    HW221900   3.582   2.393   3.411 -0.8022  0.1574  0.4488
 3423SOL     OW21901   1.308   1.296   7.460  0.5022  0.1138  0.4135
 3423SOL    HW121902   1.284   1.205   7.476 -2.1274  1.0500  1.8808
 3423SOL    HW221903   1.387   1.287   7.407 -0.6976 -2.8389 -0.8513
 3424SOL     OW21904   1.261   1.404   3.987 -0.4233  0.3789 -0.3210
 3424SOL    HW121905   1.225   1.476   4.040 -0.5940  1.5165 -2.0053
 3424SOL    HW221906   1.325   1.440   3.926 -0.4258  0.1713 -0.4430
 3425SOL     OW21907   2.873   1.022   1.165  0.8213  0.3823  0.9588
 3425SOL    HW121908   2.780   0.999   1.161  0.8750  0.2919  0.2249
 3425SOL    HW221909   2.868   1.116   1.183 -1.1559  0.4652 -0.0460
 3426SOL     OW21910   2.970   4.569   8.404  0.1066  0.1883  0.5552
 3426SOL    HW121911   2.916   4.586   8.481 -0.2683  1.6666 -0.0302
 3426SOL    HW221912   3.058   4.569   8.443  1.2312  5.1395 -2.0446
 3427SOL     OW21913   0.162   1.469   3.056 -0.0570 -0.1585 -0.4199
 3427SOL    HW121914   0.224   1.459   2.983 -0.5442  0.9332 -0.9869
 3427SOL    HW221915   0.206   1.460   3.140  1.3431 -1.3981 -1.2880
 3428SOL     OW21916   3.998   1.942   4.275  0.4401 -0.3289  0.3848
 3428SOL    HW121917   3.982   1.862   4.225 -3.1264  0.8213 -0.3351
 3428SOL    HW221918   4.093   1.946   4.269  0.2547  2.4186 -0.4688
 3429SOL     OW21919   0.709   2.504   9.306  0.0018  0.1127 -0.1824
 3429SOL    HW121920   0.746   2.557   9.235  2.3535 -2.0804 -0.5750
 3429SOL    HW221921   0.650   2.448   9.256 -0.8605 -1.4015  2.4984
 3430SOL     OW21922   3.839   2.030   8.026 -0.2593  0.2913 -0.1329
 3430SOL    HW121923   3.899   2.072   8.088 -0.4989 -0.8417  0.8731
 3430SOL    HW221924   3.756   2.045   8.072  0.5553  1.7912  0.8342
 3431SOL     OW21925   0.403   0.735   4.172 -0.0711  0.0535 -0.1807
 3431SOL    HW121926   0.320   0.755   4.217  0.3605 -1.3249  1.2118
 3431SOL    HW221927   0.423   0.663   4.231  2.2388  0.7584 -0.1214
 3432SOL     OW21928   4.377   4.712   0.792 -0.1032 -0.8552 -0.5570
 3432SOL    HW121929   4.417   4.687   0.875 -1.8431 -0.5459  0.3611
 3432SOL    HW221930   4.284   4.697   0.807 -0.5238 -0.9177 -3.1448
 3433SOL     OW21931   4.139   2.282  17.610 -0.0448  0.3141  0.2439
 3433SOL    HW121932   4.125   2.311  17.700 -3.9121 -0.9176  0.0319
 3433SOL    HW221933   4.227   2.316  17.594  0.2478 -0.6546 -0.1974
 3434SOL     OW21934   1.782   0.791   4.931 -0.1212 -0.0298  0.1854
 3434SOL    HW121935   1.866   0.780   4.887 -0.1904  0.9658 -0.1849
 3434SOL    HW221936   1.794   0.711   4.983 -0.0595 -0.2030 -0.0972
 3435SOL     OW21937   1.292   2.271   6.907  0.2420  0.2576  0.1413
 3435SOL    HW121938   1.301   2.212   6.982  0.2023  1.5326  1.1494
 3435SOL    HW221939   1.363   2.335   6.904  2.1599 -1.9165 -0.8828
 3436SOL     OW21940   3.324   2.017   5.394 -0.0292 -0.2836  0.4275
 3436SOL    HW121941   3.307   2.111   5.401 -0.1861 -0.1064 -2.1798
 3436SOL    HW221942   3.262   1.990   5.462  0.6072  1.2685  1.6227
 3437SOL     OW21943   0.744   1.275   1.564  0.4181 -0.1786 -0.1655
 3437SOL    HW121944   0.736   1.355   1.513 -2.2249 -0.2707  0.1244
 3437SOL    HW221945   0.663   1.227   1.546  0.4036 -0.9139  1.8161
 3438SOL     OW21946   1.394   3.204  11.984  0.2568  0.5262  0.3075
 3438SOL    HW121947   1.425   3.295  11.985  1.1386  0.1934  3.1404
 3438SOL    HW221948   1.384   3.190  11.889  0.0716 -1.7988  0.6565
 3439SOL     OW21949   0.357   2.039   7.520 -0.3273 -0.6052  0.4523
 3439SOL    HW121950   0.323   1.952   7.545  0.1549  0.3682  4.6017
 3439SOL    HW221951   0.451   2.022   7.515 -0.5217 -1.5122 -0.1287
 3440SOL     OW21952   2.832   4.218   2.840 -0.1226  0.2338  0.3997
 3440SOL    HW121953   2.796   4.140   2.797  1.0929  0.5584 -1.2037
 3440SOL    HW221954   2.864   4.185   2.924  0.3189 -0.7034 -0.1254
 3441SOL     OW21955   4.006   3.299   5.536 -0.4363  0.4424  0.3740
 3441SOL    HW121956   3.971   3.296   5.625  0.1687 -0.0848  0.6003
 3441SOL    HW221957   3.959   3.227   5.494 -0.9003 -0.4778  2.4526
 3442SOL     OW21958   0.322   2.160   9.112  0.1702  0.1338 -0.3537
 3442SOL    HW121959   0.263   2.094   9.075  0.6503 -0.7265  0.4168
 3442SOL    HW221960   0.360   2.100   9.176 -1.2688 -1.4684 -0.9956
 3443SOL     OW21961   2.122   3.884  17.707 -0.4681  0.0150  0.0249
 3443SOL    HW121962   2.131   3.978  17.720  0.7030  0.2099 -2.1622
 3443SOL    HW221963   2.204   3.851  17.744 -0.1781  1.2890  0.5162
 3444SOL     OW21964   2.878   0.616   7.333 -0.2514  0.0016 -0.9539
 3444SOL    HW121965   2.886   0.704   7.296 -0.1779  1.2933  2.0972
 3444SOL    HW221966   2.970   0.593   7.345 -0.4818  0.8101  2.3917
 3445SOL     OW21967   1.063   1.574   2.088  0.1678 -0.1883  0.0035
 3445SOL    HW121968   1.036   1.629   2.162 -1.3557 -2.2270  0.9739
 3445SOL    HW221969   1.132   1.520   2.128  0.7488 -0.0721 -0.8433
 3446SOL     OW21970   0.661   0.022   9.103  0.5677 -0.7439  0.2147
 3446SOL    HW121971   0.614   0.080   9.042  0.0005 -2.4113 -0.9429
 3446SOL    HW221972   0.588   0.003   9.162 -0.1235 -1.8339 -0.9776
 3447SOL     OW21973   0.765   3.585   2.583 -0.4326 -0.4503 -0.0420
 3447SOL    HW121974   0.735   3.506   2.538 -0.7680 -0.6131  0.4747
 3447SOL    HW221975   0.683   3.628   2.607 -0.0178  1.8071 -2.6349
 3448SOL     OW21976   3.259   0.529   8.874  1.0003 -0.0287 -0.3181
 3448SOL    HW121977   3.347   0.538   8.838  0.7289 -0.9048 -1.1855
 3448SOL    HW221978   3.202   0.538   8.798 -2.2779 -0.5383  2.0875
 3449SOL     OW21979   3.702   4.154  14.638 -0.1837 -0.5708  0.1464
 3449SOL    HW121980   3.792   4.185  14.642 -0.2856 -0.1299 -1.1084
 3449SOL    HW221981   3.681   4.149  14.731 -0.0745  0.8327  0.2421
 3450SOL     OW21982   3.378   1.630   6.619  0.2458  0.5992  0.1299
 3450SOL    HW121983   3.335   1.592   6.696 -0.4763  1.2907  0.0625
 3450SOL    HW221984   3.460   1.667   6.651 -0.6870  2.9142 -0.2014
 3451SOL     OW21985   1.333   1.600   4.231  0.1598 -0.1717  0.4851
 3451SOL    HW121986   1.411   1.651   4.254  1.0108 -0.3558 -2.0048
 3451SOL    HW221987   1.370   1.513   4.214  1.1360  0.9652 -3.0555
 3452SOL     OW21988   4.296   2.711   2.871 -0.5380  0.0783 -0.0507
 3452SOL    HW121989   4.317   2.624   2.905  0.5751  0.1304 -0.6011
 3452SOL    HW221990   4.268   2.759   2.949 -0.8640  1.7175 -1.1766
 3453SOL     OW21991   1.005   0.056   4.610  0.0473 -0.1382 -0.3275
 3453SOL    HW121992   0.928   4.739   4.614  0.3378 -0.4771  0.6903
 3453SOL    HW221993   0.960   0.141   4.615  2.1276  0.8893  0.9540
 3454SOL     OW21994   3.210   4.642   1.125  0.0068 -0.3650 -0.2450
 3454SOL    HW121995   3.192   4.678   1.038 -3.2513 -1.8833 -0.2374
 3454SOL    HW221996   3.130   4.675   1.167  0.7872 -0.2529  1.1378
 3455SOL     OW21997   0.303   0.589   0.927 -0.7204  0.2642  0.0197
 3455SOL    HW121998   0.246   0.512   0.930  0.6993 -0.7200  1.4492
 3455SOL    HW221999   0.252   0.669   0.941 -1.4174  0.0164 -1.1177
 3456SOL     OW22000   3.143   2.638  16.882  0.4923 -0.4738 -0.0143
 3456SOL    HW122001   3.210   2.695  16.921  0.6655 -1.0812  0.5828
 3456SOL    HW222002   3.202   2.564  16.870  0.1932 -0.5390 -1.0956
 3457SOL     OW22003   4.222   4.220   9.994 -0.6078  0.2619 -0.2910
 3457SOL    HW122004   4.161   4.222  10.068 -1.2434  2.8512 -0.8678
 3457SOL    HW222005   4.175   4.154   9.944 -2.5997  2.1473 -0.9483
 3458SOL     OW22006   2.222   0.882  15.604  0.2063  0.0376 -0.0870
 3458SOL    HW122007   2.211   0.944  15.531 -2.1296 -1.1938 -0.7960
 3458SOL    HW222008   2.264   0.936  15.671 -0.8389  0.5557  0.1528
 3459SOL     OW22009   3.236   1.559   3.838 -0.7357 -0.1465  0.1768
 3459SOL    HW122010   3.239   1.621   3.911 -1.5821  0.8105 -0.6001
 3459SOL    HW222011   3.221   1.476   3.883 -0.3604  0.1753  0.8845
 3460SOL     OW22012   1.883   3.515   8.929 -0.5362  0.5408  0.4002
 3460SOL    HW122013   1.895   3.557   8.844 -1.6587 -0.6813 -0.3501
 3460SOL    HW222014   1.901   3.593   8.981  0.9282  0.4097  0.0923
 3461SOL     OW22015   1.668   1.240   2.420 -0.4349 -0.5273 -0.1628
 3461SOL    HW122016   1.760   1.221   2.436 -0.2165  0.5012 -0.2222
 3461SOL    HW222017   1.665   1.335   2.416 -1.2768 -0.6147 -1.6620
 3462SOL     OW22018   1.367   1.776   7.454  0.2622  0.5310  0.0190
 3462SOL    HW122019   1.278   1.742   7.465 -0.0933  1.3205 -0.4132
 3462SOL    HW222020   1.349   1.869   7.464  2.1319  0.7150  1.6828
 3463SOL     OW22021   2.667   1.244   8.384  0.0226  0.1729  0.0853
 3463SOL    HW122022   2.609   1.283   8.319  2.4251  0.1974 -2.0575
 3463SOL    HW222023   2.709   1.324   8.416  0.3804 -0.2104  0.5743
 3464SOL     OW22024   4.287   2.719   8.577  0.0884 -0.0492 -0.1488
 3464SOL    HW122025   4.343   2.693   8.649  0.5114  1.4503  0.0567
 3464SOL    HW222026   4.258   2.631   8.553 -4.5153  0.4738  3.2951
 3465SOL     OW22027   0.073   3.341  15.031 -0.2949  0.2326 -0.8845
 3465SOL    HW122028   0.105   3.260  15.071 -1.8579 -1.2390 -2.5530
 3465SOL    HW222029   0.150   3.389  15.002 -0.4583  0.9124 -0.1837
 3466SOL     OW22030   2.579   1.454  17.527 -0.1765  0.0034  0.0217
 3466SOL    HW122031   2.636   1.453  17.450  0.1905 -1.8372  0.3317
 3466SOL    HW222032   2.508   1.508  17.490 -1.0591  0.3908  2.3177
 3467SOL     OW22033   4.374   3.141   5.946 -0.4369 -0.7891  0.1326
 3467SOL    HW122034   4.371   3.130   5.851  2.0967 -0.7414  0.0361
 3467SOL    HW222035   4.452   3.092   5.971  0.4399  1.9097  2.7905
 3468SOL     OW22036   1.864   0.081   4.764  0.0619  0.2442  0.0402
 3468SOL    HW122037   1.899   4.733   4.783  0.6438  0.2084 -1.1962
 3468SOL    HW222038   1.875   0.127   4.847 -1.3638  0.0145  0.3503
 3469SOL     OW22039   2.597   3.912  14.189 -0.1641  0.5993 -0.2974
 3469SOL    HW122040   2.620   3.840  14.246 -0.3689  1.4732  0.8829
 3469SOL    HW222041   2.521   3.871  14.147  0.5218 -1.2620  0.3158
 3470SOL     OW22042   4.207   4.408   2.978 -0.1758 -0.4978  0.6727
 3470SOL    HW122043   4.211   4.500   3.004 -2.1717 -0.4458  0.8021
 3470SOL    HW222044   4.141   4.367   3.034  0.9317 -0.8899  1.6941
 3471SOL     OW22045   1.381   0.897   5.029  0.2090 -0.0088 -0.5056
 3471SOL    HW122046   1.438   0.937   5.095 -2.1246  3.6746 -0.7132
 3471SOL    HW222047   1.333   0.842   5.091  0.9161  1.5351  1.4463
 3472SOL     OW22048   0.832   1.586  16.938  0.4369 -0.2884  0.1003
 3472SOL    HW122049   0.790   1.613  16.856 -0.0268 -1.4678 -0.0519
 3472SOL    HW222050   0.909   1.642  16.934  0.6248 -0.5077  0.7285
 3473SOL     OW22051   1.992   0.485   6.160  0.3361 -0.6617 -0.3007
 3473SOL    HW122052   2.025   0.465   6.073  3.4876 -1.0582  0.9786
 3473SOL    HW222053   1.993   0.400   6.205 -1.2018 -1.9845 -2.7471
 3474SOL     OW22054   0.395   2.233  17.366 -0.1568  0.2186 -0.3729
 3474SOL    HW122055   0.341   2.177  17.422 -0.1068 -0.9592 -1.5100
 3474SOL    HW222056   0.472   2.243  17.422  0.5072 -0.5838 -1.1458
 3475SOL     OW22057   0.182   3.446  17.392  0.0609  0.1695 -0.5269
 3475SOL    HW122058   0.187   3.358  17.354  1.7265  0.6402 -1.4049
 3475SOL    HW222059   0.189   3.507  17.319  1.1745  1.1343  0.3844
 3476SOL     OW22060   0.258   3.843   5.834 -0.4050  0.0806  0.6744
 3476SOL    HW122061   0.208   3.818   5.756 -0.9681  1.5745  0.5556
 3476SOL    HW222062   0.345   3.852   5.794 -0.1017 -1.8164  0.9163
 3477SOL     OW22063   2.695   0.390  11.990 -0.0149  0.0022 -0.5510
 3477SOL    HW122064   2.709   0.463  12.051  1.6681 -1.2296  0.5471
 3477SOL    HW222065   2.646   0.439  11.925 -0.8928 -0.1173  0.0218
 3478SOL     OW22066   3.333   4.393   7.749  0.3674  0.8132  0.2507
 3478SOL    HW122067   3.239   4.412   7.747  0.7597  2.7108 -0.0338
 3478SOL    HW222068   3.344   4.325   7.682  2.7289  0.2671  1.1940
 3479SOL     OW22069   3.891   0.681   8.719  0.1848 -0.4612 -0.2298
 3479SOL    HW122070   3.955   0.749   8.695 -0.1944 -0.8078 -2.2144
 3479SOL    HW222071   3.820   0.730   8.762  0.8676 -0.5743  1.0263
 3480SOL     OW22072   2.251   3.663  14.495  0.2914 -0.4521 -0.3105
 3480SOL    HW122073   2.257   3.605  14.419  0.2527  0.3834 -0.9493
 3480SOL    HW222074   2.159   3.687  14.497  0.5480  0.4320  0.9646
 3481SOL     OW22075   2.190   0.717   6.682  0.3676  0.3307  0.1857
 3481SOL    HW122076   2.144   0.709   6.599  1.2986  3.0643 -0.6097
 3481SOL    HW222077   2.208   0.809   6.700  0.1800  0.2143  0.9952
 3482SOL     OW22078   1.374   0.152   5.294 -0.7839  0.1479 -0.9253
 3482SOL    HW122079   1.388   0.107   5.210 -1.2971  1.1556 -1.5556
 3482SOL    HW222080   1.305   0.208   5.258 -1.8390 -0.5383  0.0664
 3483SOL     OW22081   4.172   1.257  12.076 -0.3045 -0.1402 -0.5486
 3483SOL    HW122082   4.186   1.298  11.991  1.7995  0.1680 -0.0620
 3483SOL    HW222083   4.258   1.270  12.116 -0.4809 -0.2475 -0.1281
 3484SOL     OW22084   4.134   1.799  12.683 -0.6217  0.1588  0.0156
 3484SOL    HW122085   4.082   1.872  12.652 -1.9700 -0.7743  0.0892
 3484SOL    HW222086   4.111   1.741  12.611 -0.4131 -1.3215  1.1214
 3485SOL     OW22087   3.594   0.476   2.924 -0.4069 -0.1471  0.0748
 3485SOL    HW122088   3.538   0.400   2.942  0.7338 -1.2451 -0.9657
 3485SOL    HW222089   3.673   0.429   2.949  0.9471  2.2203  0.1669
 3486SOL     OW22090   3.816   0.890   4.323 -0.6128 -0.4961  0.0506
 3486SOL    HW122091   3.895   0.905   4.375 -0.7158 -2.0683  0.6564
 3486SOL    HW222092   3.780   0.979   4.322  3.9093  1.2904 -0.0286
 3487SOL     OW22093   4.494   4.296   1.571  0.3416 -0.8727  0.5247
 3487SOL    HW122094   4.428   4.247   1.523  0.2658 -0.1126 -0.1548
 3487SOL    HW222095   4.477   4.383   1.534 -2.6193 -2.0311 -0.8267
 3488SOL     OW22096   2.928   3.394   3.734 -0.4735 -0.1017 -0.0940
 3488SOL    HW122097   2.886   3.330   3.792 -1.8636  1.8735  1.0647
 3488SOL    HW222098   3.015   3.354   3.726 -0.3357  0.0407  0.6589
 3489SOL     OW22099   4.069   2.201   9.065 -0.3876 -0.4889  0.0581
 3489SOL    HW122100   4.134   2.149   9.018  0.3974  0.1541  0.4320
 3489SOL    HW222101   4.116   2.199   9.148  0.0327  1.8704 -0.0979
 3490SOL     OW22102   2.860   2.869   8.372  0.3656 -0.0212 -0.5771
 3490SOL    HW122103   2.860   2.865   8.277  0.2425  1.7587 -0.6576
 3490SOL    HW222104   2.782   2.917   8.399 -1.0799 -2.2206 -0.9139
 3491SOL     OW22105   2.712   3.879   3.973  0.1013 -0.1776 -0.3246
 3491SOL    HW122106   2.648   3.950   3.967  1.2749  0.9644  0.7560
 3491SOL    HW222107   2.772   3.909   3.905  0.6198 -2.7764 -0.9933
 3492SOL     OW22108   3.249   1.197   2.143  0.4681  0.0098 -0.0627
 3492SOL    HW122109   3.284   1.273   2.189 -0.3654  1.2630 -1.5032
 3492SOL    HW222110   3.280   1.126   2.200 -0.9080 -1.9742 -1.7937
 3493SOL     OW22111   2.804   2.068   9.678 -0.6818  0.6836 -0.0553
 3493SOL    HW122112   2.873   2.012   9.712 -1.2152  1.2431  1.9093
 3493SOL    HW222113   2.727   2.017   9.700 -1.6950  2.0500 -0.4373
 3494SOL     OW22114   4.435   3.816  16.987  0.1319  0.2016 -0.3103
 3494SOL    HW122115   4.356   3.847  17.031  0.0090 -1.2120  0.4825
 3494SOL    HW222116   4.410   3.724  16.976  0.8073  0.2475 -2.2689
 3495SOL     OW22117   4.326   0.140   7.436  0.3183  0.4805  0.3366
 3495SOL    HW122118   4.309   0.091   7.516 -2.5472 -0.2465 -0.7421
 3495SOL    HW222119   4.267   0.094   7.377  0.5151  0.2331  0.3297
 3496SOL     OW22120   3.127   3.037   2.509  0.5333  0.5273 -0.4198
 3496SOL    HW122121   3.136   3.113   2.567 -0.0067  2.2316 -2.5454
 3496SOL    HW222122   3.184   2.971   2.547  0.7757  0.4400 -0.9454
 3497SOL     OW22123   1.191   0.482  14.567  0.0041  0.1669 -0.2250
 3497SOL    HW122124   1.256   0.509  14.632  0.0453 -0.3164 -0.0656
 3497SOL    HW222125   1.206   0.388  14.572  2.0284  0.4922 -0.2495
 3498SOL     OW22126   0.340   3.988  17.712  0.5973 -0.7585  0.0124
 3498SOL    HW122127   0.315   4.058   0.017  1.4161 -1.2263  0.8793
 3498SOL    HW222128   0.275   3.925  17.742  0.6813 -1.2911 -0.9258
 3499SOL     OW22129   1.468   0.889   1.580 -0.3446 -0.2264 -0.4280
 3499SOL    HW122130   1.511   0.816   1.535 -1.0198  0.2503 -1.8431
 3499SOL    HW222131   1.534   0.957   1.591  0.8724 -1.5963  0.7752
 3500SOL     OW22132   1.132   1.534   8.109  0.0493  0.3479  0.5425
 3500SOL    HW122133   1.061   1.566   8.164  0.0809  1.2764  0.0480
 3500SOL    HW222134   1.107   1.559   8.020  2.3458  0.5169 -0.0742
 3501SOL     OW22135   1.963   2.961   2.974 -0.2612 -0.3536  0.0593
 3501SOL    HW122136   1.963   2.951   2.878  2.4206 -0.2456  0.0639
 3501SOL    HW222137   1.962   2.872   3.007 -0.4697 -2.0961 -4.5635
 3502SOL     OW22138   4.550   3.761   9.792 -0.4317  0.3021 -0.5161
 3502SOL    HW122139   4.630   3.745   9.842 -0.7450  0.0462 -0.1001
 3502SOL    HW222140   4.527   3.851   9.816 -0.5133  0.0040  0.5076
 3503SOL     OW22141   1.988   1.106   9.614  0.2673 -0.1122  0.6013
 3503SOL    HW122142   2.077   1.125   9.644  0.6496 -0.5629 -0.2480
 3503SOL    HW222143   1.965   1.184   9.564  2.1218 -0.8851 -1.4531
 3504SOL     OW22144   0.810   2.557   8.207  0.0514  0.6751 -0.3764
 3504SOL    HW122145   0.751   2.537   8.134  0.9082 -1.2229 -0.5523
 3504SOL    HW222146   0.806   2.653   8.210 -1.5424  0.5360  1.7232
 3505SOL     OW22147   0.254   1.354   2.335  0.9563 -0.2361 -0.4104
 3505SOL    HW122148   0.244   1.297   2.411  2.0697  1.4803  1.0389
 3505SOL    HW222149   0.282   1.431   2.385  0.3439 -0.4284  0.2252
 3506SOL     OW22150   0.232   2.785  15.691  0.2675  0.2316  0.1727
 3506SOL    HW122151   0.165   2.850  15.670  1.9388  1.5382 -1.0593
 3506SOL    HW222152   0.191   2.731  15.759  2.1234 -0.0027  1.0785
 3507SOL     OW22153   0.935   2.252   1.693 -0.3626  0.1122 -0.0161
 3507SOL    HW122154   1.000   2.316   1.719  0.5354 -0.7674 -0.1088
 3507SOL    HW222155   0.977   2.228   1.610 -2.8703 -0.1797 -1.2076
 3508SOL     OW22156   2.730   3.177   3.788 -0.2045 -0.0995 -0.0720
 3508SOL    HW122157   2.660   3.123   3.824 -1.6061  1.2409 -0.7607
 3508SOL    HW222158   2.800   3.170   3.852 -0.0125  0.0963 -0.2583
 3509SOL     OW22159   0.558   1.206   7.402 -0.1969  0.0169 -0.2329
 3509SOL    HW122160   0.490   1.228   7.338 -1.6840 -1.4763  0.8335
 3509SOL    HW222161   0.511   1.216   7.485  1.7088 -1.3865  1.0118
 3510SOL     OW22162   3.739   2.903   5.265  0.1346 -0.9433 -0.3047
 3510SOL    HW122163   3.795   2.844   5.216 -2.3830 -2.6438 -1.1447
 3510SOL    HW222164   3.800   2.967   5.302 -0.9923  0.0436 -0.1249
 3511SOL     OW22165   3.410   1.172  10.860  0.1242  0.0576  0.0554
 3511SOL    HW122166   3.336   1.112  10.851  1.2313 -1.3112  0.0450
 3511SOL    HW222167   3.462   1.162  10.780 -0.7685  1.8862 -0.7640
 3512SOL     OW22168   0.102   0.682  14.629  0.0069 -0.2102 -0.4860
 3512SOL    HW122169   0.109   0.725  14.714  1.0921  0.7838 -1.0682
 3512SOL    HW222170   0.161   0.736  14.575 -0.7049  1.1868  0.1277
 3513SOL     OW22171   2.874   3.226   7.620 -0.3891  0.4371  0.1795
 3513SOL    HW122172   2.859   3.150   7.676 -0.3181 -0.3882 -0.9287
 3513SOL    HW222173   2.931   3.184   7.556 -1.9988 -1.9087  0.2944
 3514SOL     OW22174   0.420   3.662  17.539  0.0853  0.6019 -0.0607
 3514SOL    HW122175   0.369   3.721  17.484 -0.5092  0.2984  0.1671
 3514SOL    HW222176   0.348   3.604  17.564 -1.5433  2.2813 -0.8473
 3515SOL     OW22177   1.336   3.163   4.389 -0.2093  0.4378 -0.2672
 3515SOL    HW122178   1.279   3.103   4.438 -1.0178  1.2076 -0.2527
 3515SOL    HW222179   1.270   3.204   4.333 -1.3246 -1.4853 -0.3943
 3516SOL     OW22180   2.408   0.709   1.253  0.1343 -0.3022  0.2054
 3516SOL    HW122181   2.420   0.615   1.239 -2.3838 -0.2926 -1.9695
 3516SOL    HW222182   2.318   0.714   1.219  1.2094  0.5883 -2.5722
 3517SOL     OW22183   2.089   3.754   8.318  0.2025  0.3411  0.2755
 3517SOL    HW122184   2.058   3.837   8.355  0.2537 -1.0375  3.3575
 3517SOL    HW222185   2.114   3.706   8.396  1.6620 -0.3206 -0.5921
 3518SOL     OW22186   2.044   0.193   6.802 -0.2828 -0.3194  0.1122
 3518SOL    HW122187   2.000   0.215   6.884 -2.6857 -0.7912 -1.0522
 3518SOL    HW222188   2.019   0.274   6.758 -0.0821  0.3287  1.1981
 3519SOL     OW22189   2.342   1.834   9.307 -0.4062  0.0709  0.1176
 3519SOL    HW122190   2.435   1.815   9.294 -0.6848  0.6611 -2.7962
 3519SOL    HW222191   2.335   1.930   9.307  1.8855  0.2549 -0.0621
 3520SOL     OW22192   3.197   3.447   2.288 -0.4248  0.8385  0.3049
 3520SOL    HW122193   3.196   3.368   2.233  1.7982  2.0856 -1.5002
 3520SOL    HW222194   3.256   3.428   2.361 -2.3228 -2.1726  1.0661
 3521SOL     OW22195   3.304   2.250  16.334  0.8634 -0.4583 -0.5019
 3521SOL    HW122196   3.325   2.224  16.245 -0.8927  0.7438 -1.2663
 3521SOL    HW222197   3.318   2.168  16.381  0.6889 -0.0219  0.3122
 3522SOL     OW22198   3.824   1.497   6.851  0.0697 -0.0985  0.2389
 3522SOL    HW122199   3.794   1.410   6.823 -1.0201 -1.0735  4.4886
 3522SOL    HW222200   3.830   1.479   6.945 -0.5073  1.9966  0.6701
 3523SOL     OW22201   0.950   0.071   7.257 -0.3630  0.6725 -0.2931
 3523SOL    HW122202   0.966   0.017   7.180 -2.0530  1.1489 -0.9733
 3523SOL    HW222203   0.859   0.057   7.281  0.6466 -3.0004  1.3273
 3524SOL     OW22204   3.532   3.185   3.235  0.3921  0.1693  0.0798
 3524SOL    HW122205   3.565   3.166   3.147 -2.7797 -1.0608 -0.8153
 3524SOL    HW222206   3.524   3.279   3.224  1.2514  0.4161  1.4748
 3525SOL     OW22207   3.784   1.942  15.631  0.3915 -0.4866  0.0495
 3525SOL    HW122208   3.778   1.982  15.545 -1.7934  1.6851  1.2236
 3525SOL    HW222209   3.692   1.951  15.658  0.5311 -1.4897  0.8568
 3526SOL     OW22210   0.585   4.489   7.373 -0.0011 -0.1107 -0.0975
 3526SOL    HW122211   0.507   4.495   7.319 -0.1860  0.1744  0.2029
 3526SOL    HW222212   0.545   4.437   7.442  0.9900 -0.8347 -0.0685
 3527SOL     OW22213   1.321   2.027   5.315  0.8142  0.3119 -0.6802
 3527SOL    HW122214   1.306   1.932   5.320  1.3245  0.2966  0.3968
 3527SOL    HW222215   1.316   2.031   5.220  0.8358 -1.0801 -0.7431
 3528SOL     OW22216   3.992   3.818   9.413  0.1555 -0.1741 -0.2837
 3528SOL    HW122217   4.045   3.799   9.336  1.5478  1.7510  0.2260
 3528SOL    HW222218   4.060   3.826   9.479 -0.3309  0.2568  0.1653
 3529SOL     OW22219   0.937   0.954   8.685 -0.5142  0.4198 -0.2585
 3529SOL    HW122220   0.884   0.936   8.607 -0.8457  0.3429 -0.0126
 3529SOL    HW222221   0.907   0.881   8.738  0.7401  0.4153  0.4444
 3530SOL     OW22222   0.406   4.491   9.105 -0.9822  0.2222  0.1849
 3530SOL    HW122223   0.421   4.482   9.011 -2.0643 -0.9235  0.1112
 3530SOL    HW222224   0.311   4.506   9.107 -1.0967 -0.6565  1.6624
 3531SOL     OW22225   4.422   2.852   8.010  0.3491 -1.0287 -0.3510
 3531SOL    HW122226   4.480   2.918   8.048 -0.5024  1.1196 -2.7988
 3531SOL    HW222227   4.433   2.792   8.084 -1.8076  0.4239  1.1571
 3532SOL     OW22228   2.170   4.064   9.702  0.5078  0.2818 -0.0536
 3532SOL    HW122229   2.150   3.971   9.701  1.9497 -0.0655  2.0504
 3532SOL    HW222230   2.155   4.100   9.790  1.4907  0.3882  0.0639
 3533SOL     OW22231   4.597   0.429  10.110  0.1003  0.6472 -0.5535
 3533SOL    HW122232   4.583   0.520  10.084 -0.6072  0.6948 -0.0020
 3533SOL    HW222233   4.683   0.433  10.151 -0.8923 -1.7050  1.7546
 3534SOL     OW22234   3.519   4.306   7.215 -0.5619 -0.3611  0.1469
 3534SOL    HW122235   3.426   4.282   7.218 -0.4639 -0.7797 -0.0593
 3534SOL    HW222236   3.508   4.399   7.233  0.6225  0.0992 -1.5766
 3535SOL     OW22237   2.299   1.802  15.647 -0.1586  0.2653  0.2916
 3535SOL    HW122238   2.290   1.808  15.552  0.9281 -0.6289  0.1267
 3535SOL    HW222239   2.210   1.830  15.667 -0.5802  1.0116 -2.6064
 3536SOL     OW22240   3.425   3.955  13.837 -0.0081 -0.9472  0.2105
 3536SOL    HW122241   3.353   3.954  13.774  0.0534  2.1604  0.0606
 3536SOL    HW222242   3.377   3.990  13.913  1.7287  0.3664  0.7154
 3537SOL     OW22243   4.532   0.185   7.266  0.6208  0.3558  0.2087
 3537SOL    HW122244   4.452   0.199   7.315  1.1188  1.4161  0.7259
 3537SOL    HW222245   4.575   0.122   7.323  0.5537  0.5763  0.5021
 3538SOL     OW22246   0.484   1.974   8.178  0.1273  0.4150 -0.3194
 3538SOL    HW122247   0.516   1.918   8.107  1.1809 -1.7134  1.8167
 3538SOL    HW222248   0.511   2.062   8.153  1.8247 -0.0678 -0.1647
 3539SOL     OW22249   3.976   3.006   6.109 -0.1809 -0.0814  0.0645
 3539SOL    HW122250   4.065   3.038   6.125 -0.3822  0.0143  0.9898
 3539SOL    HW222251   3.971   3.024   6.016 -3.1861 -1.0630  0.0259
 3540SOL     OW22252   1.462   3.615   4.040 -0.5901  0.2684  0.7411
 3540SOL    HW122253   1.496   3.561   3.969 -0.5637  0.4479  0.6201
 3540SOL    HW222254   1.543   3.631   4.089 -1.2115  0.1472  1.8319
 3541SOL     OW22255   3.398   2.746   7.054 -0.4105 -0.0361  0.7473
 3541SOL    HW122256   3.350   2.664   7.058 -1.3225  0.4237 -1.0633
 3541SOL    HW222257   3.337   2.810   7.018 -2.0065 -2.6946 -1.2077
 3542SOL     OW22258   1.718   4.219  11.724  0.5081 -0.3510  0.5757
 3542SOL    HW122259   1.809   4.192  11.709  0.3616 -0.1680 -0.6564
 3542SOL    HW222260   1.721   4.284  11.794  1.3411  1.0948 -0.7785
 3543SOL     OW22261   3.021   0.204   6.348 -0.2115 -0.2268 -0.0640
 3543SOL    HW122262   2.969   0.162   6.417 -0.9654 -0.7724 -0.9681
 3543SOL    HW222263   3.102   0.223   6.396  0.3305 -3.5745  0.3611
 3544SOL     OW22264   3.154   3.406   8.699 -0.0674  0.1245  0.2183
 3544SOL    HW122265   3.156   3.402   8.604 -1.6577 -2.8862  0.3258
 3544SOL    HW222266   3.084   3.472   8.698 -0.6762 -0.5598 -2.5220
 3545SOL     OW22267   3.243   0.282  11.066  0.3811 -0.3983  0.0923
 3545SOL    HW122268   3.267   0.224  11.138 -2.5251 -1.3280  0.3417
 3545SOL    HW222269   3.326   0.285  11.020  0.2900  0.3652 -0.0144
 3546SOL     OW22270   0.611   3.340   8.060  0.2603 -0.4996 -0.1744
 3546SOL    HW122271   0.687   3.390   8.031  1.3109 -0.7258  2.1938
 3546SOL    HW222272   0.627   3.257   8.015 -1.1913 -2.5340  3.0392
 3547SOL     OW22273   3.999   1.850  16.169 -0.4237  0.3471 -0.1703
 3547SOL    HW122274   3.966   1.814  16.087 -0.0739 -0.2640 -0.0416
 3547SOL    HW222275   4.058   1.917  16.136 -0.5852  0.7729  0.3953
 3548SOL     OW22276   1.538   1.759   6.234 -0.6977  0.0973  0.6727
 3548SOL    HW122277   1.484   1.688   6.199  0.4014  0.3442 -1.5143
 3548SOL    HW222278   1.505   1.834   6.185  0.1429  0.4619  0.6655
 3549SOL     OW22279   1.013   1.729  10.755  0.6844  0.2690  0.1864
 3549SOL    HW122280   1.054   1.669  10.692 -0.4533 -0.7518  0.4189
 3549SOL    HW222281   0.962   1.670  10.810  0.2524  1.4924  1.0884
 3550SOL     OW22282   2.396   1.378   5.663  0.2176  0.1182  0.2311
 3550SOL    HW122283   2.457   1.334   5.604  0.9600  0.2628  0.8917
 3550SOL    HW222284   2.416   1.466   5.632 -3.5851  1.0920  0.4938
 3551SOL     OW22285   0.197   2.590   2.631  0.4820 -0.4680  0.0307
 3551SOL    HW122286   0.180   2.644   2.554 -0.5444 -1.2578 -0.3043
 3551SOL    HW222287   0.201   2.500   2.599 -2.1966 -0.8763  0.8356
 3552SOL     OW22288   2.851   2.684  12.381 -0.0038 -0.1588 -0.1964
 3552SOL    HW122289   2.945   2.695  12.395  0.0842 -1.6567  0.3667
 3552SOL    HW222290   2.842   2.589  12.388  0.9196 -0.2776 -0.7875
 3553SOL     OW22291   0.279   2.982  17.311 -0.2740  0.3092 -0.1205
 3553SOL    HW122292   0.351   3.043  17.295 -0.3643  0.8417  1.5119
 3553SOL    HW222293   0.267   2.966  17.404 -1.7275  1.2743 -0.1594
 3554SOL     OW22294   4.390   1.844   8.128 -0.7966  0.0836 -0.1432
 3554SOL    HW122295   4.297   1.832   8.106 -1.1756 -0.7486  1.8924
 3554SOL    HW222296   4.381   1.826   8.222 -0.0493  0.4243 -0.0124
 3555SOL     OW22297   3.994   2.831   2.019 -0.2131  0.1884 -0.2636
 3555SOL    HW122298   3.952   2.826   1.933 -0.4729  1.8532 -0.2292
 3555SOL    HW222299   3.958   2.752   2.059  0.6087  1.1956  2.4932
 3556SOL     OW22300   1.495   4.206   3.080  0.3973 -0.2050 -0.6948
 3556SOL    HW122301   1.438   4.192   3.005 -1.2598 -2.7855  1.0399
 3556SOL    HW222302   1.563   4.266   3.049 -1.6703  1.6186 -1.7172
 3557SOL     OW22303   1.170   3.113   4.763 -0.1009 -0.5590 -0.1905
 3557SOL    HW122304   1.206   3.037   4.809  0.1613 -0.8085 -0.8030
 3557SOL    HW222305   1.165   3.178   4.833 -0.8749  0.7120 -1.4539
 3558SOL     OW22306   2.725   3.397   4.403  0.3110  0.2597 -0.0569
 3558SOL    HW122307   2.793   3.443   4.354 -1.0359  2.1875 -0.1120
 3558SOL    HW222308   2.650   3.452   4.383  0.2859  0.4118  0.4640
 3559SOL     OW22309   1.751   3.899   1.310  0.4666 -0.2086 -0.7278
 3559SOL    HW122310   1.694   3.893   1.387  3.0318  0.3394  1.2245
 3559SOL    HW222311   1.833   3.915   1.357 -0.4137  1.1122  0.3832
 3560SOL     OW22312   2.669   1.260   6.099 -0.2690  0.7395  0.8044
 3560SOL    HW122313   2.714   1.247   6.015 -1.1146  0.5551  0.3866
 3560SOL    HW222314   2.742   1.304   6.144  0.3807 -0.3620  0.8285
 3561SOL     OW22315   2.338   3.544   9.324 -0.2487  0.1087 -0.0730
 3561SOL    HW122316   2.411   3.606   9.318 -0.5114  0.4475  0.2273
 3561SOL    HW222317   2.381   3.491   9.391  0.3302  0.7928  0.1036
 3562SOL     OW22318   1.039   2.526   6.476 -0.3164  0.6537 -0.3966
 3562SOL    HW122319   0.996   2.450   6.515 -0.6395  1.3894  0.6750
 3562SOL    HW222320   0.958   2.564   6.441 -0.2462  1.1210 -0.0538
 3563SOL     OW22321   2.531   4.094   3.979 -0.6947 -0.9373 -0.3248
 3563SOL    HW122322   2.461   4.038   3.944  0.5653 -2.0878 -1.0064
 3563SOL    HW222323   2.483   4.176   3.992 -1.7797 -1.2427 -2.3194
 3564SOL     OW22324   1.530   4.012   4.502 -0.2627 -0.2090  0.2189
 3564SOL    HW122325   1.544   4.038   4.411 -0.9596  0.4177  0.2918
 3564SOL    HW222326   1.615   3.975   4.527 -0.3950 -0.1221  0.7958
 3565SOL     OW22327   3.300   3.051   5.586  0.2220 -0.2849 -0.4632
 3565SOL    HW122328   3.337   3.079   5.670  0.2221  0.8213 -0.8378
 3565SOL    HW222329   3.221   3.105   5.590  1.1618  0.9720  1.3332
 3566SOL     OW22330   0.680   3.254  12.629  0.4217 -0.0854  0.4636
 3566SOL    HW122331   0.671   3.185  12.563 -1.2159 -3.6383  4.4255
 3566SOL    HW222332   0.754   3.220  12.681  2.0746  1.0022 -1.1708
 3567SOL     OW22333   3.572   2.278   5.932  0.4393 -0.0806 -0.4719
 3567SOL    HW122334   3.642   2.216   5.953 -0.1822 -1.3451 -2.0222
 3567SOL    HW222335   3.553   2.253   5.841  3.2112 -1.3107 -0.6983
 3568SOL     OW22336   0.666   0.486   1.342 -0.4650  0.4946 -0.0551
 3568SOL    HW122337   0.655   0.564   1.397  0.1545 -0.1363  0.9585
 3568SOL    HW222338   0.633   0.531   1.264 -2.6284  0.3106  0.7827
 3569SOL     OW22339   2.208   3.806  15.348 -0.1360  0.5317  0.1371
 3569SOL    HW122340   2.148   3.739  15.316 -0.9593  0.7736  1.1777
 3569SOL    HW222341   2.278   3.806  15.284 -1.1122  1.9116 -0.9190
 3570SOL     OW22342   0.188   4.362   3.922  0.1477 -0.4488 -0.3164
 3570SOL    HW122343   0.277   4.350   3.888 -0.7320 -0.7712 -2.4767
 3570SOL    HW222344   0.192   4.442   3.975 -0.2961 -1.7737  1.7014
 3571SOL     OW22345   3.778   4.490   0.506  0.3741 -0.1422  0.2956
 3571SOL    HW122346   3.829   4.507   0.428  0.1000 -1.5084 -0.1772
 3571SOL    HW222347   3.692   4.465   0.471  1.6883 -1.7750 -1.6724
 3572SOL     OW22348   0.138   1.867  15.652 -0.9201 -0.0409 -0.1646
 3572SOL    HW122349   0.153   1.960  15.637 -1.3847 -0.0116 -0.4534
 3572SOL    HW222350   0.103   1.855  15.740  0.0235 -3.1417 -0.2141
 3573SOL     OW22351   4.089   0.717   6.824  0.4989  0.4701 -0.1205
 3573SOL    HW122352   4.154   0.752   6.885  1.0373 -0.0579 -0.3852
 3573SOL    HW222353   4.108   0.765   6.743 -0.1672 -0.6659 -0.9425
 3574SOL     OW22354   4.032   0.126   3.629 -0.1376  0.2504 -0.1057
 3574SOL    HW122355   4.048   0.145   3.722 -3.3989 -0.1903  0.5373
 3574SOL    HW222356   4.058   0.035   3.618 -0.1127  0.3387 -0.7369
 3575SOL     OW22357   0.310   1.005   4.503  0.9919  0.1359  0.1868
 3575SOL    HW122358   0.346   1.005   4.414 -1.2767 -0.6735 -0.7427
 3575SOL    HW222359   0.348   1.086   4.536 -1.2286  1.0958  0.3974
 3576SOL     OW22360   3.493   0.885  11.341 -0.2000 -0.4958  0.1526
 3576SOL    HW122361   3.439   0.917  11.269 -0.8638 -2.5002 -0.2416
 3576SOL    HW222362   3.582   0.892  11.307 -0.0832  1.0367  0.7542
 3577SOL     OW22363   1.485   4.603   3.468 -0.1685 -0.4468 -0.0169
 3577SOL    HW122364   1.429   4.547   3.522 -2.0126  0.4728 -0.9774
 3577SOL    HW222365   1.537   4.529   3.438 -1.0043 -1.3667  0.7929
 3578SOL     OW22366   0.605   3.974   0.671  0.2710 -0.0841  0.1652
 3578SOL    HW122367   0.662   3.961   0.747  0.1820 -1.9660 -0.0928
 3578SOL    HW222368   0.548   3.896   0.670 -0.9101  0.7498  1.5115
 3579SOL     OW22369   1.200   0.515  14.068 -0.3352 -0.2610  0.4232
 3579SOL    HW122370   1.146   0.527  14.146 -1.7955 -0.6411 -0.5379
 3579SOL    HW222371   1.210   0.419  14.067  0.8694 -0.1283 -2.4801
 3580SOL     OW22372   3.644   3.363   5.380 -0.0132 -0.2459 -0.0260
 3580SOL    HW122373   3.731   3.400   5.366 -0.0752  0.2342  0.8774
 3580SOL    HW222374   3.637   3.341   5.287 -0.5179  0.3548 -0.1294
 3581SOL     OW22375   1.117   3.518   5.073  0.1424 -0.1159 -0.2730
 3581SOL    HW122376   1.049   3.569   5.119  0.2592  0.1950 -0.4446
 3581SOL    HW222377   1.198   3.551   5.113  0.8981 -0.3706 -1.6054
 3582SOL     OW22378   3.547   1.996   7.697  0.0620 -0.0112  0.2270
 3582SOL    HW122379   3.473   1.961   7.746 -1.2731  0.4325 -1.4700
 3582SOL    HW222380   3.498   2.054   7.638 -0.5789  0.4340  1.1862
 3583SOL     OW22381   1.155   4.142  12.072 -0.3369  0.0777 -0.5849
 3583SOL    HW122382   1.151   4.172  12.163  0.0433 -0.1475 -0.4988
 3583SOL    HW222383   1.061   4.130  12.054 -1.2066  2.4772  2.2421
 3584SOL     OW22384   0.088   0.956   1.357 -0.5741  0.2809  0.2080
 3584SOL    HW122385   4.735   0.946   1.335 -0.7605  3.6649 -0.3915
 3584SOL    HW222386   0.118   1.027   1.302 -0.1931 -0.2994 -0.3342
 3585SOL     OW22387   2.024   1.845  15.645  0.2915 -0.0756 -0.1070
 3585SOL    HW122388   1.987   1.800  15.569  2.9496 -3.2230  0.4911
 3585SOL    HW222389   1.948   1.863  15.701  0.1852  0.7518 -0.5157
 3586SOL     OW22390   1.093   1.410  12.041  0.3797  0.1232 -0.2952
 3586SOL    HW122391   1.008   1.372  12.060 -0.7784  3.4138  1.0760
 3586SOL    HW222392   1.143   1.357  12.103 -1.0335 -0.3682  0.4119
 3587SOL     OW22393   1.478   1.921   6.008 -0.4360 -0.3467 -0.0413
 3587SOL    HW122394   1.443   2.006   6.033  0.5976 -0.1148  0.6119
 3587SOL    HW222395   1.505   1.947   5.919  0.3893 -2.0467 -0.2956
 3588SOL     OW22396   1.305   1.223   8.708 -0.1866  0.8633 -0.0998
 3588SOL    HW122397   1.293   1.194   8.798 -0.3094 -1.6412 -0.9353
 3588SOL    HW222398   1.280   1.151   8.650  0.5967 -0.6244  1.4282
 3589SOL     OW22399   3.181   0.071   4.157 -0.1952 -0.0632  0.0263
 3589SOL    HW122400   3.216   0.083   4.245  0.6701  1.1106 -0.4788
 3589SOL    HW222401   3.092   0.042   4.173  0.5224 -1.9148  0.6557
 3590SOL     OW22402   4.061   4.401   2.690 -0.2271  0.0477 -0.3432
 3590SOL    HW122403   3.984   4.435   2.644  1.7302  2.5018 -1.8441
 3590SOL    HW222404   4.014   4.348   2.754 -1.3980  3.0215  1.2323
 3591SOL     OW22405   4.682   3.577   1.684  0.2712  0.0088 -0.6898
 3591SOL    HW122406   4.619   3.558   1.754 -0.3059  1.5016 -0.8112
 3591SOL    HW222407   4.676   3.672   1.689  0.7261  0.1111 -2.0417
 3592SOL     OW22408   3.887   2.003  12.196  0.2759 -0.3473  0.4409
 3592SOL    HW122409   3.811   1.968  12.150 -1.7081  4.1282  0.2865
 3592SOL    HW222410   3.905   2.088  12.154  3.2877  0.0277  2.4412
 3593SOL     OW22411   3.680   1.326   4.932  0.2637 -0.4454  0.9153
 3593SOL    HW122412   3.757   1.298   4.882  0.5451  1.1658  0.4552
 3593SOL    HW222413   3.621   1.251   4.922 -0.1339 -0.0256  0.1693
 3594SOL     OW22414   1.500   1.568  13.753  0.4764 -0.6758 -0.4864
 3594SOL    HW122415   1.421   1.621  13.741  0.3775 -0.3258  1.7385
 3594SOL    HW222416   1.477   1.529  13.838 -1.1521 -0.5697 -0.8745
 3595SOL     OW22417   1.084   4.145   3.872 -0.4372  0.2499  0.1826
 3595SOL    HW122418   1.018   4.212   3.852  1.1540  1.9784  0.6388
 3595SOL    HW222419   1.162   4.201   3.871  0.5258 -1.1623 -2.2525
 3596SOL     OW22420   0.774   4.676   3.101  0.2786 -0.1918  0.3649
 3596SOL    HW122421   0.740   0.003   3.161  0.0676 -1.5285  1.7167
 3596SOL    HW222422   0.729   4.601   3.138  2.1777 -2.7287 -2.5026
 3597SOL     OW22423   1.727   3.851  12.447 -0.0515  0.6090 -0.3581
 3597SOL    HW122424   1.749   3.760  12.464 -0.6701  0.4121 -0.6260
 3597SOL    HW222425   1.814   3.887  12.427 -0.1801 -0.4186 -2.7430
 3598SOL     OW22426   4.173   1.128   5.899  0.4722  0.1461 -0.0184
 3598SOL    HW122427   4.251   1.170   5.862  0.3258  0.9181  0.5451
 3598SOL    HW222428   4.196   1.130   5.992  0.1183 -1.4914  0.0899
 3599SOL     OW22429   2.406   4.106   0.775 -0.8606  0.0926  0.1009
 3599SOL    HW122430   2.329   4.149   0.738 -1.1789 -1.2688 -0.8232
 3599SOL    HW222431   2.366   4.032   0.820 -0.6517 -0.7744 -1.1327
 3600SOL     OW22432   0.833   0.779   7.036  0.4945 -0.2516  0.2449
 3600SOL    HW122433   0.763   0.729   7.078  0.7427 -0.3471  0.5391
 3600SOL    HW222434   0.832   0.860   7.086 -2.0802  2.5133 -4.2883
 3601SOL     OW22435   0.072   2.684   4.339 -0.1486  0.4479 -0.2829
 3601SOL    HW122436   0.118   2.638   4.270  0.6008 -1.3229  1.3940
 3601SOL    HW222437   0.114   2.769   4.351  0.7945 -0.1586  0.6872
 3602SOL     OW22438   4.702   0.778   5.088 -0.0170 -0.2596  0.0340
 3602SOL    HW122439   4.718   0.854   5.031 -2.8389 -0.5604 -1.1730
 3602SOL    HW222440   0.030   0.717   5.058 -0.5781 -1.1588  0.5935
 3603SOL     OW22441   4.082   1.483   7.095  0.2939 -0.6140 -0.0746
 3603SOL    HW122442   4.103   1.575   7.115 -3.1557 -0.0120  0.7738
 3603SOL    HW222443   3.996   1.471   7.135  0.0931  0.1539 -0.2678
 3604SOL     OW22444   1.721   3.479   3.516  0.3216  0.4863  1.3884
 3604SOL    HW122445   1.725   3.384   3.520  2.1385  0.5356  0.7009
 3604SOL    HW222446   1.813   3.504   3.502  0.2666 -0.5936 -0.9095
 3605SOL     OW22447   1.952   1.893   6.776  0.1915  0.4818  0.2475
 3605SOL    HW122448   1.935   1.805   6.810 -1.3483 -0.1758 -2.2129
 3605SOL    HW222449   2.009   1.870   6.702  1.9471  1.1329  1.4097
 3606SOL     OW22450   3.695   0.875   4.890  0.6179  0.2016 -0.3020
 3606SOL    HW122451   3.754   0.868   4.814  1.6553 -0.5174  0.5649
 3606SOL    HW222452   3.614   0.898   4.844  1.1713 -0.2318 -1.5123
 3607SOL     OW22453   3.108   4.434  14.670 -0.2548 -0.2146 -0.2219
 3607SOL    HW122454   3.197   4.448  14.636  0.1225 -0.2417  0.7430
 3607SOL    HW222455   3.062   4.491  14.608 -0.3496 -0.6620 -0.5571
 3608SOL     OW22456   2.531   2.510   8.243 -0.1056  0.2172  0.2599
 3608SOL    HW122457   2.454   2.554   8.208 -1.5922 -1.5824  1.2220
 3608SOL    HW222458   2.500   2.421   8.223 -1.8355  0.7972  0.3779
 3609SOL     OW22459   1.130   2.830  15.398 -0.1584  0.5392  0.3155
 3609SOL    HW122460   1.155   2.881  15.475 -1.2406 -0.9085  1.6352
 3609SOL    HW222461   1.045   2.862  15.370  0.0757  0.0766 -0.9187
 3610SOL     OW22462   2.835   3.693   9.559  0.6186 -0.2508 -0.2207
 3610SOL    HW122463   2.886   3.771   9.581 -0.1657  0.2241 -0.0803
 3610SOL    HW222464   2.906   3.639   9.526  0.9505  0.5328 -0.7586
 3611SOL     OW22465   3.714   4.039   8.390 -0.2260 -0.0672 -0.3598
 3611SOL    HW122466   3.775   4.107   8.360  0.4548 -0.9218 -0.8965
 3611SOL    HW222467   3.646   4.104   8.405  0.1387  0.0847  0.6436
 3612SOL     OW22468   0.975   3.766   0.651  0.2900 -0.2211 -0.0140
 3612SOL    HW122469   1.036   3.692   0.651 -0.0150 -0.4752  0.5746
 3612SOL    HW222470   1.034   3.841   0.663 -0.3875  0.4273 -0.7708
 3613SOL     OW22471   0.974   1.735   6.839 -0.3235  0.2998  0.4404
 3613SOL    HW122472   1.059   1.773   6.816  0.4277 -1.1464  0.8842
 3613SOL    HW222473   0.990   1.706   6.928  0.9323 -2.2802 -0.6348
 3614SOL     OW22474   3.335   3.948   1.656 -0.4240  0.0428 -0.4034
 3614SOL    HW122475   3.294   3.917   1.736 -1.3755  1.2171 -0.4390
 3614SOL    HW222476   3.426   3.924   1.673 -0.8339 -3.0762 -2.6581
 3615SOL     OW22477   3.352   1.322  11.831 -0.3254 -0.1866  0.5732
 3615SOL    HW122478   3.318   1.411  11.825  0.2894 -0.0911 -1.4447
 3615SOL    HW222479   3.278   1.266  11.854 -0.0843 -0.7172  0.0681
 3616SOL     OW22480   2.377   2.770   2.687  0.2951 -0.2508 -0.0111
 3616SOL    HW122481   2.418   2.792   2.770 -2.2720  0.0319  1.1726
 3616SOL    HW222482   2.292   2.734   2.711 -0.1224  0.7673  0.0087
 3617SOL     OW22483   1.911   1.462   2.766 -0.2030 -0.8584 -0.5156
 3617SOL    HW122484   1.895   1.369   2.779  0.7589 -0.6490  2.0911
 3617SOL    HW222485   1.988   1.464   2.709  1.0966 -0.3828  1.2754
 3618SOL     OW22486   1.328   3.502  12.138  0.4329 -0.1291  0.2379
 3618SOL    HW122487   1.319   3.449  12.217  0.5687 -0.6720 -0.1069
 3618SOL    HW222488   1.420   3.513  12.115 -0.0682  0.8312 -1.3655
 3619SOL     OW22489   0.740   3.130   6.783  0.3847 -0.2570 -0.2295
 3619SOL    HW122490   0.760   3.223   6.796 -1.2408 -0.0662  0.8875
 3619SOL    HW222491   0.828   3.102   6.809 -0.6353 -3.1204  0.1150
 3620SOL     OW22492   0.835   0.268  16.277  0.9666 -0.0866  0.0403
 3620SOL    HW122493   0.870   0.298  16.194 -1.1092 -0.7304 -1.0564
 3620SOL    HW222494   0.811   0.178  16.257 -0.8248  0.0623  1.5483
 3621SOL     OW22495   2.392   2.808   4.062 -0.3081 -0.3424 -0.4647
 3621SOL    HW122496   2.304   2.827   4.028 -1.1395 -0.3638  1.7024
 3621SOL    HW222497   2.427   2.758   3.988 -0.7388 -3.2603  1.3419
 3622SOL     OW22498   3.795   3.364  13.030  0.3432  0.0909  0.1136
 3622SOL    HW122499   3.881   3.322  13.024  0.7719  1.0492 -0.4161
 3622SOL    HW222500   3.763   3.362  12.940  1.3947 -4.2478 -0.1432
 3623SOL     OW22501   1.273   4.576   7.036  0.0657  0.3875  0.3471
 3623SOL    HW122502   1.367   4.586   7.027  0.2426 -1.6668 -0.0313
 3623SOL    HW222503   1.266   4.497   7.089  0.6115  0.9208  1.2331
 3624SOL     OW22504   3.786   3.652  10.258 -0.1882 -0.1980  0.0521
 3624SOL    HW122505   3.702   3.690  10.282 -1.2362 -2.2368 -0.3467
 3624SOL    HW222506   3.856   3.710  10.286  2.0219 -2.1455 -1.4037
 3625SOL     OW22507   2.473   3.562   7.273  0.2328 -0.7531 -0.6043
 3625SOL    HW122508   2.497   3.654   7.262  0.1784 -0.7164 -0.4263
 3625SOL    HW222509   2.454   3.555   7.367  0.4103 -1.1768 -0.6036
 3626SOL     OW22510   1.157   3.588   1.314 -0.3259  0.3510 -0.2747
 3626SOL    HW122511   1.244   3.550   1.302 -0.2558  0.5219 -0.3155
 3626SOL    HW222512   1.140   3.561   1.404  2.4880  1.9780  0.7507
 3627SOL     OW22513   4.592   3.982   3.381  0.4299 -0.7692  0.1576
 3627SOL    HW122514   4.588   3.974   3.476  1.5809  1.2788  0.3682
 3627SOL    HW222515   4.536   4.054   3.353  2.3002  1.0148  1.0276
 3628SOL     OW22516   2.818   3.052   6.569 -0.0115  0.2103 -0.0060
 3628SOL    HW122517   2.725   3.030   6.574 -0.2138  1.1765  0.4303
 3628SOL    HW222518   2.828   3.118   6.501  2.4453  0.5545  0.7060
 3629SOL     OW22519   0.575   4.714  13.363  0.0741  0.6073  0.7770
 3629SOL    HW122520   0.647   4.656  13.341 -1.9771 -1.6821  0.1250
 3629SOL    HW222521   0.614   0.003  13.446  0.5427  0.5831  0.5626
 3630SOL     OW22522   2.302   1.806   1.057 -0.3079  0.1066  0.0097
 3630SOL    HW122523   2.249   1.807   1.137 -0.2457 -1.4463  0.0630
 3630SOL    HW222524   2.249   1.862   1.000 -1.7543 -0.6039  0.6622
 3631SOL     OW22525   0.001   0.773   3.978 -0.3739 -0.0860  0.3380
 3631SOL    HW122526   4.698   0.832   3.916  3.0737 -0.0176 -1.9938
 3631SOL    HW222527   4.684   0.781   4.055  1.2248  0.1245  1.4917
 3632SOL     OW22528   4.349   1.102  16.113 -0.4909  0.6855 -0.4641
 3632SOL    HW122529   4.380   1.031  16.057 -1.8817 -0.0187 -0.3260
 3632SOL    HW222530   4.433   1.129  16.152 -0.0692  1.8586 -2.1783
 3633SOL     OW22531   0.741   1.008   1.916  0.3227  0.1856 -0.4969
 3633SOL    HW122532   0.757   1.102   1.928 -0.6129  0.0143  2.0096
 3633SOL    HW222533   0.676   0.992   1.984  0.9524  2.5747  0.6966
 3634SOL     OW22534   3.487   2.068  12.123  0.2002 -0.1597 -0.6424
 3634SOL    HW122535   3.520   2.004  12.059 -1.6533 -1.9580  0.1866
 3634SOL    HW222536   3.518   2.149  12.083 -0.2631  0.6093  0.5619
 3635SOL     OW22537   0.358   2.869   5.259  0.0152  0.0137  0.1042
 3635SOL    HW122538   0.356   2.831   5.347 -0.1045 -0.9945 -0.3325
 3635SOL    HW222539   0.453   2.883   5.250  0.0527 -0.2888  0.0233
 3636SOL     OW22540   1.732   3.857  14.895  0.1457  0.4132 -0.4898
 3636SOL    HW122541   1.770   3.838  14.981  0.3624  0.9339 -0.4724
 3636SOL    HW222542   1.683   3.775  14.891  0.0506  0.3298  2.1066
 3637SOL     OW22543   4.428   4.228   3.935  0.5354 -0.3916 -0.3762
 3637SOL    HW122544   4.443   4.135   3.918  0.6310 -0.3603 -0.4696
 3637SOL    HW222545   4.451   4.270   3.852  0.4880  3.0927  1.3697
 3638SOL     OW22546   4.075   2.276   4.944  0.4302 -0.0915 -0.0321
 3638SOL    HW122547   4.027   2.204   4.984  0.4456 -0.1122 -0.0512
 3638SOL    HW222548   4.103   2.320   5.024  0.4871  0.2172 -0.2209
 3639SOL     OW22549   1.928   0.428   2.329  0.1165  0.4772  0.9155
 3639SOL    HW122550   2.020   0.444   2.350  0.4443  1.2950 -1.1487
 3639SOL    HW222551   1.930   0.360   2.261  1.5991 -0.1325  1.5627
 3640SOL     OW22552   4.257   0.820   1.639  0.1662 -0.1261 -0.5109
 3640SOL    HW122553   4.176   0.772   1.656 -0.5298  0.6605 -1.5752
 3640SOL    HW222554   4.234   0.889   1.577 -2.4049 -1.8916 -1.5343
 3641SOL     OW22555   1.307   3.559   8.963  0.0638 -0.0393  0.1210
 3641SOL    HW122556   1.334   3.468   8.962 -2.6958 -0.8530  0.1326
 3641SOL    HW222557   1.385   3.603   8.929 -0.2450  0.1576 -0.3422
 3642SOL     OW22558   1.776   2.246   5.402 -0.2054  0.1199 -0.4016
 3642SOL    HW122559   1.698   2.298   5.423 -2.8174 -4.6528  1.6458
 3642SOL    HW222560   1.728   2.170   5.369  0.3387 -0.2782 -0.2819
 3643SOL     OW22561   3.441   3.980   4.070 -0.0106 -0.5690  0.5339
 3643SOL    HW122562   3.372   3.999   4.006  0.8789  2.0814  0.3349
 3643SOL    HW222563   3.511   4.033   4.031 -0.8962  0.7215  0.6760
 3644SOL     OW22564   1.285   2.935   7.061 -0.0327  0.0901  0.2690
 3644SOL    HW122565   1.291   2.946   6.966 -2.0658 -0.0950  0.1281
 3644SOL    HW222566   1.375   2.943   7.092 -0.5280 -1.7539  2.1323
 3645SOL     OW22567   4.403   0.382   7.491  0.2299  0.3147 -0.0787
 3645SOL    HW122568   4.370   0.292   7.491 -0.5957  0.6047 -1.9407
 3645SOL    HW222569   4.323   0.421   7.456  0.8638 -0.4526 -2.3900
 3646SOL     OW22570   1.747   3.168   2.905 -0.6362  0.6461  0.0109
 3646SOL    HW122571   1.837   3.145   2.929 -1.4796 -1.4046  1.2213
 3646SOL    HW222572   1.719   3.222   2.979  1.0858 -1.7235  2.3929
 3647SOL     OW22573   1.950   0.806   5.926 -0.2438 -0.5157 -0.0108
 3647SOL    HW122574   1.926   0.866   5.997 -2.1532  1.6112 -2.4496
 3647SOL    HW222575   1.868   0.758   5.911 -0.6886 -0.2979  1.7652
 3648SOL     OW22576   4.320   0.467   4.975  0.1728  0.1264  0.4558
 3648SOL    HW122577   4.343   0.465   5.068 -1.6203 -2.1015  0.8568
 3648SOL    HW222578   4.404   0.506   4.951  0.6491 -0.2767  1.4605
 3649SOL     OW22579   4.252   0.663   7.842  0.0260 -0.1924  0.6192
 3649SOL    HW122580   4.324   0.649   7.780 -0.5447 -1.5518  0.2735
 3649SOL    HW222581   4.177   0.638   7.789 -0.7777  2.0377  0.6867
 3650SOL     OW22582   4.683   3.292   7.363 -0.3766 -0.0252  0.6297
 3650SOL    HW122583   4.710   3.201   7.354  0.9083  0.4228 -0.0238
 3650SOL    HW222584   4.687   3.297   7.459  2.6360 -1.4969  0.5737
 3651SOL     OW22585   2.919   1.099   4.791  0.5162  0.6491 -0.5262
 3651SOL    HW122586   2.925   1.194   4.788 -1.3560  0.8685  2.5116
 3651SOL    HW222587   2.996   1.074   4.739 -0.2378 -0.8653 -0.9308
 3652SOL     OW22588   3.725   1.040   8.010 -0.1782 -0.1573  0.4081
 3652SOL    HW122589   3.650   0.984   8.031 -0.5202  0.0182 -0.3349
 3652SOL    HW222590   3.783   0.975   7.972 -0.4623 -0.1733  0.0067
 3653SOL     OW22591   0.959   1.129  13.346  0.1501 -0.1136 -0.0288
 3653SOL    HW122592   1.011   1.165  13.275  0.1384  0.8836  0.4657
 3653SOL    HW222593   0.945   1.205  13.403  2.5197 -1.5745  2.4878
 3654SOL     OW22594   0.374   1.829  10.827  0.1247 -0.3230  0.1840
 3654SOL    HW122595   0.341   1.861  10.742 -0.5756  2.2871  1.4449
 3654SOL    HW222596   0.314   1.879  10.882 -1.2671 -1.3045 -0.4327
 3655SOL     OW22597   2.526   4.104   2.497  0.0985  0.2370 -0.8039
 3655SOL    HW122598   2.606   4.150   2.473 -0.3113  1.4131  0.0525
 3655SOL    HW222599   2.526   4.113   2.592  2.6332 -1.9271 -0.5939
 3656SOL     OW22600   1.494   2.314   1.371 -0.5850 -0.5354 -0.1491
 3656SOL    HW122601   1.438   2.301   1.448 -0.4108  0.6047  0.1725
 3656SOL    HW222602   1.545   2.234   1.383  0.5241  0.3392  0.9629
 3657SOL     OW22603   4.637   0.839   7.558  0.0172  0.2736 -0.1546
 3657SOL    HW122604   4.552   0.806   7.528 -0.1758 -1.1340  2.0107
 3657SOL    HW222605   4.628   0.933   7.539  2.4175  0.3823 -0.7527
 3658SOL     OW22606   1.135   4.325  16.193  0.1421  0.0999 -0.6598
 3658SOL    HW122607   1.110   4.288  16.108 -2.2980 -1.7883  0.8645
 3658SOL    HW222608   1.230   4.319  16.191  0.0700 -0.0599 -3.4429
 3659SOL     OW22609   2.085   0.256  13.891  0.0931 -0.4555  0.1789
 3659SOL    HW122610   2.001   0.272  13.847  1.3748  0.9469 -1.7594
 3659SOL    HW222611   2.098   0.163  13.872  0.8491  0.1636 -2.4410
 3660SOL     OW22612   0.147   0.453   4.218  0.1853 -0.2941  0.5660
 3660SOL    HW122613   0.171   0.486   4.131 -0.4623  0.7145  0.7596
 3660SOL    HW222614   0.189   0.368   4.215  0.9612  0.1324 -1.0052
 3661SOL     OW22615   4.228   0.314   9.325 -0.3138  0.1558  0.2940
 3661SOL    HW122616   4.153   0.254   9.323  0.0148 -0.3613  3.8765
 3661SOL    HW222617   4.193   0.391   9.280  0.2764  0.7250  0.8190
 3662SOL     OW22618   2.888   1.231   1.606  0.6153  0.0979 -0.1084
 3662SOL    HW122619   2.966   1.219   1.552  0.2369 -0.9913 -0.4279
 3662SOL    HW222620   2.858   1.315   1.572 -1.2709 -0.5786 -0.1040
 3663SOL     OW22621   3.227   2.911   8.219  0.3392 -0.4581 -0.0208
 3663SOL    HW122622   3.174   2.983   8.251 -1.6865 -1.6598 -0.6920
 3663SOL    HW222623   3.309   2.929   8.265  0.1834 -1.0393  0.5010
 3664SOL     OW22624   3.032   2.618  12.868  0.2822 -0.6728 -0.0698
 3664SOL    HW122625   3.074   2.664  12.940 -1.0966  1.3648 -0.5798
 3664SOL    HW222626   3.036   2.676  12.792 -1.8300 -0.5143 -0.0602
 3665SOL     OW22627   1.517   3.805   1.456  0.5279 -0.1857 -0.9714
 3665SOL    HW122628   1.515   3.728   1.400 -2.6496 -0.3157 -0.6671
 3665SOL    HW222629   1.434   3.840   1.423  1.0648  1.0370 -1.0376
 3666SOL     OW22630   3.554   2.068  10.364 -0.4170  0.0159  0.2395
 3666SOL    HW122631   3.568   2.133  10.433  0.3370  0.9887 -0.8343
 3666SOL    HW222632   3.624   2.007  10.389 -0.3765  0.6688  1.6972
 3667SOL     OW22633   3.168   3.929   9.059 -0.2045 -0.3600 -0.1199
 3667SOL    HW122634   3.079   3.959   9.075 -0.4697  0.8004 -3.9209
 3667SOL    HW222635   3.189   3.949   8.968  2.2562 -2.1784  0.0418
 3668SOL     OW22636   0.864   0.162   4.371 -0.2925  0.0410  0.4164
 3668SOL    HW122637   0.880   0.076   4.332  0.4570  0.6002 -0.5060
 3668SOL    HW222638   0.950   0.185   4.406 -0.4579  3.4420 -1.4408
 3669SOL     OW22639   3.411   3.618   6.251  0.1836  0.1956  0.5592
 3669SOL    HW122640   3.415   3.559   6.326 -0.1125 -0.7361 -0.1593
 3669SOL    HW222641   3.316   3.625   6.240  0.5019  2.5722 -0.6913
 3670SOL     OW22642   2.391   0.771   3.501  0.1646  0.8909  0.1760
 3670SOL    HW122643   2.351   0.708   3.561  1.5966  0.7412  0.9842
 3670SOL    HW222644   2.307   0.803   3.469 -0.4625 -1.6050 -0.6261
 3671SOL     OW22645   2.537   2.822   6.361  0.2567  0.0886  0.3518
 3671SOL    HW122646   2.610   2.770   6.327  0.9183  2.3130 -1.6201
 3671SOL    HW222647   2.520   2.769   6.438 -2.1300 -0.0549 -0.2557
 3672SOL     OW22648   1.897   3.964  16.704 -0.6133  0.4791  0.3503
 3672SOL    HW122649   1.908   3.876  16.741 -0.8064 -0.5096 -1.9316
 3672SOL    HW222650   1.819   3.954  16.650  1.1025  0.2900 -2.1070
 3673SOL     OW22651   2.520   3.010   9.232 -0.5555 -0.0484 -0.1751
 3673SOL    HW122652   2.532   3.042   9.142  0.4035  1.6851  0.5760
 3673SOL    HW222653   2.519   3.086   9.289  0.0873 -1.1286  1.2782
 3674SOL     OW22654   0.194   2.709   1.281  0.6792  0.0234  0.7354
 3674SOL    HW122655   0.122   2.725   1.220 -0.0529  2.0459  2.1220
 3674SOL    HW222656   0.239   2.630   1.252 -1.0372 -0.5824 -0.2923
 3675SOL     OW22657   4.314   4.154   3.285 -0.1225 -0.1766  0.1490
 3675SOL    HW122658   4.276   4.076   3.245  0.6414  0.7892 -2.4524
 3675SOL    HW222659   4.245   4.178   3.347  0.6586 -0.4107  1.1235
 3676SOL     OW22660   1.677   1.425  13.392 -0.4819 -0.1502 -0.2242
 3676SOL    HW122661   1.690   1.352  13.332  2.0778 -0.9828  1.3057
 3676SOL    HW222662   1.685   1.395  13.483 -0.4448 -0.2681 -0.2670
 3677SOL     OW22663   3.819   0.032  12.603 -0.2836 -0.0170  0.3937
 3677SOL    HW122664   3.818   4.739  12.693  2.1358 -1.1377  0.0081
 3677SOL    HW222665   3.805   4.686  12.561 -0.4594 -0.6764  1.8013
 3678SOL     OW22666   0.332   1.681   2.742 -1.0236  0.3001 -0.0776
 3678SOL    HW122667   0.409   1.719   2.699 -0.0896  0.5045  1.7733
 3678SOL    HW222668   0.307   1.749   2.805 -1.4700  1.3702 -1.4018
 3679SOL     OW22669   1.474   4.022  15.771 -0.5251  0.5762 -0.2205
 3679SOL    HW122670   1.514   3.966  15.705 -1.4470  0.0672 -0.3434
 3679SOL    HW222671   1.531   4.020  15.848 -0.8611 -0.8113 -0.0184
 3680SOL     OW22672   3.021   2.414   5.962 -0.0932 -0.0817  0.1836
 3680SOL    HW122673   2.946   2.356   5.946 -0.4110  0.3102  0.2553
 3680SOL    HW222674   2.976   2.498   5.952  0.8522  0.1948 -1.6170
 3681SOL     OW22675   4.151   2.930   6.365 -0.9454 -0.3972 -0.9126
 3681SOL    HW122676   4.161   3.012   6.317  2.4136 -0.3635 -0.1471
 3681SOL    HW222677   4.240   2.898   6.379 -1.3547  0.0491  2.8095
 3682SOL     OW22678   1.945   4.113   9.513  0.2373  0.5073  0.3452
 3682SOL    HW122679   2.009   4.121   9.584  0.9229  0.5817 -0.2855
 3682SOL    HW222680   1.980   4.169   9.444  1.3226  0.4271  0.8421
 3683SOL     OW22681   3.251   3.200   8.845  0.3591  0.0819 -0.1294
 3683SOL    HW122682   3.231   3.271   8.783  0.9826  0.4214  0.0597
 3683SOL    HW222683   3.165   3.182   8.884 -0.0158 -0.1862 -1.0823
 3684SOL     OW22684   1.445   2.400   3.087 -0.5256  0.1888  0.8302
 3684SOL    HW122685   1.508   2.421   3.018  0.2486 -0.0983  1.4500
 3684SOL    HW222686   1.438   2.486   3.130 -1.7603  0.4016  0.2030
 3685SOL     OW22687   1.180   3.868  17.506  0.1686  0.3507  0.4526
 3685SOL    HW122688   1.131   3.946  17.482  1.3093  0.6919 -0.7554
 3685SOL    HW222689   1.162   3.813  17.429  0.1382 -1.4029  1.7101
 3686SOL     OW22690   1.683   4.323  11.488  0.4313 -0.3248 -0.1305
 3686SOL    HW122691   1.703   4.285  11.574  3.0926 -0.7173 -0.9199
 3686SOL    HW222692   1.588   4.317  11.474  0.1289  4.7291 -0.2791
 3687SOL     OW22693   2.218   4.223   4.427  0.4559 -0.0183 -0.7541
 3687SOL    HW122694   2.288   4.272   4.382  0.0491 -0.1006 -1.4774
 3687SOL    HW222695   2.258   4.137   4.436 -2.6573 -1.2606  1.0097
 3688SOL     OW22696   2.399   4.086  17.394 -0.1522 -0.3264  0.0918
 3688SOL    HW122697   2.330   4.130  17.345 -1.0516 -2.2402 -0.3476
 3688SOL    HW222698   2.399   4.137  17.475  0.3812  0.8842 -0.6754
 3689SOL     OW22699   2.630   3.417   6.050  0.1705  0.2516  0.1073
 3689SOL    HW122700   2.616   3.346   5.988 -1.2930  1.4845 -0.9776
 3689SOL    HW222701   2.602   3.368   6.127  2.5849 -0.0420  0.8012
 3690SOL     OW22702   0.969   2.274   7.154  0.4802  0.2206  0.3435
 3690SOL    HW122703   0.956   2.238   7.241 -2.1960  0.9792  0.2380
 3690SOL    HW222704   0.987   2.366   7.173 -2.1790  0.5020  1.4150
 3691SOL     OW22705   3.649   3.428   8.250 -0.5435  0.1466  0.0979
 3691SOL    HW122706   3.559   3.417   8.281 -1.0770  0.8561 -1.1540
 3691SOL    HW222707   3.698   3.408   8.329 -0.3014  0.7819  0.1087
 3692SOL     OW22708   3.150   2.105   8.359  0.4690 -0.1195 -0.4989
 3692SOL    HW122709   3.057   2.097   8.339  0.8154 -2.0957 -1.2960
 3692SOL    HW222710   3.170   2.187   8.313  3.6626 -0.4723  0.2674
 3693SOL     OW22711   3.808   0.541  10.214 -0.2755 -0.1226  0.6522
 3693SOL    HW122712   3.875   0.480  10.242  0.6542  0.7253  0.2690
 3693SOL    HW222713   3.759   0.493  10.147  0.5562 -0.3262  0.1965
 3694SOL     OW22714   1.664   1.171   9.100  1.0878 -0.5905  0.1529
 3694SOL    HW122715   1.682   1.144   9.190 -2.1906  0.8749  1.2537
 3694SOL    HW222716   1.712   1.101   9.056  1.6971  0.3937 -0.7554
 3695SOL     OW22717   2.518   1.856   1.723  0.0940 -0.0126 -0.7452
 3695SOL    HW122718   2.430   1.853   1.685 -0.7383 -1.3604  1.2684
 3695SOL    HW222719   2.494   1.805   1.800  1.0953 -1.6515 -1.5276
 3696SOL     OW22720   0.166   1.749   5.021  0.5935 -0.4496 -0.0012
 3696SOL    HW122721   0.130   1.745   4.932  0.5436 -0.4409  0.0181
 3696SOL    HW222722   0.198   1.659   5.026 -1.9175 -1.3691 -0.4239
 3697SOL     OW22723   4.612   4.571   3.807 -0.2588 -0.3364 -0.2845
 3697SOL    HW122724   4.634   4.657   3.770  1.2538  0.6573  2.9357
 3697SOL    HW222725   4.599   4.595   3.899  0.5965  0.4821 -0.3752
 3698SOL     OW22726   2.280   3.048   9.529 -0.4066 -0.0639  0.0722
 3698SOL    HW122727   2.243   2.983   9.587 -0.3943 -0.2062 -0.0789
 3698SOL    HW222728   2.359   3.060   9.581  0.8832  1.9092 -2.2933
 3699SOL     OW22729   3.595   1.548   3.481 -0.1142  0.0666 -0.2616
 3699SOL    HW122730   3.685   1.550   3.513  0.0262 -1.7227 -0.5555
 3699SOL    HW222731   3.546   1.492   3.542 -0.4033  0.6528  0.0466
 3700SOL     OW22732   3.305   4.497   6.234  0.3019  0.4204  0.4755
 3700SOL    HW122733   3.385   4.524   6.279  0.1415 -0.0739  1.0550
 3700SOL    HW222734   3.323   4.403   6.231 -1.5583 -0.0086  3.2670
 3701SOL     OW22735   0.343   0.086   6.885  0.7266 -0.5080  0.4920
 3701SOL    HW122736   0.394   0.156   6.926 -2.0503  0.5209  2.1967
 3701SOL    HW222737   0.250   0.107   6.892  0.9353 -0.1672  2.4062
 3702SOL     OW22738   4.053   0.743   9.062 -0.1129  0.0615  0.5908
 3702SOL    HW122739   4.006   0.826   9.077 -0.7327 -0.2056  0.1271
 3702SOL    HW222740   4.086   0.756   8.974  0.2240  0.7111  0.8155
 3703SOL     OW22741   4.035   0.907   0.011 -0.0505  0.4362  0.0892
 3703SOL    HW122742   3.949   0.945   0.031 -0.7097  0.1862 -2.2762
 3703SOL    HW222743   4.078   0.909   0.096 -0.9055  2.7010  0.4740
 3704SOL     OW22744   3.823   2.602   1.334 -0.0441  0.4598 -0.3704
 3704SOL    HW122745   3.801   2.679   1.386 -1.3768 -1.4080  1.8037
 3704SOL    HW222746   3.746   2.597   1.277 -1.5355  0.6660  1.6103
 3705SOL     OW22747   2.424   2.136   6.518  0.3653 -0.4419  0.2531
 3705SOL    HW122748   2.496   2.077   6.498  1.6303  1.6154 -1.3132
 3705SOL    HW222749   2.388   2.094   6.596 -0.6460 -0.7612 -0.3918
 3706SOL     OW22750   0.347   0.034   4.964 -0.0633 -0.0828  0.0968
 3706SOL    HW122751   0.307   4.700   4.917 -0.5566  1.3130 -1.6606
 3706SOL    HW222752   0.278   0.053   5.027  0.0096  1.2827 -0.2290
 3707SOL     OW22753   2.186   4.724   2.583  0.3274  0.1338 -0.1849
 3707SOL    HW122754   2.117   4.661   2.605 -0.2310  0.2310 -1.6813
 3707SOL    HW222755   2.235   4.698   2.661  0.1378 -1.0442 -0.4559
 3708SOL     OW22756   2.018   3.438   6.674 -0.1118 -0.3703  0.2599
 3708SOL    HW122757   1.950   3.405   6.616  0.4355  0.1853 -0.7114
 3708SOL    HW222758   2.099   3.392   6.650 -0.1244 -0.0679 -0.3862
 3709SOL     OW22759   0.312   0.389   8.278  0.3194 -0.0144  0.0166
 3709SOL    HW122760   0.327   0.479   8.248  1.2900 -0.8051 -1.8571
 3709SOL    HW222761   0.252   0.401   8.352 -0.0536  1.6401 -0.5582
 3710SOL     OW22762   0.557   2.454   0.378  0.0436 -0.3928 -0.2432
 3710SOL    HW122763   0.612   2.528   0.352  0.2651 -0.0554  1.2212
 3710SOL    HW222764   0.603   2.392   0.322 -2.6217 -0.3595 -2.4768
 3711SOL     OW22765   2.084   1.098   7.949 -0.1704  0.0355  0.0134
 3711SOL    HW122766   2.090   1.192   7.966  1.1071  0.0336 -0.3920
 3711SOL    HW222767   1.989   1.093   7.959  0.1223 -0.5436  2.4829
 3712SOL     OW22768   1.804   0.498   6.488 -0.3162 -0.2282 -0.1581
 3712SOL    HW122769   1.752   0.558   6.435 -2.2632  0.1090  2.1380
 3712SOL    HW222770   1.765   0.412   6.472 -1.1681  0.2253 -0.4852
 3713SOL     OW22771   4.321   3.745   2.326 -0.0817 -0.4173 -0.3732
 3713SOL    HW122772   4.367   3.705   2.400  1.9063 -2.0795 -2.5058
 3713SOL    HW222773   4.320   3.676   2.260  0.7796 -1.1279  0.3585
 3714SOL     OW22774   1.226   4.603  13.399 -0.0136  0.3114  0.4009
 3714SOL    HW122775   1.263   4.593  13.311 -0.6892 -0.3897  0.2041
 3714SOL    HW222776   1.160   4.534  13.399  2.3692 -1.9686 -0.4526
 3715SOL     OW22777   1.232   0.790   8.103  0.5472  0.0492  0.1567
 3715SOL    HW122778   1.275   0.756   8.182  0.6958 -0.8909 -0.3229
 3715SOL    HW222779   1.291   0.860   8.076 -0.6453  0.9950  0.0502
 3716SOL     OW22780   1.120   4.042   2.288  0.0195 -0.0300 -0.3051
 3716SOL    HW122781   1.070   4.118   2.259 -1.7615 -0.8968  0.4821
 3716SOL    HW222782   1.119   3.986   2.210 -1.1110  0.9573 -1.0022
 3717SOL     OW22783   1.531   4.683   2.189  0.0849  0.0390  0.2754
 3717SOL    HW122784   1.545   4.681   2.095  1.7601 -2.0374  0.5691
 3717SOL    HW222785   1.578   0.022   2.216  0.7445 -0.2020 -0.1822
 3718SOL     OW22786   0.401   4.457   0.232 -0.0422  0.2065 -0.1025
 3718SOL    HW122787   0.475   4.488   0.180  0.5846 -0.6956  0.2575
 3718SOL    HW222788   0.427   4.365   0.242  1.8538  0.8210  0.7104
 3719SOL     OW22789   0.550   0.918   1.133  0.2887 -0.4890 -0.6953
 3719SOL    HW122790   0.622   0.962   1.088 -0.1684  4.1477  3.0161
 3719SOL    HW222791   0.527   0.869   1.054 -1.6093  0.1173 -0.5131
 3720SOL     OW22792   1.061   3.053   1.240 -0.2184  0.1742  0.4570
 3720SOL    HW122793   1.003   3.109   1.188 -0.0675  1.1466  1.3163
 3720SOL    HW222794   1.043   2.962   1.218  3.4132 -0.4989  0.2860
 3721SOL     OW22795   1.949   1.476   4.714 -0.1775 -0.1428 -0.0029
 3721SOL    HW122796   1.913   1.529   4.785 -0.8411  0.7980 -1.0380
 3721SOL    HW222797   2.036   1.462   4.751  0.4704 -0.3337 -1.6159
 3722SOL     OW22798   4.210   0.505   9.857 -0.2523 -0.1639  0.1245
 3722SOL    HW122799   4.134   0.560   9.840  0.2082  0.3533 -0.2422
 3722SOL    HW222800   4.241   0.485   9.769  1.5922 -0.1171  0.7576
 3723SOL     OW22801   2.594   1.163  17.519 -0.1700 -0.0929 -0.2646
 3723SOL    HW122802   2.574   1.257  17.520 -1.7547 -0.4248 -0.8243
 3723SOL    HW222803   2.559   1.135  17.603 -1.7122 -2.3400 -1.6398
 3724SOL     OW22804   2.014   3.527  16.566 -0.0866  0.1700  0.0468
 3724SOL    HW122805   1.948   3.461  16.544  0.2516  0.1450 -0.8881
 3724SOL    HW222806   2.096   3.479  16.580  1.0371  2.0311 -0.1234
 3725SOL     OW22807   0.324   3.307   1.559 -0.0551 -0.5323  0.4553
 3725SOL    HW122808   0.372   3.235   1.600  0.7216 -0.1475  0.2223
 3725SOL    HW222809   0.257   3.310   1.627 -1.5794 -0.1707 -1.0555
 3726SOL     OW22810   2.682   3.419   3.371 -0.2504 -0.1671 -0.1528
 3726SOL    HW122811   2.735   3.490   3.407 -1.2635  0.4659  0.1238
 3726SOL    HW222812   2.699   3.339   3.419  1.8638  0.0781 -0.5011
 3727SOL     OW22813   3.892   2.515   8.375  0.4798  0.0113 -0.6084
 3727SOL    HW122814   3.985   2.494   8.377  0.2238 -1.2733 -2.2074
 3727SOL    HW222815   3.893   2.569   8.454 -1.2609 -1.5038  0.4399
 3728SOL     OW22816   2.482   2.071  17.116  0.0018 -0.1678 -0.4972
 3728SOL    HW122817   2.449   2.120  17.041  0.7795  1.1681  0.0305
 3728SOL    HW222818   2.517   2.145  17.166  2.7393 -0.0891 -2.5402
 3729SOL     OW22819   1.337   3.308   9.568  0.9672 -0.3605  0.3558
 3729SOL    HW122820   1.294   3.377   9.518  1.7450 -0.2456 -0.1434
 3729SOL    HW222821   1.428   3.331   9.548  0.9393 -1.4366 -0.9722
 3730SOL     OW22822   0.808   2.941  10.949  1.2314  0.5547 -0.2806
 3730SOL    HW122823   0.817   3.036  10.950  1.2967  0.5620 -1.8472
 3730SOL    HW222824   0.758   2.938  11.031  0.8346  2.5787 -0.4605
 3731SOL     OW22825   1.461   1.760  10.558  0.3611 -0.2520  0.2588
 3731SOL    HW122826   1.415   1.807  10.488 -0.5400 -1.2593  0.1682
 3731SOL    HW222827   1.532   1.823  10.571 -0.8370  1.2819 -0.6157
 3732SOL     OW22828   4.527   4.708   5.982  0.1974  0.1944 -0.1695
 3732SOL    HW122829   4.443   4.662   5.975  0.7487 -0.5738 -1.5444
 3732SOL    HW222830   4.566   4.673   5.902  1.3477 -1.5713  1.1651
 3733SOL     OW22831   2.997   0.277   5.169  0.0814 -0.1726 -0.0863
 3733SOL    HW122832   2.974   0.241   5.255  0.8823 -0.9740 -0.2007
 3733SOL    HW222833   3.065   0.211   5.155  0.4549  0.6153 -1.8498
 3734SOL     OW22834   2.615   2.590   3.223 -0.1806 -0.0134  0.3496
 3734SOL    HW122835   2.626   2.518   3.160 -1.1883 -0.1628  0.3413
 3734SOL    HW222836   2.620   2.539   3.303 -2.1509 -1.5442 -0.5022
 3735SOL     OW22837   2.437   0.511   9.130  1.0320  1.1265 -0.1655
 3735SOL    HW122838   2.524   0.520   9.169  0.8714 -0.2485  0.5314
 3735SOL    HW222839   2.459   0.561   9.052  1.8416  0.4647 -0.3687
 3736SOL     OW22840   1.007   0.039   3.013  0.6712 -0.3730 -0.1828
 3736SOL    HW122841   0.934   4.733   3.053 -0.4595  3.3120  1.9255
 3736SOL    HW222842   1.051   4.714   2.957 -2.0831 -2.3196 -0.0640
 3737SOL     OW22843   3.484   2.989   2.783  1.1126 -0.2497 -0.7127
 3737SOL    HW122844   3.416   2.958   2.723  0.4515 -1.4959  0.7072
 3737SOL    HW222845   3.560   2.951   2.738 -0.0708 -1.0122 -2.0697
 3738SOL     OW22846   3.505   4.379   2.807 -0.4460  0.3640 -0.2580
 3738SOL    HW122847   3.418   4.417   2.814 -0.0375  1.0782  1.0011
 3738SOL    HW222848   3.517   4.293   2.848  1.1813 -0.4142 -2.3590
 3739SOL     OW22849   2.941   4.320   8.276 -0.2642 -0.1553  0.1688
 3739SOL    HW122850   2.860   4.292   8.319  0.1503  0.9851  1.6942
 3739SOL    HW222851   2.949   4.406   8.317 -0.8148  1.4985 -3.1781
 3740SOL     OW22852   3.260   1.221  16.267  0.0045 -0.3166 -0.1345
 3740SOL    HW122853   3.178   1.243  16.222  0.0905  5.2737  2.4648
 3740SOL    HW222854   3.325   1.249  16.203 -1.1572 -0.0454 -1.2006
 3741SOL     OW22855   3.668   4.054   3.601 -0.0202 -0.0274  0.5517
 3741SOL    HW122856   3.719   4.135   3.603 -1.0027  0.5818  0.8971
 3741SOL    HW222857   3.738   3.988   3.608  1.3928  1.6087  1.7703
 3742SOL     OW22858   2.485   3.605   3.262  0.2955 -0.6922  0.0918
 3742SOL    HW122859   2.559   3.556   3.299 -0.1260 -0.7760  0.8196
 3742SOL    HW222860   2.516   3.695   3.254  0.6655 -0.9934 -1.8438
 3743SOL     OW22861   3.492   0.703   2.138 -0.0327 -0.2140  0.1659
 3743SOL    HW122862   3.449   0.675   2.219 -0.9653 -1.8436 -0.8814
 3743SOL    HW222863   3.503   0.617   2.096 -0.9042  0.2826 -1.0857
 3744SOL     OW22864   4.652   1.758   4.462  0.0288 -0.0198 -0.1930
 3744SOL    HW122865   0.007   1.748   4.458 -0.0405 -0.1675 -1.4438
 3744SOL    HW222866   4.651   1.834   4.519 -1.0437  0.3450 -0.7002
 3745SOL     OW22867   0.924   4.337   6.031 -0.3980  0.1717  0.6457
 3745SOL    HW122868   1.011   4.375   6.043 -0.1704  0.2552 -1.2197
 3745SOL    HW222869   0.943   4.244   6.034 -1.4293 -0.1022 -1.1093
 3746SOL     OW22870   2.813   2.311   5.408  0.6553  0.1416 -0.1728
 3746SOL    HW122871   2.765   2.343   5.484 -0.0458 -0.1823 -0.4816
 3746SOL    HW222872   2.752   2.242   5.383  0.2363  0.5676 -0.3421
 3747SOL     OW22873   1.208   0.418   5.620 -0.5263  0.0893 -0.2764
 3747SOL    HW122874   1.115   0.401   5.604 -1.0404  1.1754  1.4884
 3747SOL    HW222875   1.246   0.334   5.597  1.2116  1.1084 -1.0888
 3748SOL     OW22876   2.685   4.260   6.050 -0.4578 -0.3761  0.2752
 3748SOL    HW122877   2.702   4.208   6.128  0.9253  2.3651  1.8197
 3748SOL    HW222878   2.670   4.346   6.089  2.7721  0.3263 -0.0307
 3749SOL     OW22879   0.274   1.368  12.314 -0.0159  0.0163  0.3109
 3749SOL    HW122880   0.362   1.403  12.328  0.2356 -0.3487 -0.3382
 3749SOL    HW222881   0.295   1.298  12.252  0.3136  1.3466 -1.0772
 3750SOL     OW22882   2.244   4.385   1.836  0.1016 -0.4680  0.3059
 3750SOL    HW122883   2.293   4.315   1.879  3.3733  2.4780  1.4903
 3750SOL    HW222884   2.306   4.422   1.773  0.6533  0.2036  1.2234
 3751SOL     OW22885   4.588   2.129   6.069  0.4713  0.0947 -0.4036
 3751SOL    HW122886   4.611   2.069   6.140  1.2792  1.5315  0.5438
 3751SOL    HW222887   4.639   2.078   6.006  0.2759 -0.4614 -0.1226
 3752SOL     OW22888   1.278   3.239   4.125 -0.0510 -0.2054  0.1664
 3752SOL    HW122889   1.252   3.244   4.033  1.9765 -0.9636 -0.4485
 3752SOL    HW222890   1.311   3.150   4.130 -0.2285 -0.4734 -3.0252
 3753SOL     OW22891   1.057   3.969   2.565  0.1731  0.0021  0.3726
 3753SOL    HW122892   1.108   3.987   2.485 -1.8467 -1.2123 -1.1983
 3753SOL    HW222893   1.075   3.879   2.592  0.9440 -0.2669 -1.0162
 3754SOL     OW22894   0.036   1.863   9.455  0.0821  0.2174 -0.4012
 3754SOL    HW122895   4.707   1.908   9.505  0.0470 -0.6500  0.3391
 3754SOL    HW222896   0.065   1.792   9.512  1.0309 -1.0726 -2.5081
 3755SOL     OW22897   3.155   3.924   5.293 -0.1246  0.7494  0.1354
 3755SOL    HW122898   3.076   3.883   5.329  0.7993 -1.0086  0.1659
 3755SOL    HW222899   3.173   3.974   5.372 -0.6464  0.6097  0.3473
 3756SOL     OW22900   4.636   2.366   6.355  0.2556 -0.1193  0.0467
 3756SOL    HW122901   4.631   2.280   6.396 -1.6851 -0.4917 -0.9591
 3756SOL    HW222902   4.732   2.369   6.349  0.1941 -1.3326 -1.5174
 3757SOL     OW22903   1.548   4.484  16.688 -0.0150  0.3121 -0.0472
 3757SOL    HW122904   1.620   4.443  16.641  1.8982 -0.3369  3.4761
 3757SOL    HW222905   1.549   4.576  16.660 -0.5497  0.5013  0.5545
 3758SOL     OW22906   0.055   2.627   2.158 -0.1086 -0.0715 -0.3908
 3758SOL    HW122907   0.081   2.658   2.245 -0.7153  0.6724 -0.4803
 3758SOL    HW222908   0.089   2.700   2.106  3.7784 -0.8985  0.9853
 3759SOL     OW22909   2.648   1.434  13.119  0.2465  0.2162 -0.5988
 3759SOL    HW122910   2.610   1.369  13.178  2.3726 -1.5842 -1.2069
 3759SOL    HW222911   2.646   1.515  13.170  2.7932  1.3257 -2.2705
 3760SOL     OW22912   4.281   4.198  12.086 -0.1082  0.2464  0.1102
 3760SOL    HW122913   4.207   4.247  12.050 -1.0284 -0.4057  1.1292
 3760SOL    HW222914   4.319   4.163  12.005 -2.0685 -2.2557  0.2906
 3761SOL     OW22915   1.431   2.160  16.048  0.2642  0.7933  0.5277
 3761SOL    HW122916   1.415   2.176  15.955 -2.0958  2.3134  1.2103
 3761SOL    HW222917   1.350   2.194  16.085  0.3678  1.7242 -0.0900
 3762SOL     OW22918   3.187   2.828   1.799  0.0101 -0.0764  0.1451
 3762SOL    HW122919   3.101   2.858   1.768  0.7503  1.1478 -0.7117
 3762SOL    HW222920   3.177   2.740   1.836 -0.7490 -1.0727 -2.4442
 3763SOL     OW22921   3.475   2.628   9.120  0.2946 -0.0224  0.9220
 3763SOL    HW122922   3.510   2.563   9.181  1.5357  0.8207  1.1091
 3763SOL    HW222923   3.463   2.569   9.046 -1.4287 -0.5507  1.6171
 3764SOL     OW22924   1.205   2.968   3.087 -0.3602 -0.0877 -0.5047
 3764SOL    HW122925   1.151   2.965   3.165  0.3306  2.3798  0.0617
 3764SOL    HW222926   1.137   2.972   3.020  0.1670  2.2655 -0.9072
 3765SOL     OW22927   0.806   1.343   3.101  0.3299 -0.5815  0.0707
 3765SOL    HW122928   0.882   1.370   3.050 -0.6126 -0.6461 -1.3576
 3765SOL    HW222929   0.819   1.396   3.180  0.3086  1.6708 -1.4441
 3766SOL     OW22930   3.464   2.605  10.557  0.6991 -0.0053 -0.5990
 3766SOL    HW122931   3.392   2.560  10.601 -0.1185  1.8558 -0.0361
 3766SOL    HW222932   3.539   2.546  10.566  0.9850  0.6009  1.1469
 3767SOL     OW22933   3.768   1.876   1.884  0.2383  0.2559  0.1517
 3767SOL    HW122934   3.838   1.909   1.941  1.3700 -0.2837 -0.9476
 3767SOL    HW222935   3.788   1.784   1.869 -2.0653 -0.2778  0.3548
 3768SOL     OW22936   3.969   4.389  16.643 -0.4130  0.1655 -0.1739
 3768SOL    HW122937   3.962   4.484  16.650  1.9089  0.3541 -0.4751
 3768SOL    HW222938   4.000   4.377  16.553  0.9804  1.3915  0.1513
 3769SOL     OW22939   2.030   0.847   8.885  0.1098 -0.0605 -0.6121
 3769SOL    HW122940   2.082   0.792   8.827  0.2442  0.1273 -0.6703
 3769SOL    HW222941   1.964   0.888   8.829 -2.1731  1.7687  3.3785
 3770SOL     OW22942   0.970   0.651   4.692 -0.2289 -0.3593  0.3431
 3770SOL    HW122943   0.906   0.706   4.646  1.0261  1.1653  0.4014
 3770SOL    HW222944   0.962   0.560   4.663 -1.9707 -0.3432  0.7855
 3771SOL     OW22945   2.198   3.600   3.624  0.2735 -0.1669  0.5195
 3771SOL    HW122946   2.121   3.576   3.675  1.2881 -0.9612  1.6605
 3771SOL    HW222947   2.218   3.525   3.568  1.0730  0.0296  0.5442
 3772SOL     OW22948   2.265   1.957  10.172 -0.3245  0.1988 -0.3992
 3772SOL    HW122949   2.220   1.952  10.257  0.2771  2.1616  0.0520
 3772SOL    HW222950   2.228   1.885  10.121  0.6650  0.3463 -1.3096
 3773SOL     OW22951   1.519   0.822   6.141 -0.4703  0.6064 -0.3094
 3773SOL    HW122952   1.536   0.914   6.160  3.7973 -0.0616 -0.8299
 3773SOL    HW222953   1.425   0.817   6.122 -0.3812  0.3272 -0.6886
 3774SOL     OW22954   1.600   2.810   2.666 -0.7503  0.4745  0.1164
 3774SOL    HW122955   1.585   2.895   2.708  1.5157  1.2949 -0.7497
 3774SOL    HW222956   1.636   2.839   2.582  1.5759  0.3793  1.1105
 3775SOL     OW22957   2.494   3.387   2.314  0.4916  0.2133  0.0747
 3775SOL    HW122958   2.580   3.395   2.273  0.6702  0.1951  0.4414
 3775SOL    HW222959   2.499   3.327   2.389 -3.0173  0.1238  0.2617
 3776SOL     OW22960   4.174   2.579   7.744 -0.4087 -0.0793  0.1218
 3776SOL    HW122961   4.177   2.484   7.745 -1.5046 -0.1317 -1.7050
 3776SOL    HW222962   4.234   2.594   7.671  1.3092 -1.0189  1.3544
 3777SOL     OW22963   4.176   1.800   9.256  0.0127 -0.1740 -0.3357
 3777SOL    HW122964   4.183   1.716   9.302 -0.6516  0.7998  1.5198
 3777SOL    HW222965   4.265   1.805   9.220  0.6598 -0.7922  1.1497
 3778SOL     OW22966   2.449   3.029   7.223  0.1060  0.1714  0.1743
 3778SOL    HW122967   2.530   2.994   7.184 -0.4392 -0.6609 -0.2258
 3778SOL    HW222968   2.439   3.114   7.180  0.9091  0.8669  1.3636
 3779SOL     OW22969   1.376   2.577   4.359 -0.7669 -0.4426  0.5680
 3779SOL    HW122970   1.381   2.635   4.435 -0.6224 -0.2037  0.3799
 3779SOL    HW222971   1.442   2.511   4.381  0.7417  1.0303  0.5393
 3780SOL     OW22972   3.893   1.016   9.561  0.9161 -0.0146  0.1845
 3780SOL    HW122973   3.849   0.952   9.505  1.5826  1.0075 -1.5180
 3780SOL    HW222974   3.948   1.062   9.497  1.0789 -1.2926 -0.5885
 3781SOL     OW22975   3.949   3.524   8.539  0.0557  0.2191 -0.1879
 3781SOL    HW122976   3.963   3.441   8.493 -1.7475  0.6442 -1.4659
 3781SOL    HW222977   4.028   3.527   8.593 -0.4555  1.3805  0.4965
 3782SOL     OW22978   3.852   2.447   2.930 -0.5779 -0.7671 -0.1632
 3782SOL    HW122979   3.838   2.505   3.005 -0.6082 -3.8684  2.2523
 3782SOL    HW222980   3.886   2.509   2.866 -1.4441 -0.3003 -0.1802
 3783SOL     OW22981   1.138   1.020   3.827  0.4906  0.9830  0.1742
 3783SOL    HW122982   1.213   1.046   3.881  2.4166 -1.4114 -1.3436
 3783SOL    HW222983   1.073   1.079   3.864 -2.5895 -2.1191 -0.3639
 3784SOL     OW22984   4.130   2.294  15.528  0.0114 -0.2224  0.4348
 3784SOL    HW122985   4.103   2.381  15.559 -1.7102  0.1089 -1.9364
 3784SOL    HW222986   4.074   2.233  15.576  0.4724  0.7486  2.2114
 3785SOL     OW22987   4.292   1.226  11.228  0.8697  0.5698 -0.6972
 3785SOL    HW122988   4.346   1.182  11.294  1.4916  1.8458 -0.3560
 3785SOL    HW222989   4.361   1.239  11.163  2.2688  0.4538  0.7639
 3786SOL     OW22990   3.030   0.298   3.209 -0.0623  0.1121  0.3718
 3786SOL    HW122991   3.049   0.272   3.299  1.4761 -0.0899 -0.0135
 3786SOL    HW222992   3.095   0.366   3.190  1.3121 -0.9075  1.4237
 3787SOL     OW22993   0.622   0.221   3.483 -0.8179  0.5374 -0.3443
 3787SOL    HW122994   0.686   0.292   3.490  0.5288 -0.7133  0.0219
 3787SOL    HW222995   0.601   0.224   3.576 -0.9257 -1.3667 -0.2987
 3788SOL     OW22996   3.722   2.926   2.658 -0.2571  0.0594  0.0081
 3788SOL    HW122997   3.727   2.869   2.582 -1.2432  1.0272 -0.7808
 3788SOL    HW222998   3.815   2.940   2.678 -1.0469 -1.7123  4.9637
 3789SOL     OW22999   0.159   4.142   6.416 -0.1756 -0.0438  0.2495
 3789SOL    HW123000   0.082   4.175   6.370  0.9756  0.4353 -1.3202
 3789SOL    HW223001   0.217   4.123   6.343 -0.0456 -0.0696  0.3598
 3790SOL     OW23002   1.281   4.478   8.704  0.4974  0.3412  0.1072
 3790SOL    HW123003   1.203   4.483   8.648 -0.0073 -0.4511  0.7416
 3790SOL    HW223004   1.248   4.492   8.792  0.5324  0.0898  0.1579
 3791SOL     OW23005   2.777   2.282  17.443  0.2084  0.0448  0.0064
 3791SOL    HW123006   2.824   2.236  17.512  0.1506  1.3358  0.9042
 3791SOL    HW223007   2.783   2.372  17.475  0.2318 -0.0020  0.1321
 3792SOL     OW23008   3.663   4.565  12.434  0.1998 -0.4817 -0.0398
 3792SOL    HW123009   3.669   4.521  12.518 -1.4953 -0.9328 -0.1542
 3792SOL    HW223010   3.584   4.620  12.439  0.7985  0.5361 -1.6880
 3793SOL     OW23011   3.240   1.704  12.665 -0.5310  0.3263 -0.4401
 3793SOL    HW123012   3.206   1.697  12.576  0.1313  1.7235 -0.7916
 3793SOL    HW223013   3.183   1.768  12.708 -1.4360 -1.3491  0.8650
 3794SOL     OW23014   3.808   4.228   5.711  0.0647 -0.1866 -0.1384
 3794SOL    HW123015   3.797   4.248   5.618 -0.2999  0.2173 -0.0088
 3794SOL    HW223016   3.899   4.200   5.701 -0.2988 -1.1418 -0.7390
 3795SOL     OW23017   2.228   3.402   1.845  0.6537  0.3309  0.0508
 3795SOL    HW123018   2.216   3.366   1.757 -0.1039  1.1326 -0.1810
 3795SOL    HW223019   2.228   3.316   1.886 -0.2075 -0.2051 -1.0718
 3796SOL     OW23020   2.591   2.416  13.080 -0.0434 -0.7771 -0.0672
 3796SOL    HW123021   2.517   2.471  13.055  1.9407  1.6893 -0.4809
 3796SOL    HW223022   2.655   2.440  13.013  0.3837 -1.5855  0.0512
 3797SOL     OW23023   1.809   4.359   7.885 -0.0682 -0.6981  0.5206
 3797SOL    HW123024   1.904   4.373   7.893 -0.5272  2.0236  1.0387
 3797SOL    HW223025   1.780   4.432   7.832  0.6771 -0.8761 -0.1311
 3798SOL     OW23026   4.636   1.440  11.227 -0.0377  0.6804 -0.1142
 3798SOL    HW123027   4.543   1.445  11.205 -0.1898  0.7946  0.5607
 3798SOL    HW223028   4.641   1.535  11.230  0.8110  0.5191  2.7100
 3799SOL     OW23029   2.635   3.321  11.310  0.5770  0.3211  0.4059
 3799SOL    HW123030   2.640   3.411  11.276  0.6194  0.6156  1.2001
 3799SOL    HW223031   2.607   3.273  11.232 -0.4317 -0.7665  1.4484
 3800SOL     OW23032   0.559   1.571   3.962  0.1608  0.8001 -1.0926
 3800SOL    HW123033   0.472   1.610   3.950  0.0233  1.0389  0.6291
 3800SOL    HW223034   0.608   1.630   3.904 -0.4616  0.5506 -1.8740
 3801SOL     OW23035   3.262   4.018  17.734 -0.0557  0.0580  0.2733
 3801SOL    HW123036   3.348   4.057  17.748 -1.4708  2.6323  1.8262
 3801SOL    HW223037   3.291   3.937  17.691  0.6179  0.2214  0.4110
 3802SOL     OW23038   1.603   2.207  14.841  0.2264  0.0945  0.0317
 3802SOL    HW123039   1.611   2.115  14.815  1.8812 -0.4966  2.6422
 3802SOL    HW223040   1.644   2.251  14.767  0.7849 -1.2183 -0.4413
 3803SOL     OW23041   3.438   3.672   7.410  0.4481  0.2358  0.1688
 3803SOL    HW123042   3.446   3.672   7.506  3.9154  0.0805 -0.1329
 3803SOL    HW223043   3.530   3.656   7.390  0.7333  1.0136  0.8392
 3804SOL     OW23044   2.329   3.890   5.533 -0.0071 -0.3400  0.2900
 3804SOL    HW123045   2.361   3.937   5.456  1.8042 -0.1537  1.1527
 3804SOL    HW223046   2.364   3.946   5.602  1.9699 -0.3056 -0.7271
 3805SOL     OW23047   3.787   3.685   3.276 -0.2187 -0.4537  0.6535
 3805SOL    HW123048   3.862   3.659   3.329 -0.5730 -3.0462 -0.0959
 3805SOL    HW223049   3.822   3.713   3.192 -1.3673  0.9611  0.6580
 3806SOL     OW23050   3.695   0.781  10.217  0.2784  0.0191 -0.0206
 3806SOL    HW123051   3.747   0.701  10.214  1.4086  0.7254  1.0672
 3806SOL    HW223052   3.760   0.846  10.243 -0.5078 -0.6179  3.5113
 3807SOL     OW23053   0.883   3.340   3.884  0.3082 -0.6136 -0.5338
 3807SOL    HW123054   0.877   3.288   3.965 -2.0204  0.7445  0.1661
 3807SOL    HW223055   0.961   3.394   3.894  0.6543 -1.0530 -0.8767
 3808SOL     OW23056   1.633   4.662   0.594  0.3019  0.2520 -0.4133
 3808SOL    HW123057   1.701   4.600   0.566 -0.0426 -0.6953  0.8829
 3808SOL    HW223058   1.616   4.630   0.682 -1.7384  0.0757 -0.8837
 3809SOL     OW23059   2.663   2.629   7.012 -0.2174  0.1564 -0.1650
 3809SOL    HW123060   2.612   2.608   6.934 -0.8813 -0.2711  0.3930
 3809SOL    HW223061   2.748   2.656   6.976 -0.3900 -0.5448 -1.0936
 3810SOL     OW23062   4.081   3.315   1.031 -0.8840  0.5886 -0.2115
 3810SOL    HW123063   4.126   3.306   1.115  0.2712 -0.3546 -0.9106
 3810SOL    HW223064   4.159   3.300   0.976 -0.0618  1.4454  0.7337
 3811SOL     OW23065   1.957   3.922  12.351  0.5950  0.5003  0.3767
 3811SOL    HW123066   2.047   3.904  12.379  1.9080  1.8961 -2.9570
 3811SOL    HW223067   1.984   3.964  12.270 -0.0571  2.5108  1.2017
 3812SOL     OW23068   0.408   1.859  17.261  0.3701 -0.3011 -0.1763
 3812SOL    HW123069   0.407   1.924  17.190 -0.8471 -1.8248 -1.5493
 3812SOL    HW223070   0.461   1.905  17.326  0.5255 -0.5878 -0.1009
 3813SOL     OW23071   3.083   4.734   3.089 -0.1167  0.1167  0.1370
 3813SOL    HW123072   3.124   4.720   3.174 -1.8993  4.2408  1.7090
 3813SOL    HW223073   3.013   0.057   3.109  0.1934  0.2572  0.7682
 3814SOL     OW23074   0.589   0.099   7.681 -0.1775 -0.0643 -0.1176
 3814SOL    HW123075   0.515   0.127   7.627 -0.0210 -1.3641 -1.0155
 3814SOL    HW223076   0.559   0.136   7.764 -0.7916  1.4487 -1.0054
 3815SOL     OW23077   4.323   2.772   6.602 -0.6413  0.4983 -0.6314
 3815SOL    HW123078   4.361   2.684   6.599  1.8445  1.4946  2.1816
 3815SOL    HW223079   4.370   2.809   6.527  0.1869 -0.6277 -0.6684
 3816SOL     OW23080   4.373   2.199  10.478  0.2912 -0.4320  0.6065
 3816SOL    HW123081   4.443   2.227  10.537  1.1178  1.6512 -1.3648
 3816SOL    HW223082   4.314   2.149  10.535 -0.5988  1.5207  1.4045
 3817SOL     OW23083   2.621   2.440   9.426 -0.1052  0.7051 -0.2521
 3817SOL    HW123084   2.596   2.364   9.374  1.4053 -0.4355  0.7070
 3817SOL    HW223085   2.705   2.413   9.461 -0.1913  0.3796 -0.3021
 3818SOL     OW23086   1.458   4.711   8.736 -0.0496  0.0166 -0.1983
 3818SOL    HW123087   1.429   4.645   8.673  0.7345  0.2908 -0.8312
 3818SOL    HW223088   1.447   4.679   8.826 -1.6384 -0.4513 -0.5520
 3819SOL     OW23089   3.415   1.580   5.799  0.7220 -0.0093 -0.3371
 3819SOL    HW123090   3.413   1.500   5.852 -0.9370 -0.7143 -1.4709
 3819SOL    HW223091   3.396   1.643   5.869 -0.0911 -0.5983 -0.0219
 3820SOL     OW23092   1.912   3.027   9.436 -0.7481  0.6095  0.2135
 3820SOL    HW123093   1.944   2.954   9.384 -1.5370  0.6367 -0.3229
 3820SOL    HW223094   1.835   2.984   9.475 -0.0922 -0.7059  0.0553
 3821SOL     OW23095   0.292   3.784   7.881  0.7917  0.6548  0.0906
 3821SOL    HW123096   0.365   3.737   7.920  1.7475  0.7894 -1.5294
 3821SOL    HW223097   0.336   3.869   7.882  1.2048  0.4455 -0.2773
 3822SOL     OW23098   0.436   1.293   3.969 -0.5962  0.4347 -0.0184
 3822SOL    HW123099   0.467   1.363   4.027  1.0575 -0.6976  0.4455
 3822SOL    HW223100   0.487   1.216   3.993 -3.0200 -1.5468 -1.1901
 3823SOL     OW23101   3.249   1.612   4.098  0.1690 -0.5427  0.3118
 3823SOL    HW123102   3.316   1.545   4.110  0.6874 -0.1104 -0.1040
 3823SOL    HW223103   3.261   1.647   4.186  0.3683  0.2284 -0.0148
 3824SOL     OW23104   3.216   0.591   6.707  0.7734 -0.0952  0.4097
 3824SOL    HW123105   3.299   0.543   6.695  1.7085  1.1936  1.7536
 3824SOL    HW223106   3.177   0.598   6.619 -1.2831 -2.9727  1.1090
 3825SOL     OW23107   4.158   2.489   8.359 -0.2483  0.2627  0.5135
 3825SOL    HW123108   4.241   2.448   8.383 -0.4137  0.7389  1.8535
 3825SOL    HW223109   4.160   2.484   8.263 -2.1585 -2.4008  0.6091
 3826SOL     OW23110   0.755   2.466  11.695  0.6417 -0.3192 -0.4031
 3826SOL    HW123111   0.811   2.503  11.763 -3.3048  1.0956  2.0183
 3826SOL    HW223112   0.761   2.371  11.709  0.7267 -0.3812 -0.8464
 3827SOL     OW23113   0.225   3.285   2.023  0.0004 -0.4955  0.1189
 3827SOL    HW123114   0.224   3.268   2.118 -3.0612 -0.6012  0.0866
 3827SOL    HW223115   0.221   3.380   2.028 -2.5766 -0.6501  1.1657
 3828SOL     OW23116   3.047   3.197  12.468 -0.1087  0.5636  0.6808
 3828SOL    HW123117   3.050   3.292  12.475 -1.3516  0.8281 -2.4977
 3828SOL    HW223118   2.978   3.183  12.403  0.6552  3.2455 -0.6975
 3829SOL     OW23119   2.410   4.558  16.880  0.4580  0.2124  0.3047
 3829SOL    HW123120   2.478   4.500  16.913 -0.4301 -1.0387 -0.0946
 3829SOL    HW223121   2.396   4.602  16.964  1.9578  1.5998 -0.1630
 3830SOL     OW23122   4.187   2.577  14.403  0.8460  0.1835 -0.0902
 3830SOL    HW123123   4.255   2.521  14.439 -1.2452 -1.1449  1.8561
 3830SOL    HW223124   4.237   2.657  14.418  0.1032  0.1233  2.8609
 3831SOL     OW23125   2.728   3.135   2.258  0.0923 -0.8521 -0.0202
 3831SOL    HW123126   2.806   3.079   2.265  0.5862 -0.0831  0.6830
 3831SOL    HW223127   2.738   3.196   2.331 -0.1220 -2.4003  1.3051
 3832SOL     OW23128   0.853   4.056   1.366  0.2763  0.2603 -0.8333
 3832SOL    HW123129   0.769   4.099   1.352  0.4297 -0.2348 -3.3207
 3832SOL    HW223130   0.909   4.130   1.392 -1.1249  1.0679 -0.1293
 3833SOL     OW23131   2.763   3.218  10.376 -0.2279 -0.1224 -0.2560
 3833SOL    HW123132   2.782   3.131  10.342 -1.1160 -0.5771  0.4039
 3833SOL    HW223133   2.775   3.270  10.297 -1.9353  0.5497 -0.0841
 3834SOL     OW23134   0.604   1.882   3.036  0.0663 -0.1090 -0.2730
 3834SOL    HW123135   0.544   1.809   3.023  0.8397 -0.3753 -2.4919
 3834SOL    HW223136   0.680   1.847   3.084 -0.1739  0.4940  0.5335
 3835SOL     OW23137   0.705   1.661   8.840 -0.1971 -0.0438  0.3123
 3835SOL    HW123138   0.749   1.579   8.820 -1.9256 -0.1568 -2.9940
 3835SOL    HW223139   0.780   1.715   8.816  0.1818 -1.5894 -1.9399
 3836SOL     OW23140   0.062   0.982  16.171  0.2516  0.8612  0.2278
 3836SOL    HW123141   0.104   1.058  16.131  0.7782 -0.7045 -2.2120
 3836SOL    HW223142   4.715   1.015  16.196 -1.1838 -1.6553 -1.4279
 3837SOL     OW23143   2.749   3.887   1.544  0.0995  0.3693  0.1152
 3837SOL    HW123144   2.826   3.942   1.529  0.9297 -1.5956 -2.9984
 3837SOL    HW223145   2.790   3.804   1.569 -1.0062 -0.4258 -0.7086
 3838SOL     OW23146   1.813   2.007   3.183  0.4081  0.4798 -0.1761
 3838SOL    HW123147   1.751   2.080   3.181  0.6665  0.7202  0.3785
 3838SOL    HW223148   1.798   1.983   3.274 -0.3971 -0.5788 -0.5945
 3839SOL     OW23149   3.583   1.596  11.555  0.2803 -0.5403  0.4300
 3839SOL    HW123150   3.526   1.519  11.549  0.5866 -0.7618  0.3734
 3839SOL    HW223151   3.665   1.569  11.515  0.1752  1.4303 -1.0880
 3840SOL     OW23152   0.387   2.264   7.983 -0.3624  0.3105 -0.0895
 3840SOL    HW123153   0.312   2.218   8.021 -1.4050  1.5770 -0.5616
 3840SOL    HW223154   0.347   2.259   7.896 -0.1135  0.1587 -0.1960
 3841SOL     OW23155   1.218   4.002   7.274  0.4723 -0.6168 -0.0373
 3841SOL    HW123156   1.239   3.911   7.254 -0.0887 -0.6245 -0.5882
 3841SOL    HW223157   1.131   3.998   7.234  1.2655  0.4224 -1.8888
 3842SOL     OW23158   1.415   4.685   8.382  0.6287 -0.1844  0.0191
 3842SOL    HW123159   1.470   0.013   8.343 -1.4119  0.9184 -0.9056
 3842SOL    HW223160   1.426   4.611   8.322  4.4434  3.2467 -3.4933
 3843SOL     OW23161   4.013   1.307  11.690 -0.3576 -0.1775 -0.3647
 3843SOL    HW123162   4.005   1.255  11.770 -1.3665  0.6998  0.0912
 3843SOL    HW223163   4.104   1.335  11.698  0.2081 -2.7662  2.4287
 3844SOL     OW23164   4.201   3.508   2.510  0.2239 -0.0995 -0.6133
 3844SOL    HW123165   4.175   3.598   2.528 -1.6239 -0.6045 -0.8068
 3844SOL    HW223166   4.112   3.474   2.518 -0.7118  2.5171 -0.1566
 3845SOL     OW23167   2.505   4.435  16.341  0.2941  0.3151 -1.0278
 3845SOL    HW123168   2.424   4.416  16.388  1.8728  0.3426  1.7121
 3845SOL    HW223169   2.476   4.471  16.257 -0.3831  2.0979 -0.0343
 3846SOL     OW23170   2.326   1.921  16.510 -0.4379  0.4755 -0.4102
 3846SOL    HW123171   2.400   1.883  16.559 -0.3611 -0.2957 -1.1221
 3846SOL    HW223172   2.338   1.865  16.433  0.3263 -2.1100  1.6084
 3847SOL     OW23173   2.306   3.666   4.020  0.4696  0.8757 -0.3133
 3847SOL    HW123174   2.398   3.654   4.044  0.0117 -0.6772  0.7481
 3847SOL    HW223175   2.286   3.578   3.987 -2.1950  1.2244  0.3721
 3848SOL     OW23176   0.773   3.036   2.107 -0.4102 -0.9176  0.3514
 3848SOL    HW123177   0.698   2.989   2.145 -0.6493 -0.4458  0.4662
 3848SOL    HW223178   0.721   3.117   2.106  3.7396  1.7194 -0.1245
 3849SOL     OW23179   1.918   0.244   2.126 -0.1303 -0.0155  0.6355
 3849SOL    HW123180   1.995   0.196   2.157 -0.0135 -0.4265 -0.2789
 3849SOL    HW223181   1.916   0.198   2.041  0.8157  1.0282  0.0440
 3850SOL     OW23182   0.977   1.765   5.883  0.3680  0.0064 -0.2386
 3850SOL    HW123183   0.980   1.754   5.978  2.5517  2.2353 -0.0564
 3850SOL    HW223184   1.066   1.756   5.849  0.6677  1.1814  0.2306
 3851SOL     OW23185   1.402   0.124  12.316 -0.3277 -0.6830  0.2744
 3851SOL    HW123186   1.490   0.162  12.316  0.2615 -2.0631  0.3261
 3851SOL    HW223187   1.360   0.182  12.380 -0.8624 -1.4097  0.5835
 3852SOL     OW23188   2.129   3.730   6.147  0.0862 -0.0494  0.1847
 3852SOL    HW123189   2.182   3.776   6.211  0.3845 -0.3759  0.1733
 3852SOL    HW223190   2.162   3.759   6.062  1.4033  0.3685  0.8397
 3853SOL     OW23191   0.183   4.147   4.365 -0.5657  0.4024 -0.5128
 3853SOL    HW123192   0.253   4.102   4.413 -1.8454 -0.5265  0.4602
 3853SOL    HW223193   0.186   4.099   4.282 -1.4799  1.2144 -1.0135
 3854SOL     OW23194   0.761   0.065   1.277 -0.2528 -0.2110  0.2206
 3854SOL    HW123195   0.784   0.137   1.218 -0.9992 -1.1687 -1.2576
 3854SOL    HW223196   0.846   0.020   1.275 -0.5283 -0.7287 -0.0086
 3855SOL     OW23197   2.728   1.054   0.524 -0.4163 -0.1585  0.3057
 3855SOL    HW123198   2.750   1.137   0.481 -0.9705 -1.2068 -1.9654
 3855SOL    HW223199   2.814   1.028   0.559 -0.4857  0.4375  0.9215
 3856SOL     OW23200   0.357   1.789   6.411  0.6127 -0.2413 -0.4577
 3856SOL    HW123201   0.274   1.830   6.386 -0.0184  0.3807  2.7172
 3856SOL    HW223202   0.409   1.808   6.333 -0.7079 -0.1370 -1.3218
 3857SOL     OW23203   0.036   2.265   9.264 -0.1315 -0.1850 -0.7890
 3857SOL    HW123204   0.106   2.247   9.327 -1.3572  0.2994  0.7038
 3857SOL    HW223205   4.732   2.180   9.272 -0.2302  0.0308  1.0971
 3858SOL     OW23206   2.169   4.355   4.727 -0.1109  0.2103 -0.4182
 3858SOL    HW123207   2.248   4.383   4.682 -0.0756  0.7509 -0.0247
 3858SOL    HW223208   2.171   4.261   4.714 -0.9900  0.4013 -1.8710
 3859SOL     OW23209   3.269   0.754  17.095  0.0959  0.0054 -0.0365
 3859SOL    HW123210   3.292   0.682  17.036  0.1433  0.6411 -0.7923
 3859SOL    HW223211   3.242   0.706  17.173  0.3289 -1.1207 -0.6503
 3860SOL     OW23212   4.252   1.459  14.130 -0.3309  0.6695 -0.1059
 3860SOL    HW123213   4.296   1.396  14.186 -1.0905  0.9416  0.7889
 3860SOL    HW223214   4.327   1.500  14.085  0.3479 -0.5268 -0.0590
 3861SOL     OW23215   3.615   0.114   8.102  0.1506 -0.2208  0.3039
 3861SOL    HW123216   3.616   0.197   8.055 -0.8809  0.0921  0.8254
 3861SOL    HW223217   3.550   0.069   8.047  0.8114 -1.6459  0.7026
 3862SOL     OW23218   1.659   0.142   2.295  0.4740  0.1716 -1.0095
 3862SOL    HW123219   1.618   0.182   2.372  1.2001 -1.4244  0.2209
 3862SOL    HW223220   1.713   0.214   2.264  1.1171  0.5759  1.0235
 3863SOL     OW23221   2.307   0.448  12.486 -0.1274  0.2459  0.0314
 3863SOL    HW123222   2.214   0.469  12.491  0.2221  1.2821  2.3966
 3863SOL    HW223223   2.314   0.356  12.513 -3.9187  0.2009  0.8967
 3864SOL     OW23224   0.238   2.143   5.744 -0.1960 -0.3347 -0.1151
 3864SOL    HW123225   0.289   2.188   5.676  0.7766  0.0122  0.8421
 3864SOL    HW223226   0.285   2.172   5.822  2.0490  0.4407 -1.7621
 3865SOL     OW23227   4.238   2.722   9.145 -0.7041  0.2598 -0.5606
 3865SOL    HW123228   4.171   2.696   9.081  0.7459 -0.3900 -1.8125
 3865SOL    HW223229   4.261   2.632   9.170  0.3925  0.7514  0.1876
 3866SOL     OW23230   4.149   0.875   6.539 -0.7192  0.2039 -0.3337
 3866SOL    HW123231   4.177   0.863   6.448 -0.1954 -0.9261 -0.0208
 3866SOL    HW223232   4.107   0.961   6.527 -0.5311  0.0518 -2.1462
 3867SOL     OW23233   3.643   2.125  15.470  0.2997  0.4166 -0.3455
 3867SOL    HW123234   3.580   2.066  15.428 -0.0646 -0.2253  1.0965
 3867SOL    HW223235   3.664   2.166  15.386  0.4082 -1.2732 -1.1416
 3868SOL     OW23236   3.021   1.778  10.080  0.1042 -0.0880  0.4415
 3868SOL    HW123237   3.066   1.694  10.073 -0.7459 -0.5545  0.5071
 3868SOL    HW223238   2.932   1.752  10.103 -0.4952  2.1302  0.6705
 3869SOL     OW23239   1.811   0.596   5.110  0.0268  0.6584  0.3820
 3869SOL    HW123240   1.797   0.656   5.184 -0.2419  1.0883 -0.0174
 3869SOL    HW223241   1.764   0.515   5.132 -0.7495  0.4955 -1.8955
 3870SOL     OW23242   4.428   1.442   7.428 -0.0031 -0.3759 -0.0590
 3870SOL    HW123243   4.495   1.382   7.395  0.7707  1.6363 -2.1293
 3870SOL    HW223244   4.354   1.412   7.375 -0.7684 -0.4320  1.0194
 3871SOL     OW23245   0.881   3.435   6.445  0.1977 -0.3226  0.3607
 3871SOL    HW123246   0.819   3.375   6.486 -2.5867  1.2508 -1.5766
 3871SOL    HW223247   0.916   3.485   6.520 -2.0771 -0.1377  1.2935
 3872SOL     OW23248   3.025   0.103   9.520  0.3680  0.2600 -0.0574
 3872SOL    HW123249   3.017   0.198   9.512  0.5112  0.1965 -0.9418
 3872SOL    HW223250   3.111   0.092   9.479  0.9263  1.7465  0.7200
 3873SOL     OW23251   4.554   4.592   2.226  0.4627 -0.0311 -0.2958
 3873SOL    HW123252   4.549   4.676   2.181 -0.4368  0.7988  1.3409
 3873SOL    HW223253   4.589   4.533   2.160 -1.6662 -0.7861 -0.7584
 3874SOL     OW23254   1.972   1.443   9.045  0.1010  0.0440  0.3924
 3874SOL    HW123255   1.993   1.490   8.964  0.2697  1.7978  1.4378
 3874SOL    HW223256   1.883   1.413   9.029  0.4961 -0.9937  0.1542
 3875SOL     OW23257   1.751   4.162   6.531 -0.3500  0.1258 -0.0385
 3875SOL    HW123258   1.841   4.137   6.512  0.6016  0.8981  3.4130
 3875SOL    HW223259   1.759   4.200   6.618 -1.1503 -1.0231  0.5447
 3876SOL     OW23260   1.709   3.008   2.089  0.3148 -0.1486  0.1307
 3876SOL    HW123261   1.707   3.086   2.143  0.2102 -0.5582  0.7214
 3876SOL    HW223262   1.741   2.942   2.150 -1.3896 -1.2315 -0.1474
 3877SOL     OW23263   1.706   0.017  16.460 -0.0779  0.4153  0.0196
 3877SOL    HW123264   1.721   4.727  16.370 -1.5391  2.1059 -0.7932
 3877SOL    HW223265   1.771   0.086  16.473 -0.0978  0.5516 -0.5945
 3878SOL     OW23266   0.570   0.409   2.806  0.0395  0.1533  0.0656
 3878SOL    HW123267   0.486   0.454   2.814  0.7113  1.2134  1.2862
 3878SOL    HW223268   0.539   0.324   2.838  2.3324 -0.5904  0.3346
 3879SOL     OW23269   3.560   3.969   2.748 -0.0194 -0.2090 -0.8184
 3879SOL    HW123270   3.506   4.015   2.683 -0.2306 -0.3712 -0.7573
 3879SOL    HW223271   3.644   4.004   2.719  0.0266 -0.5164 -1.0531
 3880SOL     OW23272   4.127   3.786   8.206  0.3251 -0.0395 -0.0525
 3880SOL    HW123273   4.181   3.783   8.285 -1.2469  0.7128  1.0520
 3880SOL    HW223274   4.067   3.714   8.227  1.7111 -1.9642 -2.6766
 3881SOL     OW23275   1.671   4.162   3.485 -0.0168 -0.0681 -0.2415
 3881SOL    HW123276   1.760   4.138   3.512  0.3607 -0.2364 -1.6190
 3881SOL    HW223277   1.622   4.107   3.546  0.0352  2.1711  1.8145
 3882SOL     OW23278   3.913   2.592   8.993  0.2468 -0.2843 -0.7409
 3882SOL    HW123279   3.912   2.597   9.088  1.9533  2.2053 -0.8517
 3882SOL    HW223280   3.866   2.673   8.974  0.2906  0.0800  0.7200
 3883SOL     OW23281   3.421   2.644   4.275 -0.0162 -0.1392 -0.7326
 3883SOL    HW123282   3.344   2.647   4.331  0.9430 -1.5261  0.6655
 3883SOL    HW223283   3.384   2.608   4.194 -2.5662  0.7164  0.0622
 3884SOL     OW23284   2.267   4.448   8.007 -0.0719 -0.9717  0.0465
 3884SOL    HW123285   2.249   4.407   7.923 -0.8818  0.4713 -0.4818
 3884SOL    HW223286   2.222   4.532   7.996 -0.6766 -1.3285 -0.1819
 3885SOL     OW23287   0.442   1.573   3.288 -0.8721  0.2523  0.1213
 3885SOL    HW123288   0.390   1.616   3.355 -0.2921 -1.6196  1.7503
 3885SOL    HW223289   0.531   1.604   3.307 -1.3069  1.6638 -0.1408
 3886SOL     OW23290   2.240   3.128   1.981  0.2729  0.0577 -0.2923
 3886SOL    HW123291   2.314   3.129   2.042  0.2333 -0.4424 -0.2371
 3886SOL    HW223292   2.269   3.071   1.911 -1.8213 -1.3211 -0.0405
 3887SOL     OW23293   2.219   4.601   4.933  0.8165  0.1410 -0.5695
 3887SOL    HW123294   2.208   4.661   4.859  0.0059  0.2164 -0.3966
 3887SOL    HW223295   2.259   4.664   4.994  3.7554  1.1873 -3.5860
 3888SOL     OW23296   3.411   3.671   7.688  0.3780 -0.0165 -0.5963
 3888SOL    HW123297   3.500   3.649   7.717 -0.7875 -1.2069  2.0876
 3888SOL    HW223298   3.352   3.656   7.761  0.4336 -1.7196 -0.8810
 3889SOL     OW23299   2.707   1.760   4.084  0.3110 -0.0332  1.1195
 3889SOL    HW123300   2.688   1.715   4.166 -0.6736 -0.8553  0.4389
 3889SOL    HW223301   2.780   1.815   4.115  0.4602  0.3313  0.1144
 3890SOL     OW23302   4.277   1.990   2.495 -0.5687 -0.1022  0.2813
 3890SOL    HW123303   4.300   2.062   2.554  1.7365 -0.0970 -0.6311
 3890SOL    HW223304   4.232   1.929   2.554  0.4196  0.4979  1.6698
 3891SOL     OW23305   1.002   3.509   5.582  0.4210  0.3310  0.0788
 3891SOL    HW123306   1.029   3.584   5.634  1.6016  0.1287 -0.2415
 3891SOL    HW223307   0.924   3.476   5.627  0.3351  0.0722 -0.2543
 3892SOL     OW23308   2.481   0.864  12.260 -0.0547 -0.1021  0.0735
 3892SOL    HW123309   2.522   0.912  12.332 -0.7854 -0.5564  0.7937
 3892SOL    HW223310   2.476   0.773  12.289  0.4376 -0.3162 -0.5162
 3893SOL     OW23311   0.403   3.244   8.626 -0.8579  0.2065 -0.0752
 3893SOL    HW123312   0.344   3.177   8.660 -0.6460  0.4902  0.8593
 3893SOL    HW223313   0.339   3.304   8.589 -1.7696 -0.0370  1.0912
 3894SOL     OW23314   2.059   0.223   7.858 -0.5793 -0.5637 -0.1531
 3894SOL    HW123315   2.127   0.198   7.794 -0.7910  2.5692 -1.5820
 3894SOL    HW223316   2.116   0.253   7.928 -1.8248  0.1137  0.5622
 3895SOL     OW23317   2.795   4.168   7.884 -0.2611  0.5619 -0.0565
 3895SOL    HW123318   2.799   4.073   7.893 -2.1799  0.3176 -1.9912
 3895SOL    HW223319   2.794   4.184   7.790 -1.7441  1.1346  0.0555
 3896SOL     OW23320   4.096   2.756   8.150  0.0126  0.0156  0.0843
 3896SOL    HW123321   4.042   2.751   8.071  1.1181 -0.4977 -0.6360
 3896SOL    HW223322   4.113   2.662   8.154 -2.7358 -0.6313 -2.7405
 3897SOL     OW23323   2.593   0.309   4.940  0.4082  0.6279 -0.2378
 3897SOL    HW123324   2.543   0.232   4.917 -0.2729  0.8229  0.6006
 3897SOL    HW223325   2.623   0.303   5.031 -1.2989 -0.1043  0.2614
 3898SOL     OW23326   4.286   2.212   5.338  0.5315  0.4137 -0.5589
 3898SOL    HW123327   4.265   2.129   5.296 -1.4476  2.6491 -4.0261
 3898SOL    HW223328   4.263   2.190   5.428  0.8129 -0.2293 -0.6487
 3899SOL     OW23329   4.633   1.576   8.629 -0.4930  0.2398  0.4750
 3899SOL    HW123330   4.714   1.626   8.635 -1.6638  1.9846  1.8613
 3899SOL    HW223331   4.565   1.638   8.655 -0.5607  0.2804  0.2075
 3900SOL     OW23332   0.154   4.476  14.471  0.3142  0.1286  0.0422
 3900SOL    HW123333   0.086   4.509  14.412  0.9099 -0.8379 -1.2018
 3900SOL    HW223334   0.196   4.559  14.492  1.6044 -1.2331  2.8176
 3901SOL     OW23335   2.982   3.399   4.592  0.1762  0.4257 -0.3520
 3901SOL    HW123336   2.906   3.456   4.587 -0.5111 -0.7631 -3.1143
 3901SOL    HW223337   3.054   3.462   4.603  0.5984 -0.1417  0.1623
 3902SOL     OW23338   2.155   4.007  15.769  0.7144 -0.5097  0.3015
 3902SOL    HW123339   2.205   3.953  15.830  0.7318 -1.6614 -0.7304
 3902SOL    HW223340   2.169   4.100  15.786 -1.0731 -0.2971  0.6441
 3903SOL     OW23341   3.506   3.602  15.886  0.2765  0.1230  0.0298
 3903SOL    HW123342   3.500   3.596  15.791  0.6526 -0.8486  0.0612
 3903SOL    HW223343   3.554   3.684  15.899  1.9959 -0.9550  0.5676
 3904SOL     OW23344   2.266   3.584   5.347 -0.2440  0.0723 -0.1292
 3904SOL    HW123345   2.264   3.526   5.271 -1.8714 -2.0004  1.5062
 3904SOL    HW223346   2.344   3.637   5.331  0.1399 -0.3558  0.3523
 3905SOL     OW23347   0.644   0.874   8.203  0.5969  0.4445  0.1700
 3905SOL    HW123348   0.730   0.846   8.234  1.0501  0.5853 -0.9571
 3905SOL    HW223349   0.663   0.897   8.112  0.5159  1.7678  0.5020
 3906SOL     OW23350   4.524   4.182  11.526  0.3196 -0.4571  0.4724
 3906SOL    HW123351   4.511   4.109  11.465 -2.4729  0.9530 -0.6148
 3906SOL    HW223352   4.536   4.131  11.606 -0.4788  2.1503  2.2232
 3907SOL     OW23353   3.694   4.611   1.499  0.1416  0.3658 -0.2999
 3907SOL    HW123354   3.659   4.626   1.586 -0.8986 -2.1876 -0.3139
 3907SOL    HW223355   3.785   4.623   1.526  0.1926  1.7481 -1.0338
 3908SOL     OW23356   3.153   4.231   5.199  0.0094 -0.0636  0.2637
 3908SOL    HW123357   3.163   4.138   5.218  2.5286  0.3502  1.0208
 3908SOL    HW223358   3.205   4.264   5.273 -0.1997 -1.2334  0.9313
 3909SOL     OW23359   2.012   2.018   9.431 -0.4883 -0.4485  0.0857
 3909SOL    HW123360   2.052   2.094   9.475 -0.4034 -1.1312  1.2003
 3909SOL    HW223361   1.999   2.054   9.344 -1.8624  0.5608  0.7067
 3910SOL     OW23362   4.342   1.368   6.101  0.0309  0.1074  0.4039
 3910SOL    HW123363   4.277   1.305   6.131  0.5251 -0.0634  1.1385
 3910SOL    HW223364   4.374   1.402   6.185 -1.7800 -0.7338  1.4314
 3911SOL     OW23365   0.096   4.563   9.650  0.5125  0.3198 -0.3048
 3911SOL    HW123366   0.126   4.611   9.727 -2.7203 -0.2088  1.2729
 3911SOL    HW223367   0.085   4.640   9.595 -2.3138  0.1518  0.0260
 3912SOL     OW23368   2.419   0.213   6.689  0.1766  0.1730  0.3676
 3912SOL    HW123369   2.438   0.287   6.746  0.2579 -1.0945  1.9893
 3912SOL    HW223370   2.439   0.137   6.744  0.0830  0.3107  0.5911
 3913SOL     OW23371   2.865   3.523   6.107 -0.1817  0.4054  0.3423
 3913SOL    HW123372   2.787   3.468   6.104 -0.0766  0.2881 -0.1549
 3913SOL    HW223373   2.827   3.594   6.159 -1.4735  0.8766 -1.2494
 3914SOL     OW23374   4.419   2.685   6.944  0.1391  0.1224  0.4946
 3914SOL    HW123375   4.352   2.640   6.893  0.8898 -0.3221 -0.1092
 3914SOL    HW223376   4.354   2.731   6.997 -1.6717 -2.0748  0.1643
 3915SOL     OW23377   1.730   3.056   1.044  0.0240  0.6869  0.5372
 3915SOL    HW123378   1.728   3.148   1.071  1.1266  0.8605  0.0289
 3915SOL    HW223379   1.720   3.066   0.949  0.2152  1.1105  0.5633
 3916SOL     OW23380   3.521   1.097  11.875  0.3606  0.2425 -0.2457
 3916SOL    HW123381   3.523   1.098  11.971  0.1143 -1.0647 -0.2246
 3916SOL    HW223382   3.475   1.176  11.846 -4.1828 -2.7961 -1.3905
 3917SOL     OW23383   0.135   3.205   1.389 -0.1431 -0.2913  0.0267
 3917SOL    HW123384   0.205   3.238   1.447 -0.7418  1.0508 -0.0229
 3917SOL    HW223385   0.062   3.264   1.402  0.1681  0.1647 -0.2809
 3918SOL     OW23386   2.541   3.837   2.394 -0.4487  0.9650  0.6462
 3918SOL    HW123387   2.543   3.914   2.451  0.1743  1.6256 -0.2842
 3918SOL    HW223388   2.474   3.785   2.440 -0.4734  0.7814  0.4016
 3919SOL     OW23389   2.884   3.881  10.315 -0.5392 -0.3297  0.9582
 3919SOL    HW123390   2.800   3.840  10.294  0.5154 -1.0796 -1.8106
 3919SOL    HW223391   2.862   3.924  10.397  1.4921  0.8729  0.8554
 3920SOL     OW23392   4.530   1.569   4.625  0.0762 -0.7954 -0.4210
 3920SOL    HW123393   4.566   1.633   4.563 -1.5958  0.5808  0.0283
 3920SOL    HW223394   4.580   1.495   4.590  1.5647  0.1430 -0.3015
 3921SOL     OW23395   3.986   1.765   7.625  0.0874  0.4973 -0.6565
 3921SOL    HW123396   3.931   1.810   7.689 -0.9265 -1.8276  0.0853
 3921SOL    HW223397   4.036   1.706   7.681 -2.3852 -1.2288 -0.2682
 3922SOL     OW23398   2.125   1.535   6.033 -0.0152  0.3246  0.1532
 3922SOL    HW123399   2.186   1.599   6.071 -1.0272  0.0735  2.2486
 3922SOL    HW223400   2.176   1.516   5.955  1.0683 -1.8874  1.3928
 3923SOL     OW23401   4.732   0.381   3.863  1.0607  0.4714  0.3025
 3923SOL    HW123402   0.064   0.422   3.912  1.5564  2.0544 -1.7822
 3923SOL    HW223403   4.694   0.455   3.815  0.9223 -0.1409 -0.5269
 3924SOL     OW23404   2.153   3.002   7.135  0.2902  0.0150 -0.2156
 3924SOL    HW123405   2.083   2.975   7.075  0.9404 -1.1566 -0.4396
 3924SOL    HW223406   2.155   2.930   7.198  2.7854  1.8645  1.8088
 3925SOL     OW23407   4.737   2.670  11.744  0.4391 -0.3683  0.0835
 3925SOL    HW123408   0.074   2.682  11.688 -0.9899 -0.5799 -1.9211
 3925SOL    HW223409   4.701   2.757  11.759  1.0567  0.3260 -2.5568
 3926SOL     OW23410   2.859   4.199  17.277  0.5507  0.2617 -0.4893
 3926SOL    HW123411   2.775   4.181  17.235  0.6023  0.2983 -0.6091
 3926SOL    HW223412   2.893   4.111  17.294 -1.0070 -0.1709  0.3590
 3927SOL     OW23413   2.191   3.197  17.643  0.3949 -0.1489 -0.5849
 3927SOL    HW123414   2.248   3.122  17.660  0.0160  0.3829  3.0749
 3927SOL    HW223415   2.263   3.260  17.643 -0.1072  0.4257  3.3543
 3928SOL     OW23416   3.691   3.388  10.812  0.1637  0.0433  0.0973
 3928SOL    HW123417   3.713   3.306  10.856 -0.0980 -0.0071  0.1332
 3928SOL    HW223418   3.666   3.444  10.886  1.1023 -0.8957  1.1267
 3929SOL     OW23419   2.736   1.091   4.582  0.2352  0.3689 -0.2037
 3929SOL    HW123420   2.662   1.128   4.630  0.5675 -1.0811  1.4269
 3929SOL    HW223421   2.802   1.088   4.651 -0.0348 -0.1064  0.0361
 3930SOL     OW23422   3.979   3.566  10.947 -0.0429  0.1603 -0.7152
 3930SOL    HW123423   4.071   3.569  10.920 -0.1083  0.5623 -0.8920
 3930SOL    HW223424   3.936   3.535  10.867  1.9356 -1.6161 -1.1108
 3931SOL     OW23425   0.772   3.046   9.158  0.0716  0.3451 -0.1613
 3931SOL    HW123426   0.778   3.137   9.186  3.1400  0.3389 -0.7941
 3931SOL    HW223427   0.793   3.009   9.243  0.9549  0.4159 -0.3504
 3932SOL     OW23428   0.579   3.272   2.065 -0.1827 -0.0518  0.0163
 3932SOL    HW123429   0.613   3.354   2.099 -0.9797  0.2241  0.1562
 3932SOL    HW223430   0.520   3.313   2.001 -0.6764  1.5691  1.5232
 3933SOL     OW23431   1.738   3.490  17.710 -0.4779 -0.0002 -0.1705
 3933SOL    HW123432   1.834   3.483  17.713 -0.4867  0.1930  0.5794
 3933SOL    HW223433   1.720   3.469  17.618 -0.7039 -0.7375  0.0437
 3934SOL     OW23434   0.172   3.801   3.910 -0.8872 -0.9565  0.1131
 3934SOL    HW123435   0.265   3.817   3.923 -1.2605  1.2688  0.0033
 3934SOL    HW223436   0.133   3.888   3.920  2.1996  0.0635  3.1108
 3935SOL     OW23437   1.806   1.852   5.538  0.0949 -0.1138  0.1986
 3935SOL    HW123438   1.798   1.939   5.578  0.4598 -0.8858  1.9674
 3935SOL    HW223439   1.870   1.881   5.473 -0.3321  2.6369  1.0085
 3936SOL     OW23440   4.338   4.655   3.573 -0.3337 -0.1004 -0.3468
 3936SOL    HW123441   4.326   4.588   3.641 -3.1633  0.1422 -0.5974
 3936SOL    HW223442   4.380   4.603   3.505 -1.7624 -1.4580 -0.1982
 3937SOL     OW23443   3.281   2.368   7.673  0.5202 -0.1013 -0.1573
 3937SOL    HW123444   3.227   2.310   7.726  1.0147 -0.6900 -0.2909
 3937SOL    HW223445   3.253   2.457   7.691 -0.6801 -1.2163  3.4178
 3938SOL     OW23446   4.080   1.241  13.996  0.0724  0.9029 -0.3078
 3938SOL    HW123447   4.040   1.317  14.038  2.2899  2.6838 -1.4478
 3938SOL    HW223448   4.149   1.285  13.946  2.0759  0.8845  2.4296
 3939SOL     OW23449   2.722   2.156  13.194  0.3385 -0.1344 -0.2405
 3939SOL    HW123450   2.732   2.211  13.117 -1.8832  0.0036 -0.4444
 3939SOL    HW223451   2.659   2.210  13.242  0.9986 -0.0912  0.5728
 3940SOL     OW23452   2.416   3.613   1.647 -0.2239  0.4356 -0.5758
 3940SOL    HW123453   2.440   3.661   1.568  1.0722 -0.7021 -0.8870
 3940SOL    HW223454   2.466   3.652   1.719 -1.6187 -0.3841  0.8322
 3941SOL     OW23455   1.269   1.488   4.964 -0.0095 -0.8741 -0.3362
 3941SOL    HW123456   1.220   1.565   4.934 -0.6767 -0.2199  2.4787
 3941SOL    HW223457   1.306   1.469   4.878 -1.3687 -0.8356 -0.9252
 3942SOL     OW23458   1.670   3.839  11.866  0.7588  0.0928 -0.5492
 3942SOL    HW123459   1.704   3.785  11.937  0.6640  1.8225  0.7831
 3942SOL    HW223460   1.638   3.913  11.916  1.8837  2.0955 -2.7863
 3943SOL     OW23461   2.735   2.541  14.970 -0.5864  0.1426 -0.1875
 3943SOL    HW123462   2.658   2.596  14.988 -1.1061  0.1939 -2.5364
 3943SOL    HW223463   2.740   2.494  15.053 -0.5837  2.6658  1.2418
 3944SOL     OW23464   2.763   1.135   6.603  0.0173 -0.2011  0.2938
 3944SOL    HW123465   2.745   1.222   6.639  1.2298  1.1193 -2.3013
 3944SOL    HW223466   2.803   1.150   6.517  0.4179 -3.5227 -0.1066
 3945SOL     OW23467   4.593   1.336   5.479  0.2996  0.4435 -0.8951
 3945SOL    HW123468   4.632   1.257   5.516  1.4257  0.5786 -1.7913
 3945SOL    HW223469   4.567   1.312   5.390 -0.7199 -1.0125 -0.1971
 3946SOL     OW23470   2.017   1.211   9.226 -0.0618  0.2991 -0.1191
 3946SOL    HW123471   2.110   1.195   9.207  0.4985  1.2396  1.8011
 3946SOL    HW223472   1.984   1.269   9.157 -2.5677 -2.3373 -1.1033
 3947SOL     OW23473   0.498   1.295  14.454 -0.6864 -0.0547  0.2713
 3947SOL    HW123474   0.554   1.298  14.531 -0.9022  1.6155  0.3647
 3947SOL    HW223475   0.442   1.373  14.455  0.5848  0.7877  5.4346
 3948SOL     OW23476   2.000   3.556  13.178  0.2989  0.2375 -0.4947
 3948SOL    HW123477   2.083   3.587  13.142  1.2866 -0.7849  0.8962
 3948SOL    HW223478   2.036   3.534  13.264  2.7982  0.7422 -1.4051
 3949SOL     OW23479   0.414   0.165   1.077 -0.0311  0.0487  0.2930
 3949SOL    HW123480   0.360   0.130   1.005 -0.6128  1.4261  0.0724
 3949SOL    HW223481   0.474   0.091   1.086  0.6080  0.8362  2.3373
 3950SOL     OW23482   4.070   1.383   5.445  0.2030  0.4265 -0.3066
 3950SOL    HW123483   4.117   1.435   5.509  0.5369  1.7761 -1.6488
 3950SOL    HW223484   3.976   1.395   5.461  0.0827 -0.9656  0.0513
 3951SOL     OW23485   3.548   1.292   7.426  0.3495  0.1820 -0.0800
 3951SOL    HW123486   3.563   1.305   7.333 -0.0491 -0.1311 -0.1909
 3951SOL    HW223487   3.577   1.376   7.459 -1.6362  0.9904 -0.3758
 3952SOL     OW23488   4.404   1.457  11.483  0.5256 -0.1200 -0.1416
 3952SOL    HW123489   4.444   1.377  11.450 -2.2285 -1.7853  0.5913
 3952SOL    HW223490   4.478   1.518  11.482 -0.3209  0.9724  2.0791
 3953SOL     OW23491   1.016   1.817   8.068 -0.2066 -0.0531 -0.7814
 3953SOL    HW123492   0.956   1.891   8.082  0.6191  0.8645 -2.1103
 3953SOL    HW223493   1.019   1.810   7.972  0.3067 -1.6097 -0.6407
 3954SOL     OW23494   3.927   4.391   9.850  0.1462  0.6213 -0.4844
 3954SOL    HW123495   3.954   4.337   9.924  1.3943  1.0209 -0.6629
 3954SOL    HW223496   3.956   4.477   9.880  2.2607  0.0235 -0.8178
 3955SOL     OW23497   0.982   0.828   8.424  0.4261  0.0288 -0.3197
 3955SOL    HW123498   0.993   0.898   8.359  0.1670 -1.3087 -1.8091
 3955SOL    HW223499   0.944   0.762   8.365 -1.3516  1.3810 -0.6979
 3956SOL     OW23500   0.686   2.890   7.672  0.4946  0.3372 -0.1418
 3956SOL    HW123501   0.616   2.955   7.666 -0.5017 -0.9273 -2.2158
 3956SOL    HW223502   0.639   2.829   7.729  2.8115 -0.1198  1.2392
 3957SOL     OW23503   2.701   2.170   8.452  0.1989 -0.0077 -0.3346
 3957SOL    HW123504   2.688   2.256   8.411  2.7896  0.4385 -0.2416
 3957SOL    HW223505   2.686   2.202   8.540 -2.4675  1.8151 -1.4818
 3958SOL     OW23506   0.140   1.649   6.792 -0.2403  0.4057  0.8164
 3958SOL    HW123507   0.076   1.584   6.762 -0.1758  0.4884  0.5038
 3958SOL    HW223508   0.202   1.658   6.720 -0.4959 -1.6745  0.3285
 3959SOL     OW23509   4.332   3.945   3.044  0.0703 -0.5638 -0.4066
 3959SOL    HW123510   4.316   3.876   2.980  2.5954 -3.5484  2.1470
 3959SOL    HW223511   4.418   3.926   3.082 -0.5937  0.0008  1.3725
 3960SOL     OW23512   4.028   2.981   6.960  1.0107 -0.5942  0.0154
 3960SOL    HW123513   3.934   3.000   6.964  1.5669  1.6384  2.5380
 3960SOL    HW223514   4.068   3.044   7.020 -3.3284  1.3338  0.9058
 3961SOL     OW23515   2.220   1.430   2.275 -0.5993  0.1453  0.0902
 3961SOL    HW123516   2.157   1.488   2.232 -0.0952 -0.9389 -2.1307
 3961SOL    HW223517   2.296   1.488   2.281 -0.3316 -0.1459 -0.4273
 3962SOL     OW23518   3.397   3.824   4.658 -0.0366 -0.2929  0.4074
 3962SOL    HW123519   3.408   3.918   4.640 -2.1176 -0.1383 -0.0971
 3962SOL    HW223520   3.361   3.795   4.574  0.7276 -1.1536  0.3870
 3963SOL     OW23521   2.516   1.937   2.428 -0.3773  0.7137 -0.1059
 3963SOL    HW123522   2.602   1.902   2.450 -0.2084  0.1716 -1.5876
 3963SOL    HW223523   2.518   1.931   2.332 -0.9985  2.3565 -0.2159
 3964SOL     OW23524   1.065   1.863   2.391 -0.7213 -0.2112  0.2755
 3964SOL    HW123525   0.990   1.923   2.390 -0.5007  0.0868  1.7191
 3964SOL    HW223526   1.013   1.785   2.370 -0.2595 -0.7828  1.2576
 3965SOL     OW23527   4.299   0.127   0.342  0.1169 -0.1147  0.0436
 3965SOL    HW123528   4.274   0.040   0.372  0.4741 -0.3428 -0.3117
 3965SOL    HW223529   4.299   0.182   0.420  0.8924 -0.7109  0.4703
 3966SOL     OW23530   2.503   4.107   7.135  0.0246  0.7701  0.3654
 3966SOL    HW123531   2.505   4.124   7.229 -0.8631  0.8610  0.3669
 3966SOL    HW223532   2.413   4.076   7.128  0.0976  0.2511  1.7699
 3967SOL     OW23533   4.650   0.597   3.719 -0.2863 -0.2185 -0.2566
 3967SOL    HW123534   4.722   0.608   3.657  0.4285 -1.0694  0.4169
 3967SOL    HW223535   4.600   0.679   3.721  1.1635  0.6616  0.6663
 3968SOL     OW23536   0.562   4.490   5.415  0.0912 -0.1905 -0.4445
 3968SOL    HW123537   0.612   4.453   5.343 -0.0768 -0.4716 -0.4175
 3968SOL    HW223538   0.488   4.431   5.428  1.2951 -1.4469  0.7826
 3969SOL     OW23539   1.970   2.044   1.701  0.0820 -0.0412  0.8645
 3969SOL    HW123540   2.056   2.076   1.728 -0.3521  3.1432 -1.4664
 3969SOL    HW223541   1.988   1.980   1.632 -0.4346  0.8197 -0.0811
 3970SOL     OW23542   4.426   0.628   7.620  0.3653 -0.3610 -0.5833
 3970SOL    HW123543   4.399   0.667   7.537 -0.8973 -0.4866 -0.2365
 3970SOL    HW223544   4.434   0.534   7.603 -2.2383 -0.8551  0.9380
 3971SOL     OW23545   3.405   1.715   9.985  0.5308 -0.1273  0.1367
 3971SOL    HW123546   3.488   1.739  10.025  2.0799 -0.8634 -2.6254
 3971SOL    HW223547   3.405   1.619   9.995  1.4566  0.1321  2.7286
 3972SOL     OW23548   2.235   1.008   9.386 -0.1484 -0.2662  0.3199
 3972SOL    HW123549   2.296   1.064   9.338  1.5043 -1.1045  1.4526
 3972SOL    HW223550   2.208   0.954   9.312  1.6987 -1.0498  0.2158
 3973SOL     OW23551   2.976   1.341   7.729 -0.0342  0.0320 -0.2569
 3973SOL    HW123552   3.064   1.377   7.738 -0.2577  0.1052  1.5682
 3973SOL    HW223553   2.987   1.247   7.721  1.9809  0.2713 -0.2902
 3974SOL     OW23554   0.021   2.293   4.757  0.2306 -0.2770 -0.8031
 3974SOL    HW123555   0.042   2.377   4.799 -1.6198 -0.0768 -0.2753
 3974SOL    HW223556   0.008   2.242   4.837  1.7570  1.1140  0.3503
 3975SOL     OW23557   0.580   1.682  10.928 -0.3183  0.1556 -0.3446
 3975SOL    HW123558   0.583   1.703  11.022  2.1355 -1.3133 -0.0845
 3975SOL    HW223559   0.500   1.722  10.896 -0.4349 -1.3137 -1.8936
 3976SOL     OW23560   1.222   2.351   8.897 -0.9685  0.5373 -0.2745
 3976SOL    HW123561   1.318   2.354   8.904 -1.0546 -0.7621  1.4611
 3976SOL    HW223562   1.193   2.352   8.988 -0.8381  2.9652 -0.2680
 3977SOL     OW23563   2.208   0.169  17.064 -0.2431 -0.5229  0.1607
 3977SOL    HW123564   2.170   0.181  16.977  1.1188  0.5567 -0.2706
 3977SOL    HW223565   2.128   0.141  17.110  0.5658 -2.7445  0.1900
 3978SOL     OW23566   2.844   3.894   4.710 -0.0425  0.3067  0.6637
 3978SOL    HW123567   2.815   3.977   4.748 -0.3220 -0.0197  1.1498
 3978SOL    HW223568   2.937   3.917   4.703  0.6736 -3.0518 -0.8580
 3979SOL     OW23569   2.820   1.767   3.131  0.6340 -0.3722 -0.2560
 3979SOL    HW123570   2.893   1.792   3.075  0.2266 -1.8178 -1.4301
 3979SOL    HW223571   2.749   1.790   3.071  1.2900  0.9491 -0.5348
 3980SOL     OW23572   0.302   0.512   2.743  0.1584  0.0291  0.5365
 3980SOL    HW123573   0.243   0.438   2.756  1.1797 -1.0417 -0.8422
 3980SOL    HW223574   0.241   0.581   2.717 -0.1545 -1.7742 -3.5486
 3981SOL     OW23575   0.724   0.721   4.501 -0.0297  0.2371  0.3762
 3981SOL    HW123576   0.670   0.753   4.428  1.2023 -2.6298 -1.7985
 3981SOL    HW223577   0.788   0.666   4.456  0.7915  0.3817  1.3933
 3982SOL     OW23578   0.379   1.816  11.771  0.1826 -0.0044 -0.7090
 3982SOL    HW123579   0.303   1.798  11.826  0.4238 -1.5409 -0.8939
 3982SOL    HW223580   0.434   1.846  11.844 -2.0847  1.2028  0.4858
 3983SOL     OW23581   1.798   2.757   5.298  0.0071  0.4793 -0.2064
 3983SOL    HW123582   1.818   2.706   5.220 -1.1591 -1.7603  0.9415
 3983SOL    HW223583   1.886   2.772   5.332  1.6311  0.3569 -4.4246
 3984SOL     OW23584   0.859   3.416   3.147 -0.1348 -0.0747  0.6166
 3984SOL    HW123585   0.846   3.424   3.052  2.2565  0.6485  0.3701
 3984SOL    HW223586   0.836   3.506   3.172  1.6818  0.5497  0.0159
 3985SOL     OW23587   0.948   3.668   7.480  0.1399 -0.4443 -0.0271
 3985SOL    HW123588   1.032   3.681   7.525 -0.0706  0.0294  0.2301
 3985SOL    HW223589   0.920   3.755   7.508  0.3929  0.0347 -1.2813
 3986SOL     OW23590   1.349   0.231  14.920 -0.3689 -0.0046  0.0152
 3986SOL    HW123591   1.401   0.171  14.974 -0.8753 -0.0395  0.4700
 3986SOL    HW223592   1.398   0.217  14.840 -0.2868 -1.6601  0.3474
 3987SOL     OW23593   2.958   4.274   6.624  0.0294 -0.0035  0.1935
 3987SOL    HW123594   3.013   4.322   6.561  0.3796 -0.7205 -0.0392
 3987SOL    HW223595   2.973   4.184   6.597  0.8673  0.5480 -1.2077
 3988SOL     OW23596   1.940   0.695   3.579 -0.4960 -0.1753  0.2296
 3988SOL    HW123597   1.978   0.622   3.531  2.4974  0.6356  1.3609
 3988SOL    HW223598   1.968   0.683   3.670  0.7228 -0.0564 -0.1220
 3989SOL     OW23599   1.932   1.956  10.600  0.1649  0.1632 -0.4428
 3989SOL    HW123600   1.977   1.926  10.679  0.2104  2.5583  0.4396
 3989SOL    HW223601   1.950   2.050  10.601 -0.8507  0.3095  3.6821
 3990SOL     OW23602   0.345   0.391   2.398  0.4104 -0.4540  0.1262
 3990SOL    HW123603   0.332   0.485   2.410  1.5351 -0.5373  1.8664
 3990SOL    HW223604   0.415   0.390   2.333 -0.1932 -0.6147 -0.5247
 3991SOL     OW23605   1.818   1.218   6.870 -0.2637 -0.5561 -0.0929
 3991SOL    HW123606   1.859   1.150   6.818  0.4464 -1.7691  2.0667
 3991SOL    HW223607   1.854   1.302   6.840 -0.5303 -0.8874 -1.3404
 3992SOL     OW23608   1.666   0.352   5.143  0.7683 -0.1430 -0.0669
 3992SOL    HW123609   1.638   0.316   5.227  2.8014 -0.4680  0.4846
 3992SOL    HW223610   1.585   0.354   5.093 -0.4203  3.1381  1.9740
 3993SOL     OW23611   1.978   2.371   7.170  0.3778  0.0363  0.0228
 3993SOL    HW123612   2.031   2.297   7.142 -2.8829 -2.3633  0.1925
 3993SOL    HW223613   1.991   2.363   7.264  0.2399  1.5915  0.1696
 3994SOL     OW23614   4.080   1.150   6.994  0.2577  0.0554 -0.7693
 3994SOL    HW123615   4.151   1.214   6.989 -0.5908  1.2416  2.7272
 3994SOL    HW223616   4.051   1.161   7.084 -0.7757  2.6407 -1.3951
 3995SOL     OW23617   3.709   3.524   7.860  0.0595  0.2478 -0.5348
 3995SOL    HW123618   3.647   3.567   7.919 -1.7673 -1.7541 -0.9839
 3995SOL    HW223619   3.783   3.525   7.920 -2.2674  0.5343  2.3415
 3996SOL     OW23620   1.344   3.598   5.482  0.3182 -0.1740  0.1115
 3996SOL    HW123621   1.290   3.519   5.488 -2.8804  1.9450 -0.9686
 3996SOL    HW223622   1.435   3.568   5.489  0.7244  1.5283  1.8767
 3997SOL     OW23623   4.395   2.120   9.745  0.1664 -0.8235 -0.6269
 3997SOL    HW123624   4.395   2.077   9.830  0.7111 -0.9253 -0.6828
 3997SOL    HW223625   4.347   2.199   9.770 -1.3861 -2.0932  0.4134
 3998SOL     OW23626   4.595   2.748  11.464  0.2347  0.0946  0.1908
 3998SOL    HW123627   4.508   2.782  11.485  0.0400  0.3377 -1.0559
 3998SOL    HW223628   4.609   2.677  11.527 -1.7051 -0.8015 -0.3675
 3999SOL     OW23629   4.166   1.676  15.060 -0.8072  0.0208  0.0775
 3999SOL    HW123630   4.146   1.606  15.122  0.9167  0.2630  0.8877
 3999SOL    HW223631   4.261   1.674  15.056 -0.8274 -3.6125  1.1941
 4000SOL     OW23632   0.025   2.627  15.793  0.1590  0.3733 -0.3041
 4000SOL    HW123633   0.013   2.541  15.833  1.3095  0.5639  0.4319
 4000SOL    HW223634   4.682   2.671  15.814  0.4447  0.5389  0.4715
 4001SOL     OW23635   3.445   2.154   8.459 -0.1201 -0.0588  0.0460
 4001SOL    HW123636   3.494   2.236   8.468  0.4475 -0.2918 -0.8796
 4001SOL    HW223637   3.389   2.174   8.383  0.9814 -3.0171 -1.5393
 4002SOL     OW23638   4.305   1.048   4.866  0.3154 -0.7176 -0.0208
 4002SOL    HW123639   4.348   1.011   4.788  2.2346  2.2887 -0.3819
 4002SOL    HW223640   4.353   1.130   4.875  0.2615 -0.8256  1.2750
 4003SOL     OW23641   3.001   1.479  13.939  0.1438 -0.2809 -0.0846
 4003SOL    HW123642   3.080   1.426  13.952  1.4617  1.6935 -0.0688
 4003SOL    HW223643   2.939   1.416  13.976  1.3443 -2.5079 -1.8848
 4004SOL     OW23644   1.159   3.347  14.084 -0.4920 -0.4162  0.3092
 4004SOL    HW123645   1.097   3.401  14.035  1.1261  0.7661 -0.4214
 4004SOL    HW223646   1.234   3.405  14.097  0.0143 -0.7074 -1.3426
 4005SOL     OW23647   2.156   4.702  13.791 -0.0163  0.0160  0.0671
 4005SOL    HW123648   2.250   4.714  13.799  0.2610 -1.5958 -0.7351
 4005SOL    HW223649   2.150   4.637  13.861  2.2694 -0.0898  0.1760
 4006SOL     OW23650   2.798   2.763   8.116 -0.1384 -0.0330  0.4553
 4006SOL    HW123651   2.830   2.839   8.068 -0.5758 -0.0570  0.1216
 4006SOL    HW223652   2.741   2.719   8.053  0.6936  1.3844 -1.2855
 4007SOL     OW23653   0.861   3.592  10.190  0.4769 -0.2854 -0.6225
 4007SOL    HW123654   0.889   3.502  10.175  0.0334 -0.5142 -0.1048
 4007SOL    HW223655   0.903   3.606  10.275  0.1786  1.5355 -0.7864
 4008SOL     OW23656   2.146   3.925   6.897  0.4336  0.1613  0.2557
 4008SOL    HW123657   2.052   3.908   6.903  0.2822  0.4354 -1.5179
 4008SOL    HW223658   2.169   3.873   6.820 -0.3666 -0.6409  0.5677
 4009SOL     OW23659   2.817   3.588   3.877 -0.2088 -0.2601 -0.0462
 4009SOL    HW123660   2.802   3.657   3.813 -0.4381  0.1657  0.4688
 4009SOL    HW223661   2.878   3.532   3.828  0.8236  0.3009  0.5837
 4010SOL     OW23662   1.100   4.608   2.124 -0.1232 -0.0862 -0.3120
 4010SOL    HW123663   1.052   4.534   2.088 -0.3241 -1.3397  2.5524
 4010SOL    HW223664   1.046   4.629   2.200 -0.9104 -1.0927 -0.5832
 4011SOL     OW23665   3.060   3.087  16.369 -0.0296 -0.2245  0.6172
 4011SOL    HW123666   3.123   3.024  16.333  0.3701  1.6191 -1.9703
 4011SOL    HW223667   3.113   3.128  16.437  1.2190 -3.6839  1.7307
 4012SOL     OW23668   0.499   2.372   8.804 -0.5403  0.6074 -0.2597
 4012SOL    HW123669   0.586   2.395   8.835 -0.2728 -0.4348 -0.2522
 4012SOL    HW223670   0.525   2.307   8.739  2.6077  0.7924  0.7905
 4013SOL     OW23671   1.754   2.712   1.463 -0.4815  0.5326  0.0020
 4013SOL    HW123672   1.718   2.745   1.545 -1.6987  1.1739 -0.7823
 4013SOL    HW223673   1.776   2.621   1.486 -1.8004  0.0714 -0.5525
 4014SOL     OW23674   1.931   2.309   7.812  0.5664  0.1480 -0.0734
 4014SOL    HW123675   1.976   2.337   7.732  1.5080 -0.4501  0.2476
 4014SOL    HW223676   1.936   2.214   7.802  0.8854  0.1776 -0.1847
 4015SOL     OW23677   3.475   1.291   8.434  0.0335 -0.6113 -0.5800
 4015SOL    HW123678   3.388   1.259   8.409 -0.1584 -0.8537  0.3702
 4015SOL    HW223679   3.531   1.217   8.410 -0.0277 -0.3751 -1.4454
 4016SOL     OW23680   1.356   0.168  11.679  0.0363 -0.7170  0.1211
 4016SOL    HW123681   1.286   0.168  11.745  0.2020  0.4015  0.2962
 4016SOL    HW223682   1.408   0.093  11.709  0.3045  0.1873  1.9541
 4017SOL     OW23683   3.733   4.072  13.439 -0.0565  0.2818 -0.3608
 4017SOL    HW123684   3.771   4.020  13.368 -0.6143  0.2335 -0.6216
 4017SOL    HW223685   3.808   4.062  13.498 -1.8619 -0.3348  1.8147
 4018SOL     OW23686   0.716   3.957   4.659  0.6087 -0.0663 -0.2256
 4018SOL    HW123687   0.737   3.967   4.752 -1.2406  2.3339 -0.0616
 4018SOL    HW223688   0.620   3.951   4.663  0.6137  0.6296  0.9613
 4019SOL     OW23689   3.100   1.669   5.801 -0.5201  0.1823  0.6324
 4019SOL    HW123690   3.147   1.667   5.717 -0.4164  1.5630  0.6722
 4019SOL    HW223691   3.115   1.578   5.828 -4.4583 -0.3326  1.0983
 4020SOL     OW23692   1.619   1.123   1.578 -0.8291  0.2425  0.5914
 4020SOL    HW123693   1.628   1.207   1.623 -0.0946  0.2854  0.3741
 4020SOL    HW223694   1.572   1.147   1.498  2.0509 -1.9740 -1.7661
 4021SOL     OW23695   1.934   4.385   3.252  0.3901 -0.4321  0.1170
 4021SOL    HW123696   2.005   4.334   3.213  1.6468  2.6424 -1.7010
 4021SOL    HW223697   1.879   4.398   3.174  0.5089 -1.6022 -0.1629
 4022SOL     OW23698   2.446   1.991   7.946  0.2503  0.1307  0.5079
 4022SOL    HW123699   2.430   1.969   7.854 -1.9208  1.0429  0.6858
 4022SOL    HW223700   2.516   2.056   7.936 -0.5709  0.8198 -0.8030
 4023SOL     OW23701   4.622   1.459   2.883  0.4349  0.3736 -0.6941
 4023SOL    HW123702   4.543   1.440   2.933  0.6619  1.2050 -0.0089
 4023SOL    HW223703   4.679   1.408   2.940 -1.0377 -1.8045 -1.1648
 4024SOL     OW23704   3.771   0.556   5.307 -0.3423  0.0457 -0.2584
 4024SOL    HW123705   3.718   0.628   5.271  1.2397 -0.0079 -2.7313
 4024SOL    HW223706   3.762   0.552   5.402 -0.8164  1.3943 -0.2509
 4025SOL     OW23707   2.667   0.280   1.568 -0.3053 -0.1147  0.3097
 4025SOL    HW123708   2.738   0.332   1.606 -0.0232 -0.7136  0.6006
 4025SOL    HW223709   2.609   0.355   1.566  0.3013  0.3115 -1.2982
 4026SOL     OW23710   1.632   1.154   5.223 -0.5443 -0.2109 -0.1754
 4026SOL    HW123711   1.707   1.127   5.276 -0.3443  1.7815  0.5727
 4026SOL    HW223712   1.570   1.155   5.296  1.2985 -1.1540  1.4264
 4027SOL     OW23713   1.728   4.267   5.359 -0.1652 -0.0362 -0.5074
 4027SOL    HW123714   1.710   4.217   5.439 -0.4246  0.2572 -0.3814
 4027SOL    HW223715   1.645   4.292   5.318 -1.2849 -1.8142  0.7163
 4028SOL     OW23716   0.774   1.031   3.051 -0.2039  0.3774 -0.0977
 4028SOL    HW123717   0.706   1.096   3.034 -0.1298  0.6050  0.4808
 4028SOL    HW223718   0.851   1.086   3.044  0.4904 -0.2318  2.8400
 4029SOL     OW23719   3.053   2.759   8.847 -0.2154  0.2955  0.7410
 4029SOL    HW123720   3.144   2.737   8.828 -0.3727 -0.1965  0.5430
 4029SOL    HW223721   3.027   2.689   8.908  0.8286 -2.4119 -1.9096
 4030SOL     OW23722   0.151   4.517   4.949 -0.1403  0.5337  0.3260
 4030SOL    HW123723   0.081   4.452   4.961  0.9434 -0.7252 -0.1665
 4030SOL    HW223724   0.165   4.528   5.043  1.9394  1.1103 -0.0540
 4031SOL     OW23725   0.371   3.773  13.544 -0.1701 -0.1273  0.6792
 4031SOL    HW123726   0.357   3.759  13.451  0.3067 -1.5296  0.8159
 4031SOL    HW223727   0.459   3.735  13.549 -0.5706 -1.1834 -0.3236
 4032SOL     OW23728   2.453   2.049   9.039  0.2968  0.5919 -0.0466
 4032SOL    HW123729   2.424   1.957   9.041  5.0613 -0.8694  1.3364
 4032SOL    HW223730   2.388   2.085   9.100 -1.4697 -0.4316 -1.3322
 4033SOL     OW23731   2.572   1.938   6.396 -0.2292 -0.3164 -0.0428
 4033SOL    HW123732   2.604   1.858   6.439 -1.0714 -0.9577 -0.6120
 4033SOL    HW223733   2.618   1.932   6.312 -2.2811  1.4863 -1.2938
 4034SOL     OW23734   2.597   3.807   2.932  0.6403  0.6393 -0.2693
 4034SOL    HW123735   2.518   3.861   2.927  0.0799  0.0541  2.4440
 4034SOL    HW223736   2.623   3.797   2.840  3.1383  1.3065  0.3530
 4035SOL     OW23737   1.552   0.430  12.079  0.2792  0.1732  0.1490
 4035SOL    HW123738   1.635   0.436  12.032 -0.3310 -1.0198 -1.1168
 4035SOL    HW223739   1.517   0.350  12.039 -1.9796  0.1213  2.2227
 4036SOL     OW23740   3.453   0.304   5.948  0.5165  0.1758 -0.5058
 4036SOL    HW123741   3.465   0.210   5.959  2.2701  0.3181 -1.1432
 4036SOL    HW223742   3.432   0.335   6.036 -0.1116  2.2286 -1.3965
 4037SOL     OW23743   1.868   0.876   1.980 -0.7802 -0.0859  0.3095
 4037SOL    HW123744   1.952   0.841   1.949 -1.2141  0.0324 -1.0004
 4037SOL    HW223745   1.840   0.945   1.920 -0.8672  0.3135  0.8108
 4038SOL     OW23746   1.362   4.063   2.411 -0.6765  0.7390  0.1648
 4038SOL    HW123747   1.431   4.014   2.366  0.2988 -0.1342  2.6569
 4038SOL    HW223748   1.280   4.054   2.362 -0.2721  2.1737 -0.7776
 4039SOL     OW23749   1.559   3.031   4.304 -0.1480  0.3111  0.2605
 4039SOL    HW123750   1.545   3.007   4.212 -1.4456 -0.5863  0.6948
 4039SOL    HW223751   1.494   3.098   4.325 -0.8634 -0.2230 -0.2431
 4040SOL     OW23752   0.911   2.858   4.735 -0.2808 -0.5971 -0.1363
 4040SOL    HW123753   0.833   2.812   4.704 -1.4951  0.1992  1.7236
 4040SOL    HW223754   0.967   2.789   4.771 -0.5554 -1.9381 -2.2526
 4041SOL     OW23755   3.046   1.918   4.814  0.8613 -0.1086  0.1269
 4041SOL    HW123756   3.131   1.922   4.770  0.9348 -0.1965  0.2626
 4041SOL    HW223757   3.067   1.851   4.879 -0.5505  0.5509  1.2612
 4042SOL     OW23758   3.155   1.563   0.310 -0.4449  0.1588 -0.1263
 4042SOL    HW123759   3.185   1.649   0.279  0.2417 -0.5676 -1.4530
 4042SOL    HW223760   3.167   1.568   0.405 -0.7179 -0.6549 -0.0492
 4043SOL     OW23761   3.864   1.564   2.446 -0.4261 -0.1113  0.1876
 4043SOL    HW123762   3.846   1.502   2.516  1.3319 -0.6749  0.1611
 4043SOL    HW223763   3.914   1.509   2.386 -0.8451 -1.6810  1.3009
 4044SOL     OW23764   0.520   4.343   1.128 -0.1578 -0.0422 -0.7721
 4044SOL    HW123765   0.578   4.303   1.193 -0.0862  0.3493 -0.5921
 4044SOL    HW223766   0.500   4.262   1.082 -3.4853  0.1586  0.3008
 4045SOL     OW23767   2.187   4.209   1.344  0.1419 -0.4426  0.0625
 4045SOL    HW123768   2.106   4.260   1.351  0.3658 -0.1625  0.6037
 4045SOL    HW223769   2.240   4.268   1.290 -1.0533  0.7853  0.2324
 4046SOL     OW23770   4.150   0.850   5.797  0.1682  0.5953 -0.2954
 4046SOL    HW123771   4.120   0.938   5.818  1.7768  0.8155  1.0548
 4046SOL    HW223772   4.237   0.864   5.834  0.1425 -0.2475  0.0792
 4047SOL     OW23773   4.161   1.027   9.332 -0.3548  0.1033  0.1786
 4047SOL    HW123774   4.214   1.027   9.252 -1.8616 -2.8548 -0.7935
 4047SOL    HW223775   4.101   1.101   9.323 -0.3497 -0.0398 -0.9538
 4048SOL     OW23776   4.198   0.518   7.410 -0.6698  0.1989  0.5480
 4048SOL    HW123777   4.217   0.610   7.389 -2.7049  0.6601  0.7561
 4048SOL    HW223778   4.103   0.505   7.406 -0.2899 -2.1998 -0.2459
 4049SOL     OW23779   0.185   4.688   7.658 -0.8506  0.2491 -0.0813
 4049SOL    HW123780   0.208   0.030   7.703  0.1286  0.3439 -0.7480
 4049SOL    HW223781   0.113   4.658   7.713 -0.0382 -2.2275 -0.3326
 4050SOL     OW23782   0.113   0.125   1.508  0.0584 -0.1378  0.3548
 4050SOL    HW123783   0.119   0.220   1.524 -0.9672  0.0411 -0.2681
 4050SOL    HW223784   0.191   0.111   1.455  1.6322  2.0565  2.0654
 4051SOL     OW23785   2.367   0.528   3.066 -0.1636  0.6095  0.3416
 4051SOL    HW123786   2.403   0.569   3.145 -1.7063 -0.8924  1.8406
 4051SOL    HW223787   2.306   0.467   3.109  1.7253 -0.4510  1.5293
 4052SOL     OW23788   4.122   1.007   1.475 -0.1738 -0.2109  0.0376
 4052SOL    HW123789   4.089   1.049   1.555 -0.3460  0.8000 -0.5703
 4052SOL    HW223790   4.112   1.081   1.416 -2.5037 -0.4925  0.0593
 4053SOL     OW23791   0.953   4.124   7.199  0.4886 -0.2012 -0.2438
 4053SOL    HW123792   0.911   4.202   7.234  2.6679  0.6864  0.3817
 4053SOL    HW223793   0.974   4.157   7.112 -1.3080 -1.2427 -1.0827
 4054SOL     OW23794   3.587   4.544  10.679 -0.2666  0.3616 -0.3469
 4054SOL    HW123795   3.606   4.617  10.738 -3.8967 -0.6928  2.1560
 4054SOL    HW223796   3.567   4.480  10.748 -0.0940  1.0106  0.3127
 4055SOL     OW23797   3.351   3.176   4.574  0.3312  0.0814  0.1719
 4055SOL    HW123798   3.349   3.108   4.507  1.6139 -0.7209  0.9640
 4055SOL    HW223799   3.369   3.133   4.657 -0.1512 -0.2158  0.1205
 4056SOL     OW23800   0.996   1.724   6.477  0.1938  0.0960 -0.3387
 4056SOL    HW123801   1.072   1.773   6.443 -0.3391  0.7008 -0.6652
 4056SOL    HW223802   0.933   1.794   6.493  1.9275  2.1178 -2.2899
 4057SOL     OW23803   3.035   1.379   8.177  0.3640  0.6974 -0.5779
 4057SOL    HW123804   2.987   1.439   8.234 -0.7216 -0.1010 -0.6587
 4057SOL    HW223805   2.961   1.329   8.142 -0.5477  0.7944  1.2021
 4058SOL     OW23806   1.162   1.824   4.302  0.3660 -0.0211  0.4576
 4058SOL    HW123807   1.209   1.741   4.289 -1.4379 -0.9474 -0.2906
 4058SOL    HW223808   1.094   1.792   4.362  0.6673 -1.2287  0.1732
 4059SOL     OW23809   1.229   1.229   2.527 -0.7075 -0.2692  0.1568
 4059SOL    HW123810   1.212   1.136   2.521  0.5342 -0.3188 -2.3483
 4059SOL    HW223811   1.324   1.233   2.540 -0.8297  0.5571  0.8967
 4060SOL     OW23812   3.638   4.150   2.948  0.3455 -0.5777 -0.6292
 4060SOL    HW123813   3.604   4.092   2.880  0.7743 -1.1761 -0.3333
 4060SOL    HW223814   3.661   4.093   3.021 -0.7223  0.4786  0.5363
 4061SOL     OW23815   4.278   0.467   9.572  0.1052 -0.0527  0.2337
 4061SOL    HW123816   4.188   0.499   9.565  0.8184  1.6265 -1.5699
 4061SOL    HW223817   4.279   0.407   9.497  0.2927  0.8273 -0.4687
 4062SOL     OW23818   0.637   3.616   1.184  0.0749  0.2175  0.2745
 4062SOL    HW123819   0.709   3.637   1.243  1.3439  1.6908 -1.8030
 4062SOL    HW223820   0.584   3.557   1.237 -0.2986 -0.3489 -0.7397
 4063SOL     OW23821   4.274   1.628   6.081  0.4649  0.0357 -0.1890
 4063SOL    HW123822   4.354   1.655   6.126  0.7958 -3.0580  1.0890
 4063SOL    HW223823   4.284   1.533   6.083  0.8907  0.0600 -0.9259
 4064SOL     OW23824   0.528   1.559   1.603  0.1899  0.1238 -0.1546
 4064SOL    HW123825   0.582   1.534   1.528  0.2747  0.0353 -0.0629
 4064SOL    HW223826   0.494   1.638   1.561  0.4971 -0.1093 -0.8359
 4065SOL     OW23827   3.514   1.611   3.830 -0.1332 -0.5115  0.0746
 4065SOL    HW123828   3.423   1.594   3.805 -0.3303  0.1369  0.3628
 4065SOL    HW223829   3.547   1.670   3.762  0.6262 -1.8781 -0.7460
 4066SOL     OW23830   4.237   2.724   3.415  0.2650  0.1315  0.5347
 4066SOL    HW123831   4.144   2.707   3.398  0.5567 -0.6746 -0.2190
 4066SOL    HW223832   4.239   2.701   3.508  0.1708 -0.2900  0.4344
 4067SOL     OW23833   0.441   1.012   2.024 -0.4412  0.1138  0.0444
 4067SOL    HW123834   0.411   1.053   2.106 -0.0195  1.4959 -0.4997
 4067SOL    HW223835   0.450   1.096   1.980  0.0984  1.0754  1.9878
 4068SOL     OW23836   2.665   0.860   2.277 -0.5997 -0.1263 -0.2249
 4068SOL    HW123837   2.754   0.887   2.301  0.1476 -1.4867 -1.4499
 4068SOL    HW223838   2.664   0.883   2.184 -2.1115 -0.5969 -0.3240
 4069SOL     OW23839   1.071   2.551   3.246 -0.9093  0.7252 -0.0239
 4069SOL    HW123840   1.088   2.475   3.302  1.7954  1.6030  0.3234
 4069SOL    HW223841   1.157   2.589   3.232  0.1075 -1.8256 -0.7932
 4070SOL     OW23842   1.190   2.787   4.285  0.7960 -0.0522 -0.0360
 4070SOL    HW123843   1.260   2.728   4.256  0.3353  0.3629 -1.9721
 4070SOL    HW223844   1.204   2.868   4.235 -0.9170 -0.2604 -0.8665
 4071SOL     OW23845   3.537   4.577   7.302  0.1855 -0.0558 -0.6366
 4071SOL    HW123846   3.589   4.653   7.331  0.7912 -0.6720 -0.1276
 4071SOL    HW223847   3.478   4.631   7.249 -2.1342 -1.6819  0.3491
 4072SOL     OW23848   4.135   4.037   8.924 -0.3203 -0.4772 -0.4786
 4072SOL    HW123849   4.128   3.955   8.875 -1.9520 -1.2312  1.0400
 4072SOL    HW223850   4.221   4.073   8.901 -0.5496  0.2911 -0.1296
 4073SOL     OW23851   0.126   3.476   7.270 -0.2327  0.3557  0.1609
 4073SOL    HW123852   0.106   3.567   7.293  1.7730  0.8608 -0.1242
 4073SOL    HW223853   0.067   3.428   7.329 -0.7787  0.8133 -0.0079
 4074SOL     OW23854   3.788   2.865  15.648 -0.3309  0.6880  0.0668
 4074SOL    HW123855   3.835   2.900  15.724 -1.4279 -1.2233  1.6431
 4074SOL    HW223856   3.859   2.864  15.584  0.3746  0.5326  0.8508
 4075SOL     OW23857   3.533   1.410  15.884 -0.1361  0.4308 -0.6931
 4075SOL    HW123858   3.588   1.335  15.907 -1.3592  0.6772  2.9821
 4075SOL    HW223859   3.582   1.452  15.813  1.4076 -0.2123 -0.0065
 4076SOL     OW23860   0.797   4.679  17.705 -0.3246 -0.2067  0.4781
 4076SOL    HW123861   0.885   4.693  17.669 -0.8541  0.0271 -0.7150
 4076SOL    HW223862   0.740   4.697  17.631 -1.0946  0.2827  1.1847
 4077SOL     OW23863   0.720   1.855   6.409 -0.5732  0.2625  0.6523
 4077SOL    HW123864   0.675   1.934   6.380  0.7704  0.7343 -0.1443
 4077SOL    HW223865   0.758   1.825   6.326 -0.0857  0.3558  0.8425
 4078SOL     OW23866   3.917   0.866  10.368 -0.0847  0.3500  0.3411
 4078SOL    HW123867   3.939   0.864  10.461  1.4423 -1.7801 -0.0817
 4078SOL    HW223868   4.003   0.849  10.330 -0.6408 -0.2661 -0.6379
 4079SOL     OW23869   0.364   1.677   5.320 -0.4295  0.7309  0.3201
 4079SOL    HW123870   0.270   1.676   5.340 -0.3088 -0.0300  0.8714
 4079SOL    HW223871   0.389   1.587   5.297  0.5181  0.9952  0.3065
 4080SOL     OW23872   3.196   0.410   7.127  0.5004 -0.2926  0.3234
 4080SOL    HW123873   3.160   0.424   7.039 -0.1197 -0.0187  0.6224
 4080SOL    HW223874   3.206   0.315   7.117 -1.8410 -0.6123  1.1543
 4081SOL     OW23875   3.994   3.997   9.150 -0.4326  0.2237 -0.1911
 4081SOL    HW123876   3.983   4.084   9.190  0.6639  0.0012  0.6004
 4081SOL    HW223877   4.029   4.011   9.062 -2.4166  1.4057 -0.7885
 4082SOL     OW23878   3.360   2.154  10.189 -0.1133 -0.0830 -0.7730
 4082SOL    HW123879   3.425   2.123  10.253  0.1341 -2.4859 -2.1674
 4082SOL    HW223880   3.321   2.070  10.163  0.4657 -1.1151  1.7539
 4083SOL     OW23881   1.405   1.686   5.345 -0.3804 -0.0258  0.7240
 4083SOL    HW123882   1.351   1.615   5.310  0.5219  1.1380 -3.0553
 4083SOL    HW223883   1.412   1.659   5.436 -2.2881  0.1429  0.9148
 4084SOL     OW23884   1.261   1.968  13.684  0.0791  0.2036  0.7549
 4084SOL    HW123885   1.306   2.052  13.673  1.1515 -0.5009 -0.1695
 4084SOL    HW223886   1.177   2.011  13.668 -0.0985 -0.6872 -0.7222
 4085SOL     OW23887   1.019   0.585   7.722  0.3329  0.3803  0.5422
 4085SOL    HW123888   1.072   0.660   7.749 -0.0619  1.5210 -1.8780
 4085SOL    HW223889   1.067   0.554   7.645  1.0569  0.6543  0.8758
 4086SOL     OW23890   4.006   4.556   8.845  0.3401 -0.0725  0.2385
 4086SOL    HW123891   3.937   4.544   8.911 -1.6354 -2.4390 -2.2193
 4086SOL    HW223892   4.058   4.477   8.859 -1.5731 -1.5268 -0.7157
 4087SOL     OW23893   0.426   3.656   5.302  0.0592  0.4841 -0.1031
 4087SOL    HW123894   0.360   3.593   5.329  0.6828  0.1224  0.5885
 4087SOL    HW223895   0.454   3.606   5.225 -1.6654 -0.0746 -0.3470
 4088SOL     OW23896   2.300   2.717   4.917 -0.4102  0.0357 -0.1095
 4088SOL    HW123897   2.243   2.772   4.863 -1.4281 -0.6040  0.3329
 4088SOL    HW223898   2.386   2.752   4.892  0.3371 -1.7216 -0.0045
 4089SOL     OW23899   3.743   3.874  12.453 -0.1012  0.5112 -0.6372
 4089SOL    HW123900   3.676   3.816  12.417  0.2627 -0.4205  0.1846
 4089SOL    HW223901   3.697   3.953  12.424  0.6544  1.1665 -0.0399
 4090SOL     OW23902   3.259   4.716   3.305 -0.6780  0.2550 -0.3920
 4090SOL    HW123903   3.226   4.719   3.394  0.3924 -1.0396  0.0547
 4090SOL    HW223904   3.332   0.040   3.308  1.0458 -1.7863  0.6007
 4091SOL     OW23905   4.735   3.289   3.342 -0.0263  0.6173 -0.1026
 4091SOL    HW123906   0.031   3.217   3.289 -0.5391  0.2954 -0.0098
 4091SOL    HW223907   4.682   3.238   3.403 -1.5633  1.9084 -0.3818
 4092SOL     OW23908   2.328   2.371  10.305  0.2381 -0.1171 -0.2781
 4092SOL    HW123909   2.353   2.282  10.280 -0.5350 -0.8227  1.4799
 4092SOL    HW223910   2.303   2.415  10.223  1.9996 -1.8223 -1.7411
 4093SOL     OW23911   2.413   4.479   1.646 -0.0545 -0.3854 -0.5932
 4093SOL    HW123912   2.494   4.500   1.693  0.9362  0.2250 -2.5931
 4093SOL    HW223913   2.450   4.435   1.570  1.2304  1.3435 -0.9798
 4094SOL     OW23914   2.078   1.309   0.928  0.2355  0.1459  0.0249
 4094SOL    HW123915   2.019   1.366   0.977  0.7356  0.6844 -0.0080
 4094SOL    HW223916   2.023   1.233   0.911 -0.0460  0.0774  1.2373
 4095SOL     OW23917   2.998   4.123   4.304  0.2375 -0.6998 -0.4473
 4095SOL    HW123918   3.035   4.035   4.293 -0.2754 -0.8607 -0.8917
 4095SOL    HW223919   2.908   4.105   4.328 -0.6925  3.2957 -1.0185
 4096SOL     OW23920   2.196   1.739  15.359 -0.0162  0.5787 -0.0212
 4096SOL    HW123921   2.142   1.733  15.280 -1.4500  0.5408  0.9709
 4096SOL    HW223922   2.278   1.757  15.313  0.6482  1.4676  1.5169
 4097SOL     OW23923   2.890   2.122   2.032  0.1844 -0.3013 -0.2917
 4097SOL    HW123924   2.896   2.204   1.984 -0.9977 -2.0551 -3.4932
 4097SOL    HW223925   2.805   2.118   2.075  0.7462 -1.4593  0.7417
 4098SOL     OW23926   3.747   1.585  11.269  0.8245 -0.4318 -0.2687
 4098SOL    HW123927   3.807   1.563  11.340 -0.4178 -2.8636  0.0153
 4098SOL    HW223928   3.719   1.495  11.251  0.9989 -1.0997  2.8109
 4099SOL     OW23929   0.662   1.268   7.125 -0.0908  0.2425  0.1636
 4099SOL    HW123930   0.728   1.318   7.077 -0.3652  1.2902  0.8744
 4099SOL    HW223931   0.588   1.261   7.066 -0.0955 -0.9754  0.3032
 4100SOL     OW23932   1.094   2.016   5.525  0.2197  0.1301  0.4792
 4100SOL    HW123933   1.042   2.095   5.542 -2.5982 -1.9927  1.8156
 4100SOL    HW223934   1.155   2.051   5.460 -0.4135  0.5902  0.1232
 4101SOL     OW23935   2.311   3.856   2.113  0.4845 -0.5122 -0.5501
 4101SOL    HW123936   2.310   3.767   2.148 -1.4216  0.2655  1.3215
 4101SOL    HW223937   2.398   3.882   2.143 -0.1321  0.6056  0.2746
 4102SOL     OW23938   0.964   2.509   5.074 -0.0375 -0.4876  0.1784
 4102SOL    HW123939   0.950   2.553   4.990 -0.3325 -2.8731 -1.0275
 4102SOL    HW223940   0.913   2.561   5.137  0.3198 -1.6476  1.4373
 4103SOL     OW23941   2.042   2.511   1.402 -0.6539  0.0743 -0.3412
 4103SOL    HW123942   1.996   2.432   1.374 -0.2829 -0.5462  0.8124
 4103SOL    HW223943   2.008   2.574   1.339 -1.3060 -1.2026 -1.2588
 4104SOL     OW23944   2.339   0.513   8.143 -0.2128  0.1206 -0.3471
 4104SOL    HW123945   2.371   0.557   8.065 -0.2142 -1.9018 -1.4927
 4104SOL    HW223946   2.250   0.548   8.133  0.0220  0.8476  0.0634
 4105SOL     OW23947   3.762   0.428   4.115  0.2847 -0.4044  0.0762
 4105SOL    HW123948   3.739   0.480   4.192  0.6031 -1.5466  0.9371
 4105SOL    HW223949   3.690   0.449   4.055  0.3024  2.0187  0.9097
 4106SOL     OW23950   4.460   0.002  11.331 -0.5749 -0.2411 -0.0286
 4106SOL    HW123951   4.404   0.076  11.353 -0.4103 -0.2179  0.3166
 4106SOL    HW223952   4.525   0.040  11.273 -2.2102  0.3697 -1.4325
 4107SOL     OW23953   1.194   1.453   6.750  0.6284 -0.2149  0.2855
 4107SOL    HW123954   1.256   1.457   6.676  1.3503  1.3121  0.9727
 4107SOL    HW223955   1.188   1.540   6.788 -0.4847  0.6644 -1.9179
 4108SOL     OW23956   2.564   0.638   2.052 -0.1858 -0.0517 -0.4372
 4108SOL    HW123957   2.505   0.563   2.045  0.5254 -0.5111 -1.5875
 4108SOL    HW223958   2.502   0.704   2.084 -1.1653 -0.5273 -1.3270
 4109SOL     OW23959   0.997   3.724   2.316 -0.5801  0.1978 -0.5473
 4109SOL    HW123960   1.074   3.718   2.373  0.0389  1.5727 -1.2525
 4109SOL    HW223961   0.958   3.805   2.349  0.1392  0.3359 -0.0298
 4110SOL     OW23962   1.244   3.510   4.226 -0.3467 -0.2557 -0.1651
 4110SOL    HW123963   1.252   3.428   4.178  1.5012  1.2360 -2.3794
 4110SOL    HW223964   1.319   3.558   4.191 -0.8064 -0.4273 -1.3696
 4111SOL     OW23965   0.571   3.480   2.875  0.1294 -0.2645 -0.2357
 4111SOL    HW123966   0.556   3.524   2.791 -0.2105  0.9850  0.4670
 4111SOL    HW223967   0.553   3.386   2.874 -3.6670  0.4669 -0.6274
 4112SOL     OW23968   3.845   3.128  16.541 -0.5166  0.3317  0.1793
 4112SOL    HW123969   3.853   3.178  16.622 -0.1333 -0.4150  0.6003
 4112SOL    HW223970   3.792   3.187  16.487  0.8542  1.2054 -0.2406
 4113SOL     OW23971   1.298   1.287   5.741 -0.2649  0.3459  0.5128
 4113SOL    HW123972   1.225   1.226   5.739  1.5992 -1.9171  0.5868
 4113SOL    HW223973   1.375   1.231   5.730 -0.8835 -0.3984  0.0562
 4114SOL     OW23974   4.481   3.108   8.388  0.3603 -0.4819 -0.2836
 4114SOL    HW123975   4.466   3.034   8.328  1.3956  0.7614 -2.0777
 4114SOL    HW223976   4.441   3.070   8.467 -0.1251 -1.1524 -0.8490
 4115SOL     OW23977   4.150   0.667   1.371  0.5920 -0.3399  0.5985
 4115SOL    HW123978   4.134   0.584   1.326  0.5335  0.5463 -1.0174
 4115SOL    HW223979   4.143   0.727   1.296  1.4983 -1.0741 -0.0789
 4116SOL     OW23980   1.223   0.946   2.497 -0.1946  0.2401 -0.7771
 4116SOL    HW123981   1.260   0.870   2.543 -0.1352 -0.0549 -1.3188
 4116SOL    HW223982   1.133   0.921   2.519  0.2332 -0.7018 -0.0825
 4117SOL     OW23983   1.776   0.511   7.692 -0.1997 -0.6132 -0.1417
 4117SOL    HW123984   1.808   0.445   7.754 -0.0064 -0.0705  0.3335
 4117SOL    HW223985   1.821   0.586   7.730 -2.2196  1.2850 -1.4464
 4118SOL     OW23986   2.717   0.125   6.930  0.0149  0.2266 -0.1345
 4118SOL    HW123987   2.800   0.093   6.894  0.1088 -2.0902  2.1572
 4118SOL    HW223988   2.743   0.214   6.954  0.5872 -0.5579  2.1827
 4119SOL     OW23989   4.227   2.772   2.624  0.2929 -0.7039  0.5784
 4119SOL    HW123990   4.240   2.770   2.718 -1.9211  0.2359  0.9038
 4119SOL    HW223991   4.299   2.711   2.607  1.1130 -0.4539  3.1480
 4120SOL     OW23992   1.382   4.043  16.540  0.0862 -0.9553  0.0866
 4120SOL    HW123993   1.375   3.975  16.607 -1.5109 -0.0238  0.8615
 4120SOL    HW223994   1.294   4.053  16.505  0.1112 -0.9490  0.0271
 4121SOL     OW23995   2.094   3.761   5.479 -0.5324 -0.2977  0.3140
 4121SOL    HW123996   2.155   3.826   5.512 -3.4376  1.4473  2.2449
 4121SOL    HW223997   2.149   3.693   5.440  0.0757 -0.8764  2.1684
 4122SOL     OW23998   3.198   0.266   6.527 -0.1658  0.2988 -0.7518
 4122SOL    HW123999   3.159   0.350   6.551 -0.7073 -0.4180  0.8699
 4122SOL    HW224000   3.274   0.261   6.586 -0.2817 -1.5935 -0.7747
 4123SOL     OW24001   3.628   2.538   1.600  0.5015 -0.1548 -0.5511
 4123SOL    HW124002   3.532   2.532   1.597  0.5763 -1.7752 -0.0667
 4123SOL    HW224003   3.644   2.613   1.658 -2.4865  0.8097 -0.9715
 4124SOL     OW24004   1.242   0.430   5.918  0.4567  0.5700  0.4014
 4124SOL    HW124005   1.238   0.454   5.825 -2.0525 -2.0468 -0.1597
 4124SOL    HW224006   1.243   0.335   5.923 -0.2168  0.5889  1.0033
 4125SOL     OW24007   4.519   0.876   4.739  0.2030 -0.1552 -0.3941
 4125SOL    HW124008   4.593   0.930   4.766 -1.5135  1.7720  0.4365
 4125SOL    HW224009   4.512   0.816   4.813 -0.0079  0.7932  0.3605
 4126SOL     OW24010   4.337   0.190   4.837  0.1620 -0.2191 -0.2367
 4126SOL    HW124011   4.328   0.195   4.932 -2.3581  1.7256 -0.5786
 4126SOL    HW224012   4.322   0.281   4.811  0.0553 -0.6085 -1.5413
 4127SOL     OW24013   3.337   0.680   5.140 -0.1631  0.7333 -0.2007
 4127SOL    HW124014   3.311   0.748   5.078 -0.6309 -0.5069 -1.3714
 4127SOL    HW224015   3.267   0.699   5.203 -1.4400 -0.5077 -1.2413
 4128SOL     OW24016   2.934   0.709   9.564  0.6021  0.0428 -0.3635
 4128SOL    HW124017   2.841   0.715   9.586  0.6530 -3.3192  0.8536
 4128SOL    HW224018   2.963   0.794   9.533  0.1283  1.0744  2.0318
 4129SOL     OW24019   4.721   3.361   0.709 -0.4660 -0.4213 -0.1296
 4129SOL    HW124020   0.037   3.384   0.634  0.9949 -0.7113  0.8509
 4129SOL    HW224021   4.634   3.351   0.670 -0.8648  2.0697  0.1464
 4130SOL     OW24022   4.618   4.461   4.709 -0.0816 -0.3928 -0.2216
 4130SOL    HW124023   4.687   4.434   4.648  2.8166  2.7644  1.6229
 4130SOL    HW224024   4.574   4.535   4.666 -0.3501 -1.1128 -1.1774
 4131SOL     OW24025   2.443   0.124   1.163  0.0331 -0.1843 -0.7893
 4131SOL    HW124026   2.519   0.119   1.221  0.5675  0.6032 -1.4151
 4131SOL    HW224027   2.384   0.093   1.232 -1.4057  0.0790 -1.8946
 4132SOL     OW24028   3.172   4.070   0.348 -0.0375  0.4455  0.1958
 4132SOL    HW124029   3.180   4.076   0.444  0.9165  3.3742 -0.0493
 4132SOL    HW224030   3.114   3.996   0.333 -0.5370  1.0276 -0.7478
 4133SOL     OW24031   3.634   2.529   9.722  0.7776  0.7829 -0.3918
 4133SOL    HW124032   3.654   2.486   9.805  0.4085  2.3649  0.5049
 4133SOL    HW224033   3.705   2.592   9.714 -1.9467  3.7132 -1.2273
 4134SOL     OW24034   0.789   2.925  11.731  0.2552  0.1299 -0.4317
 4134SOL    HW124035   0.753   3.006  11.695 -1.2524  0.3526  1.6049
 4134SOL    HW224036   0.881   2.930  11.703 -0.6075 -0.5336 -3.3743
 4135SOL     OW24037   2.909   4.457   9.126  0.2336 -0.0325 -0.3305
 4135SOL    HW124038   2.860   4.421   9.052 -0.5414 -1.4488  0.8648
 4135SOL    HW224039   2.904   4.382   9.186 -0.5878  0.2867  0.0014
 4136SOL     OW24040   0.072   0.457   4.472  0.3519 -0.0556  0.3660
 4136SOL    HW124041   0.136   0.397   4.510  1.6294 -0.1897 -1.9431
 4136SOL    HW224042   0.079   0.426   4.381 -3.2689  0.4285 -0.0626
 4137SOL     OW24043   0.192   1.638  11.155  0.1460 -0.2527  0.3384
 4137SOL    HW124044   0.122   1.617  11.093 -1.8259 -1.0262  2.8146
 4137SOL    HW224045   0.173   1.571  11.221 -1.8525  0.8705  0.8977
 4138SOL     OW24046   4.018   1.043  12.190 -0.2590 -0.0209 -0.5556
 4138SOL    HW124047   4.076   0.981  12.233 -1.8892 -0.1543  1.4520
 4138SOL    HW224048   4.073   1.120  12.193  1.3574 -1.1375 -1.4267
 4139SOL     OW24049   1.263   0.822   6.068 -0.0425 -0.2348 -0.0893
 4139SOL    HW124050   1.241   0.905   6.110  0.2968 -0.6147  0.8463
 4139SOL    HW224051   1.209   0.818   5.990 -0.4812 -0.4781  0.2254
 4140SOL     OW24052   3.351   1.162   3.782  0.1035  0.4094 -0.1130
 4140SOL    HW124053   3.276   1.137   3.727  0.3268  0.4414 -0.4332
 4140SOL    HW224054   3.297   1.217   3.839  1.3041  1.9805 -0.4856
 4141SOL     OW24055   1.203   2.658   2.727  0.1541 -0.3867  0.6899
 4141SOL    HW124056   1.177   2.738   2.773 -1.1622  1.0980 -2.7196
 4141SOL    HW224057   1.127   2.639   2.673  0.5019  1.1721 -0.3228
 4142SOL     OW24058   3.314   0.499   3.548  0.2123  0.7908  0.3804
 4142SOL    HW124059   3.380   0.546   3.600 -0.6238  3.9914 -1.5022
 4142SOL    HW224060   3.374   0.437   3.505 -1.9878 -1.5003  0.6215
 4143SOL     OW24061   0.650   3.524  11.549  0.0260 -0.3500  0.3202
 4143SOL    HW124062   0.575   3.465  11.544 -0.0214 -0.1387 -1.7504
 4143SOL    HW224063   0.602   3.591  11.597  0.2226 -0.8239  1.1631
 4144SOL     OW24064   1.142   1.544  11.563  0.4022 -0.4241 -0.1125
 4144SOL    HW124065   1.051   1.533  11.535 -0.1602 -2.1757  2.3172
 4144SOL    HW224066   1.157   1.477  11.630 -1.0283 -2.4440 -1.8118
 4145SOL     OW24067   0.402   3.864  11.587  0.4669 -0.2450 -0.0469
 4145SOL    HW124068   0.394   3.810  11.509 -1.4985 -1.4636  1.0045
 4145SOL    HW224069   0.430   3.808  11.659  1.1010 -1.2180 -1.0444
 4146SOL     OW24070   1.061   0.169  15.139  0.3830 -0.3781 -0.2358
 4146SOL    HW124071   1.110   0.239  15.182  0.4315 -0.9674  0.6631
 4146SOL    HW224072   1.081   0.092  15.191  0.0832 -1.6395 -1.9664
 4147SOL     OW24073   3.294   0.582   5.791  0.4392  0.6421 -0.7363
 4147SOL    HW124074   3.333   0.609   5.875 -1.7300  0.5063  0.3340
 4147SOL    HW224075   3.368   0.595   5.732  1.8536 -0.4180  0.8092
 4148SOL     OW24076   0.397   0.100  17.404 -0.6289 -0.4395 -0.3683
 4148SOL    HW124077   0.391   0.079  17.311 -1.0068 -1.5458 -0.0955
 4148SOL    HW224078   0.389   0.195  17.404 -1.3953 -0.4985 -2.6678
 4149SOL     OW24079   1.735   0.636   2.169  0.3989  0.3908 -0.3728
 4149SOL    HW124080   1.756   0.590   2.087 -0.2461  0.8676 -0.8072
 4149SOL    HW224081   1.771   0.584   2.241 -2.6946  1.4094  1.8976
 4150SOL     OW24082   0.681   1.539   2.417  0.7237 -0.0768 -0.7185
 4150SOL    HW124083   0.631   1.530   2.336  1.9926 -2.9097 -1.1950
 4150SOL    HW224084   0.666   1.451   2.454 -0.9739  0.9705  1.1138
 4151SOL     OW24085   1.898   1.005   6.113  0.2198 -0.8655 -0.6429
 4151SOL    HW124086   1.927   1.084   6.069  1.2570 -0.3999  0.8518
 4151SOL    HW224087   1.833   1.030   6.179  0.7733 -0.7732 -0.1398
 4152SOL     OW24088   2.384   1.236  11.400  0.2788  0.1053 -0.6282
 4152SOL    HW124089   2.355   1.220  11.490  0.0277 -0.5068 -0.8217
 4152SOL    HW224090   2.343   1.318  11.371  1.0122  0.9270  0.6532
 4153SOL     OW24091   3.694   1.904   8.907 -0.3760 -0.3925  0.3117
 4153SOL    HW124092   3.655   1.952   8.980 -1.3351  1.7817 -1.6122
 4153SOL    HW224093   3.786   1.928   8.915 -0.1746 -0.5463 -1.5544
 4154SOL     OW24094   1.657   2.909   3.461 -0.3831  0.4706  0.2332
 4154SOL    HW124095   1.658   2.871   3.549  0.2916 -0.9596 -0.4012
 4154SOL    HW224096   1.684   2.836   3.406  0.0852 -0.1852  1.3378
 4155SOL     OW24097   1.394   1.645  11.642  0.4205  0.5294 -0.1962
 4155SOL    HW124098   1.307   1.628  11.605  0.2951  1.5735 -0.3778
 4155SOL    HW224099   1.384   1.722  11.698  0.9273 -0.2254  0.9334
 4156SOL     OW24100   4.342   3.278   0.942 -0.6667  0.5463  0.6778
 4156SOL    HW124101   4.406   3.263   1.012  0.3135 -1.1947 -0.5948
 4156SOL    HW224102   4.335   3.192   0.901  0.1537  1.2203 -0.8599
 4157SOL     OW24103   4.255   0.847   6.298  0.1302  0.1742 -0.0916
 4157SOL    HW124104   4.225   0.817   6.213  0.9929 -0.4280 -0.1878
 4157SOL    HW224105   4.316   0.776   6.320  0.4510  0.1987 -0.8949
 4158SOL     OW24106   4.735   3.581   8.172  0.1628 -0.2346  0.0498
 4158SOL    HW124107   0.034   3.495   8.190 -1.1031 -1.1797 -1.7191
 4158SOL    HW224108   4.647   3.547   8.158  0.0954  0.3739 -1.0330
 4159SOL     OW24109   1.883   0.770   3.246 -0.4449 -0.4080  0.1638
 4159SOL    HW124110   1.859   0.791   3.155 -0.5739  0.6305  0.4425
 4159SOL    HW224111   1.800   0.778   3.291  1.5833 -0.8350  3.9595
 4160SOL     OW24112   2.670   2.589  16.485 -0.6298  0.3145  0.0126
 4160SOL    HW124113   2.752   2.585  16.435 -1.7111  0.3402 -1.7607
 4160SOL    HW224114   2.651   2.496  16.494  0.1961  0.0666 -0.7217
 4161SOL     OW24115   1.474   1.074   5.709 -0.3548  0.2670  0.3483
 4161SOL    HW124116   1.565   1.056   5.730  0.1679 -0.4528 -2.4995
 4161SOL    HW224117   1.479   1.089   5.615  1.3357 -0.3496  0.3442
 4162SOL     OW24118   0.974   2.188   3.971 -0.4361  0.8617 -0.4531
 4162SOL    HW124119   0.986   2.245   4.047 -0.9719  0.6456 -0.2083
 4162SOL    HW224120   0.996   2.100   4.003 -0.3554  1.2341  0.5229
 4163SOL     OW24121   4.051   2.177   3.200  0.0043 -0.0722 -0.3535
 4163SOL    HW124122   4.032   2.151   3.291  0.4546 -0.5086 -0.3846
 4163SOL    HW224123   3.960   2.182   3.171 -0.3317  1.6562  1.0252
 4164SOL     OW24124   2.797   2.794  17.194  0.0495  0.3029  0.6400
 4164SOL    HW124125   2.828   2.765  17.108  0.5235 -2.0570  1.5927
 4164SOL    HW224126   2.855   2.736  17.246 -2.0710 -2.2665  0.1432
 4165SOL     OW24127   2.332   2.682   8.905 -0.2379 -0.0599 -0.4100
 4165SOL    HW124128   2.425   2.702   8.918 -0.5512  1.3071 -0.2305
 4165SOL    HW224129   2.287   2.764   8.886  0.3380  0.1522 -0.8656
 4166SOL     OW24130   0.523   0.930   7.451  0.1146  0.1278  0.5988
 4166SOL    HW124131   0.535   1.025   7.459  0.3785  0.3420 -2.2826
 4166SOL    HW224132   0.605   0.887   7.474  1.3157  3.0764  1.8371
 4167SOL     OW24133   4.065   1.131   6.506  1.0063  0.4742 -0.3813
 4167SOL    HW124134   4.095   1.167   6.589 -1.2889  0.6306  0.3907
 4167SOL    HW224135   4.035   1.208   6.458  1.7133  0.6217 -0.5798
 4168SOL     OW24136   2.829   2.599   5.887 -0.0318  0.4470  0.3114
 4168SOL    HW124137   2.751   2.643   5.919 -1.4836 -0.9399 -1.3154
 4168SOL    HW224138   2.839   2.646   5.803 -0.3102  1.8412  1.0623
 4169SOL     OW24139   3.373   4.105   4.891 -0.1264 -0.1602  0.5852
 4169SOL    HW124140   3.312   4.178   4.883  0.7745  0.6288  0.8710
 4169SOL    HW224141   3.432   4.111   4.816  2.3388 -1.7959  2.3946
 4170SOL     OW24142   2.616   0.566   2.670  0.0278 -0.1023 -0.5653
 4170SOL    HW124143   2.689   0.550   2.730 -1.2423 -1.2481  0.6924
 4170SOL    HW224144   2.666   0.589   2.592 -0.7252  2.2900 -0.3169
 4171SOL     OW24145   0.228   2.341   4.084 -0.2584 -0.2967 -0.2030
 4171SOL    HW124146   0.211   2.288   4.006  0.8025  0.7705 -1.1476
 4171SOL    HW224147   0.323   2.349   4.077 -0.1947  0.4492  1.5510
 4172SOL     OW24148   3.047   2.679   3.232  0.0151  0.0147 -0.1588
 4172SOL    HW124149   3.118   2.732   3.195 -0.2423  0.1590 -0.4462
 4172SOL    HW224150   2.971   2.736   3.223  1.0956  0.9019 -3.8222
 4173SOL     OW24151   1.981   0.635   2.933 -0.0825 -0.5906  0.1253
 4173SOL    HW124152   2.024   0.652   2.849 -1.1974  2.4812  0.1759
 4173SOL    HW224153   2.052   0.639   2.997 -0.5182 -1.6536  0.6833
 4174SOL     OW24154   4.152   3.362   5.339 -0.2700  0.4382 -0.6165
 4174SOL    HW124155   4.187   3.274   5.328 -1.3810 -0.2989  1.7179
 4174SOL    HW224156   4.082   3.342   5.400  1.5236  2.8605  2.2423
 4175SOL     OW24157   2.698   1.871   6.730  0.4143 -0.1898  0.5914
 4175SOL    HW124158   2.603   1.879   6.720  0.7978  3.3027 -0.2202
 4175SOL    HW224159   2.734   1.843   6.646 -0.3276 -1.5035  0.7067
 4176SOL     OW24160   0.130   2.855   1.988 -0.6740 -0.7324 -0.2378
 4176SOL    HW124161   0.034   2.846   1.986 -0.7943 -0.1913  3.7298
 4176SOL    HW224162   0.147   2.884   1.898 -0.0080 -0.7022 -0.1018
 4177SOL     OW24163   0.873   4.595  11.818  0.2490 -0.7290  0.4651
 4177SOL    HW124164   0.916   4.669  11.861 -0.9489 -0.7314  1.6614
 4177SOL    HW224165   0.860   4.633  11.731  4.6098  2.6923  1.2874
 4178SOL     OW24166   3.226   4.092   9.274  0.6427  0.1111 -0.3033
 4178SOL    HW124167   3.208   4.034   9.200 -1.9307  0.7743 -0.1874
 4178SOL    HW224168   3.255   4.032   9.344  0.2887  0.3067  0.0086
 4179SOL     OW24169   3.671   2.421  10.567 -0.1249 -0.2383 -0.2249
 4179SOL    HW124170   3.737   2.379  10.511 -1.1275 -0.7608 -1.0254
 4179SOL    HW224171   3.655   2.349  10.628 -1.2940  1.0322  0.9415
 4180SOL     OW24172   2.555   3.712   4.885  0.3619 -0.2877 -0.3636
 4180SOL    HW124173   2.644   3.677   4.894  0.3191 -0.5047 -0.7629
 4180SOL    HW224174   2.529   3.686   4.797  2.1319 -2.6258 -0.2062
 4181SOL     OW24175   3.678   0.919   2.995  0.3855 -0.1552 -0.5248
 4181SOL    HW124176   3.741   0.984   2.963  0.3787 -1.1117 -2.4944
 4181SOL    HW224177   3.613   0.963   3.049 -1.1099 -3.2068  0.1308
 4182SOL     OW24178   4.454   4.480   7.144 -0.1938 -0.7468  0.5937
 4182SOL    HW124179   4.460   4.421   7.219  1.9328 -0.6351  0.5163
 4182SOL    HW224180   4.472   4.426   7.067  1.5711  1.0177 -0.2423
 4183SOL     OW24181   0.422   3.041   7.339  0.0315  0.1759 -0.4085
 4183SOL    HW124182   0.426   2.985   7.261  0.1512 -2.0072  1.1698
 4183SOL    HW224183   0.392   3.125   7.304  1.2004  0.5943 -0.4151
 4184SOL     OW24184   2.504   0.010   8.026  0.7765 -0.1524  0.1218
 4184SOL    HW124185   2.415   0.002   7.994  1.1750 -0.4860 -0.8958
 4184SOL    HW224186   2.518   4.660   8.059 -1.1420 -0.4188  0.1941
 4185SOL     OW24187   2.669   3.289  10.995 -0.5147  0.4218  0.2211
 4185SOL    HW124188   2.625   3.362  10.952 -1.8499 -1.2545 -1.2663
 4185SOL    HW224189   2.754   3.325  11.019 -0.1059 -0.0861 -0.4707
 4186SOL     OW24190   1.479   1.811  14.006  0.4266 -0.3659  0.6427
 4186SOL    HW124191   1.497   1.839  13.916 -3.2585 -0.9770 -0.2590
 4186SOL    HW224192   1.455   1.719  13.997  0.0199 -0.2337  0.3905
 4187SOL     OW24193   1.867   2.559  11.023 -0.3457 -0.4754 -0.4092
 4187SOL    HW124194   1.959   2.562  11.047 -0.6220  0.8978  0.4674
 4187SOL    HW224195   1.864   2.584  10.930 -1.3967 -1.1528 -0.5567
 4188SOL     OW24196   0.140   4.451  12.256  0.3595 -0.2944 -0.4177
 4188SOL    HW124197   0.103   4.497  12.331  0.8435  0.6347 -0.7512
 4188SOL    HW224198   0.229   4.486  12.252  0.1878  0.3679  1.8713
 4189SOL     OW24199   1.451   3.388   8.095  0.0167  0.3628 -0.2665
 4189SOL    HW124200   1.493   3.312   8.136 -1.2728 -0.3822 -0.3378
 4189SOL    HW224201   1.379   3.354   8.042 -0.9004 -1.6827  2.2440
 4190SOL     OW24202   0.805   3.539  15.128  0.4788 -0.9297  0.0390
 4190SOL    HW124203   0.819   3.565  15.037 -0.9009 -3.1566 -0.8167
 4190SOL    HW224204   0.724   3.487  15.122 -0.1648  0.2389 -1.4693
 4191SOL     OW24205   0.149   3.559   8.581  0.2106  0.6665 -0.0361
 4191SOL    HW124206   0.197   3.523   8.506  0.8958  2.0976 -0.3057
 4191SOL    HW224207   0.066   3.574   8.537 -0.1082 -2.2318 -0.4065
 4192SOL     OW24208   1.584   4.060  16.912 -0.1973 -0.7254  0.1902
 4192SOL    HW124209   1.628   3.978  16.937  1.8335  0.4668  0.5758
 4192SOL    HW224210   1.548   4.043  16.825  1.2633  0.4908 -0.6432
 4193SOL     OW24211   0.179   1.245   4.339  0.0426  0.4502 -0.3816
 4193SOL    HW124212   0.231   1.281   4.411  2.0992 -4.9442  0.7981
 4193SOL    HW224213   0.250   1.210   4.285  1.0555  0.8325  0.6838
 4194SOL     OW24214   0.143   3.110   8.043  0.4373  0.3551  0.1014
 4194SOL    HW124215   0.179   3.194   8.014  0.4683  0.0901 -0.6389
 4194SOL    HW224216   0.142   3.067   7.957  2.1862  2.5010 -1.0018
 4195SOL     OW24217   0.716   0.966   5.962  0.2801  0.4323  0.3476
 4195SOL    HW124218   0.740   0.874   5.949 -0.7957  0.3181 -0.9014
 4195SOL    HW224219   0.752   0.997   5.879  0.8093  0.9027  0.7549
 4196SOL     OW24220   1.050   3.794   0.069  0.2722  1.0149  0.0537
 4196SOL    HW124221   1.123   3.855   0.053  0.6560  0.2807 -1.0166
 4196SOL    HW224222   1.027   3.817   0.159  0.6177  0.5730  0.2529
 4197SOL     OW24223   1.256   0.428   3.115  0.1482  0.1441 -0.0063
 4197SOL    HW124224   1.339   0.475   3.104  0.4200  0.4390  3.1781
 4197SOL    HW224225   1.199   0.502   3.137  1.5465  0.8052  1.3888
 4198SOL     OW24226   2.876   4.165   3.161 -0.0565  0.4208  0.0883
 4198SOL    HW124227   2.875   4.080   3.116 -0.8427  0.7095 -0.4407
 4198SOL    HW224228   2.951   4.146   3.218 -0.1501 -0.3829 -0.0648
 4199SOL     OW24229   3.985   3.308   2.944 -0.3714 -0.1044  0.2796
 4199SOL    HW124230   4.060   3.329   2.999  0.8249  2.3641 -2.2240
 4199SOL    HW224231   3.915   3.335   3.003 -1.0876 -1.9949  0.2945
 4200SOL     OW24232   2.847   3.650   1.613  0.1456 -0.2056  0.4131
 4200SOL    HW124233   2.825   3.585   1.546  0.3714 -0.9449  1.0579
 4200SOL    HW224234   2.812   3.611   1.693 -1.3408 -2.4355 -1.3292
 4201SOL     OW24235   2.983   4.547   5.867  0.4706 -0.3607 -0.4005
 4201SOL    HW124236   2.936   4.478   5.913  0.1256 -0.3592 -0.7491
 4201SOL    HW224237   3.071   4.511   5.861  1.4006  1.4216  2.6218
 4202SOL     OW24238   4.371   2.587   9.504 -0.3454 -0.5890  0.4125
 4202SOL    HW124239   4.400   2.630   9.423 -1.5129  1.3637  1.0175
 4202SOL    HW224240   4.279   2.563   9.492 -0.2702 -0.5981 -0.1447
 4203SOL     OW24241   0.492   2.538   9.112  0.3464 -0.0690  0.0476
 4203SOL    HW124242   0.417   2.500   9.158  1.4994  0.7352  2.5933
 4203SOL    HW224243   0.504   2.484   9.034  0.6538 -1.6545  1.2029
 4204SOL     OW24244   0.256   1.037  12.177 -0.7066 -0.1997 -0.0075
 4204SOL    HW124245   0.172   1.038  12.130  0.5123  1.2824 -2.1177
 4204SOL    HW224246   0.318   1.073  12.113 -0.0943  2.5877  2.2129
 4205SOL     OW24247   0.566   0.287   5.900 -0.1405 -0.7228  0.1818
 4205SOL    HW124248   0.593   0.222   5.965  1.2150  1.1073  1.4451
 4205SOL    HW224249   0.493   0.328   5.945 -0.0707  0.6744 -0.9956
 4206SOL     OW24250   4.015   2.700  16.401 -0.2419 -0.1020 -0.2039
 4206SOL    HW124251   4.091   2.730  16.451  0.7966  1.8866 -3.0185
 4206SOL    HW224252   3.942   2.728  16.456 -0.1266 -2.3095  1.1041
 4207SOL     OW24253   2.006   1.661   6.905 -0.1886  0.0570 -0.1472
 4207SOL    HW124254   2.023   1.724   6.975 -1.7959 -0.6988  0.9260
 4207SOL    HW224255   1.984   1.578   6.947  0.0239  0.9174  1.6509
 4208SOL     OW24256   4.001   3.993   6.864  0.2450  0.6260 -0.1766
 4208SOL    HW124257   4.059   3.942   6.922  1.1974 -0.2573 -1.8997
 4208SOL    HW224258   4.020   4.081   6.896  0.1882  0.8458 -0.7471
 4209SOL     OW24259   2.348   0.994   1.870  0.4653 -0.4792  0.7503
 4209SOL    HW124260   2.418   0.972   1.808  2.3158  2.9085  1.6436
 4209SOL    HW224261   2.346   1.090   1.869  0.2603 -0.4812  1.3773
 4210SOL     OW24262   4.282   3.166   3.523  0.1415 -0.1140 -0.0600
 4210SOL    HW124263   4.359   3.194   3.475 -0.2681  0.5274 -0.3432
 4210SOL    HW224264   4.236   3.116   3.455 -0.0905 -1.7068  1.2648
 4211SOL     OW24265   2.189   4.671   8.300  1.1896  0.1541  0.3960
 4211SOL    HW124266   2.196   4.687   8.206 -0.5353 -0.2866  0.1951
 4211SOL    HW224267   2.230   0.003   8.349  2.1352 -0.9090  1.1736
 4212SOL     OW24268   2.644   1.997   6.972 -0.3440 -0.3674  0.3616
 4212SOL    HW124269   2.689   1.961   6.896  1.7592  1.2873  0.8217
 4212SOL    HW224270   2.588   2.058   6.925  1.8215  1.1211 -0.2788
 4213SOL     OW24271   4.283   0.322  16.825 -0.2253 -0.6119 -0.0832
 4213SOL    HW124272   4.236   0.316  16.743 -0.3348  0.0629 -0.0750
 4213SOL    HW224273   4.373   0.326  16.794 -0.4818 -0.4148 -0.7904
 4214SOL     OW24274   0.663   0.454   8.794 -0.2086  0.1700  0.0659
 4214SOL    HW124275   0.723   0.496   8.855 -0.5935  1.4073 -0.4060
 4214SOL    HW224276   0.598   0.416   8.853  2.2244 -3.3365  0.5282
 4215SOL     OW24277   4.428   1.219  12.159 -0.3734  0.2604 -0.1803
 4215SOL    HW124278   4.404   1.129  12.180  1.2062  0.2469  1.5122
 4215SOL    HW224279   4.523   1.225  12.158 -0.3672 -0.0068 -1.2843
 4216SOL     OW24280   0.147   0.192   2.958 -0.2855  0.2217 -0.1259
 4216SOL    HW124281   0.208   0.148   2.899 -0.9863  1.8972 -2.1565
 4216SOL    HW224282   0.108   0.245   2.888 -0.7871 -1.1815 -0.9026
 4217SOL     OW24283   1.415   2.632   5.057 -0.1001  0.2045  0.2028
 4217SOL    HW124284   1.507   2.657   5.049 -0.4219  1.1009 -0.7098
 4217SOL    HW224285   1.405   2.618   5.151  3.6718  1.0372  0.7435
 4218SOL     OW24286   0.387   4.031   5.630 -0.1195  0.0177  0.0168
 4218SOL    HW124287   0.454   3.983   5.678  0.9293  0.3318 -1.1158
 4218SOL    HW224288   0.315   4.021   5.691 -0.7881 -2.6111 -1.1782
 4219SOL     OW24289   4.024   1.218  11.163 -0.0349  0.1551  0.2289
 4219SOL    HW124290   3.995   1.194  11.251 -1.2699  1.9292  0.3179
 4219SOL    HW224291   4.116   1.220  11.187 -0.0063 -0.9145  0.1977
 4220SOL     OW24292   2.023   0.702   4.106  0.1819 -0.2493 -0.4624
 4220SOL    HW124293   1.971   0.781   4.099 -1.2321 -1.0483  1.0366
 4220SOL    HW224294   2.101   0.736   4.150 -0.7010  2.1569 -0.7836
 4221SOL     OW24295   3.413   3.329   6.845  0.4545 -0.4447  0.5953
 4221SOL    HW124296   3.397   3.404   6.787  2.3427 -0.4096  0.0961
 4221SOL    HW224297   3.500   3.351   6.878  0.2053  0.3832  0.7104
 4222SOL     OW24298   0.585   2.449   3.092 -0.0464 -0.1406  0.0130
 4222SOL    HW124299   0.667   2.478   3.050  0.7628 -0.5877  1.2859
 4222SOL    HW224300   0.613   2.419   3.179  3.1990 -2.4545 -1.8396
 4223SOL     OW24301   3.057   0.552   8.662  0.1003  0.3540 -0.3101
 4223SOL    HW124302   2.974   0.521   8.626  1.0627 -0.2584 -2.0017
 4223SOL    HW224303   3.110   0.547   8.582 -1.7219  1.3182 -1.5813
 4224SOL     OW24304   3.875   0.025  15.117 -0.5114 -0.1283  0.0472
 4224SOL    HW124305   3.964   4.730  15.108 -0.2698  0.6253 -0.3574
 4224SOL    HW224306   3.887   0.119  15.107  0.7112  0.0668  3.3897
 4225SOL     OW24307   4.720   2.837   3.059 -0.4086 -0.0996  0.2305
 4225SOL    HW124308   0.021   2.784   2.991  1.4398  2.0258 -0.3189
 4225SOL    HW224309   4.645   2.886   3.025  0.4746  0.0224 -1.5579
 4226SOL     OW24310   2.470   1.653   1.196  0.1620  0.1772 -0.5034
 4226SOL    HW124311   2.414   1.695   1.131 -2.0618 -1.3645  0.4385
 4226SOL    HW224312   2.398   1.617   1.247  0.2627 -2.6120 -2.3271
 4227SOL     OW24313   3.636   4.295   9.457 -0.0099 -0.4017 -0.1848
 4227SOL    HW124314   3.576   4.287   9.383 -1.3727 -3.4730  1.2300
 4227SOL    HW224315   3.713   4.247   9.426  0.5902  0.8307 -0.5925
 4228SOL     OW24316   2.161   4.088   4.786 -0.3844  0.3209  0.2549
 4228SOL    HW124317   2.223   4.015   4.791  0.1227  0.6478 -1.0482
 4228SOL    HW224318   2.080   4.044   4.759 -0.9676  1.5414  0.0237
 4229SOL     OW24319   3.523   1.819   9.319 -0.2926  0.4187  0.0253
 4229SOL    HW124320   3.550   1.749   9.378  0.4668  0.3387 -0.4115
 4229SOL    HW224321   3.604   1.849   9.278  0.5619 -0.0972  1.3367
 4230SOL     OW24322   2.892   3.664   9.084 -0.2304  0.4366 -0.0114
 4230SOL    HW124323   2.922   3.743   9.129 -1.5032 -0.3272  2.1760
 4230SOL    HW224324   2.916   3.596   9.147 -2.0772 -1.5244 -1.4546
 4231SOL     OW24325   0.743   0.993   9.029  0.3063  0.2532 -0.8209
 4231SOL    HW124326   0.695   0.930   8.974  2.7805 -0.7672 -1.8060
 4231SOL    HW224327   0.835   0.968   9.022 -0.1621 -1.4839 -0.7381
 4232SOL     OW24328   0.334   2.398   3.661  0.4355 -0.0304  0.3325
 4232SOL    HW124329   0.296   2.336   3.599  1.0393  1.5390 -1.6442
 4232SOL    HW224330   0.402   2.441   3.609 -1.1880  1.0726 -0.9048
 4233SOL     OW24331   1.127   4.090   7.542 -0.5987  0.0288 -0.0680
 4233SOL    HW124332   1.132   4.064   7.450 -0.6372  0.5758 -0.2273
 4233SOL    HW224333   1.095   4.180   7.533  3.0910  1.2567 -0.5622
 4234SOL     OW24334   2.664   1.640   0.817  0.4169 -0.1042  0.5985
 4234SOL    HW124335   2.617   1.722   0.807 -0.1434 -0.5727 -0.5871
 4234SOL    HW224336   2.601   1.600   0.878  0.5411  1.1839  1.5640
 4235SOL     OW24337   1.249   2.074   7.095 -0.2848  0.1849  0.2832
 4235SOL    HW124338   1.316   2.058   7.161 -1.3468  0.1614  1.3721
 4235SOL    HW224339   1.178   2.088   7.158  1.1484 -0.1616  1.9604
 4236SOL     OW24340   1.631   3.087   6.260  0.5904  0.3942  0.2811
 4236SOL    HW124341   1.596   3.111   6.175  2.8857 -0.7105 -0.9881
 4236SOL    HW224342   1.720   3.123   6.253  0.2390  1.5936  1.9179
 4237SOL     OW24343   1.412   3.416   4.451 -0.6238  0.5654 -0.3962
 4237SOL    HW124344   1.437   3.326   4.430 -0.5776  0.9414 -1.9604
 4237SOL    HW224345   1.346   3.430   4.383 -2.5781 -1.5211  1.0627
 4238SOL     OW24346   4.263   3.107   7.684  0.0363  0.4748 -0.0300
 4238SOL    HW124347   4.301   3.098   7.597  0.8904 -1.6666  0.5823
 4238SOL    HW224348   4.268   3.013   7.699  1.5320  0.3043 -1.5740
 4239SOL     OW24349   1.989   1.563   7.842  0.3654 -0.2175 -0.1062
 4239SOL    HW124350   1.925   1.595   7.779 -0.4960 -1.6137  0.0587
 4239SOL    HW224351   2.028   1.643   7.878 -3.4003  1.0677  1.0466
 4240SOL     OW24352   0.462   2.952  15.746  0.2187  0.3338  0.8969
 4240SOL    HW124353   0.484   2.901  15.824  0.4243 -0.8014  0.0924
 4240SOL    HW224354   0.394   2.895  15.710 -0.1526  1.9994 -1.0737
 4241SOL     OW24355   1.310   2.125   5.822 -0.0859  0.1310 -0.1031
 4241SOL    HW124356   1.367   2.111   5.747  1.0699 -2.2834  1.2375
 4241SOL    HW224357   1.366   2.174   5.883 -0.8043  1.8427 -0.8058
 4242SOL     OW24358   1.734   1.061   5.776  0.3473 -0.4985 -0.2662
 4242SOL    HW124359   1.811   1.010   5.749 -0.2291 -0.6474 -1.5843
 4242SOL    HW224360   1.745   1.053   5.871 -0.2835  1.6096 -0.0311
 4243SOL     OW24361   0.395   0.751   7.293 -0.5173  0.0189  0.3845
 4243SOL    HW124362   0.311   0.787   7.264 -0.8081 -0.7321  0.2737
 4243SOL    HW224363   0.438   0.826   7.333  2.3904 -1.1438 -0.5431
 4244SOL     OW24364   1.631   1.445  16.670  0.1197  0.0798 -0.6459
 4244SOL    HW124365   1.558   1.504  16.689 -0.8424 -0.1567 -3.5735
 4244SOL    HW224366   1.690   1.463  16.744 -0.0459  4.5005 -1.5668
 4245SOL     OW24367   3.786   3.028  13.059  0.5891  0.1045 -0.4518
 4245SOL    HW124368   3.822   3.116  13.050 -0.5895  0.7531  1.1130
 4245SOL    HW224369   3.724   3.024  13.133  1.7749  2.2627  0.6615
 4246SOL     OW24370   3.912   1.496   3.122  0.1005  0.6672  0.5194
 4246SOL    HW124371   3.840   1.520   3.064  0.1699 -3.1652 -1.1323
 4246SOL    HW224372   3.879   1.417   3.165 -1.5062  0.7601 -0.5394
 4247SOL     OW24373   1.909   3.304   8.724  0.7355  0.0987  0.0658
 4247SOL    HW124374   1.971   3.364   8.683  1.2627 -1.7340 -1.8298
 4247SOL    HW224375   1.873   3.361   8.792  2.7683  0.2629  1.0018
 4248SOL     OW24376   4.525   2.638   5.865  0.0288 -0.5871 -0.8163
 4248SOL    HW124377   4.505   2.589   5.945  2.0663 -0.5465 -0.2708
 4248SOL    HW224378   4.476   2.596   5.795 -1.8688 -1.5190  1.0698
 4249SOL     OW24379   1.731   1.247  13.190 -0.4916  0.2050  0.4614
 4249SOL    HW124380   1.737   1.172  13.130 -1.8258  0.6712 -0.2323
 4249SOL    HW224381   1.675   1.311  13.148  0.1649  0.7430  0.4077
 4250SOL     OW24382   4.066   2.101   7.829 -0.5391  0.3015  0.1218
 4250SOL    HW124383   4.002   2.097   7.759  2.8593  0.0592 -2.9453
 4250SOL    HW224384   3.999   2.097   7.898 -2.0876 -0.9909 -1.4403
 4251SOL     OW24385   2.108   1.719   5.321 -0.8706  0.9704 -0.2537
 4251SOL    HW124386   2.063   1.656   5.377 -0.1553  1.1628  0.5433
 4251SOL    HW224387   2.039   1.723   5.255 -1.9467  0.5917  0.8590
 4252SOL     OW24388   1.560   3.919   7.858  0.8346 -0.9915  0.8450
 4252SOL    HW124389   1.491   3.887   7.916  0.4185 -1.5088  0.0593
 4252SOL    HW224390   1.614   3.969   7.920  0.8575  0.6740 -0.5066
 4253SOL     OW24391   3.479   2.279   2.256 -0.0100 -0.3858 -0.1884
 4253SOL    HW124392   3.539   2.318   2.319  0.3327  0.8531 -1.2802
 4253SOL    HW224393   3.495   2.339   2.183 -1.0748 -0.1335 -0.2146
 4254SOL     OW24394   4.367   1.338   1.272  0.1175 -0.3229  0.2403
 4254SOL    HW124395   4.362   1.277   1.199  0.9632  0.4739 -0.4729
 4254SOL    HW224396   4.318   1.416   1.245 -0.7688 -1.7365 -2.1863
 4255SOL     OW24397   4.586   3.995   3.688 -0.0090 -0.2234 -0.4624
 4255SOL    HW124398   4.568   3.989   3.781 -1.7363 -0.3807 -0.8101
 4255SOL    HW224399   4.501   4.027   3.658 -0.6931  0.6325  2.4104
 4256SOL     OW24400   4.015   4.677   6.874 -0.2838  0.1613  0.5925
 4256SOL    HW124401   4.020   4.590   6.836 -2.5843  1.0168 -1.6722
 4256SOL    HW224402   3.980   4.666   6.962  2.5532 -0.6346  1.6366
 4257SOL     OW24403   4.055   3.848   2.373  0.3213  0.4548  0.0576
 4257SOL    HW124404   4.047   3.905   2.296 -2.7334  1.1409  0.8878
 4257SOL    HW224405   4.148   3.858   2.390  0.1518  1.8168  0.1817
 4258SOL     OW24406   0.038   2.633   2.837 -0.0445  0.3384 -0.5908
 4258SOL    HW124407   0.095   2.630   2.761  0.2411 -0.7935 -0.3309
 4258SOL    HW224408   0.030   2.544   2.871  2.7753  0.4432  0.3417
 4259SOL     OW24409   3.801   1.441  17.070 -0.2929 -0.8381 -0.2963
 4259SOL    HW124410   3.894   1.455  17.087 -0.5609  0.5147  0.0340
 4259SOL    HW224411   3.791   1.473  16.981  0.3092 -0.1713 -0.1163
 4260SOL     OW24412   2.751   2.200   5.143  0.3586  0.6589  0.4601
 4260SOL    HW124413   2.804   2.278   5.126 -0.6494  0.6368 -2.7925
 4260SOL    HW224414   2.785   2.145   5.072 -3.0150 -0.0916 -0.5919
 4261SOL     OW24415   0.618   1.314  14.745 -0.4209  0.1935  0.0231
 4261SOL    HW124416   0.600   1.399  14.785 -0.0515  1.1297 -1.7840
 4261SOL    HW224417   0.697   1.278  14.787 -0.3625 -1.7493 -1.7296
 4262SOL     OW24418   2.407   1.322   3.798  0.5305  0.7485  0.3911
 4262SOL    HW124419   2.430   1.405   3.757  1.3633  0.5625  0.4738
 4262SOL    HW224420   2.386   1.262   3.726 -1.2167 -0.1264  1.6301
 4263SOL     OW24421   1.957   4.536   3.481  0.4920 -0.4606 -0.1107
 4263SOL    HW124422   1.964   4.468   3.414 -1.1077 -0.2197 -0.5116
 4263SOL    HW224423   1.918   4.489   3.555 -0.8052  0.6374 -0.1041
 4264SOL     OW24424   0.154   1.393   8.219 -0.0285  0.3941  0.2686
 4264SOL    HW124425   0.235   1.376   8.268 -1.0366  0.1758  1.8612
 4264SOL    HW224426   0.096   1.343   8.276  0.6101 -0.9216 -0.2295
 4265SOL     OW24427   3.915   3.447  14.868 -0.0109  0.4991 -0.0148
 4265SOL    HW124428   3.879   3.421  14.783  0.2078  0.9888 -0.2522
 4265SOL    HW224429   3.958   3.364  14.889  0.9698  0.6007 -1.6364
 4266SOL     OW24430   0.039   3.846   1.599 -0.0228  0.2620  0.0018
 4266SOL    HW124431   0.018   3.837   1.506  1.1189 -2.7658  0.0450
 4266SOL    HW224432   0.124   3.802   1.601  1.0225  2.2578 -0.3596
 4267SOL     OW24433   0.619   1.490   8.024  0.2615  0.5266 -0.2640
 4267SOL    HW124434   0.614   1.473   7.930 -0.2575 -1.4565  0.1153
 4267SOL    HW224435   0.707   1.457   8.040  0.0779  0.3420  0.3919
 4268SOL     OW24436   0.830   4.453  10.471 -0.4974 -0.2137 -0.1462
 4268SOL    HW124437   0.736   4.440  10.460 -0.6651  0.0868  0.9402
 4268SOL    HW224438   0.850   4.505  10.393  2.7166  1.0440  1.5170
 4269SOL     OW24439   3.192   1.094   7.377  0.1571 -0.2170 -0.2370
 4269SOL    HW124440   3.234   1.104   7.291 -1.7981 -0.5332 -1.2074
 4269SOL    HW224441   3.172   1.000   7.380 -1.5148  0.1023 -1.6075
 4270SOL     OW24442   2.691   1.750  15.352  0.6210 -0.1886  0.0872
 4270SOL    HW124443   2.724   1.682  15.410  1.1687  0.0656  0.0761
 4270SOL    HW224444   2.689   1.819  15.419 -1.9494 -2.6710  2.5535
 4271SOL     OW24445   4.336   2.309   1.805 -0.3042 -0.8816  0.1648
 4271SOL    HW124446   4.274   2.265   1.864  1.9634 -1.8010  1.8386
 4271SOL    HW224447   4.276   2.357   1.747  0.8841 -0.3595 -0.6198
 4272SOL     OW24448   3.302   2.052   5.813 -0.2918  0.5444  0.4686
 4272SOL    HW124449   3.307   2.117   5.883  0.8899  0.9358  0.0080
 4272SOL    HW224450   3.299   2.106   5.735 -0.9422  1.0349  0.8341
 4273SOL     OW24451   0.972   1.119   7.791  0.1990 -0.3835 -0.3832
 4273SOL    HW124452   0.961   1.189   7.727  0.0606  1.7842  2.0210
 4273SOL    HW224453   1.020   1.173   7.854  0.4885 -0.9346 -0.1295
 4274SOL     OW24454   2.481   1.438   8.974 -0.6564 -0.5309  0.0371
 4274SOL    HW124455   2.408   1.434   9.036 -1.3641 -2.4831 -0.9056
 4274SOL    HW224456   2.519   1.518   9.009 -0.0816 -0.5414 -0.5634
 4275SOL     OW24457   0.516   3.811   2.810 -0.1400 -0.0328 -0.6554
 4275SOL    HW124458   0.603   3.833   2.775 -0.3487  0.2479 -0.9945
 4275SOL    HW224459   0.515   3.719   2.834 -1.0584  0.5324  1.4692
 4276SOL     OW24460   2.705   0.823  14.167  0.2337 -0.0278 -0.4419
 4276SOL    HW124461   2.790   0.825  14.213  2.1463 -0.1562 -3.9640
 4276SOL    HW224462   2.724   0.786  14.081 -0.4714  0.8669 -0.9760
 4277SOL     OW24463   2.328   2.521  10.750  0.3064  0.4494 -0.1055
 4277SOL    HW124464   2.297   2.434  10.777  1.8782  0.4322  1.6271
 4277SOL    HW224465   2.367   2.569  10.823 -0.0790  1.1228 -0.3446
 4278SOL     OW24466   4.394   0.286   2.248 -0.4482  0.0419 -0.2431
 4278SOL    HW124467   4.452   0.355   2.217 -0.6147 -0.5218 -1.8179
 4278SOL    HW224468   4.445   0.259   2.324  0.1145 -0.3081 -0.7466
 4279SOL     OW24469   2.639   0.248   5.809  0.5300  0.1525  0.1437
 4279SOL    HW124470   2.638   0.241   5.714 -0.1150 -1.5547  0.2853
 4279SOL    HW224471   2.725   0.288   5.819  1.0363 -0.5456 -1.5217
 4280SOL     OW24472   4.444   2.097  16.695 -0.8954 -0.0556 -0.3332
 4280SOL    HW124473   4.527   2.056  16.717 -1.2062 -0.9433 -0.7920
 4280SOL    HW224474   4.396   2.082  16.776  0.1097  0.0615  0.2824
 4281SOL     OW24475   2.721   0.437   7.191  0.1601  0.1999 -0.0584
 4281SOL    HW124476   2.720   0.451   7.096  1.0405  0.9843  0.0422
 4281SOL    HW224477   2.762   0.518   7.223 -1.0657  0.6094  0.4936
 4282SOL     OW24478   3.657   2.309   1.379 -0.1018  0.5094 -0.2361
 4282SOL    HW124479   3.611   2.242   1.429 -0.8301  1.7595  0.7588
 4282SOL    HW224480   3.598   2.385   1.384 -0.0346  0.4725  1.0050
 4283SOL     OW24481   4.585   4.006   6.067 -0.2811 -0.0847  0.9005
 4283SOL    HW124482   4.637   4.069   6.017  1.3795 -1.3367  1.0121
 4283SOL    HW224483   4.569   3.931   6.010 -0.6049 -0.3451  1.3414
 4284SOL     OW24484   0.499   3.304   0.708 -0.1569  0.4699  0.3158
 4284SOL    HW124485   0.439   3.374   0.731 -1.1483  0.1048 -1.1628
 4284SOL    HW224486   0.492   3.248   0.786  1.7319  0.9497  0.8383
 4285SOL     OW24487   0.527   4.705   7.962 -0.3714 -0.5070 -0.0907
 4285SOL    HW124488   0.537   4.699   7.867 -0.1796  1.3765 -0.1984
 4285SOL    HW224489   0.543   0.059   7.978 -0.1443 -0.8688  1.7396
 4286SOL     OW24490   3.125   4.374   1.052 -0.5399 -0.6148 -0.5510
 4286SOL    HW124491   3.172   4.457   1.059 -0.1283 -0.7952 -1.1980
 4286SOL    HW224492   3.144   4.336   1.138  0.4997  0.5399 -0.2781
 4287SOL     OW24493   1.865   3.690   5.136 -0.3813  0.3755  0.1323
 4287SOL    HW124494   1.839   3.778   5.108 -1.5794  0.8083  2.6410
 4287SOL    HW224495   1.958   3.689   5.110  0.5262 -2.3907  3.5126
 4288SOL     OW24496   0.385   0.108   7.180  0.1678  0.2348 -0.6923
 4288SOL    HW124497   0.328   0.089   7.254  2.4279 -0.5034  0.8664
 4288SOL    HW224498   0.333   0.066   7.112 -1.8886 -1.6352  2.0170
 4289SOL     OW24499   1.803   0.407  16.872  0.5148  0.2681  0.4481
 4289SOL    HW124500   1.765   0.365  16.949 -0.3220  2.3115  1.1414
 4289SOL    HW224501   1.719   0.423  16.828 -0.0598 -0.9118  1.1210
 4290SOL     OW24502   0.425   1.506   9.304  0.1648  0.2525 -0.0115
 4290SOL    HW124503   0.480   1.446   9.355 -0.1493  0.4776  0.5904
 4290SOL    HW224504   0.449   1.483   9.214  0.1684 -0.3874  0.1512
 4291SOL     OW24505   1.399   1.746   2.184 -0.1992 -0.0717 -0.1042
 4291SOL    HW124506   1.464   1.809   2.151 -1.9175  1.4103 -0.6963
 4291SOL    HW224507   1.319   1.799   2.184  1.1206  1.8938  1.5040
 4292SOL     OW24508   2.568   4.106   8.686  0.3372  0.0294 -0.0740
 4292SOL    HW124509   2.516   4.048   8.631 -0.3954  0.2099  0.4308
 4292SOL    HW224510   2.505   4.142   8.748  0.4583  1.7775 -0.9540
 4293SOL     OW24511   4.561   3.241   8.974  0.1370  0.0263 -0.1539
 4293SOL    HW124512   4.591   3.244   9.064  0.5743 -1.3796 -0.2620
 4293SOL    HW224513   4.521   3.154   8.972  0.7156 -0.1744 -3.2596
 4294SOL     OW24514   4.186   2.199   5.950  0.2180 -0.5242  0.0379
 4294SOL    HW124515   4.233   2.143   6.012  2.4675  0.9927 -0.3031
 4294SOL    HW224516   4.158   2.132   5.887  1.7428 -1.2569  0.1419
 4295SOL     OW24517   1.238   1.577  17.685 -0.4738  0.3835  0.5392
 4295SOL    HW124518   1.313   1.529  17.650  1.0291  3.3540 -0.2723
 4295SOL    HW224519   1.268   1.588   0.020 -0.3439  2.0060  0.2855
 4296SOL     OW24520   4.732   4.461  16.530  0.0566  0.5039 -0.0043
 4296SOL    HW124521   4.726   4.556  16.536 -1.3758  0.4093  0.1529
 4296SOL    HW224522   0.040   4.455  16.447 -0.4812 -1.2083 -0.2045
 4297SOL     OW24523   2.136   0.447   2.687  0.1566  0.1524 -0.4379
 4297SOL    HW124524   2.200   0.409   2.627 -0.0757 -1.4953  0.3638
 4297SOL    HW224525   2.196   0.514   2.720 -1.1689  2.2067 -2.2507
 4298SOL     OW24526   1.087   0.394   9.035  0.4132  0.5631 -0.3830
 4298SOL    HW124527   1.123   0.466   8.983  3.5994 -0.1072  0.8736
 4298SOL    HW224528   1.163   0.355   9.079 -0.1486  1.6850  1.5682
 4299SOL     OW24529   1.542   1.285   6.022  0.2930  0.1585 -0.3174
 4299SOL    HW124530   1.467   1.246   5.977 -0.2652  1.2583 -0.3439
 4299SOL    HW224531   1.590   1.333   5.955 -2.0593  0.0133 -2.0975
 4300SOL     OW24532   0.168   0.372   0.913 -0.2015 -0.1353  0.0956
 4300SOL    HW124533   0.160   0.279   0.936 -0.5673  0.0265  0.6211
 4300SOL    HW224534   0.089   0.391   0.863 -0.2268 -0.3912  0.0352
 4301SOL     OW24535   4.185   3.727   1.895 -0.1112 -0.4321  0.2746
 4301SOL    HW124536   4.192   3.757   1.804 -0.0606  0.5393  0.6044
 4301SOL    HW224537   4.112   3.666   1.883 -0.4224  0.2277 -1.2254
 4302SOL     OW24538   4.461   3.882   6.296 -0.5040 -0.0231 -0.2545
 4302SOL    HW124539   4.527   3.884   6.227  3.5744 -0.9429  3.5660
 4302SOL    HW224540   4.413   3.962   6.277 -0.2114 -0.3014 -2.1619
 4303SOL     OW24541   0.365   3.543   6.787 -0.2133 -0.0100  0.1809
 4303SOL    HW124542   0.408   3.506   6.710 -0.4083  0.0984  0.0205
 4303SOL    HW224543   0.278   3.562   6.754 -0.4114 -1.3510 -0.0895
 4304SOL     OW24544   4.226   4.170   4.576  0.1140 -0.2304  0.0873
 4304SOL    HW124545   4.141   4.206   4.604  1.0942  3.2217 -1.4538
 4304SOL    HW224546   4.291   4.232   4.608  0.0340 -0.0570 -0.0924
 4305SOL     OW24547   1.348   1.490   2.095  0.1918 -0.1391  0.2028
 4305SOL    HW124548   1.375   1.577   2.122  0.0271 -0.2677  0.7786
 4305SOL    HW224549   1.431   1.453   2.064  0.0847 -0.0658 -0.1746
 4306SOL     OW24550   0.417   3.622   8.696 -0.6038 -0.7339 -0.2330
 4306SOL    HW124551   0.413   3.706   8.742  1.1666 -0.8883  0.1837
 4306SOL    HW224552   0.325   3.600   8.685 -0.7047 -0.5680  0.2869
 4307SOL     OW24553   2.313   3.510  14.298  0.5923  0.3377  0.2289
 4307SOL    HW124554   2.322   3.418  14.325 -0.5133  0.3458  0.5891
 4307SOL    HW224555   2.397   3.512  14.251 -1.7768  0.7008 -3.9269
 4308SOL     OW24556   2.116   4.210   3.114 -0.1249  0.2600 -0.4214
 4308SOL    HW124557   2.096   4.116   3.115 -2.0329  0.7185  2.1377
 4308SOL    HW224558   2.144   4.226   3.024 -1.3242 -0.5270 -0.9329
 4309SOL     OW24559   0.472   4.409   6.986  0.0608  0.5204 -0.8378
 4309SOL    HW124560   0.413   4.410   6.911 -1.3746  0.2427  0.2942
 4309SOL    HW224561   0.420   4.412   7.066  0.4633  1.5607 -0.6060
 4310SOL     OW24562   1.830   4.501  10.483 -0.4230  0.5880  0.1187
 4310SOL    HW124563   1.875   4.542  10.408 -1.7179  0.7702 -0.5596
 4310SOL    HW224564   1.760   4.466  10.428 -1.1041  1.8191  0.2044
 4311SOL     OW24565   0.704   3.937  11.757 -0.0961 -0.7161 -0.4844
 4311SOL    HW124566   0.635   3.884  11.796 -0.3513 -0.7896 -1.0338
 4311SOL    HW224567   0.764   3.864  11.739 -0.2026 -1.1488  0.8717
 4312SOL     OW24568   0.577   1.076   3.777  0.5247  0.4823  0.1946
 4312SOL    HW124569   0.564   1.171   3.772 -1.3581  0.2070 -0.1388
 4312SOL    HW224570   0.501   1.050   3.830 -0.4940  0.0199 -1.4864
 4313SOL     OW24571   1.802   0.049   0.828  0.2504  0.2738  0.1086
 4313SOL    HW124572   1.817   0.091   0.912 -2.3281  1.5833 -0.0788
 4313SOL    HW224573   1.730   4.728   0.847  0.8758 -0.4732  0.1034
 4314SOL     OW24574   1.715   1.701   5.741 -0.3300  0.2880  0.4629
 4314SOL    HW124575   1.629   1.694   5.782 -0.4795  0.9653  0.2675
 4314SOL    HW224576   1.700   1.748   5.660 -3.8895 -1.4969  0.0912
 4315SOL     OW24577   0.314   1.961   3.950 -0.1004 -1.0956 -0.0725
 4315SOL    HW124578   0.307   2.031   4.014  0.0934  0.0410 -1.3005
 4315SOL    HW224579   0.358   2.012   3.883 -0.0282 -1.1327 -0.0538
 4316SOL     OW24580   1.411   0.112  14.347 -0.8106  0.5982 -0.0813
 4316SOL    HW124581   1.485   0.083  14.292 -1.0927  1.7283 -1.0473
 4316SOL    HW224582   1.373   0.025  14.358  1.8823 -0.5523  0.1875
 4317SOL     OW24583   1.304   0.908   3.322 -0.0606  0.4855  0.1948
 4317SOL    HW124584   1.398   0.927   3.326 -0.3468  1.5828  1.4202
 4317SOL    HW224585   1.309   0.830   3.378 -1.6033 -0.0594 -0.4159
 4318SOL     OW24586   1.725   4.304  10.061 -0.3314  0.0669 -0.0624
 4318SOL    HW124587   1.756   4.309   9.971  3.3995 -0.5479  1.2270
 4318SOL    HW224588   1.668   4.228  10.050  0.1831 -0.2202 -0.7098
 4319SOL     OW24589   1.125   2.981   9.861  0.1460 -0.0923  0.6469
 4319SOL    HW124590   1.073   2.921   9.809 -0.0695  0.4697  0.2188
 4319SOL    HW224591   1.216   2.951   9.862 -0.1129 -0.8903 -0.5652
 4320SOL     OW24592   3.559   2.830   6.372 -0.0421 -0.0561 -0.2198
 4320SOL    HW124593   3.563   2.891   6.445  0.2278 -0.7462  0.3448
 4320SOL    HW224594   3.650   2.831   6.342 -0.0509  0.2500 -0.2347
 4321SOL     OW24595   2.805   1.192   6.899  0.2723  0.1520  0.0229
 4321SOL    HW124596   2.836   1.160   6.815  1.3519  0.5502  0.2689
 4321SOL    HW224597   2.757   1.272   6.878  1.0221  0.2790 -1.1796
 4322SOL     OW24598   3.795   4.537  13.772  0.4250 -0.0551  0.2566
 4322SOL    HW124599   3.867   4.543  13.708 -0.0819 -1.3845 -0.4467
 4322SOL    HW224600   3.742   4.615  13.758  1.6791  0.8552  0.5100
 4323SOL     OW24601   1.147   4.024  10.689 -0.1260  0.2287 -0.5778
 4323SOL    HW124602   1.146   3.931  10.712  1.1354  1.1156  2.9345
 4323SOL    HW224603   1.228   4.058  10.725  0.9388 -4.2340  1.1649
 4324SOL     OW24604   4.429   2.065   9.345 -0.4064  0.3181  0.4366
 4324SOL    HW124605   4.489   2.058   9.271  1.0418 -1.0040  1.7526
 4324SOL    HW224606   4.473   2.008   9.407 -3.4209 -0.3341  1.9678
 4325SOL     OW24607   1.042   4.256   6.997 -0.2628 -0.3943  0.0937
 4325SOL    HW124608   1.003   4.298   6.920  1.2956  1.1613  0.1434
 4325SOL    HW224609   1.121   4.210   6.968  1.2091  1.0080  1.8722
 4326SOL     OW24610   1.134   2.563   9.168 -0.1799 -0.0283 -0.0022
 4326SOL    HW124611   1.128   2.470   9.186  0.6063 -0.2081 -0.6736
 4326SOL    HW224612   1.219   2.585   9.206 -0.8363  0.8873  0.9455
 4327SOL     OW24613   4.221   3.114  17.246  0.6314  0.2375  0.1709
 4327SOL    HW124614   4.262   3.031  17.223 -0.5759 -0.0087 -1.1461
 4327SOL    HW224615   4.285   3.162  17.298  2.3935  0.3563 -2.0850
 4328SOL     OW24616   2.330   1.667  16.021  0.5410 -0.5485 -0.0476
 4328SOL    HW124617   2.340   1.579  16.056 -1.7989 -0.2442  1.3572
 4328SOL    HW224618   2.239   1.692  16.034  1.1927  2.1496 -0.5763
 4329SOL     OW24619   1.858   0.724   7.827 -0.2259  0.0922  0.1330
 4329SOL    HW124620   1.937   0.775   7.843 -0.9403  1.3032 -0.2692
 4329SOL    HW224621   1.792   0.778   7.785  1.8909  1.0632 -1.8990
 4330SOL     OW24622   2.806   2.689   1.981 -0.1980 -0.7303  0.1266
 4330SOL    HW124623   2.791   2.719   2.070 -0.2406  2.1043 -0.8507
 4330SOL    HW224624   2.761   2.755   1.928 -0.5894  0.3119  1.7593
 4331SOL     OW24625   4.381   3.373   6.951 -0.2326  0.3675  0.4668
 4331SOL    HW124626   4.376   3.462   6.916  0.3942  1.0469  2.0921
 4331SOL    HW224627   4.469   3.356   6.917 -0.6238  0.8519 -0.7845
 4332SOL     OW24628   3.055   4.533  14.282 -0.4933  0.0094  0.0982
 4332SOL    HW124629   3.149   4.541  14.297 -0.7165  1.2240  0.8640
 4332SOL    HW224630   3.016   4.616  14.311 -1.6836 -1.0340  1.5256
 4333SOL     OW24631   4.413   1.494  13.407 -0.8848  0.4463  0.8946
 4333SOL    HW124632   4.404   1.492  13.502  0.3795  3.7233  1.0637
 4333SOL    HW224633   4.385   1.405  13.384  1.3919 -0.2059  0.7123
 4334SOL     OW24634   0.730   2.074   3.836 -0.2611 -0.4498  0.0089
 4334SOL    HW124635   0.643   2.062   3.797 -1.7012  3.4257  2.0046
 4334SOL    HW224636   0.734   2.164   3.869 -0.1512  0.4491 -2.4641
 4335SOL     OW24637   3.134   4.252   0.135  0.3376 -0.1409  0.2870
 4335SOL    HW124638   3.162   4.177   0.083  0.8494  0.3134 -0.0962
 4335SOL    HW224639   3.129   4.219   0.225  1.3985 -2.1839 -0.4054
 4336SOL     OW24640   1.558   0.633  15.801  0.3915 -0.2279  0.3455
 4336SOL    HW124641   1.527   0.675  15.721  1.0207  2.2954  1.3966
 4336SOL    HW224642   1.626   0.690  15.837 -0.8718  2.3819 -1.3612
 4337SOL     OW24643   0.247   4.029   7.546 -0.1305 -0.1602 -0.5450
 4337SOL    HW124644   0.202   3.948   7.568 -3.6386  1.6131 -1.0958
 4337SOL    HW224645   0.312   4.040   7.615 -2.0836 -0.0998  1.2818
 4338SOL     OW24646   3.475   2.668   2.475 -0.0262  0.1103 -0.1629
 4338SOL    HW124647   3.423   2.618   2.412  0.2067  1.8063 -1.7057
 4338SOL    HW224648   3.461   2.605   2.546 -1.9080  1.5529  0.7255
 4339SOL     OW24649   3.525   3.916   5.043  0.5914 -0.0112 -0.0687
 4339SOL    HW124650   3.471   3.965   4.980  2.3661  1.4357 -0.4783
 4339SOL    HW224651   3.600   3.898   4.987  1.8987  2.1043  1.0117
 4340SOL     OW24652   2.873   2.471   7.857 -0.4136  0.2766  0.2026
 4340SOL    HW124653   2.844   2.380   7.849  1.9043 -0.5981  1.7916
 4340SOL    HW224654   2.873   2.476   7.953 -0.4655 -1.4735  0.2885
 4341SOL     OW24655   3.806   2.876   3.450  0.1529 -0.3028  0.2234
 4341SOL    HW124656   3.764   2.923   3.378 -1.0734 -0.3123  0.9236
 4341SOL    HW224657   3.733   2.836   3.497 -0.2734 -0.8503 -0.9069
 4342SOL     OW24658   2.515   4.518   2.671  0.3671  0.0518  0.6216
 4342SOL    HW124659   2.544   4.431   2.646  1.4982  1.4421 -2.8939
 4342SOL    HW224660   2.450   4.533   2.602 -0.1387 -2.7672  0.4833
 4343SOL     OW24661   4.469   4.236  11.189 -0.9469 -0.1541 -0.0442
 4343SOL    HW124662   4.476   4.291  11.267  2.4748  2.7298 -2.3871
 4343SOL    HW224663   4.539   4.173  11.207 -1.3014 -0.3152  0.7690
 4344SOL     OW24664   3.588   4.529   7.666 -0.1851 -0.1006  0.3441
 4344SOL    HW124665   3.520   4.495   7.724  0.3428  1.6586  1.9854
 4344SOL    HW224666   3.540   4.525   7.583  1.0616 -1.1482 -0.3227
 4345SOL     OW24667   1.869   2.325   8.281  0.0044  0.0120  0.1082
 4345SOL    HW124668   1.933   2.262   8.247 -0.8664 -0.4287 -0.7106
 4345SOL    HW224669   1.869   2.303   8.374 -0.2870 -1.4039 -0.2290
 4346SOL     OW24670   0.319   1.651   4.081 -0.0870 -0.8709 -0.4498
 4346SOL    HW124671   0.262   1.627   4.154  1.5155  0.4288  1.2343
 4346SOL    HW224672   0.264   1.715   4.037 -0.3424 -1.3328 -0.8109
 4347SOL     OW24673   3.916   1.747   4.811 -0.2342  0.7441 -0.5779
 4347SOL    HW124674   3.887   1.819   4.755 -0.6101  0.3989 -0.8260
 4347SOL    HW224675   3.855   1.674   4.802  1.5198 -0.5485 -1.9316
 4348SOL     OW24676   1.738   2.734   7.857 -0.7669 -0.3342 -0.2908
 4348SOL    HW124677   1.713   2.681   7.782 -0.7894 -1.0967  0.2499
 4348SOL    HW224678   1.764   2.813   7.810 -1.3999  0.7579  1.1885
 4349SOL     OW24679   0.093   4.614   1.818 -0.1139  0.3280 -0.1735
 4349SOL    HW124680   0.110   4.707   1.802  0.9609  0.0388 -0.7764
 4349SOL    HW224681   0.131   4.578   1.738 -0.9535 -0.2294 -0.3178
 4350SOL     OW24682   4.327   3.262   0.357 -0.2277 -0.0814 -0.2434
 4350SOL    HW124683   4.238   3.252   0.391 -0.3920 -2.4592 -1.3998
 4350SOL    HW224684   4.301   3.261   0.265 -1.9114  0.3534  0.2275
 4351SOL     OW24685   2.926   2.979   2.339 -0.0681 -0.0983  0.0564
 4351SOL    HW124686   2.975   2.902   2.312 -0.2674 -0.4348  0.6462
 4351SOL    HW224687   2.971   3.016   2.415 -0.5243  2.1999 -0.7747
 4352SOL     OW24688   4.214   4.523   0.170  0.3538 -0.0433 -0.5488
 4352SOL    HW124689   4.247   4.451   0.117  0.5790 -2.1192  2.4229
 4352SOL    HW224690   4.262   4.593   0.126  2.1157 -0.4408  0.7493
 4353SOL     OW24691   3.781   1.482   7.131 -0.1230 -0.2900 -0.3833
 4353SOL    HW124692   3.774   1.561   7.185 -1.1269  0.0189 -0.9635
 4353SOL    HW224693   3.692   1.448   7.134 -0.5927  0.9626 -0.0696
 4354SOL     OW24694   2.437   2.238   3.844  0.6164 -0.2262 -0.3116
 4354SOL    HW124695   2.407   2.273   3.760 -0.7547 -0.3052  0.1485
 4354SOL    HW224696   2.522   2.213   3.806  1.9797 -0.9843  3.2606
 4355SOL     OW24697   0.057   2.536   1.649  0.2024 -0.0086  0.2746
 4355SOL    HW124698   0.144   2.575   1.651  0.2418 -0.1301  1.0255
 4355SOL    HW224699   0.004   2.613   1.627  0.6932  0.5418  1.0324
 4356SOL     OW24700   0.289   2.356   2.458  0.5027  0.0786  0.1357
 4356SOL    HW124701   0.286   2.320   2.369  0.5950 -0.9305  0.5377
 4356SOL    HW224702   0.375   2.396   2.449  0.7890 -0.2204  1.5729
 4357SOL     OW24703   3.762   3.550   6.389 -0.2389  0.4652  0.4936
 4357SOL    HW124704   3.818   3.485   6.346 -1.3194  1.7881 -2.9141
 4357SOL    HW224705   3.827   3.619   6.404  0.6129 -0.1711 -0.2870
 4358SOL     OW24706   4.683   2.848   5.548 -0.0479 -0.2925 -0.3355
 4358SOL    HW124707   0.021   2.863   5.494 -0.5198 -0.5702 -1.0770
 4358SOL    HW224708   4.689   2.753   5.560 -1.5112 -0.3855 -0.3406
 4359SOL     OW24709   3.874   1.531   4.180 -0.0571  0.1362 -0.7016
 4359SOL    HW124710   3.925   1.451   4.167  0.9993  0.9531 -1.6027
 4359SOL    HW224711   3.809   1.518   4.111 -1.8038 -3.0006  1.5619
 4360SOL     OW24712   3.411   1.320   4.654 -0.1366 -0.0484  0.2364
 4360SOL    HW124713   3.416   1.283   4.742 -0.0880  0.3688  0.4076
 4360SOL    HW224714   3.503   1.332   4.629 -0.6786  1.4641 -1.0156
 4361SOL     OW24715   4.290   0.663   8.475 -0.6184  0.1346  0.0220
 4361SOL    HW124716   4.250   0.628   8.555 -0.0039 -1.3422 -0.3117
 4361SOL    HW224717   4.268   0.593   8.413  0.2452  0.1642 -0.3204
 4362SOL     OW24718   3.708   3.646   1.667 -0.2794 -0.2548  0.1159
 4362SOL    HW124719   3.706   3.739   1.685 -1.1368 -0.2684  0.1145
 4362SOL    HW224720   3.631   3.597   1.698  0.0693 -2.0973 -1.8740
 4363SOL     OW24721   2.422   4.413   4.892 -0.8879  0.8464 -0.3333
 4363SOL    HW124722   2.355   4.482   4.899 -2.0687  0.0386 -3.9783
 4363SOL    HW224723   2.438   4.404   4.798 -1.2647  0.3932 -0.3557
 4364SOL     OW24724   3.504   0.474   5.106  0.7848  0.3407  0.1963
 4364SOL    HW124725   3.594   0.506   5.109  1.8161 -2.2323 -3.0898
 4364SOL    HW224726   3.453   0.554   5.111  1.0412  0.5042  0.2058
 4365SOL     OW24727   3.686   2.588   5.941  1.1461  0.2347  0.7760
 4365SOL    HW124728   3.772   2.613   5.908  0.8461 -0.1339 -0.3143
 4365SOL    HW224729   3.651   2.528   5.875  3.0557 -1.4723  1.3282
 4366SOL     OW24730   1.561   2.656   7.648  0.2678  0.3084  0.0539
 4366SOL    HW124731   1.517   2.738   7.670 -2.3535 -0.8293 -0.9191
 4366SOL    HW224732   1.568   2.661   7.553  2.5126 -0.7390  0.1693
 4367SOL     OW24733   4.334   3.156   0.099 -0.2406  0.6097 -0.7030
 4367SOL    HW124734   4.413   3.101   0.103 -1.4898 -1.1845 -0.3684
 4367SOL    HW224735   4.378   3.222   0.045 -0.4589  0.3021 -1.2575
 4368SOL     OW24736   2.311   0.172   3.947 -0.2111  0.3355 -0.4023
 4368SOL    HW124737   2.233   0.155   3.893 -0.2160 -3.9308  0.9344
 4368SOL    HW224738   2.374   0.195   3.878  1.8006 -0.2906  1.2469
 4369SOL     OW24739   3.783   3.048   8.799 -1.0039  0.3284 -0.2887
 4369SOL    HW124740   3.808   3.019   8.887 -2.2800 -1.1102 -0.4031
 4369SOL    HW224741   3.851   3.018   8.739 -0.2490 -0.0909  0.7706
 4370SOL     OW24742   1.295   3.416  15.106 -0.5326 -0.3786 -0.9411
 4370SOL    HW124743   1.374   3.471  15.102 -0.4298 -0.5724 -1.6890
 4370SOL    HW224744   1.263   3.437  15.194 -0.1609 -1.7736 -0.4827
 4371SOL     OW24745   3.809   1.613  16.858  0.7327 -0.6454  0.4155
 4371SOL    HW124746   3.721   1.577  16.863 -0.4134  2.3359  1.8072
 4371SOL    HW224747   3.836   1.616  16.766 -0.8767 -1.9017 -0.0913
 4372SOL     OW24748   0.534   0.974   6.465  0.1439  0.4527 -0.1112
 4372SOL    HW124749   0.608   0.994   6.522 -1.0295  0.2676  1.4568
 4372SOL    HW224750   0.463   0.956   6.526 -0.2425 -0.1611 -0.7409
 4373SOL     OW24751   0.494   3.954   5.035  0.4781  0.5636 -0.1863
 4373SOL    HW124752   0.444   3.943   4.954  0.0894 -1.5975  0.3291
 4373SOL    HW224753   0.433   3.925   5.103 -0.0484  3.0989  0.4195
 4374SOL     OW24754   0.809   0.233  12.994 -0.0945  0.3653  0.3347
 4374SOL    HW124755   0.767   0.226  13.080 -2.1531 -0.8952 -0.7563
 4374SOL    HW224756   0.878   0.171  13.016 -0.7424 -0.0165  1.3280
 4375SOL     OW24757   4.273   3.606   3.818  0.2683 -0.4342 -0.0666
 4375SOL    HW124758   4.208   3.633   3.882 -1.3903 -0.5494 -1.6808
 4375SOL    HW224759   4.264   3.512   3.835 -0.1692 -0.1466  1.2734
 4376SOL     OW24760   2.970   0.215   7.850  0.2635  0.3215  0.5293
 4376SOL    HW124761   2.890   0.217   7.797  0.6399 -1.0216 -0.0857
 4376SOL    HW224762   2.973   0.300   7.893  1.0993 -0.4939  2.0541
 4377SOL     OW24763   2.704   3.855   6.578 -0.1633 -0.0753  0.1606
 4377SOL    HW124764   2.622   3.903   6.565 -0.0677  0.0806  0.1409
 4377SOL    HW224765   2.729   3.828   6.490  0.0595  1.3538 -0.2027
 4378SOL     OW24766   0.946   0.558  17.136 -0.2740  0.2598  0.3217
 4378SOL    HW124767   1.035   0.534  17.111  0.4594  1.9054  1.3650
 4378SOL    HW224768   0.923   0.616  17.063 -1.5044 -0.2246  0.3209
 4379SOL     OW24769   2.054   1.364   4.196  0.5177 -0.1068  0.2885
 4379SOL    HW124770   2.061   1.269   4.198 -1.1952 -0.3113 -3.3010
 4379SOL    HW224771   2.064   1.381   4.102  0.6239 -2.0036 -0.0259
 4380SOL     OW24772   3.342   3.061   4.160 -0.7541 -0.1857  0.6924
 4380SOL    HW124773   3.388   3.145   4.161  0.5692 -0.8745 -3.1427
 4380SOL    HW224774   3.418   3.007   4.139  0.0460  1.8471 -1.6756
 4381SOL     OW24775   3.951   0.278   9.554  0.7903 -0.0741  0.0471
 4381SOL    HW124776   3.955   0.372   9.534 -3.5722  0.3018  0.9171
 4381SOL    HW224777   3.883   0.260   9.490  3.1747 -3.6290 -1.4703
 4382SOL     OW24778   3.564   3.595   5.976 -0.1255 -0.0931 -0.3233
 4382SOL    HW124779   3.554   3.625   6.066 -0.9371 -2.6514  0.4390
 4382SOL    HW224780   3.636   3.651   5.946 -1.1274  1.7229  0.6324
 4383SOL     OW24781   3.402   4.296   1.777  0.1195  0.0636 -0.3995
 4383SOL    HW124782   3.478   4.311   1.720 -1.8028 -0.3476 -3.0662
 4383SOL    HW224783   3.407   4.209   1.817 -0.2423  1.6651  3.1013
 4384SOL     OW24784   4.714   0.455   7.655  0.1381 -0.2261 -0.3915
 4384SOL    HW124785   4.727   0.369   7.695  1.0406 -0.6078 -1.5324
 4384SOL    HW224786   4.685   0.509   7.729 -2.3687 -0.0072 -1.5491
 4385SOL     OW24787   0.348   4.170   4.589  0.8731 -0.2406  0.6360
 4385SOL    HW124788   0.417   4.184   4.653 -0.7442 -1.7982  2.7223
 4385SOL    HW224789   0.308   4.257   4.593 -0.7559 -0.8379 -2.2650
 4386SOL     OW24790   0.636   3.645   8.574 -0.0207 -0.4706  0.0775
 4386SOL    HW124791   0.649   3.717   8.511  2.5708 -0.6472  0.3874
 4386SOL    HW224792   0.547   3.651   8.609  0.3274 -0.1080  0.9122
 4387SOL     OW24793   0.010   1.073   2.027  0.1437 -0.1275 -0.6135
 4387SOL    HW124794   0.032   1.103   1.939 -1.1193 -0.1163 -0.9349
 4387SOL    HW224795   0.037   0.982   2.020  0.2911  0.0266 -2.0116
 4388SOL     OW24796   2.978   4.081  14.845  0.1603 -0.8708 -0.3044
 4388SOL    HW124797   2.970   4.092  14.751 -0.5260  1.7441  0.0686
 4388SOL    HW224798   2.934   4.163  14.867  1.4463 -0.3773  0.4403
 4389SOL     OW24799   1.501   0.212  13.111 -0.3865  0.7200  0.6056
 4389SOL    HW124800   1.434   0.280  13.098 -0.3459  0.5987 -0.2310
 4389SOL    HW224801   1.572   0.274  13.098  0.0614 -0.8350 -4.1773
 4390SOL     OW24802   3.672   3.390   4.440 -0.5121  0.4461  0.1753
 4390SOL    HW124803   3.703   3.363   4.353  0.8103 -0.9739  1.0878
 4390SOL    HW224804   3.711   3.317   4.488 -0.1229  1.3785  1.2832
 4391SOL     OW24805   4.427   2.795  16.649 -0.0966 -0.6617  0.1944
 4391SOL    HW124806   4.382   2.843  16.719  1.8078  0.8970  0.3449
 4391SOL    HW224807   4.373   2.718  16.633  0.6423 -1.2765  0.6554
 4392SOL     OW24808   1.435   4.081   3.890 -0.2719  0.0601 -0.4014
 4392SOL    HW124809   1.530   4.069   3.894 -0.0941  1.1941 -1.3121
 4392SOL    HW224810   1.410   3.994   3.858 -1.1992 -0.6756  2.3566
 4393SOL     OW24811   3.383   4.694  11.266  0.2956 -0.3772 -0.4423
 4393SOL    HW124812   3.398   4.603  11.239 -0.9999 -0.1749 -1.8516
 4393SOL    HW224813   3.326   4.682  11.342  1.7654  0.2584  0.7614
 4394SOL     OW24814   1.523   4.286   9.309  0.0507  0.3180 -0.2280
 4394SOL    HW124815   1.569   4.229   9.371 -3.1196 -1.7930  0.1404
 4394SOL    HW224816   1.592   4.323   9.254  0.6856 -0.0853  0.2893
 4395SOL     OW24817   1.469   0.009  17.198  0.0004  0.1875  0.2215
 4395SOL    HW124818   1.555   0.002  17.241 -1.4851 -2.6362  2.7001
 4395SOL    HW224819   1.414   4.710  17.266 -0.4948  1.6010  0.6176
 4396SOL     OW24820   4.033   4.143  15.540  0.1185 -0.5800  0.6650
 4396SOL    HW124821   3.975   4.072  15.569 -1.6568  0.8521  0.6448
 4396SOL    HW224822   3.979   4.221  15.533  2.1913  0.9361  1.7710
 4397SOL     OW24823   3.735   3.249  16.293  0.2345  0.1324 -0.6704
 4397SOL    HW124824   3.809   3.232  16.234  0.4525 -0.5281 -0.2077
 4397SOL    HW224825   3.746   3.343  16.306  1.0563 -0.3237  1.9819
 4398SOL     OW24826   3.076   4.677   1.708 -0.1902  0.3324  0.0409
 4398SOL    HW124827   3.138   4.709   1.774 -2.1218 -0.4486  2.2714
 4398SOL    HW224828   3.036   4.607   1.760 -0.0147 -0.2329 -0.5954
 4399SOL     OW24829   2.938   4.008   6.568  0.1074 -0.1607  0.0695
 4399SOL    HW124830   2.865   3.947   6.569  0.1363 -0.1915  0.2569
 4399SOL    HW224831   2.967   4.008   6.477  1.9628 -0.1137  0.6600
 4400SOL     OW24832   0.453   0.400   7.159 -0.2950 -0.7115 -0.2771
 4400SOL    HW124833   0.456   0.322   7.214  1.5955  0.4117  1.2065
 4400SOL    HW224834   0.466   0.358   7.073  0.9437 -0.4738 -0.2076
 4401SOL     OW24835   4.138   1.131  17.400 -0.3946  0.2670 -0.2938
 4401SOL    HW124836   4.099   1.143  17.314 -0.1298  0.8440 -0.3361
 4401SOL    HW224837   4.229   1.125  17.372 -0.6842  1.7781 -1.5645
 4402SOL     OW24838   1.074   1.688   3.194  0.1347  0.2796 -0.5696
 4402SOL    HW124839   1.133   1.615   3.178 -1.7538 -1.3026 -0.3152
 4402SOL    HW224840   1.008   1.648   3.250  0.0004 -0.1950 -1.0732
 4403SOL     OW24841   1.582   0.367   6.240 -0.1245 -0.0438  0.6986
 4403SOL    HW124842   1.615   0.321   6.317  1.0393 -0.0964  0.1819
 4403SOL    HW224843   1.489   0.345   6.235 -0.0821  0.0708 -0.6759
 4404SOL     OW24844   0.979   2.297   4.203 -0.1447 -0.2862 -0.1947
 4404SOL    HW124845   0.921   2.276   4.275  0.0735 -0.2835 -0.0185
 4404SOL    HW224846   1.067   2.301   4.241  0.9805 -0.1278 -2.7409
 4405SOL     OW24847   2.509   0.133   3.478 -0.0691 -0.7777  0.6753
 4405SOL    HW124848   2.435   0.093   3.433 -1.0286  1.4677  0.2379
 4405SOL    HW224849   2.497   0.111   3.571  1.7097 -3.2670  0.2921
 4406SOL     OW24850   2.121   1.666  13.636  0.0337  0.2616 -0.7956
 4406SOL    HW124851   2.191   1.720  13.598  1.4094 -1.0479 -0.1102
 4406SOL    HW224852   2.156   1.577  13.630  1.5550  0.8106 -0.0995
 4407SOL     OW24853   4.579   1.741   1.507  0.5286 -0.3543 -0.8085
 4407SOL    HW124854   4.575   1.653   1.544  0.3868 -0.7295 -1.7334
 4407SOL    HW224855   4.669   1.763   1.533 -0.2839  0.2502  1.5365
 4408SOL     OW24856   4.503   4.322   6.916  0.3659 -0.6776  0.4460
 4408SOL    HW124857   4.510   4.296   6.824  1.7271 -2.9606  1.1969
 4408SOL    HW224858   4.552   4.253   6.961 -0.5154 -0.2401  2.0905
 4409SOL     OW24859   2.435   0.425   1.250  0.1347 -0.8159 -0.0542
 4409SOL    HW124860   2.514   0.427   1.195 -0.2000 -1.2737 -0.5586
 4409SOL    HW224861   2.398   0.341   1.222 -1.7407 -0.1192  0.4012
 4410SOL     OW24862   2.134   4.432   6.270 -0.2779 -0.7000  0.9852
 4410SOL    HW124863   2.206   4.374   6.246  0.8025  1.8796 -2.0109
 4410SOL    HW224864   2.170   4.508   6.317  1.5818 -0.8845 -0.1348
 4411SOL     OW24865   2.678   2.436   8.438 -0.0861 -0.0785  0.1383
 4411SOL    HW124866   2.615   2.466   8.372 -1.9131 -1.4042  1.2732
 4411SOL    HW224867   2.701   2.524   8.466 -0.2305  0.9465 -3.0070
 4412SOL     OW24868   1.870   0.614   9.058 -0.0465 -0.2326 -0.2126
 4412SOL    HW124869   1.909   0.639   9.142  0.0114 -0.6035 -0.1305
 4412SOL    HW224870   1.804   0.683   9.046  0.4737  0.3816  0.4779
 4413SOL     OW24871   0.081   0.945   2.799 -0.5885 -0.3833 -0.6847
 4413SOL    HW124872   0.119   0.969   2.883  0.5143 -0.5005 -1.1378
 4413SOL    HW224873   4.728   0.944   2.822 -0.6364 -0.8848 -0.8929
 4414SOL     OW24874   3.010   3.481   5.075 -0.2129  0.2563  0.0258
 4414SOL    HW124875   3.049   3.527   5.001 -0.3176  0.9436  0.4025
 4414SOL    HW224876   3.044   3.523   5.154 -2.2920  0.5557  0.7643
 4415SOL     OW24877   0.276   3.096   6.127  0.2707  0.3133  0.0863
 4415SOL    HW124878   0.275   3.114   6.033 -0.7376 -1.3199 -0.1961
 4415SOL    HW224879   0.218   3.167   6.157  0.2845  0.3696 -0.0205
 4416SOL     OW24880   4.078   3.933  12.943  0.3114 -0.3963  0.2944
 4416SOL    HW124881   4.163   3.893  12.923  0.8129  1.0154 -0.3964
 4416SOL    HW224882   4.025   3.855  12.924  0.2905 -0.1884 -0.4896
 4417SOL     OW24883   0.529   2.788   1.191 -0.1015 -0.2039  0.2554
 4417SOL    HW124884   0.478   2.728   1.247 -1.9612  0.4621 -0.7186
 4417SOL    HW224885   0.542   2.859   1.253  0.2369 -1.3271  1.4701
 4418SOL     OW24886   0.312   0.647   6.149 -0.5032  0.0633  0.1068
 4418SOL    HW124887   0.381   0.581   6.153 -0.0239  0.5350 -0.3864
 4418SOL    HW224888   0.361   0.723   6.118  1.0150 -0.3920  1.4145
 4419SOL     OW24889   2.594   4.400  13.151  0.2295 -0.0505 -0.2501
 4419SOL    HW124890   2.661   4.352  13.200  0.2339 -0.6769 -0.8582
 4419SOL    HW224891   2.555   4.462  13.213  0.1113  1.1359 -1.5060
 4420SOL     OW24892   0.138   4.007   3.325 -0.0604 -0.0325 -0.3337
 4420SOL    HW124893   0.044   3.992   3.333  0.1942 -1.3751  0.0250
 4420SOL    HW224894   0.159   4.041   3.412 -1.8574 -2.1025  0.8985
 4421SOL     OW24895   4.465   0.686  16.718 -0.1298 -0.5405  0.3549
 4421SOL    HW124896   4.494   0.651  16.802 -1.7532 -1.0551  0.6991
 4421SOL    HW224897   4.548   0.705  16.675 -0.3389 -0.6024 -0.0745
 4422SOL     OW24898   2.314   3.480   7.945  0.1957 -0.0397 -0.4112
 4422SOL    HW124899   2.320   3.543   8.017 -0.7098 -0.7207  0.2408
 4422SOL    HW224900   2.409   3.467   7.945  0.0818 -0.7429 -4.0221
 4423SOL     OW24901   0.875   2.621   1.482 -0.6273 -0.1440  0.2150
 4423SOL    HW124902   0.869   2.716   1.484  2.9615  0.0970  0.3534
 4423SOL    HW224903   0.956   2.610   1.532  1.1461  0.1403 -2.6267
 4424SOL     OW24904   4.257   3.559   8.401  0.4169 -0.2218 -0.2956
 4424SOL    HW124905   4.220   3.486   8.451  0.2840  0.6902  0.9262
 4424SOL    HW224906   4.223   3.634   8.449  1.4013  1.0926 -1.6491
 4425SOL     OW24907   1.260   2.755   1.896  0.0225 -0.3499  0.1214
 4425SOL    HW124908   1.248   2.806   1.816 -1.8947  0.3174  0.8412
 4425SOL    HW224909   1.169   2.751   1.924 -1.0528 -0.1546 -3.4417
 4426SOL     OW24910   1.583   1.952   5.071  0.0243  0.1545  0.1062
 4426SOL    HW124911   1.538   1.872   5.098 -0.1036  0.9113  2.1210
 4426SOL    HW224912   1.505   2.002   5.046  0.0855  0.7628  1.1116
 4427SOL     OW24913   1.325   3.418   7.646  0.2845 -0.1645 -0.4552
 4427SOL    HW124914   1.257   3.461   7.593 -0.3151 -2.3854 -1.5066
 4427SOL    HW224915   1.275   3.368   7.711  0.0993  0.1320 -0.3719
 4428SOL     OW24916   1.078   1.369   4.600  0.6035  0.1825  0.0512
 4428SOL    HW124917   1.173   1.359   4.605  0.7708  3.4334  3.3097
 4428SOL    HW224918   1.066   1.389   4.507 -0.3553 -1.1632 -0.1270
 4429SOL     OW24919   3.911   1.160   1.696 -0.0100  0.1501 -0.1651
 4429SOL    HW124920   3.999   1.135   1.722  0.6741  0.5199 -2.1343
 4429SOL    HW224921   3.922   1.252   1.672  1.1184 -0.3241 -1.4590
 4430SOL     OW24922   0.554   1.723   6.106 -0.2932  0.2782  0.2400
 4430SOL    HW124923   0.558   1.652   6.043  2.1336 -1.0533  1.9227
 4430SOL    HW224924   0.629   1.692   6.156  0.4536 -0.9014 -1.6488
 4431SOL     OW24925   1.023   3.887   5.109 -0.1804 -0.0468 -0.3301
 4431SOL    HW124926   1.051   3.978   5.107 -3.7597  1.0519 -0.3758
 4431SOL    HW224927   1.071   3.861   5.030 -0.5521 -0.9804 -0.2427
 4432SOL     OW24928   3.045   1.409   2.670  0.2622  0.3780 -0.3763
 4432SOL    HW124929   3.059   1.317   2.648  2.4625  0.0705  2.3235
 4432SOL    HW224930   3.076   1.412   2.761 -2.6165 -0.3816  0.6233
 4433SOL     OW24931   2.909   2.916  13.706  0.1670  0.3404  0.1821
 4433SOL    HW124932   2.947   2.920  13.794  1.2621 -0.6035 -0.2473
 4433SOL    HW224933   2.961   2.978  13.655  1.0200 -1.3290 -0.9401
 4434SOL     OW24934   0.346   2.793   8.117  0.4963 -0.4622  0.8292
 4434SOL    HW124935   0.379   2.879   8.092 -0.5369 -0.8097 -1.6948
 4434SOL    HW224936   0.264   2.806   8.163 -1.0958  0.3661 -2.2621
 4435SOL     OW24937   2.480   2.141   7.268 -0.1861  0.5041 -0.1337
 4435SOL    HW124938   2.444   2.074   7.325  0.3032  1.5958  1.4706
 4435SOL    HW224939   2.561   2.100   7.238 -0.0465  0.3371  0.4788
 4436SOL     OW24940   4.641   4.425   5.841 -0.3838 -0.0481  1.1554
 4436SOL    HW124941   4.700   4.483   5.890 -2.6406  0.8636  2.8028
 4436SOL    HW224942   4.670   4.337   5.863 -1.7779 -0.3915  1.5780
 4437SOL     OW24943   4.589   3.562   0.867  0.3722 -0.4153 -0.0179
 4437SOL    HW124944   4.637   3.606   0.797  0.3398 -2.4985 -1.3520
 4437SOL    HW224945   4.619   3.475   0.841 -0.9336 -0.7952 -0.2613
 4438SOL     OW24946   0.353   2.946   5.761  0.2244  0.1371  0.4182
 4438SOL    HW124947   0.367   2.880   5.828 -0.0055 -2.1417 -1.7747
 4438SOL    HW224948   0.304   3.012   5.810 -0.1030  0.9209 -0.9505
 4439SOL     OW24949   0.196   2.071   2.089 -0.3678 -0.4526 -0.5106
 4439SOL    HW124950   0.124   2.132   2.106 -0.1136 -0.1401 -0.5426
 4439SOL    HW224951   0.165   2.038   2.005 -1.0149  1.6299 -1.1055
 4440SOL     OW24952   0.092   0.727   9.594  0.5341  0.1081 -0.0679
 4440SOL    HW124953   0.007   0.732   9.638  0.7471  1.2513  0.2036
 4440SOL    HW224954   0.145   0.689   9.664  1.7067  1.4183 -0.2600
 4441SOL     OW24955   3.498   0.535   7.053  0.1841  0.6175 -0.3204
 4441SOL    HW124956   3.435   0.462   7.052  0.7727  0.1178 -1.4184
 4441SOL    HW224957   3.438   0.607   7.070 -1.0159 -0.7252  1.1057
 4442SOL     OW24958   4.470   0.321   7.833  0.1384 -0.5913 -0.3467
 4442SOL    HW124959   4.521   0.393   7.871 -0.9672 -1.6062  3.0558
 4442SOL    HW224960   4.532   0.276   7.776  0.6291  0.6206 -0.7656
 4443SOL     OW24961   2.303   0.436   8.840  0.0737  0.2663 -0.5409
 4443SOL    HW124962   2.387   0.448   8.796  0.5480  0.5734  0.4535
 4443SOL    HW224963   2.255   0.505   8.794  0.0104 -0.3036 -1.3346
 4444SOL     OW24964   3.822   1.416   2.648 -0.3383  0.6849 -0.5516
 4444SOL    HW124965   3.761   1.436   2.719  0.8081 -1.1044  0.9527
 4444SOL    HW224966   3.820   1.320   2.647  0.1445  0.6731 -0.4273
 4445SOL     OW24967   4.593   1.250   2.654  0.0462 -0.1175  0.5998
 4445SOL    HW124968   4.641   1.170   2.635  2.2867  1.6419 -1.0382
 4445SOL    HW224969   4.652   1.321   2.632 -1.2979  0.9267  0.3838
 4446SOL     OW24970   0.949   4.162   0.957 -0.6294 -0.2963  0.2597
 4446SOL    HW124971   0.937   4.068   0.941  1.1076 -0.5766  0.6321
 4446SOL    HW224972   0.859   4.185   0.933 -0.0022 -1.5957 -3.4023
 4447SOL     OW24973   2.622   3.147   8.451  0.0498  0.0419  0.3034
 4447SOL    HW124974   2.584   3.124   8.536  2.9310  0.9397  1.8525
 4447SOL    HW224975   2.663   3.233   8.465 -0.5547 -0.0367  2.4574
 4448SOL     OW24976   0.347   2.144   6.000 -0.5612  0.1200  0.3449
 4448SOL    HW124977   0.388   2.229   6.013  0.1274 -0.1085 -0.3325
 4448SOL    HW224978   0.427   2.094   6.015 -0.2297  0.6243  0.2573
 4449SOL     OW24979   2.018   0.521   1.323  0.2458 -0.0423  0.4612
 4449SOL    HW124980   2.067   0.574   1.260  0.6761 -0.5027  0.4036
 4449SOL    HW224981   2.058   0.435   1.308  1.3721  0.0497  2.9460
 4450SOL     OW24982   4.675   1.189  16.905 -0.2121 -0.3146 -1.1417
 4450SOL    HW124983   4.692   1.097  16.928 -0.5131  0.2024  1.1251
 4450SOL    HW224984   4.735   1.228  16.968 -0.3388 -0.5836 -0.8495
 4451SOL     OW24985   2.749   1.913   0.661  0.3340 -0.0132 -0.0647
 4451SOL    HW124986   2.838   1.879   0.673  0.0649 -0.7321 -0.1058
 4451SOL    HW224987   2.710   1.920   0.748  1.3227  0.2969  0.3556
 4452SOL     OW24988   2.219   4.273  15.810  0.1345 -0.5100  0.4408
 4452SOL    HW124989   2.143   4.313  15.853 -0.0385  0.5357 -0.8395
 4452SOL    HW224990   2.277   4.259  15.885 -1.9013 -1.4591  1.8249
 4453SOL     OW24991   1.094   0.646   3.268 -0.4057 -0.3595  0.6132
 4453SOL    HW124992   1.071   0.737   3.288 -0.9311 -0.5836  1.0174
 4453SOL    HW224993   1.043   0.635   3.188 -1.2365  0.2903  1.0559
 4454SOL     OW24994   3.171   0.171   7.006  0.0261  0.0480  0.1008
 4454SOL    HW124995   3.107   0.144   6.940  0.5869 -1.3893  0.1494
 4454SOL    HW224996   3.237   0.103   6.990 -0.9837 -0.4940 -1.8201
 4455SOL     OW24997   2.591   0.884  13.752  0.3948  0.6784  0.2269
 4455SOL    HW124998   2.619   0.967  13.791 -1.2551  1.8353 -1.0609
 4455SOL    HW224999   2.642   0.880  13.672 -0.1504  1.5804 -0.1637
 4456SOL     OW25000   2.594   2.280  17.235 -0.1789  0.2661 -0.0730
 4456SOL    HW125001   2.657   2.274  17.308 -1.4171  0.9314  1.0482
 4456SOL    HW225002   2.631   2.361  17.199 -0.5744  0.5148  0.0873
 4457SOL     OW25003   0.617   2.007   5.980 -0.3105  0.3321  0.8818
 4457SOL    HW125004   0.611   1.914   5.998 -1.0780  0.2279  0.1146
 4457SOL    HW225005   0.703   2.018   5.940 -0.6936  1.5391  0.3686
 4458SOL     OW25006   0.297   2.805  13.485  0.0614  0.5824 -0.1532
 4458SOL    HW125007   0.313   2.741  13.415 -0.4463 -2.2090  2.2988
 4458SOL    HW225008   0.230   2.760  13.536 -0.2258  2.3250  1.0101
 4459SOL     OW25009   2.241   1.329   5.889 -0.0955 -0.2905  0.6012
 4459SOL    HW125010   2.297   1.335   5.967  0.9073  1.5670 -0.2610
 4459SOL    HW225011   2.304   1.345   5.818  0.2924  0.5698  1.1313
 4460SOL     OW25012   3.633   2.094   7.389 -0.6868 -0.1765 -0.0091
 4460SOL    HW125013   3.606   2.037   7.316  3.4530 -3.2181  0.8692
 4460SOL    HW225014   3.548   2.134   7.406 -0.1467  2.2003 -2.8764
 4461SOL     OW25015   4.533   3.002   7.210  0.2081  0.1590 -0.5367
 4461SOL    HW125016   4.530   2.916   7.167  0.1929  0.0095 -0.2439
 4461SOL    HW225017   4.625   3.001   7.238 -0.2736 -3.8124  0.9745
 4462SOL     OW25018   3.371   3.174   3.749 -0.3663 -0.1386  0.2130
 4462SOL    HW125019   3.384   3.264   3.722 -1.4336 -0.3241 -0.9086
 4462SOL    HW225020   3.418   3.140   3.673 -0.6636 -1.5632  0.6613
 4463SOL     OW25021   2.074   4.224  12.253 -0.3732  0.0762 -0.1461
 4463SOL    HW125022   2.120   4.285  12.311  0.0617 -0.0562 -0.3545
 4463SOL    HW225023   2.150   4.168  12.237 -0.5601  0.5892 -2.8867
 4464SOL     OW25024   3.453   3.240  16.520  0.2168  0.4269  0.2220
 4464SOL    HW125025   3.427   3.286  16.599 -1.8143 -1.2440  0.5270
 4464SOL    HW225026   3.545   3.268  16.515  0.2682  0.2115 -0.0357
 4465SOL     OW25027   3.201   4.294   3.148 -1.0406  0.4224  0.0885
 4465SOL    HW125028   3.222   4.217   3.200  0.3782  0.0761 -1.0140
 4465SOL    HW225029   3.182   4.253   3.063 -0.4542 -1.8065  1.0391
 4466SOL     OW25030   2.134   2.409   8.325 -0.2095 -0.3920 -0.1161
 4466SOL    HW125031   2.134   2.497   8.288  1.4608  0.1992  1.2717
 4466SOL    HW225032   2.060   2.413   8.385  0.6525  1.2741  0.8141
 4467SOL     OW25033   0.145   0.268  10.158 -0.5962 -0.1895  0.3642
 4467SOL    HW125034   0.098   0.187  10.138 -0.7477 -0.7496  2.9033
 4467SOL    HW225035   0.213   0.276  10.092  1.2997 -2.0783  2.0591
 4468SOL     OW25036   3.791   2.053   1.528  0.0754 -0.1769  0.0850
 4468SOL    HW125037   3.833   2.103   1.458 -1.5606  1.0660 -0.0123
 4468SOL    HW225038   3.804   2.118   1.598  1.4331 -1.5560  1.1060
 4469SOL     OW25039   2.506   1.916   2.140 -0.1232 -0.2518 -0.0011
 4469SOL    HW125040   2.424   1.957   2.111  0.2495  1.2973  1.0964
 4469SOL    HW225041   2.491   1.828   2.107 -0.3847  0.5962 -2.1467
 4470SOL     OW25042   2.186   2.756   7.699  0.3840 -0.5553 -0.0785
 4470SOL    HW125043   2.194   2.806   7.618  1.4683 -3.3908 -1.7216
 4470SOL    HW225044   2.098   2.720   7.698  1.1938 -2.5372 -0.6539
 4471SOL     OW25045   2.993   1.246   9.695  0.2018 -0.2810  0.3934
 4471SOL    HW125046   2.976   1.165   9.742  0.6734 -1.2225 -1.0728
 4471SOL    HW225047   2.916   1.252   9.637  1.7343 -1.4024 -1.7608
 4472SOL     OW25048   2.294   4.111   0.005  0.0984  0.1955  0.6704
 4472SOL    HW125049   2.229   4.182   0.004 -0.0782  0.0170 -0.4047
 4472SOL    HW225050   2.356   4.130  17.691 -0.4118  1.3727  0.5329
 4473SOL     OW25051   1.023   2.856   8.292 -0.0025 -0.2155 -0.2424
 4473SOL    HW125052   0.978   2.938   8.313  0.1836 -0.5391  1.3810
 4473SOL    HW225053   0.969   2.805   8.352  0.1994 -1.6443 -1.2823
 4474SOL     OW25054   4.287   2.045   7.698  0.1625  0.8428  0.0227
 4474SOL    HW125055   4.305   1.953   7.718 -3.2516 -0.0387 -0.9683
 4474SOL    HW225056   4.206   2.053   7.750  1.6904 -0.2804  2.5606
 4475SOL     OW25057   3.622   3.573   3.557 -0.3433  0.2159 -0.3194
 4475SOL    HW125058   3.697   3.595   3.612 -0.2766 -0.6559 -0.0625
 4475SOL    HW225059   3.562   3.531   3.618 -1.8086  1.0705 -1.1609
 4476SOL     OW25060   0.308   3.824   3.190  1.1697 -0.0877  0.3793
 4476SOL    HW125061   0.229   3.829   3.135  1.8894 -0.9565 -0.7450
 4476SOL    HW225062   0.286   3.878   3.266 -0.2826 -2.2453  1.4896
 4477SOL     OW25063   3.091   1.759  14.143 -0.3048 -0.2770  0.1109
 4477SOL    HW125064   3.093   1.721  14.231 -2.0994  1.8802  1.0746
 4477SOL    HW225065   2.996   1.757  14.133 -0.5811 -0.4841  2.7670
 4478SOL     OW25066   0.710   1.182   2.773 -0.1668  0.2118 -0.8742
 4478SOL    HW125067   0.785   1.133   2.740 -2.4305 -0.9611 -4.3721
 4478SOL    HW225068   0.648   1.110   2.781 -2.6000  2.2868 -1.0260
 4479SOL     OW25069   4.441   0.298   8.481  0.6165 -0.0361  0.0600
 4479SOL    HW125070   4.351   0.311   8.512  0.3673  0.0568 -0.7130
 4479SOL    HW225071   4.420   0.228   8.419  2.1227  0.9513 -1.5443
 4480SOL     OW25072   3.222   0.152  16.687 -0.5367  0.1508  0.4521
 4480SOL    HW125073   3.308   0.137  16.726  0.0247  0.8063 -0.5503
 4480SOL    HW225074   3.224   0.237  16.644 -0.8319 -1.4464 -2.7081
 4481SOL     OW25075   0.869   1.246   5.421  0.3875  0.5028  0.6813
 4481SOL    HW125076   0.865   1.341   5.404 -2.0408  0.2550 -0.0579
 4481SOL    HW225077   0.802   1.213   5.362  3.4443 -1.2438 -1.8158
 4482SOL     OW25078   0.386   0.978   8.630 -0.3566  0.6454 -0.2777
 4482SOL    HW125079   0.412   0.987   8.539 -1.5212  1.2444 -0.5481
 4482SOL    HW225080   0.470   0.966   8.674  0.2366 -0.5100 -1.7479
 4483SOL     OW25081   0.764   3.314   1.759  0.4032  0.3227 -0.4464
 4483SOL    HW125082   0.795   3.356   1.679 -0.0555  1.1970 -0.1694
 4483SOL    HW225083   0.750   3.391   1.815 -0.0411  0.6484 -1.0144
 4484SOL     OW25084   4.409   0.647   6.403  0.3332  0.4340 -0.3122
 4484SOL    HW125085   4.475   0.711   6.427 -0.9673  1.4051  0.6320
 4484SOL    HW225086   4.456   0.563   6.401  0.6223  0.5586  0.9499
 4485SOL     OW25087   3.144   2.189   0.841 -0.1378  0.6587 -0.3212
 4485SOL    HW125088   3.057   2.188   0.800 -1.0616  0.6290  1.6287
 4485SOL    HW225089   3.176   2.099   0.833  0.4912  0.8653 -0.1452
 4486SOL     OW25090   3.746   4.621  10.431  0.7287 -0.1505  0.3084
 4486SOL    HW125091   3.717   4.707  10.459 -0.4566 -0.7298  0.8351
 4486SOL    HW225092   3.709   4.567  10.501  1.2021 -0.6953  0.1362
 4487SOL     OW25093   0.962   1.078  13.643 -0.5714  0.2168 -0.1740
 4487SOL    HW125094   0.878   1.119  13.664 -0.7227 -1.6079  2.7113
 4487SOL    HW225095   0.960   1.081  13.547  4.9047  1.9570 -0.2408
 4488SOL     OW25096   4.681   2.696  13.324  0.1094 -0.1673  0.3555
 4488SOL    HW125097   4.599   2.652  13.303  0.8037 -1.0947 -0.3757
 4488SOL    HW225098   4.662   2.774  13.377  1.6849 -0.6336  1.6070
 4489SOL     OW25099   2.602   4.735   8.553  0.0391 -0.1154 -0.1202
 4489SOL    HW125100   2.558   0.072   8.590  1.8783  1.2355 -0.7379
 4489SOL    HW225101   2.696   0.011   8.552 -0.2452  1.5413 -1.9617
 4490SOL     OW25102   2.283   0.175   8.409  0.3388  0.0932  0.1690
 4490SOL    HW125103   2.365   0.214   8.439  0.9013  1.0534 -2.6179
 4490SOL    HW225104   2.218   0.225   8.459  1.4480 -0.2314  1.9515
 4491SOL     OW25105   0.613   3.931   5.349  0.1018 -0.2769  0.2509
 4491SOL    HW125106   0.650   3.870   5.284 -0.4902 -0.4069  0.0377
 4491SOL    HW225107   0.692   3.984   5.364 -1.0084  0.5074  3.0946
 4492SOL     OW25108   2.804   3.336  10.133 -0.3933  0.0233 -0.0991
 4492SOL    HW125109   2.864   3.394  10.179 -0.6889 -0.5457  0.9980
 4492SOL    HW225110   2.770   3.397  10.068 -1.3940 -1.2394 -0.7705
 4493SOL     OW25111   2.733   4.351  16.426  0.0759  0.8106 -0.0557
 4493SOL    HW125112   2.787   4.414  16.472  1.3117 -0.5198  0.3060
 4493SOL    HW225113   2.648   4.395  16.427 -0.5377 -0.3697  0.0641
 4494SOL     OW25114   1.635   3.914   2.894 -0.5122 -0.2549  0.0414
 4494SOL    HW125115   1.703   3.858   2.932 -0.1709  1.0426  1.3759
 4494SOL    HW225116   1.613   3.854   2.823  1.7608  0.4783 -1.2790
 4495SOL     OW25117   0.338   1.164   2.939 -0.6886 -0.4352 -0.0566
 4495SOL    HW125118   0.403   1.109   2.896 -1.6179 -1.8848  0.3663
 4495SOL    HW225119   0.385   1.235   2.981  1.2855 -2.0611  0.4403
 4496SOL     OW25120   0.001   4.099  15.115 -0.8847 -0.2634 -0.6274
 4496SOL    HW125121   4.719   4.047  15.193  1.2563  1.6415  1.2517
 4496SOL    HW225122   4.710   4.186  15.139  1.8633 -0.0444  2.0916
 4497SOL     OW25123   1.284   1.521   3.578  0.3726  0.7457 -0.5172
 4497SOL    HW125124   1.233   1.441   3.592  1.4086 -0.0380 -1.2184
 4497SOL    HW225125   1.349   1.492   3.642 -0.8419 -1.4756 -0.2892
 4498SOL     OW25126   0.389   4.109  13.538  0.0098  0.1218 -0.1059
 4498SOL    HW125127   0.412   4.054  13.612  0.1697  0.4659  0.1012
 4498SOL    HW225128   0.324   4.052  13.497  0.5803 -3.1619  3.6398
 4499SOL     OW25129   0.710   1.173  16.912 -0.1987  0.0770 -0.3922
 4499SOL    HW125130   0.773   1.140  16.977 -1.8599 -2.9541 -0.3476
 4499SOL    HW225131   0.761   1.190  16.833 -1.5782  0.1838 -1.2377
 4500SOL     OW25132   0.778   1.426   4.030  0.4105  0.3199 -0.7086
 4500SOL    HW125133   0.693   1.468   4.015  0.5012  1.0432  0.7282
 4500SOL    HW225134   0.811   1.408   3.942 -1.4432  0.0683 -1.3686
 4501SOL     OW25135   3.356   3.795   3.109 -1.1097 -0.1618 -0.0490
 4501SOL    HW125136   3.353   3.885   3.076  0.0816 -0.4268 -0.8977
 4501SOL    HW225137   3.393   3.806   3.197 -0.4785 -2.3484 -0.0441
 4502SOL     OW25138   2.824   1.291   9.469 -0.2020 -0.0260 -0.5897
 4502SOL    HW125139   2.730   1.307   9.459 -0.6386 -0.7509  2.4368
 4502SOL    HW225140   2.858   1.381   9.460  1.0718 -0.5142 -0.7064
 4503SOL     OW25141   1.704   3.185  17.696 -0.3279  0.2786 -0.6524
 4503SOL    HW125142   1.708   3.187   0.036 -2.1059  0.7263 -0.5829
 4503SOL    HW225143   1.788   3.225  17.673  0.1460  0.3785  1.1875
 4504SOL     OW25144   2.125   2.752   6.827 -0.1873  0.5297 -0.1917
 4504SOL    HW125145   2.134   2.659   6.847 -1.9445  0.5296  0.5901
 4504SOL    HW225146   2.201   2.788   6.872 -0.7063  0.3447  0.8269
 4505SOL     OW25147   2.143   2.649   2.726 -0.0474 -0.4617 -0.5896
 4505SOL    HW125148   2.107   2.569   2.689  0.2950 -0.5316 -0.7686
 4505SOL    HW225149   2.066   2.699   2.752 -0.7492 -0.2060 -3.2111
 4506SOL     OW25150   1.498   4.657  13.963 -0.3039 -0.5638 -0.0618
 4506SOL    HW125151   1.496   4.566  13.993  0.6040 -1.3825 -2.4558
 4506SOL    HW225152   1.407   4.680  13.978  0.4207  2.9551 -1.0374
 4507SOL     OW25153   1.094   3.014  16.754 -0.8125  0.3572  0.3483
 4507SOL    HW125154   1.176   2.987  16.710 -2.1192 -0.8770 -1.3470
 4507SOL    HW225155   1.059   2.926  16.767 -0.4899  0.2096  0.2218
 4508SOL     OW25156   4.598   2.923   5.108  0.8367  0.5055  0.1675
 4508SOL    HW125157   4.569   2.944   5.197  0.2444 -0.5468  0.2262
 4508SOL    HW225158   4.682   2.883   5.130  0.3274  0.2433  1.6176
 4509SOL     OW25159   1.124   0.230   7.960 -0.4221  0.0396 -0.2351
 4509SOL    HW125160   1.093   0.315   7.990 -2.7371 -0.5671 -0.8723
 4509SOL    HW225161   1.040   0.184   7.964 -0.7525  0.7487  0.9648
 4510SOL     OW25162   2.949   0.651   1.805  0.4253  0.4362 -0.4684
 4510SOL    HW125163   2.923   0.646   1.897  2.2166  2.1087  0.1349
 4510SOL    HW225164   2.942   0.744   1.782 -0.8835  0.2839 -0.6708
 4511SOL     OW25165   0.806   0.036  17.275 -0.3140  0.6230 -0.2698
 4511SOL    HW125166   0.727   0.006  17.230  1.3822 -3.4355 -0.5802
 4511SOL    HW225167   0.829   0.118  17.231 -0.6490  1.0264  0.3108
 4512SOL     OW25168   3.997   3.577   4.831 -0.0320  0.1012 -0.0802
 4512SOL    HW125169   3.950   3.528   4.763  0.1851  2.7199 -2.1516
 4512SOL    HW225170   4.023   3.505   4.889 -0.6412  1.1933  1.5321
 4513SOL     OW25171   4.029   3.119   1.629 -0.5789  0.3070  0.2070
 4513SOL    HW125172   4.120   3.147   1.638 -1.0866  1.3777  1.9318
 4513SOL    HW225173   4.034   3.108   1.534  2.9003  0.1426  0.4214
 4514SOL     OW25174   4.000   2.478   4.189  0.3601  0.3396 -0.0097
 4514SOL    HW125175   4.028   2.510   4.275 -0.0760 -0.6786  0.5171
 4514SOL    HW225176   3.909   2.453   4.206 -0.6965  0.6840 -5.2468
 4515SOL     OW25177   4.004   0.716   4.106 -0.2541 -0.0347 -0.2196
 4515SOL    HW125178   3.946   0.768   4.051  0.8772  2.3316  0.8098
 4515SOL    HW225179   3.988   0.634   4.060  3.5157 -0.0740 -1.4857
 4516SOL     OW25180   1.770   2.464   4.442  0.1186 -0.2307  0.3144
 4516SOL    HW125181   1.865   2.459   4.449  0.1149  0.6565  1.0642
 4516SOL    HW225182   1.749   2.419   4.360 -1.2325  1.5981 -0.3554
 4517SOL     OW25183   2.586   1.348   6.757  0.5417  0.0483  0.3117
 4517SOL    HW125184   2.578   1.375   6.665  0.5833  0.9466  0.5727
 4517SOL    HW225185   2.520   1.405   6.796  2.3871  2.7998 -0.5981
 4518SOL     OW25186   2.884   1.038   7.450  0.0157  0.4739 -1.2466
 4518SOL    HW125187   2.889   1.100   7.377  0.7576 -1.4879 -2.8833
 4518SOL    HW225188   2.907   0.956   7.405 -1.3653 -1.9510  2.4868
 4519SOL     OW25189   0.825   0.277   9.062  0.2061  0.0094 -0.1074
 4519SOL    HW125190   0.794   0.295   9.151 -1.8683 -0.1336 -0.8006
 4519SOL    HW225191   0.917   0.300   9.075  0.5712 -0.7657 -1.3068
 4520SOL     OW25192   3.498   2.058   2.405  0.2893  0.5567 -0.3500
 4520SOL    HW125193   3.463   1.994   2.343  0.8031 -1.1670  1.1497
 4520SOL    HW225194   3.485   2.143   2.362 -0.0393  0.1962 -0.9596
 4521SOL     OW25195   1.919   4.693   9.673 -0.2838 -0.5998  0.0579
 4521SOL    HW125196   1.874   4.674   9.756 -0.5570  1.2895  0.3538
 4521SOL    HW225197   1.997   4.640   9.687 -1.0514 -1.4152  1.2548
 4522SOL     OW25198   3.982   1.090  11.870  0.3980  0.5468  0.3917
 4522SOL    HW125199   3.964   1.000  11.845  0.4069  0.7455 -0.3313
 4522SOL    HW225200   3.961   1.075  11.962 -0.2597 -1.2078 -0.0461
 4523SOL     OW25201   3.719   2.981   4.902  0.6373 -0.0835 -0.3836
 4523SOL    HW125202   3.699   2.956   4.811  3.5390  0.0629 -1.0636
 4523SOL    HW225203   3.635   2.977   4.946  0.8971  0.8302  0.1838
 4524SOL     OW25204   4.251   2.024  17.727  0.6667 -0.9304  0.1484
 4524SOL    HW125205   4.185   2.057  17.666  1.0767 -0.8567 -0.2583
 4524SOL    HW225206   4.304   2.090   0.017 -1.5097  0.2676  0.9232
 4525SOL     OW25207   1.597   4.384   7.533  0.6391 -0.0486  0.0386
 4525SOL    HW125208   1.570   4.322   7.601  0.1010 -0.2137 -0.3215
 4525SOL    HW225209   1.631   4.325   7.466  0.8197 -1.3329  1.2648
 4526SOL     OW25210   1.396   1.013   5.394 -0.0173 -0.0577  0.2629
 4526SOL    HW125211   1.302   1.004   5.380  0.3497 -2.0430 -0.8808
 4526SOL    HW225212   1.399   1.108   5.387 -0.0762 -0.0181  0.7874
 4527SOL     OW25213   4.195   0.357  11.901  0.2441  0.0933 -0.2929
 4527SOL    HW125214   4.152   0.440  11.881  0.1076  0.2000  0.4567
 4527SOL    HW225215   4.161   0.292  11.839  3.7829 -1.3187 -0.7729
 4528SOL     OW25216   2.524   2.721  15.004 -1.0722  0.2585  0.3851
 4528SOL    HW125217   2.436   2.738  15.036 -1.0739  3.2777 -1.2267
 4528SOL    HW225218   2.528   2.806  14.960 -1.8878  0.2142  0.2267
 4529SOL     OW25219   1.422   4.649   2.829  0.0098  0.0125 -0.1262
 4529SOL    HW125220   1.457   4.604   2.906  1.3765  1.8375  0.3072
 4529SOL    HW225221   1.346   4.598   2.799 -0.2552 -1.1018  2.5032
 4530SOL     OW25222   4.428   0.349  11.721 -0.3841 -0.0357 -0.1460
 4530SOL    HW125223   4.344   0.362  11.764  0.1066 -1.0710  1.1305
 4530SOL    HW225224   4.456   0.441  11.716  0.8797 -0.4896 -1.3842
 4531SOL     OW25225   4.536   1.441  12.923  0.1461  0.4513 -0.1863
 4531SOL    HW125226   4.447   1.471  12.907 -1.6025 -3.7244  1.6544
 4531SOL    HW225227   4.570   1.526  12.951  0.7038 -0.4255  1.8167
 4532SOL     OW25228   3.085   2.714   6.393 -0.2317 -0.5265 -1.1481
 4532SOL    HW125229   3.077   2.809   6.381  0.5126 -0.5400 -1.7070
 4532SOL    HW225230   3.165   2.705   6.342  1.1371  1.3651  0.6747
 4533SOL     OW25231   2.688   3.739   5.141 -0.2249  0.2806  0.0881
 4533SOL    HW125232   2.639   3.778   5.069  0.0929  3.8097  1.7811
 4533SOL    HW225233   2.737   3.808   5.185  2.2130 -0.0106 -2.1893
 4534SOL     OW25234   2.870   4.623   2.577 -0.0784 -0.8605 -0.3958
 4534SOL    HW125235   2.888   4.538   2.536 -0.3332 -2.0075  1.8642
 4534SOL    HW225236   2.952   4.631   2.626 -0.2374 -1.9295  0.0444
 4535SOL     OW25237   0.032   4.340   4.518 -0.4932  0.3916 -0.2259
 4535SOL    HW125238   0.078   4.261   4.490 -2.0042 -0.7450  0.5209
 4535SOL    HW225239   4.692   4.338   4.464 -1.0892  0.6312  0.6540
 4536SOL     OW25240   0.455   4.087   3.739 -0.6152  0.0441 -0.0457
 4536SOL    HW125241   0.545   4.118   3.729 -0.7920  1.0112  1.4468
 4536SOL    HW225242   0.408   4.170   3.732 -0.5124  0.1586  0.6696
 4537SOL     OW25243   0.780   4.618   6.716  0.4256 -0.2196  0.6304
 4537SOL    HW125244   0.824   4.541   6.752 -1.1969 -1.0708  0.8129
 4537SOL    HW225245   0.706   4.616   6.776  1.5107 -0.3959  1.9568
 4538SOL     OW25246   0.308   0.639   8.877  0.5635  0.0532 -0.4500
 4538SOL    HW125247   0.323   0.664   8.786 -0.7951  0.0305 -0.6680
 4538SOL    HW225248   0.387   0.671   8.920 -0.3850  1.1973  0.4204
 4539SOL     OW25249   3.791   4.370   6.231  0.1759 -0.3334  0.0054
 4539SOL    HW125250   3.783   4.294   6.289  1.5726  0.6456  1.4484
 4539SOL    HW225251   3.805   4.329   6.145  0.5212 -1.2293  0.4853
 4540SOL     OW25252   2.743   0.564   6.373 -0.2928  0.2698  0.9996
 4540SOL    HW125253   2.814   0.627   6.387  0.3107 -0.1774 -0.0719
 4540SOL    HW225254   2.694   0.577   6.454  1.4230  0.4296  2.0264
 4541SOL     OW25255   4.317   0.115   8.332  0.7224  0.1785 -0.0259
 4541SOL    HW125256   4.222   0.103   8.320  0.7279  0.2715 -0.1564
 4541SOL    HW225257   4.359   0.083   8.252  1.9073 -0.5591  0.8915
 4542SOL     OW25258   0.381   2.327   8.476  0.1465 -0.6129 -0.2761
 4542SOL    HW125259   0.390   2.329   8.381 -0.9111 -2.2464 -0.4141
 4542SOL    HW225260   0.307   2.387   8.479  0.9767  0.4331 -1.2436
 4543SOL     OW25261   0.023   4.047   5.409  0.1577  0.3238  0.2749
 4543SOL    HW125262   4.737   4.096   5.331  2.3850  1.5465  0.3440
 4543SOL    HW225263   0.052   3.974   5.353  1.7256 -0.2809  1.8582
 4544SOL     OW25264   3.843   0.242   1.334  0.6450 -0.0830  0.2110
 4544SOL    HW125265   3.794   0.169   1.296  1.0255  1.1980 -2.7417
 4544SOL    HW225266   3.864   0.203   1.418 -0.4697  0.3352  0.6884
 4545SOL     OW25267   2.075   1.805   1.230  0.4030 -0.0244  0.3805
 4545SOL    HW125268   2.004   1.808   1.165 -1.1939  0.2129  2.1242
 4545SOL    HW225269   2.037   1.729   1.274  1.3383 -0.3481  0.6162
 4546SOL     OW25270   4.084   3.538   6.928  0.8627 -0.5197 -0.1350
 4546SOL    HW125271   4.177   3.549   6.907  0.5670  1.0202 -0.6383
 4546SOL    HW225272   4.048   3.501   6.848 -0.4140  2.1362 -0.8044
 4547SOL     OW25273   2.476   1.104   0.003  0.2786 -0.3208 -0.2565
 4547SOL    HW125274   2.522   1.133   0.082  2.9224 -1.2147 -1.4546
 4547SOL    HW225275   2.394   1.066   0.032  1.3255 -1.7026  0.8326
 4548SOL     OW25276   0.579   3.101   6.397 -0.2818 -0.1103 -0.0039
 4548SOL    HW125277   0.496   3.057   6.412  0.0574  0.4563  3.4080
 4548SOL    HW225278   0.577   3.127   6.305 -1.4124  2.1355  0.6471
 4549SOL     OW25279   3.055   4.568  11.461 -0.3301 -0.1201 -0.1312
 4549SOL    HW125280   3.011   4.511  11.525 -0.6829 -3.1539 -3.0781
 4549SOL    HW225281   3.034   4.653  11.499 -1.5682 -1.8098  2.9473
 4550SOL     OW25282   2.912   2.489   1.696  0.1650 -0.3848 -0.3462
 4550SOL    HW125283   3.005   2.508   1.708  0.1103 -1.5022  1.7761
 4550SOL    HW225284   2.898   2.401   1.731  3.9511 -1.4617 -1.5193
 4551SOL     OW25285   2.038   0.296  16.855  0.2826  0.6235  0.0463
 4551SOL    HW125286   2.075   0.335  16.776  2.8888  1.4034  1.6508
 4551SOL    HW225287   1.950   0.332  16.845 -0.6090 -1.5760  0.0152
 4552SOL     OW25288   4.638   3.064  14.411 -0.7238 -0.1150  0.0831
 4552SOL    HW125289   4.573   3.116  14.459 -0.0725  1.2094 -0.4462
 4552SOL    HW225290   4.624   3.080  14.318 -0.9049  1.4278  0.3615
 4553SOL     OW25291   1.735   0.778  15.978 -0.0437 -0.1757  0.7730
 4553SOL    HW125292   1.801   0.709  15.974 -0.1139 -0.1379 -1.3386
 4553SOL    HW225293   1.799   0.847  15.960 -2.3579  2.7161  3.7481
 4554SOL     OW25294   1.683   4.697   6.489 -0.3549  0.6319 -0.2305
 4554SOL    HW125295   1.775   4.676   6.477 -0.1682  2.8486 -2.6960
 4554SOL    HW225296   1.661   4.626   6.549 -0.8859  0.5511 -0.5144
 4555SOL     OW25297   0.892   2.282   2.226  0.0484  0.0023 -0.0839
 4555SOL    HW125298   0.861   2.227   2.154 -3.0724 -0.1574  1.3936
 4555SOL    HW225299   0.816   2.292   2.282  0.2309 -0.7268  0.3034
 4556SOL     OW25300   0.231   3.386   7.645  0.4360  0.2010 -0.1832
 4556SOL    HW125301   0.273   3.419   7.566 -0.3950 -0.0954 -0.7585
 4556SOL    HW225302   0.299   3.333   7.686  1.6941 -0.0759 -2.6415
 4557SOL     OW25303   4.658   3.589   4.552 -0.6136 -0.0175  0.0206
 4557SOL    HW125304   4.688   3.663   4.605 -1.9782  2.1156 -2.2042
 4557SOL    HW225305   4.581   3.561   4.601  0.4324  1.4679  2.5002
 4558SOL     OW25306   0.797   3.479   6.054  0.2558 -0.0461 -0.3341
 4558SOL    HW125307   0.816   3.391   6.088 -2.2780 -0.0552  1.1005
 4558SOL    HW225308   0.740   3.509   6.125  2.0134 -0.6208  1.3058
 4559SOL     OW25309   3.791   3.013   4.317 -0.2482  0.1279 -0.3955
 4559SOL    HW125310   3.709   2.965   4.321 -0.2745  0.0781 -1.5446
 4559SOL    HW225311   3.850   2.971   4.254 -1.1991 -1.3552 -0.2925
 4560SOL     OW25312   2.271   1.597   0.843 -0.2902 -0.6568  0.4576
 4560SOL    HW125313   2.266   1.663   0.912  2.7502 -0.1608  0.2176
 4560SOL    HW225314   2.279   1.522   0.902 -1.4226 -0.4152  0.9127
 4561SOL     OW25315   0.826   0.450   2.863 -0.3107  0.2909  0.0940
 4561SOL    HW125316   0.813   0.355   2.861 -0.2940  0.3067 -0.7987
 4561SOL    HW225317   0.740   0.479   2.834 -0.5936 -0.6558 -0.0081
 4562SOL     OW25318   2.807   2.802   3.189 -0.5873 -0.0537  0.0949
 4562SOL    HW125319   2.727   2.753   3.170 -1.2513  1.0019  0.2116
 4562SOL    HW225320   2.767   2.888   3.177  1.1479  0.8608  0.7876
 4563SOL     OW25321   2.139   2.315   2.708  0.2280 -0.1002 -0.4653
 4563SOL    HW125322   2.106   2.227   2.726  0.4688 -0.1685 -0.3572
 4563SOL    HW225323   2.069   2.348   2.652  0.8199  0.3699 -0.9285
 4564SOL     OW25324   3.126   3.329   4.818 -0.1515  0.2023 -0.4605
 4564SOL    HW125325   3.151   3.324   4.725 -1.0300  0.8854 -0.7281
 4564SOL    HW225326   3.034   3.353   4.819 -0.5080 -1.0698 -2.1842
 4565SOL     OW25327   2.024   0.628   6.389 -0.0670  0.3850 -0.4590
 4565SOL    HW125328   1.956   0.565   6.411 -1.4668  1.9722 -0.2552
 4565SOL    HW225329   2.020   0.619   6.294  2.6665 -0.2074 -0.5339
 4566SOL     OW25330   1.302   3.621   1.660 -0.5490  0.6340 -0.2292
 4566SOL    HW125331   1.223   3.658   1.622 -0.2840  0.1206 -1.2612
 4566SOL    HW225332   1.348   3.705   1.669 -1.4661  1.2639 -1.5534
 4567SOL     OW25333   3.472   2.182   4.810 -0.0585  0.1864  0.2560
 4567SOL    HW125334   3.472   2.173   4.714 -1.7589  0.4062  0.2236
 4567SOL    HW225335   3.547   2.237   4.832 -0.3288  0.9287 -0.6598
 4568SOL     OW25336   0.061   0.544  10.332 -0.4558 -0.0157  0.3430
 4568SOL    HW125337   0.107   0.551  10.249 -1.1949  1.0178  0.0214
 4568SOL    HW225338   0.122   0.514  10.399 -0.0159 -0.8073 -0.4148
 4569SOL     OW25339   3.611   0.104   2.783  0.0785  0.0455  0.6840
 4569SOL    HW125340   3.669   0.029   2.765 -0.5782 -0.3727  0.2977
 4569SOL    HW225341   3.675   0.153   2.834 -1.2793  0.0179  2.4321
 4570SOL     OW25342   3.183   4.086   8.775  0.0248 -0.2442 -0.7027
 4570SOL    HW125343   3.146   4.020   8.716 -1.7400 -0.3800  0.5498
 4570SOL    HW225344   3.130   4.164   8.761 -0.5073 -0.5746 -0.5496
 4571SOL     OW25345   0.423   1.369   8.345  0.3739  0.5073  0.4750
 4571SOL    HW125346   0.457   1.324   8.268  0.0686 -1.0172  1.2351
 4571SOL    HW225347   0.477   1.332   8.414  0.2570  1.4663  1.0686
 4572SOL     OW25348   3.323   0.934   9.118 -0.2694 -0.1461  0.2264
 4572SOL    HW125349   3.366   0.871   9.060  1.2628  0.0454  1.1387
 4572SOL    HW225350   3.280   0.994   9.058 -2.5637  0.2866  2.2867
 4573SOL     OW25351   2.195   0.558  10.078  0.2206 -0.1050  0.1621
 4573SOL    HW125352   2.135   0.632  10.078 -0.8093 -0.9491 -0.0927
 4573SOL    HW225353   2.240   0.572  10.161  1.9377 -1.7513 -0.4877
 4574SOL     OW25354   1.884   3.822  17.603 -0.1530 -0.5015 -0.3234
 4574SOL    HW125355   1.974   3.831  17.635 -1.5907  1.4470  3.2541
 4574SOL    HW225356   1.888   3.755  17.536  3.3594  1.8016 -2.3855
 4575SOL     OW25357   3.097   3.738   3.525  0.5758  0.0069 -0.4880
 4575SOL    HW125358   3.041   3.662   3.515  2.0360 -1.1395 -0.0274
 4575SOL    HW225359   3.055   3.816   3.489 -2.5304 -1.0679  0.7837
 4576SOL     OW25360   3.690   3.124   5.529 -0.3159 -0.4207  0.1667
 4576SOL    HW125361   3.735   3.185   5.471  0.5262 -2.3338 -1.2079
 4576SOL    HW225362   3.618   3.162   5.580 -1.3999 -0.9449 -0.9873
 4577SOL     OW25363   2.084   0.468   5.332  0.9741 -0.2624  0.1711
 4577SOL    HW125364   2.072   0.373   5.332 -2.7384  0.2165 -2.0347
 4577SOL    HW225365   2.006   0.505   5.371 -0.9636 -1.9347 -2.1043
 4578SOL     OW25366   4.591   1.552  16.934 -0.5359  0.4048  0.0896
 4578SOL    HW125367   4.651   1.482  16.960 -0.8278 -0.6217 -2.0075
 4578SOL    HW225368   4.514   1.499  16.915 -0.5353  0.1936  0.6784
 4579SOL     OW25369   4.351   2.227  15.135 -0.5420  0.4792 -0.5806
 4579SOL    HW125370   4.394   2.197  15.215 -0.9831  0.3282 -0.4014
 4579SOL    HW225371   4.357   2.152  15.076 -1.1024  0.5909 -0.7825
 4580SOL     OW25372   3.542   2.651  13.597  0.1509 -0.2447 -0.1154
 4580SOL    HW125373   3.637   2.656  13.610  0.0759 -0.3742  0.4801
 4580SOL    HW225374   3.527   2.624  13.687 -0.7063 -0.0232 -0.1894
 4581SOL     OW25375   2.544   1.082  17.160  0.2872 -0.6265 -0.1542
 4581SOL    HW125376   2.607   1.129  17.104  0.9886 -1.2375  0.1264
 4581SOL    HW225377   2.505   1.155  17.208  0.8544 -1.9160  2.2537
 4582SOL     OW25378   0.802   0.682   2.291  0.4102 -0.4380 -0.2197
 4582SOL    HW125379   0.805   0.591   2.322  3.4796  0.0800  0.9475
 4582SOL    HW225380   0.714   0.677   2.253 -0.7493  2.1352  2.1778
 4583SOL     OW25381   0.802   3.909   6.204  0.1920 -0.3430  0.5538
 4583SOL    HW125382   0.801   3.843   6.273  0.9423  1.8065  2.6470
 4583SOL    HW225383   0.860   3.969   6.252  1.0168  0.0924 -0.9820
 4584SOL     OW25384   3.160   1.030   1.167  0.2754  0.1425  0.0301
 4584SOL    HW125385   3.185   1.101   1.108 -0.0128 -0.1562 -0.4504
 4584SOL    HW225386   3.067   1.030   1.148  0.1542  0.7558  0.6169
 4585SOL     OW25387   2.275   3.852   7.831 -0.5365 -0.1884 -0.0043
 4585SOL    HW125388   2.269   3.776   7.774 -1.1023 -0.7043  0.7449
 4585SOL    HW225389   2.327   3.811   7.900 -0.1557 -1.7380 -1.2308
 4586SOL     OW25390   0.961   0.303   0.519  0.0008  0.0217 -0.1326
 4586SOL    HW125391   0.881   0.355   0.513 -0.2851 -0.0545  2.8254
 4586SOL    HW225392   0.932   0.223   0.476 -0.0336 -0.9784  1.7346
 4587SOL     OW25393   1.897   3.583   1.505 -0.3462  0.5678  0.0114
 4587SOL    HW125394   1.988   3.584   1.534 -0.2271  1.6662 -0.3771
 4587SOL    HW225395   1.850   3.535   1.573 -1.8441 -0.8337 -2.0397
 4588SOL     OW25396   1.663   0.804   9.122 -0.4440  0.0481  0.5862
 4588SOL    HW125397   1.608   0.781   9.196  0.5811  0.0660  1.3628
 4588SOL    HW225398   1.726   0.862   9.166  2.1814 -0.6061 -2.3053
 4589SOL     OW25399   1.944   3.471   7.496  0.5171  0.5697 -0.7847
 4589SOL    HW125400   1.876   3.477   7.429 -0.7783 -1.0700  0.3979
 4589SOL    HW225401   1.921   3.541   7.557 -0.2558 -0.3780 -0.0106
 4590SOL     OW25402   0.894   1.896   3.082  0.5242  0.1976 -0.4016
 4590SOL    HW125403   0.900   1.856   2.995  0.8221 -2.0029  0.6403
 4590SOL    HW225404   0.935   1.819   3.122  0.6390  0.3315 -0.2611
 4591SOL     OW25405   2.074   1.819   4.846 -0.5705  0.5079  0.4526
 4591SOL    HW125406   2.004   1.819   4.911  0.0558 -1.1766  1.1243
 4591SOL    HW225407   2.028   1.830   4.763 -0.3724 -0.3151  0.2330
 4592SOL     OW25408   0.047   2.212   5.437  0.1626 -0.9416  0.5464
 4592SOL    HW125409   0.141   2.228   5.435  0.3417 -1.9062  1.2053
 4592SOL    HW225410   0.023   2.254   5.354  3.6379  0.5015  0.2532
 4593SOL     OW25411   0.081   1.227  12.436 -0.0251  0.1052 -0.2528
 4593SOL    HW125412   0.152   1.283  12.405 -0.0919  0.6347  0.5522
 4593SOL    HW225413   0.052   1.278  12.512  1.9862 -0.6394  1.0114
 4594SOL     OW25414   3.272   2.179  17.178  0.3493 -0.4739  0.4731
 4594SOL    HW125415   3.197   2.226  17.213 -0.0396 -0.2208 -0.6885
 4594SOL    HW225416   3.269   2.111  17.245 -0.4641 -0.7330  0.1710
 4595SOL     OW25417   1.392   3.820   3.822 -0.6964 -0.3601 -0.5629
 4595SOL    HW125418   1.297   3.812   3.834 -0.9788  1.7380 -1.3929
 4595SOL    HW225419   1.417   3.763   3.895  1.9020 -1.2358 -2.1636
 4596SOL     OW25420   0.103   2.508   7.273 -0.3354 -0.2545 -0.0551
 4596SOL    HW125421   0.019   2.488   7.315 -0.1129  0.0333  0.5353
 4596SOL    HW225422   0.117   2.603   7.279 -1.3729  0.0833 -3.4051
 4597SOL     OW25423   1.596   4.553   0.861  0.1474 -0.3067 -0.1919
 4597SOL    HW125424   1.508   4.592   0.866  0.5818  0.3316  2.3952
 4597SOL    HW225425   1.577   4.466   0.826  0.0934 -0.0893 -0.6992
 4598SOL     OW25426   2.203   2.477   5.243 -0.2978  0.8911 -0.2940
 4598SOL    HW125427   2.282   2.492   5.190 -1.0610 -1.5598 -2.1760
 4598SOL    HW225428   2.183   2.567   5.266  0.6303  1.4986 -1.8991
 4599SOL     OW25429   4.216   1.532   6.686  0.1438  0.3801 -0.2770
 4599SOL    HW125430   4.299   1.501   6.648 -0.8659 -0.6493 -1.6323
 4599SOL    HW225431   4.189   1.447   6.721  0.5250  0.2526 -0.2950
 4600SOL     OW25432   0.517   4.185   6.686  0.2952  0.2541 -0.0065
 4600SOL    HW125433   0.471   4.261   6.722 -0.3586 -0.8799  1.5268
 4600SOL    HW225434   0.555   4.226   6.608 -0.2026 -0.5022 -0.6319
 4601SOL     OW25435   3.563   2.414   9.268  0.1242 -0.5672 -0.1426
 4601SOL    HW125436   3.657   2.425   9.254 -0.2995  0.1807 -2.3484
 4601SOL    HW225437   3.554   2.424   9.363 -0.2304  2.3856 -0.4763
 4602SOL     OW25438   4.234   0.900  12.303 -0.8039  0.3763 -0.0990
 4602SOL    HW125439   4.325   0.924  12.320 -1.3369  1.2026  1.5454
 4602SOL    HW225440   4.243   0.806  12.292 -1.9294  0.0449  1.7391
 4603SOL     OW25441   3.780   1.652  14.701  0.3471 -0.1598 -0.2531
 4603SOL    HW125442   3.817   1.609  14.778  1.1473  0.5924 -0.2141
 4603SOL    HW225443   3.838   1.727  14.691  0.2459 -0.3234 -2.0927
 4604SOL     OW25444   1.069   0.964   5.013  0.3518  0.1073 -0.6672
 4604SOL    HW125445   1.142   1.025   5.007  1.5539 -1.3467 -0.8126
 4604SOL    HW225446   1.001   1.024   4.983  1.3844  0.5147 -2.1840
 4605SOL     OW25447   3.815   0.167   2.520  0.6767  0.0652 -0.1215
 4605SOL    HW125448   3.841   0.080   2.489 -0.5718 -1.5366  3.3014
 4605SOL    HW225449   3.843   0.178   2.610 -1.2685  2.2124  0.2151
 4606SOL     OW25450   2.748   1.005  17.341 -0.5982 -0.4078  0.8036
 4606SOL    HW125451   2.679   0.996  17.275  2.1278 -1.5412 -1.8957
 4606SOL    HW225452   2.703   1.052  17.411  2.1190  0.8679  1.6796
 4607SOL     OW25453   3.356   2.720   8.821 -0.1214 -0.2698 -1.1320
 4607SOL    HW125454   3.399   2.786   8.876  1.6785 -1.5863 -0.9704
 4607SOL    HW225455   3.376   2.630   8.846  0.8546  1.1680  3.2851
 4608SOL     OW25456   3.496   0.364  11.298  0.4868  0.2872 -0.2832
 4608SOL    HW125457   3.522   0.445  11.255 -1.0466  0.7970 -0.2343
 4608SOL    HW225458   3.401   0.376  11.297  0.4855  0.7662  2.8014
 4609SOL     OW25459   2.852   0.931   1.754 -0.1025  0.4569 -0.1990
 4609SOL    HW125460   2.845   0.952   1.661 -2.2659 -0.3266 -0.2009
 4609SOL    HW225461   2.764   0.900   1.771  1.4430 -3.1383  1.2015
 4610SOL     OW25462   1.660   4.366  14.895  0.4505 -0.0896 -0.6978
 4610SOL    HW125463   1.691   4.322  14.975 -0.7926  2.5437  1.2572
 4610SOL    HW225464   1.644   4.299  14.829  0.6088 -0.8952  0.0737
 4611SOL     OW25465   3.936   1.993   6.230 -0.1317 -0.1073 -0.3800
 4611SOL    HW125466   3.979   2.050   6.293  0.8792 -0.4031 -0.7828
 4611SOL    HW225467   3.861   1.970   6.284  0.9453  0.3175  1.2871
 4612SOL     OW25468   0.197   0.305   3.672  0.6832  0.2361  0.1192
 4612SOL    HW125469   0.120   0.316   3.728  0.5422  0.6443 -0.1553
 4612SOL    HW225470   0.227   0.394   3.652  2.9040 -0.3376  0.8489
 4613SOL     OW25471   4.638   0.824   8.206  0.2648  0.1143  0.2028
 4613SOL    HW125472   4.597   0.809   8.292 -2.2332 -0.6297 -1.1087
 4613SOL    HW225473   4.565   0.867   8.161 -0.8969 -0.3444  1.6176
 4614SOL     OW25474   0.845   2.630   9.086  0.2193  0.4201  0.0520
 4614SOL    HW125475   0.877   2.698   9.026 -0.4943 -1.1298 -2.0689
 4614SOL    HW225476   0.929   2.618   9.130  1.9109  1.8798 -2.7760
 4615SOL     OW25477   0.306   0.335   4.993  0.2413  0.5398  0.1255
 4615SOL    HW125478   0.317   0.241   4.981  2.1154  0.6845  0.7064
 4615SOL    HW225479   0.376   0.372   4.939  1.2740 -1.2113  0.2882
 4616SOL     OW25480   4.570   0.288   6.727 -0.4483  0.4773  0.3250
 4616SOL    HW125481   4.654   0.274   6.771 -0.1863  2.2503  0.4089
 4616SOL    HW225482   4.577   0.228   6.652 -0.3406  1.0393 -0.1193
 4617SOL     OW25483   1.485   0.756   2.116 -0.0591  0.2782 -0.2396
 4617SOL    HW125484   1.509   0.816   2.046 -1.1797  0.5083 -0.4274
 4617SOL    HW225485   1.574   0.736   2.147 -0.8117 -2.8714 -0.1393
 4618SOL     OW25486   3.635   1.954   4.275 -0.6899 -0.2736  0.0448
 4618SOL    HW125487   3.680   1.907   4.346  2.8343  2.0179 -0.6913
 4618SOL    HW225488   3.613   1.883   4.215  1.7421 -1.3171  0.3945
 4619SOL     OW25489   4.499   4.398   4.943  0.3129 -0.0147 -0.1166
 4619SOL    HW125490   4.530   4.417   4.855  1.9792 -1.3939  0.1845
 4619SOL    HW225491   4.582   4.359   4.971 -0.1810 -2.1088 -1.5032
 4620SOL     OW25492   2.844   1.515   6.398 -0.8194  0.0604  0.1827
 4620SOL    HW125493   2.749   1.523   6.392 -0.8310 -0.1709  0.0607
 4620SOL    HW225494   2.859   1.440   6.341  0.5619 -0.8357  1.7125
 4621SOL     OW25495   2.338   2.484   9.725  0.0231 -0.3548 -0.4629
 4621SOL    HW125496   2.348   2.478   9.630 -0.6848 -0.7370 -0.5111
 4621SOL    HW225497   2.428   2.502   9.753 -0.9819  1.8862  1.4133
 4622SOL     OW25498   0.993   2.288   7.701  0.4265 -0.1677  0.0841
 4622SOL    HW125499   0.986   2.378   7.671  2.5290 -0.1067 -0.2181
 4622SOL    HW225500   1.087   2.274   7.718  0.1006 -0.4672  1.7276
 4623SOL     OW25501   0.773   4.307   8.920  0.5225 -0.0879 -0.2797
 4623SOL    HW125502   0.788   4.367   8.993  1.9849  0.3184 -0.9142
 4623SOL    HW225503   0.710   4.240   8.945  1.8810 -0.9614  0.7788
 4624SOL     OW25504   2.025   1.600   2.130  0.2486  0.1217  0.0567
 4624SOL    HW125505   2.047   1.613   2.038  0.0372 -0.6652 -0.1024
 4624SOL    HW225506   1.953   1.662   2.143 -0.7770 -0.9394 -0.5935
 4625SOL     OW25507   2.136   0.921   1.593 -0.0131  0.6520 -0.0659
 4625SOL    HW125508   2.068   0.880   1.647 -1.7901  0.7715 -2.1910
 4625SOL    HW225509   2.178   0.844   1.554  1.2173  0.4556  1.6833
 4626SOL     OW25510   0.870   0.447  12.860 -0.6585 -0.8688 -0.8164
 4626SOL    HW125511   0.957   0.414  12.838  0.1751  0.2504  0.7415
 4626SOL    HW225512   0.835   0.367  12.898 -1.7452 -0.3458 -0.7036
 4627SOL     OW25513   1.734   2.832  12.739 -0.2519 -0.1970 -0.6759
 4627SOL    HW125514   1.754   2.868  12.825  0.8163 -1.8583 -0.2206
 4627SOL    HW225515   1.639   2.840  12.744 -0.2818 -0.9949  0.0187
 4628SOL     OW25516   0.867   4.589   1.723 -0.0540  0.2693 -0.0186
 4628SOL    HW125517   0.790   4.616   1.673 -0.6869 -1.4935  0.0011
 4628SOL    HW225518   0.919   4.563   1.646 -1.8428 -0.4583 -0.9777
 4629SOL     OW25519   2.821   3.291  16.254  0.1059  0.1810 -0.0978
 4629SOL    HW125520   2.832   3.343  16.334 -3.7143  0.6357  0.1034
 4629SOL    HW225521   2.866   3.349  16.193  0.5738 -0.7704 -0.6660
 4630SOL     OW25522   3.140   2.714   6.686 -0.0844  0.6214  0.0334
 4630SOL    HW125523   3.104   2.667   6.610  1.0541  2.0044 -1.3801
 4630SOL    HW225524   3.229   2.679   6.680  0.0014  0.6738  1.0297
 4631SOL     OW25525   1.962   2.785   5.916  0.2384 -0.2414 -0.3204
 4631SOL    HW125526   1.926   2.797   5.828 -1.9248 -0.6164  0.5127
 4631SOL    HW225527   1.976   2.875   5.944  0.1810  0.9739 -4.1767
 4632SOL     OW25528   3.357   4.060  11.164  0.8573 -0.7863  0.6020
 4632SOL    HW125529   3.313   4.047  11.079 -2.0749  1.8074  1.6850
 4632SOL    HW225530   3.377   4.154  11.163  1.7167 -0.9845 -0.6767
 4633SOL     OW25531   0.070   3.797   6.829  0.0265  0.0737 -0.9157
 4633SOL    HW125532   0.136   3.849   6.875  0.0093 -0.1050 -0.6887
 4633SOL    HW225533   0.101   3.802   6.738  4.0156 -0.3310  0.4134
 4634SOL     OW25534   1.406   2.632  12.757 -0.1881 -0.2309  0.2129
 4634SOL    HW125535   1.427   2.547  12.797 -1.2354  0.3281  1.9363
 4634SOL    HW225536   1.371   2.608  12.672  0.4269 -0.6591  0.0751
 4635SOL     OW25537   1.844   4.307   2.465 -0.0824  0.0660 -0.2501
 4635SOL    HW125538   1.763   4.302   2.515  1.3941 -0.3766  2.0812
 4635SOL    HW225539   1.863   4.214   2.452  0.0319  0.3373 -2.0942
 4636SOL     OW25540   3.906   4.125   7.858  0.4492  0.2471 -0.1364
 4636SOL    HW125541   3.853   4.204   7.855  0.1126  0.0286  0.1409
 4636SOL    HW225542   3.917   4.107   7.952  0.4195  0.5144 -0.0794
 4637SOL     OW25543   2.519   0.982  14.364 -0.4445  0.2373 -0.3353
 4637SOL    HW125544   2.526   1.054  14.427 -0.8843  0.2163 -0.2655
 4637SOL    HW225545   2.443   0.943  14.406 -0.2957 -0.0431 -0.3241
 4638SOL     OW25546   3.571   2.731   8.057  0.0862 -0.5724  0.0583
 4638SOL    HW125547   3.547   2.790   8.128 -2.5832 -1.4638 -0.1081
 4638SOL    HW225548   3.641   2.679   8.097  2.2177  1.9880 -0.3869
 4639SOL     OW25549   4.509   3.458  11.767 -0.5440 -0.0475 -0.3987
 4639SOL    HW125550   4.602   3.467  11.743 -0.8833  1.1499 -1.2740
 4639SOL    HW225551   4.510   3.362  11.774  0.0368  0.0459  0.6877
 4640SOL     OW25552   0.217   0.800   1.764  0.1555 -0.0433  0.2772
 4640SOL    HW125553   0.216   0.884   1.719 -0.8510 -0.4118 -0.3984
 4640SOL    HW225554   0.154   0.761   1.702  1.6990 -0.0792 -1.2843
 4641SOL     OW25555   0.165   1.765   4.318 -0.2285 -0.3516 -0.1914
 4641SOL    HW125556   0.194   1.837   4.375 -1.7805 -0.5009  0.8027
 4641SOL    HW225557   0.113   1.810   4.251  0.7249  2.0596  0.6876
 4642SOL     OW25558   0.366   0.546   1.531  0.1312 -0.5884 -0.0031
 4642SOL    HW125559   0.451   0.580   1.558 -0.3053  1.7777 -1.6065
 4642SOL    HW225560   0.334   0.626   1.489  1.4341 -0.4728 -0.7793
 4643SOL     OW25561   4.069   1.254   9.000 -0.4963  0.7694  0.1652
 4643SOL    HW125562   4.119   1.212   9.070 -0.9321 -0.2186 -0.1153
 4643SOL    HW225563   4.071   1.341   9.039 -0.3273  0.7569  0.1829
 4644SOL     OW25564   1.427   3.329   5.005 -0.3379  0.2539  0.1923
 4644SOL    HW125565   1.504   3.277   5.026 -0.0599  1.1823  1.4498
 4644SOL    HW225566   1.451   3.411   5.047 -1.2884  0.5018  0.2658
 4645SOL     OW25567   1.409   1.095  16.433 -0.2346 -0.1785 -0.2342
 4645SOL    HW125568   1.425   1.185  16.405  0.7882  0.2203  1.6583
 4645SOL    HW225569   1.479   1.085  16.497 -0.5187  1.5213  0.3434
 4646SOL     OW25570   1.791   1.776   3.602 -0.4718 -0.5921  0.5999
 4646SOL    HW125571   1.878   1.748   3.571 -0.2369 -0.6314  1.2867
 4646SOL    HW225572   1.742   1.713   3.549  1.7618 -4.7494  3.4909
 4647SOL     OW25573   3.777   2.029   5.983  0.2612  0.3290  0.2068
 4647SOL    HW125574   3.719   1.968   6.029 -0.5563  1.8616  1.2271
 4647SOL    HW225575   3.819   2.073   6.058 -2.1484  2.0826  0.5385
 4648SOL     OW25576   2.063   1.507   5.680  0.0676 -0.5333 -0.5318
 4648SOL    HW125577   2.033   1.550   5.760  0.2308 -1.8814  0.2602
 4648SOL    HW225578   2.059   1.414   5.701 -0.5858 -0.7130 -1.4256
 4649SOL     OW25579   0.844   3.108  16.857  0.6136  0.1019  0.1911
 4649SOL    HW125580   0.871   3.199  16.848  0.7088  0.4145  3.5811
 4649SOL    HW225581   0.920   3.068  16.816  0.1845  0.3342 -0.8215
 4650SOL     OW25582   0.730   1.357   9.872 -0.8885 -0.1890 -0.1622
 4650SOL    HW125583   0.763   1.299   9.940 -0.4630  1.0283  0.6714
 4650SOL    HW225584   0.701   1.435   9.918  1.7374  1.0917 -0.7053
 4651SOL     OW25585   4.126   2.723   2.348 -1.1652 -0.3339  0.0982
 4651SOL    HW125586   4.145   2.630   2.349  1.5565  0.2204  2.1346
 4651SOL    HW225587   4.175   2.759   2.422 -2.3443  1.4921 -0.0142
 4652SOL     OW25588   4.161   0.118   8.991  0.1965  0.1487  0.0144
 4652SOL    HW125589   4.243   0.106   8.943  1.0385 -1.3745  1.8551
 4652SOL    HW225590   4.170   0.048   9.056 -2.7960 -0.2108  0.0271
 4653SOL     OW25591   2.794   3.577   8.205  0.1381 -0.1063  0.0071
 4653SOL    HW125592   2.804   3.670   8.226  0.1595 -0.2551  0.6540
 4653SOL    HW225593   2.757   3.545   8.287 -1.1062  0.5845 -0.2782
 4654SOL     OW25594   3.587   2.893  11.137 -0.1372 -0.5066  0.1202
 4654SOL    HW125595   3.532   2.874  11.061 -1.8709  1.6471  0.8372
 4654SOL    HW225596   3.660   2.832  11.131  0.4042  0.0913  0.6596
 4655SOL     OW25597   4.442   4.095   8.954 -0.1133 -0.1710 -0.0473
 4655SOL    HW125598   4.472   4.094   8.863  1.4949  1.8745  0.4726
 4655SOL    HW225599   4.481   4.178   8.980  0.4248  0.0920 -1.7210
 4656SOL     OW25600   2.029   2.470  10.018  0.2346 -0.4162  0.3529
 4656SOL    HW125601   2.103   2.411  10.007 -1.4261 -2.1787 -1.1821
 4656SOL    HW225602   2.066   2.517  10.093 -0.9135  0.2374  0.5267
 4657SOL     OW25603   1.538   4.616   7.059 -0.0203  0.2072  0.3796
 4657SOL    HW125604   1.633   4.619   7.047  0.0793  2.0306  1.6002
 4657SOL    HW225605   1.547   4.629   7.153 -3.1025  1.6929  0.4774
 4658SOL     OW25606   1.803   0.011   8.332  0.0401 -0.4384  0.1439
 4658SOL    HW125607   1.715   0.034   8.302  0.7921  0.4270 -1.4263
 4658SOL    HW225608   1.799   0.064   8.411  4.3911  0.7324 -0.4145
 4659SOL     OW25609   0.393   3.577  10.776  0.5204 -0.0019 -0.2235
 4659SOL    HW125610   0.397   3.656  10.829  0.4859 -0.7729  0.9277
 4659SOL    HW225611   0.476   3.536  10.799  0.5909 -0.4281 -1.1996
 4660SOL     OW25612   1.721   2.124   1.893  0.0477  0.2927 -0.4120
 4660SOL    HW125613   1.674   2.160   1.818 -2.7386 -1.3944  0.5357
 4660SOL    HW225614   1.788   2.080   1.840 -0.0852  0.3473 -0.6221
 4661SOL     OW25615   1.949   4.335   2.763 -0.1509 -0.0324  0.3721
 4661SOL    HW125616   1.876   4.276   2.784 -1.0509  1.1564  0.6399
 4661SOL    HW225617   1.906   4.405   2.714 -0.6070 -1.2037 -0.8944
 4662SOL     OW25618   3.179   3.118   3.121  0.5472  0.0203  0.5802
 4662SOL    HW125619   3.102   3.151   3.168  0.0830  0.1398 -0.2676
 4662SOL    HW225620   3.145   3.037   3.081  0.1805  0.7495 -0.5917
 4663SOL     OW25621   3.578   0.265   8.766  0.2023 -0.1980  0.3290
 4663SOL    HW125622   3.633   0.294   8.839  0.7362  0.2947 -0.2710
 4663SOL    HW225623   3.551   0.179   8.798  1.0389 -0.5157  0.1903
 4664SOL     OW25624   4.353   3.077   5.653 -0.5840  0.4401 -0.7528
 4664SOL    HW125625   4.423   3.015   5.676 -1.1696  0.5406  1.2990
 4664SOL    HW225626   4.277   3.019   5.649 -0.8472  0.7096  0.3312
 4665SOL     OW25627   0.974   2.709   1.897 -0.3535  0.3201 -0.2407
 4665SOL    HW125628   0.973   2.772   1.970  0.5173 -0.5777  0.5454
 4665SOL    HW225629   0.881   2.696   1.878 -0.3276  1.5258 -1.2038
 4666SOL     OW25630   3.240   3.299   3.498 -0.1750 -0.4462 -0.2887
 4666SOL    HW125631   3.309   3.240   3.527  0.4318  0.2706 -0.2619
 4666SOL    HW225632   3.169   3.269   3.555  0.3658  0.2761  0.7850
 4667SOL     OW25633   4.049   1.436  12.726 -0.3515  0.1261  0.2046
 4667SOL    HW125634   3.972   1.420  12.781 -0.1813 -2.2237 -0.2490
 4667SOL    HW225635   4.125   1.434  12.785 -2.6391  0.1881  3.1837
 4668SOL     OW25636   3.855   0.406  12.078 -0.0496  0.4951 -0.1091
 4668SOL    HW125637   3.915   0.454  12.021 -0.9404  1.8142  0.0562
 4668SOL    HW225638   3.896   0.410  12.165  0.9086 -0.6416 -0.5083
 4669SOL     OW25639   4.237   2.011  10.672  0.2170 -0.0619  0.0657
 4669SOL    HW125640   4.215   1.919  10.660 -1.6992  0.1960  1.5726
 4669SOL    HW225641   4.254   2.011  10.766 -4.1806 -2.0560  0.8806
 4670SOL     OW25642   1.596   3.540  12.054  0.8137  0.0261  0.1233
 4670SOL    HW125643   1.662   3.576  12.113  1.7742 -0.3216 -0.7388
 4670SOL    HW225644   1.641   3.475  12.000 -1.3148 -0.6654 -0.8314
 4671SOL     OW25645   2.778   4.324   8.895  0.2179 -0.7176  0.2126
 4671SOL    HW125646   2.694   4.344   8.852  0.7655  1.5962  0.2167
 4671SOL    HW225647   2.832   4.332   8.817 -0.1382 -0.7896 -0.0433
 4672SOL     OW25648   0.981   1.279   6.698 -0.6115  0.0585 -0.2570
 4672SOL    HW125649   0.900   1.323   6.674 -0.1522  1.3336  0.5530
 4672SOL    HW225650   1.033   1.346   6.742 -0.2121  0.0135 -0.6587
 4673SOL     OW25651   2.122   4.507   9.797 -0.1392 -0.2419  0.0629
 4673SOL    HW125652   2.110   4.463   9.881 -1.4470  1.3456  0.7154
 4673SOL    HW225653   2.215   4.490   9.780 -0.0852  0.3482 -0.2474
 4674SOL     OW25654   2.528   2.075   6.045 -0.0817 -0.1659  0.0609
 4674SOL    HW125655   2.559   2.000   6.094 -0.0155  0.8933  1.6472
 4674SOL    HW225656   2.612   2.121   6.042  0.2757 -0.6826  2.0754
 4675SOL     OW25657   2.954   1.381   3.737 -0.0158  0.2502  0.2418
 4675SOL    HW125658   2.883   1.403   3.677  0.4043  0.6121 -0.1172
 4675SOL    HW225659   2.917   1.403   3.822 -1.6747 -0.9444 -0.1489
 4676SOL     OW25660   2.723   2.308   5.960 -0.0110 -0.0868  0.1367
 4676SOL    HW125661   2.720   2.382   5.900 -0.8463 -1.1984 -1.1999
 4676SOL    HW225662   2.726   2.349   6.046 -0.4392  1.3732 -0.5444
 4677SOL     OW25663   2.448   0.784   6.491  0.4879 -0.0418  0.6924
 4677SOL    HW125664   2.417   0.718   6.429  0.2623  0.6190  0.0991
 4677SOL    HW225665   2.387   0.853   6.464  0.7357  0.5399  1.6275
 4678SOL     OW25666   3.457   0.956  13.296  0.4136 -0.5779 -0.1166
 4678SOL    HW125667   3.508   0.984  13.220  0.9650  1.2507  0.9011
 4678SOL    HW225668   3.529   0.940  13.357  1.7707 -0.9730 -1.8372
 4679SOL     OW25669   3.519   2.414   9.519 -0.3492  0.1726 -0.1944
 4679SOL    HW125670   3.440   2.413   9.574  0.1108 -1.2784  0.4351
 4679SOL    HW225671   3.581   2.462   9.574 -1.4460  0.5902  0.7037
 4680SOL     OW25672   2.525   1.575   7.640  0.4095  1.0781 -0.3268
 4680SOL    HW125673   2.476   1.566   7.558 -0.6089  0.9810  0.2935
 4680SOL    HW225674   2.598   1.516   7.624 -0.3978  0.2748 -1.0782
 4681SOL     OW25675   3.127   4.575   1.444 -0.2290 -0.5106 -0.4105
 4681SOL    HW125676   3.080   4.609   1.521 -0.0762 -1.9376  0.3171
 4681SOL    HW225677   3.137   4.649   1.385 -2.1824  1.8882  2.2880
 4682SOL     OW25678   2.614   1.852  17.017 -0.5583 -0.5024 -0.1490
 4682SOL    HW125679   2.560   1.921  17.055 -0.1644 -0.8083  0.9592
 4682SOL    HW225680   2.656   1.893  16.942 -0.5608 -0.2116  0.0120
 4683SOL     OW25681   2.551   3.688   6.961 -0.3935  0.1297 -0.0898
 4683SOL    HW125682   2.617   3.744   6.921  1.6324 -1.1636  1.4670
 4683SOL    HW225683   2.538   3.746   7.036 -1.7092  0.2474 -0.4031
 4684SOL     OW25684   2.980   0.350   7.505  0.7317 -0.2635  0.3152
 4684SOL    HW125685   2.948   0.329   7.417  0.9971 -1.0769  0.4137
 4684SOL    HW225686   3.062   0.303   7.521  0.9288  0.0554  0.2327
 4685SOL     OW25687   0.784   2.600  14.948 -0.6052  0.1011  0.1028
 4685SOL    HW125688   0.808   2.543  14.875 -1.5581 -1.2592  0.8546
 4685SOL    HW225689   0.723   2.540  14.992 -1.3862  1.3362  0.7023
 4686SOL     OW25690   1.990   1.335   7.253  0.2196 -0.1644  0.7138
 4686SOL    HW125691   2.019   1.258   7.204  0.4322 -1.0842  2.2751
 4686SOL    HW225692   1.945   1.294   7.328 -1.7022  1.7926  0.6175
 4687SOL     OW25693   4.272   3.576   4.495 -0.2127  0.6620 -0.5032
 4687SOL    HW125694   4.189   3.529   4.491 -0.4941  1.2465 -1.5604
 4687SOL    HW225695   4.333   3.502   4.496  1.2146  1.8387  0.4043
 4688SOL     OW25696   1.856   4.385   2.089 -0.1941 -0.2850 -0.2421
 4688SOL    HW125697   1.876   4.471   2.127  0.2969 -0.5834  0.1891
 4688SOL    HW225698   1.924   4.326   2.124 -1.1666 -1.0581  0.3317
 4689SOL     OW25699   0.517   2.945   4.092 -0.2770  0.2461 -0.5765
 4689SOL    HW125700   0.534   2.885   4.165  0.1969 -0.6744 -1.4358
 4689SOL    HW225701   0.540   2.898   4.012 -2.5705  0.6940 -1.4907
 4690SOL     OW25702   1.893   0.334   3.632  0.4388 -0.2218 -0.0058
 4690SOL    HW125703   1.814   0.387   3.646  0.3956 -0.4903  0.7664
 4690SOL    HW225704   1.856   0.249   3.610 -1.2122  0.9680 -1.9246
 4691SOL     OW25705   0.054   0.328   3.399 -0.0525  0.0984 -0.4131
 4691SOL    HW125706   0.120   0.328   3.329  0.2095  0.2852 -0.1647
 4691SOL    HW225707   0.085   0.407   3.443 -2.6389  1.6839 -1.4906
 4692SOL     OW25708   3.138   4.733   7.640  0.0907 -0.2033 -0.1201
 4692SOL    HW125709   3.101   0.001   7.552 -1.1783  0.8516  0.5136
 4692SOL    HW225710   3.227   4.711   7.612 -1.1418  0.0751 -4.3559
 4693SOL     OW25711   3.971   1.715  15.960  0.2663 -0.0886 -0.5799
 4693SOL    HW125712   3.933   1.670  15.885  1.6985 -2.8333  0.3258
 4693SOL    HW225713   4.008   1.639  16.007  0.0664  0.5738  0.6546
 4694SOL     OW25714   0.465   3.477   7.448 -0.2081  0.3916 -0.3666
 4694SOL    HW125715   0.557   3.459   7.428 -0.1818 -0.2205  0.2982
 4694SOL    HW225716   0.474   3.564   7.487 -0.8637  0.0094  0.6305
 4695SOL     OW25717   1.681   2.219  10.634  0.5887  0.3746  0.3706
 4695SOL    HW125718   1.652   2.288  10.693 -2.0973  0.7203 -1.3681
 4695SOL    HW225719   1.756   2.191  10.686 -0.0671 -1.8398  0.1441
 4696SOL     OW25720   0.935   4.008   5.360 -0.1348  0.4047  0.1643
 4696SOL    HW125721   0.900   4.076   5.303  2.7949  0.8230 -1.1311
 4696SOL    HW225722   1.004   3.967   5.309  1.2074 -0.1072  2.3599
 4697SOL     OW25723   4.026   3.319   5.877  0.0717  0.0280  0.2066
 4697SOL    HW125724   3.944   3.337   5.830  0.0946  0.7787  0.4455
 4697SOL    HW225725   4.030   3.224   5.872  0.7708  0.1895 -2.2486
 4698SOL     OW25726   2.754   0.839   5.731 -0.6878  0.2048 -0.3695
 4698SOL    HW125727   2.739   0.751   5.767 -2.8381 -0.2910 -2.4494
 4698SOL    HW225728   2.817   0.872   5.795 -0.5992  0.5594 -0.6459
 4699SOL     OW25729   1.842   2.339   1.335 -0.5273  0.5605  0.3220
 4699SOL    HW125730   1.816   2.386   1.414 -0.3782  0.1397  0.6183
 4699SOL    HW225731   1.787   2.264   1.354  0.3319  0.2194  1.4848
 4700SOL     OW25732   1.256   4.495  12.907  0.6149  0.1820  0.0532
 4700SOL    HW125733   1.330   4.456  12.954  0.2907 -0.3265  0.1397
 4700SOL    HW225734   1.239   4.580  12.948 -0.2368 -0.7237  1.5937
 4701SOL     OW25735   3.598   1.693   1.547  0.3352 -0.0368 -0.0607
 4701SOL    HW125736   3.564   1.774   1.586 -0.2653  0.2698 -1.2041
 4701SOL    HW225737   3.529   1.628   1.562 -0.5388  0.6297 -1.1377
 4702SOL     OW25738   2.436   4.496   3.706 -0.3735  0.4081  0.2335
 4702SOL    HW125739   2.481   4.471   3.626  0.1599  1.9345  0.0463
 4702SOL    HW225740   2.353   4.449   3.702  0.8272 -1.5906 -1.1134
 4703SOL     OW25741   4.624   0.763   2.084 -0.0188  0.0184  0.2247
 4703SOL    HW125742   4.567   0.737   2.011  1.3799 -2.3974 -0.0124
 4703SOL    HW225743   4.713   0.742   2.056 -0.2253 -0.0385 -0.3884
 4704SOL     OW25744   3.502   0.522   1.473 -0.0155 -0.2715 -0.4855
 4704SOL    HW125745   3.427   0.566   1.431  0.1911  1.2053  0.6763
 4704SOL    HW225746   3.566   0.565   1.416  0.1461 -1.7913 -1.4452
 4705SOL     OW25747   4.581   2.450   9.318 -0.2535  0.1091  0.3293
 4705SOL    HW125748   4.641   2.520   9.293  0.3750 -0.4740  0.2071
 4705SOL    HW225749   4.641   2.386   9.356  0.0891 -0.8598 -1.8750
 4706SOL     OW25750   0.501   4.729  17.755 -0.2018 -0.4061 -0.6705
 4706SOL    HW125751   0.532   0.018  17.669  1.9838 -0.3690  0.1504
 4706SOL    HW225752   0.573   4.673   0.028  0.2214 -0.5088 -1.9440
 4707SOL     OW25753   4.384   3.704   9.369 -0.3768  0.6940 -0.2245
 4707SOL    HW125754   4.356   3.773   9.309  0.6626  2.4116  1.2396
 4707SOL    HW225755   4.318   3.636   9.356 -0.0272  0.1560  0.8315
 4708SOL     OW25756   2.021   4.281   8.261  0.1206 -0.1891 -0.3926
 4708SOL    HW125757   2.115   4.290   8.245 -0.0466  1.9345 -0.1115
 4708SOL    HW225758   1.996   4.359   8.211  0.8348  2.0788  2.7730
 4709SOL     OW25759   3.275   4.464   5.928  0.4453  0.5760  0.1072
 4709SOL    HW125760   3.237   4.501   6.007  1.1173  1.1816  0.1451
 4709SOL    HW225761   3.360   4.440   5.965  0.7708 -0.8102 -1.5279
 4710SOL     OW25762   1.726   1.276   3.458  0.4119  0.3008  0.5773
 4710SOL    HW125763   1.691   1.198   3.499 -0.0070  0.3607  0.3259
 4710SOL    HW225764   1.765   1.253   3.373 -1.9035 -0.5677 -0.2462
 4711SOL     OW25765   2.676   3.585  16.576 -0.6703  0.2548 -0.1701
 4711SOL    HW125766   2.680   3.619  16.665 -0.1527 -0.5121  0.0970
 4711SOL    HW225767   2.760   3.540  16.582  0.3385  2.3350  1.2478
 4712SOL     OW25768   4.494   3.967   3.936  0.2622  0.9115 -0.1006
 4712SOL    HW125769   4.563   3.969   4.003 -1.3008  2.0008  1.4521
 4712SOL    HW225770   4.422   3.918   3.976 -0.7194  0.9918 -1.7612
 4713SOL     OW25771   3.795   1.344   6.196  0.8120  0.3380 -0.0001
 4713SOL    HW125772   3.840   1.263   6.171  1.1615  0.1708  1.1501
 4713SOL    HW225773   3.817   1.340   6.290  2.5681 -0.2509 -0.4289
 4714SOL     OW25774   4.403   3.135   3.804  0.4174 -0.4060  0.2987
 4714SOL    HW125775   4.369   3.160   3.718 -0.5573  0.3857  0.9311
 4714SOL    HW225776   4.465   3.064   3.787 -1.7230 -2.9683  3.1556
 4715SOL     OW25777   4.320   2.201   7.493  0.3307 -0.1204 -0.3103
 4715SOL    HW125778   4.306   2.155   7.576  0.6083 -1.8685 -1.2533
 4715SOL    HW225779   4.229   2.220   7.473  0.1259  0.3160  0.9791
 4716SOL     OW25780   4.154   2.455   8.704  0.0285  0.8792  0.1144
 4716SOL    HW125781   4.243   2.428   8.728  1.0056  1.7033 -2.6007
 4716SOL    HW225782   4.113   2.372   8.730  1.0160  0.9238  1.8679
 4717SOL     OW25783   2.362   1.708   9.539 -0.4620 -0.3778  0.8252
 4717SOL    HW125784   2.304   1.729   9.466 -0.3029  1.3156  1.1861
 4717SOL    HW225785   2.335   1.777   9.600 -1.4945  1.0094 -1.2004
 4718SOL     OW25786   2.149   4.129   1.056 -0.4401  0.1097 -0.1300
 4718SOL    HW125787   2.059   4.158   1.049 -0.1187  1.4122  1.1301
 4718SOL    HW225788   2.180   4.174   1.135 -0.7982  1.9282 -1.0411
 4719SOL     OW25789   0.004   3.113   2.187 -0.2603  0.5796 -0.3786
 4719SOL    HW125790   0.013   3.168   2.265  0.3423  0.3662 -0.3043
 4719SOL    HW225791   4.648   3.100   2.183 -0.2583  0.1879  0.7147
 4720SOL     OW25792   1.998   1.985   2.257  0.1110  0.6899 -0.2078
 4720SOL    HW125793   1.940   1.913   2.231  1.7090 -0.4096 -0.7169
 4720SOL    HW225794   1.940   2.046   2.302  0.2330  0.1435  0.6746
 4721SOL     OW25795   1.422   2.229  16.334 -0.5219  0.4653 -0.7607
 4721SOL    HW125796   1.471   2.253  16.413  0.0722 -3.1670 -0.0315
 4721SOL    HW225797   1.477   2.174  16.279  1.6464  1.8600  0.0098
 4722SOL     OW25798   1.247   4.258  12.642  0.2161 -0.6761 -0.3883
 4722SOL    HW125799   1.222   4.260  12.735 -0.2442  0.2710 -0.5332
 4722SOL    HW225800   1.204   4.176  12.619 -1.4853  0.5908 -1.6573
 4723SOL     OW25801   2.897   2.665   8.564 -0.3415  0.2435  0.1643
 4723SOL    HW125802   2.883   2.724   8.490 -0.2107 -0.5545 -0.4985
 4723SOL    HW225803   2.993   2.663   8.569 -0.3206  1.1664  0.1481
 4724SOL     OW25804   4.072   0.192   4.599 -0.1340 -0.3159  0.4172
 4724SOL    HW125805   4.083   0.287   4.595  0.4735 -0.4086 -0.2708
 4724SOL    HW225806   4.146   0.161   4.547 -0.7858 -0.5990 -0.3484
 4725SOL     OW25807   1.191   2.059   8.335  0.7553 -0.6269  0.4303
 4725SOL    HW125808   1.170   2.102   8.251 -1.5005 -0.1470  1.2227
 4725SOL    HW225809   1.110   2.091   8.376 -0.2637 -1.0192 -1.2373
 4726SOL     OW25810   0.574   3.096  11.597  0.4074  0.3306  0.5248
 4726SOL    HW125811   0.603   3.149  11.672  0.6966  0.5904  0.2275
 4726SOL    HW225812   0.483   3.097  11.625  0.0439  0.4726 -0.6814
 4727SOL     OW25813   4.257   2.064   4.543 -0.2218  0.2302 -0.0280
 4727SOL    HW125814   4.212   2.015   4.611  0.1203  0.7636  0.5829
 4727SOL    HW225815   4.191   2.129   4.517 -1.4592 -0.4899  1.3411
 4728SOL     OW25816   3.864   0.357  15.363 -0.0513  0.0922  0.3224
 4728SOL    HW125817   3.832   0.289  15.422 -1.1158 -0.2166 -0.6008
 4728SOL    HW225818   3.797   0.422  15.386 -1.8304 -0.7669 -2.4649
 4729SOL     OW25819   3.746   4.733   9.026 -0.2743  0.3673 -0.1993
 4729SOL    HW125820   3.724   4.734   9.119 -0.2180 -0.4768 -0.1757
 4729SOL    HW225821   3.802   0.070   9.013  0.5101 -0.0605  0.6691
 4730SOL     OW25822   2.744   3.857   6.847 -0.2664 -0.6089 -0.2239
 4730SOL    HW125823   2.681   3.929   6.853  0.9748  0.4501  0.0736
 4730SOL    HW225824   2.767   3.856   6.754 -1.3746  2.2878 -0.5036
 4731SOL     OW25825   1.168   1.756   3.448  0.3924  0.1614 -0.1783
 4731SOL    HW125826   1.135   1.754   3.359  1.2474  1.0817 -0.5129
 4731SOL    HW225827   1.258   1.724   3.445  0.9260  1.6499 -0.0380
 4732SOL     OW25828   1.311   2.156   3.083  0.6571  0.2387  0.7088
 4732SOL    HW125829   1.380   2.106   3.039 -0.8896 -0.1377 -1.2695
 4732SOL    HW225830   1.367   2.234   3.079  0.5395  0.1537 -2.8089
 4733SOL     OW25831   3.259   3.167  14.114  0.1660 -0.6257  0.9470
 4733SOL    HW125832   3.247   3.165  14.019  2.4477 -0.8761  0.6776
 4733SOL    HW225833   3.170   3.153  14.147 -0.2546 -1.1013 -0.4233
 4734SOL     OW25834   2.772   4.454   4.889 -0.2889  0.1780  0.4453
 4734SOL    HW125835   2.723   4.523   4.844  3.8313  3.4771  1.0512
 4734SOL    HW225836   2.824   4.410   4.821 -2.7153 -1.4180 -0.3469
 4735SOL     OW25837   3.210   0.064   1.894 -1.0893 -0.3122  0.3728
 4735SOL    HW125838   3.265   0.139   1.918  2.6127 -2.8471 -0.2398
 4735SOL    HW225839   3.214   0.010   1.973  3.3126 -0.1455  0.2837
 4736SOL     OW25840   0.543   0.450   0.966 -0.0435  0.1503  0.5451
 4736SOL    HW125841   0.509   0.370   1.006 -3.7718  0.2565 -2.4822
 4736SOL    HW225842   0.462   0.499   0.954  2.0949  3.3926 -0.7307
 4737SOL     OW25843   3.468   3.899  16.879  0.0839  0.0418 -0.2248
 4737SOL    HW125844   3.432   3.988  16.877  0.8959  0.3851  0.2282
 4737SOL    HW225845   3.563   3.910  16.867 -0.0465  1.6961  0.1905
 4738SOL     OW25846   4.383   3.765   8.991  0.0279 -0.4125 -0.0460
 4738SOL    HW125847   4.470   3.744   9.026 -0.0172  1.3488  1.1148
 4738SOL    HW225848   4.346   3.822   9.058  0.5991 -0.9897  0.7680
 4739SOL     OW25849   3.925   4.104   3.353  0.9020 -0.0291 -0.0017
 4739SOL    HW125850   3.993   4.082   3.290  2.6295  1.8104  1.2514
 4739SOL    HW225851   3.957   4.187   3.387  0.1675 -0.0003  0.6190
 4740SOL     OW25852   0.393   0.410  10.638  0.1580 -0.7316  0.2909
 4740SOL    HW125853   0.371   0.501  10.618  0.8447 -0.7018 -0.3545
 4740SOL    HW225854   0.374   0.363  10.557 -0.0280 -0.4219  0.1571
 4741SOL     OW25855   0.250   1.220   3.294  0.0496  0.0084  0.0857
 4741SOL    HW125856   0.335   1.261   3.281  0.1339 -0.5351 -1.0667
 4741SOL    HW225857   0.272   1.128   3.303 -3.4746 -1.1051 -2.4308
 4742SOL     OW25858   4.103   3.763   1.629 -0.0928  0.1324 -0.4367
 4742SOL    HW125859   4.052   3.825   1.576  0.9014  1.6757  0.4039
 4742SOL    HW225860   4.188   3.782   1.589 -0.3403  0.8251 -0.6402
 4743SOL     OW25861   3.492   3.177  12.339  0.0621 -0.1852 -0.2992
 4743SOL    HW125862   3.450   3.229  12.270 -0.7189 -1.0392 -0.4632
 4743SOL    HW225863   3.419   3.120  12.362  0.2397  0.1597  1.1283
 4744SOL     OW25864   2.895   0.611   3.860 -0.5642 -0.6266 -0.3199
 4744SOL    HW125865   2.860   0.522   3.850  0.0259 -1.0887  1.7502
 4744SOL    HW225866   2.819   0.653   3.901  0.5221 -1.3844  2.4338
 4745SOL     OW25867   0.695   4.489  13.707  0.5212  0.4149  0.2092
 4745SOL    HW125868   0.769   4.498  13.647  2.2817 -1.8059  2.1022
 4745SOL    HW225869   0.707   4.570  13.758  0.4238 -1.5100  3.2552
 4746SOL     OW25870   2.622   2.363  10.775  1.1210 -0.4509 -0.1719
 4746SOL    HW125871   2.584   2.413  10.702 -0.1262  0.0189  0.8082
 4746SOL    HW225872   2.549   2.347  10.835  1.8792  0.0334  0.8786
 4747SOL     OW25873   0.493   0.677   3.933 -0.2208  0.5327  0.4774
 4747SOL    HW125874   0.425   0.627   3.889 -0.3750  2.5122 -1.5440
 4747SOL    HW225875   0.447   0.714   4.008  1.9546  0.7894  1.6884
 4748SOL     OW25876   2.622   0.489   7.730 -0.4570  0.4039  0.2461
 4748SOL    HW125877   2.639   0.406   7.774 -0.9116  0.3571  0.3413
 4748SOL    HW225878   2.533   0.463   7.705  0.4806 -2.6884  0.1771
 4749SOL     OW25879   0.048   0.411  16.740  0.2891 -0.3089  0.6909
 4749SOL    HW125880   0.030   0.505  16.749  2.4417  0.1521 -0.0021
 4749SOL    HW225881   4.697   0.386  16.721  0.7909 -0.5367 -1.2938
 4750SOL     OW25882   2.597   1.920   5.505  0.7257  0.2445 -0.4180
 4750SOL    HW125883   2.537   1.993   5.493  1.1587  0.5952 -0.4415
 4750SOL    HW225884   2.676   1.940   5.455  0.1319  1.7479 -0.7567
 4751SOL     OW25885   0.816   1.936   2.534  0.0031  0.1538  0.3736
 4751SOL    HW125886   0.748   1.962   2.597 -0.5867 -0.7759  0.1313
 4751SOL    HW225887   0.896   1.948   2.585 -0.0305 -0.9565  0.6938
 4752SOL     OW25888   2.320   0.385  13.801 -0.1334  0.8579  0.0541
 4752SOL    HW125889   2.318   0.327  13.725 -0.6676  0.7735  0.1314
 4752SOL    HW225890   2.235   0.358  13.836  1.7138 -1.7045  2.5102
 4753SOL     OW25891   2.250   1.189   9.593 -0.6442 -0.2745 -0.3479
 4753SOL    HW125892   2.261   1.106   9.547  3.2789  0.0148  0.1202
 4753SOL    HW225893   2.277   1.255   9.530  2.6337  0.1122  1.4612
 4754SOL     OW25894   4.508   0.319   7.017 -0.0673 -0.3166 -0.1353
 4754SOL    HW125895   4.483   0.267   7.094  0.8579 -0.3552  0.1399
 4754SOL    HW225896   4.507   0.253   6.948  2.7009  2.5716 -2.9129
 4755SOL     OW25897   3.976   2.787   4.478 -0.3736 -0.2800  0.1218
 4755SOL    HW125898   3.982   2.822   4.390 -1.1595  0.7649  0.4749
 4755SOL    HW225899   4.017   2.701   4.470  0.3943  0.4158 -3.1954
 4756SOL     OW25900   1.987   1.988   5.413  0.6748 -0.3566  0.1979
 4756SOL    HW125901   2.082   2.003   5.406  0.4972  0.5246 -0.2852
 4756SOL    HW225902   1.960   2.080   5.410  3.0843  0.3854  0.4666
 4757SOL     OW25903   1.660   4.283   4.946 -0.1106  0.2727 -0.0475
 4757SOL    HW125904   1.737   4.287   5.002 -0.9426  0.1195  1.1101
 4757SOL    HW225905   1.596   4.266   5.016  0.7470 -1.1267  0.3833
 4758SOL     OW25906   0.726   1.960   8.493  0.4106  0.3320 -0.3211
 4758SOL    HW125907   0.660   2.029   8.494  0.8996  0.7809  0.8580
 4758SOL    HW225908   0.756   1.994   8.577  0.1527  1.1626 -0.5708
 4759SOL     OW25909   0.929   4.327   5.427  0.1134  0.2230  0.0584
 4759SOL    HW125910   0.964   4.376   5.501 -0.5917  1.2552 -0.2997
 4759SOL    HW225911   0.912   4.250   5.482 -0.3288 -0.1583 -0.6043
 4760SOL     OW25912   0.045   4.363  17.752 -0.2609  0.3068 -0.0603
 4760SOL    HW125913   0.078   4.439  17.704  0.4546 -1.6033 -2.5618
 4760SOL    HW225914   4.710   4.408   0.036 -0.1806 -1.3809  1.9755
 4761SOL     OW25915   1.109   1.903   0.697  0.0525  0.0212  0.0433
 4761SOL    HW125916   1.167   1.978   0.704  0.0612  0.1833 -1.6867
 4761SOL    HW225917   1.041   1.936   0.756  0.1670 -0.6256  0.5388
 4762SOL     OW25918   2.565   1.179  12.899 -0.0689  0.2931  0.1031
 4762SOL    HW125919   2.547   1.116  12.829 -0.8749  3.3339 -2.4482
 4762SOL    HW225920   2.659   1.193  12.889  0.1383 -0.3628  1.2299
 4763SOL     OW25921   3.305   4.315   2.573  0.2821  0.2990 -0.5132
 4763SOL    HW125922   3.235   4.356   2.624  0.7156  0.9417 -0.4376
 4763SOL    HW225923   3.335   4.396   2.531  0.5375 -0.0329 -0.9712
 4764SOL     OW25924   3.200   1.200   4.886 -0.3208  1.2349 -0.0355
 4764SOL    HW125925   3.126   1.250   4.851  0.5972  2.0955 -0.7322
 4764SOL    HW225926   3.177   1.198   4.979 -0.5825  0.9155 -0.1035
 4765SOL     OW25927   2.522   2.777  15.360 -0.6338 -0.2620  0.0714
 4765SOL    HW125928   2.588   2.808  15.422  0.6276 -2.6747 -0.0407
 4765SOL    HW225929   2.572   2.712  15.310 -1.5675  1.0501 -2.5318
 4766SOL     OW25930   2.890   2.072   8.285  0.7061  0.4017  0.0174
 4766SOL    HW125931   2.835   2.103   8.357  3.6445  2.1504  1.4918
 4766SOL    HW225932   2.830   2.013   8.238 -0.4390  1.4981  0.0789
 4767SOL     OW25933   1.691   1.394  13.688 -0.4763  0.4416 -0.5958
 4767SOL    HW125934   1.626   1.459  13.714 -0.6250  0.4532 -0.9944
 4767SOL    HW225935   1.758   1.413  13.754  0.4383 -0.1029 -1.3565
 4768SOL     OW25936   2.505   2.305   4.909 -0.0926  0.0119 -0.1660
 4768SOL    HW125937   2.533   2.219   4.941 -0.4120  0.0997  0.3402
 4768SOL    HW225938   2.540   2.370   4.970 -1.1124 -1.3693  1.9082
 4769SOL     OW25939   0.894   3.348   5.051  0.1842  0.0157 -0.7313
 4769SOL    HW125940   0.985   3.377   5.043  0.1631  0.6697  1.3744
 4769SOL    HW225941   0.864   3.342   4.960  0.7046 -0.8955 -0.8479
 4770SOL     OW25942   1.547   1.006   1.975  0.0545 -0.0006 -0.1769
 4770SOL    HW125943   1.480   1.072   1.960 -0.0415 -0.0238  0.1526
 4770SOL    HW225944   1.612   1.024   1.907  1.4557  0.9009  1.4105
 4771SOL     OW25945   3.078   3.325  13.240 -0.0539  0.6483  0.4255
 4771SOL    HW125946   3.122   3.328  13.325 -0.4324 -2.0202  0.7199
 4771SOL    HW225947   2.986   3.340  13.263 -0.4455 -1.2503  0.1353
 4772SOL     OW25948   0.022   4.559   7.198  0.1434 -0.3572  0.2396
 4772SOL    HW125949   0.027   4.511   7.116 -0.0949  2.9700 -1.7181
 4772SOL    HW225950   0.102   4.611   7.198 -0.3233  0.3689  0.0996
 4773SOL     OW25951   0.027   4.022   5.656 -0.4133 -0.1788  0.0248
 4773SOL    HW125952   0.020   4.012   5.561  1.1454 -1.6404  0.0653
 4773SOL    HW225953   0.018   3.931   5.681 -0.8258 -0.3753 -0.8429
 4774SOL     OW25954   1.291   0.234   6.193 -0.0786  0.7368 -0.1081
 4774SOL    HW125955   1.208   0.211   6.152 -0.2643 -0.5722  1.0183
 4774SOL    HW225956   1.352   0.183   6.140  0.5198  1.7600 -0.4014
 4775SOL     OW25957   4.432   3.740   6.553  0.1579  0.0013 -0.2361
 4775SOL    HW125958   4.504   3.801   6.572  0.0768  0.1523 -0.4117
 4775SOL    HW225959   4.415   3.758   6.461 -0.6735 -0.0674 -0.0997
 4776SOL     OW25960   0.543   0.013   4.497 -0.3291  0.0191  0.2178
 4776SOL    HW125961   0.533   0.087   4.437 -0.7550 -0.3137 -0.1263
 4776SOL    HW225962   0.458   4.714   4.475  0.7760 -2.8560  0.9455
 4777SOL     OW25963   1.087   2.686   1.653  0.4242  0.4464  0.0195
 4777SOL    HW125964   1.036   2.701   1.732  3.1748  1.7351  1.5372
 4777SOL    HW225965   1.128   2.771   1.640 -0.2087  1.0017  1.7143
 4778SOL     OW25966   3.812   3.625   5.863  0.4530  0.0890  0.0252
 4778SOL    HW125967   3.837   3.534   5.847  1.0485  0.4911 -1.3763
 4778SOL    HW225968   3.901   3.661   5.873  0.7607 -0.1535 -1.7722
 4779SOL     OW25969   1.775   4.446  11.926  0.1651  0.6503  0.7297
 4779SOL    HW125970   1.708   4.398  11.973 -0.7660  0.3194 -0.9128
 4779SOL    HW225971   1.777   4.535  11.961 -1.4724  1.7774 -2.0341
 4780SOL     OW25972   0.692   1.544   1.394  0.1439  0.2327  0.4683
 4780SOL    HW125973   0.701   1.526   1.300  1.3543 -0.6013  0.7532
 4780SOL    HW225974   0.637   1.620   1.375  2.2417  0.9577 -2.6364
 4781SOL     OW25975   1.036   0.927   4.682  0.1210 -0.0533  0.5773
 4781SOL    HW125976   1.098   1.000   4.693 -1.9052  1.3079  2.9212
 4781SOL    HW225977   1.096   0.859   4.713  1.8632  0.0430 -2.5896
 4782SOL     OW25978   0.713   4.177   4.478  0.1235  0.0982 -0.0227
 4782SOL    HW125979   0.733   4.106   4.417  1.3478  0.9861 -0.6656
 4782SOL    HW225980   0.700   4.128   4.559  0.7986  2.7859  1.7406
 4783SOL     OW25981   1.828   1.358   3.817  0.0452  0.4323  0.3947
 4783SOL    HW125982   1.859   1.449   3.822  1.7456 -0.2957  2.7510
 4783SOL    HW225983   1.861   1.342   3.728 -0.5979 -0.0200  0.2364
 4784SOL     OW25984   3.893   0.124   2.794 -0.2384 -0.2993  0.1869
 4784SOL    HW125985   3.944   0.158   2.867  1.0771 -2.9705  0.5128
 4784SOL    HW225986   3.884   0.030   2.814 -1.0938 -0.5117 -1.1605
 4785SOL     OW25987   0.975   2.552   7.607  1.0218  0.2464  0.1297
 4785SOL    HW125988   1.065   2.580   7.625  0.8395  0.4387  0.7147
 4785SOL    HW225989   0.943   2.636   7.573  0.9999 -0.9462 -2.7915
 4786SOL     OW25990   2.712   3.558  10.022 -0.6532 -0.1680 -0.3656
 4786SOL    HW125991   2.623   3.574   9.991 -1.5109 -0.7132  1.7608
 4786SOL    HW225992   2.704   3.603  10.106  1.8801 -1.4171  0.5587
 4787SOL     OW25993   4.351   2.199   3.120  0.5525  0.0309 -0.7213
 4787SOL    HW125994   4.279   2.151   3.162  0.3422  1.1648  0.1982
 4787SOL    HW225995   4.371   2.266   3.185 -0.3028 -0.1381 -0.2764
 4788SOL     OW25996   3.009   2.949  13.956  0.1209 -0.7030  0.0801
 4788SOL    HW125997   2.973   2.882  14.014  0.6979 -1.3013 -0.2531
 4788SOL    HW225998   3.101   2.926  13.954  0.5674  1.1863 -2.2162
 4789SOL     OW25999   1.883   1.366   5.327  0.4119  0.6818  0.0638
 4789SOL    HW126000   1.901   1.448   5.373 -1.9533  1.4795 -0.4482
 4789SOL    HW226001   1.847   1.325   5.406  0.1956 -1.9778 -1.3893
 4790SOL     OW26002   0.469   1.767   1.461 -0.2272 -0.5217  0.4504
 4790SOL    HW126003   0.479   1.860   1.483  1.4446 -0.7300  0.5866
 4790SOL    HW226004   0.467   1.760   1.365 -2.3540  2.6388  0.2513
 4791SOL     OW26005   1.256   4.103   3.507  0.3150 -0.1144  0.7191
 4791SOL    HW126006   1.338   4.052   3.510  1.1329  1.0980 -1.2463
 4791SOL    HW226007   1.189   4.035   3.509 -1.0353  1.2315  0.7818
 4792SOL     OW26008   3.134   3.786   2.399 -0.2304 -0.0102  0.6328
 4792SOL    HW126009   3.179   3.810   2.318 -1.5473  1.3838  0.2981
 4792SOL    HW226010   3.051   3.758   2.359 -0.5852  2.5063 -0.3599
 4793SOL     OW26011   1.729   2.597   2.763  0.4540  0.3106  0.1950
 4793SOL    HW126012   1.674   2.670   2.735 -0.8384 -0.1475  1.4893
 4793SOL    HW226013   1.696   2.537   2.697  0.6778  0.2625  0.1274
 4794SOL     OW26014   4.038   2.128   3.486  0.2711  0.3413 -0.0271
 4794SOL    HW126015   3.981   2.198   3.518  0.0010 -0.3865  1.0626
 4794SOL    HW226016   4.100   2.117   3.559  0.8080  2.7645 -0.1157
 4795SOL     OW26017   3.542   0.096  16.673 -0.2172  0.4330  0.2227
 4795SOL    HW126018   3.558   0.156  16.600 -0.0822  1.7730  1.3567
 4795SOL    HW226019   3.512   0.165  16.732 -2.0442  0.6834 -1.0013
 4796SOL     OW26020   0.525   1.930   2.331 -0.2158 -0.1347  0.1882
 4796SOL    HW126021   0.613   1.909   2.301  0.8430  1.5606  2.1494
 4796SOL    HW226022   0.544   1.972   2.415  0.3904 -0.5591  0.2673
 4797SOL     OW26023   4.344   0.839   2.324 -0.0318  0.5375  0.2663
 4797SOL    HW126024   4.429   0.883   2.329  0.6056 -0.6914  0.1037
 4797SOL    HW226025   4.305   0.890   2.253  2.5522  0.8274 -0.9330
 4798SOL     OW26026   3.497   0.296   2.515 -0.2090 -0.1753 -0.3909
 4798SOL    HW126027   3.471   0.376   2.560 -1.8130 -0.1074 -1.4133
 4798SOL    HW226028   3.551   0.245   2.576 -1.3071 -1.6376 -0.6199
 4799SOL     OW26029   2.483   0.808   5.958  0.0381 -0.3082  0.3558
 4799SOL    HW126030   2.388   0.797   5.956 -0.1174  1.3960 -2.0617
 4799SOL    HW226031   2.481   0.860   6.038 -0.4858  0.2789 -0.0402
 4800SOL     OW26032   3.615   2.703   2.095 -0.0815  0.0236 -0.9945
 4800SOL    HW126033   3.699   2.733   2.128  0.2449 -0.2985 -1.5234
 4800SOL    HW226034   3.560   2.781   2.095 -1.5374 -0.9942 -1.4688
 4801SOL     OW26035   0.656   1.482   5.984 -0.1987 -0.5736  0.1804
 4801SOL    HW126036   0.643   1.387   5.980  0.1845 -0.6690  1.2327
 4801SOL    HW226037   0.737   1.491   6.035  0.5068 -2.1317 -0.6833
 4802SOL     OW26038   0.257   0.166   5.350 -0.2648  0.5062 -0.1364
 4802SOL    HW126039   0.202   0.126   5.283  0.2599  1.2247 -0.9832
 4802SOL    HW226040   0.245   0.104   5.422  0.0046 -0.4512 -0.9182
 4803SOL     OW26041   1.486   1.005   8.499 -0.6518 -0.2577  0.1515
 4803SOL    HW126042   1.534   0.932   8.537 -0.3896  0.2289  0.7616
 4803SOL    HW226043   1.398   0.970   8.512 -0.8991  0.2827 -0.0583
 4804SOL     OW26044   4.423   3.269  15.195 -0.7461  0.2196  0.0338
 4804SOL    HW126045   4.474   3.266  15.114  2.4228 -0.1216  2.0487
 4804SOL    HW226046   4.486   3.252  15.265 -1.3668  1.5346  0.9130
 4805SOL     OW26047   0.742   3.754   1.676 -0.0019 -0.0015  0.1564
 4805SOL    HW126048   0.757   3.703   1.756 -1.1277  0.0346  0.3995
 4805SOL    HW226049   0.794   3.831   1.695  0.0884 -0.2335  0.8418
 4806SOL     OW26050   2.909   0.383   4.684 -0.0113 -0.0691  0.0691
 4806SOL    HW126051   2.992   0.419   4.714  0.1055 -0.4536  0.2044
 4806SOL    HW226052   2.850   0.444   4.728  0.4265 -0.2180  0.8479
 4807SOL     OW26053   1.574   1.440  11.535 -0.4018  0.5884  0.0278
 4807SOL    HW126054   1.516   1.487  11.595 -0.7884 -1.1571  1.0051
 4807SOL    HW226055   1.660   1.456  11.573 -0.3764 -2.3272  1.1292
 4808SOL     OW26056   0.469   1.448   4.814 -0.3187  0.6678 -0.2516
 4808SOL    HW126057   0.532   1.449   4.886 -0.6411 -0.5862  0.0537
 4808SOL    HW226058   0.520   1.379   4.771 -0.1510 -0.3571  1.5710
 4809SOL     OW26059   0.871   0.687   1.008 -0.3742 -0.2513  0.3045
 4809SOL    HW126060   0.834   0.771   0.982  1.2045  0.9365  1.9885
 4809SOL    HW226061   0.894   0.705   1.099  0.7732  0.3610 -0.1077
 4810SOL     OW26062   4.567   1.807   5.936  0.0902 -0.3223 -0.2034
 4810SOL    HW126063   4.563   1.762   6.020 -0.4246 -0.6633 -0.4105
 4810SOL    HW226064   4.483   1.851   5.921  0.3068  0.8851  2.1840
 4811SOL     OW26065   2.437   4.502  12.502 -0.1579  0.1234  0.5392
 4811SOL    HW126066   2.410   4.533  12.588  1.9662 -2.4179  2.1649
 4811SOL    HW226067   2.532   4.514  12.498 -0.6498  3.8117  0.1716
 4812SOL     OW26068   3.771   1.519   1.426 -0.1207  0.2159  0.5908
 4812SOL    HW126069   3.849   1.481   1.467 -0.3231  0.1003  0.8697
 4812SOL    HW226070   3.729   1.568   1.497 -1.8545  0.7323 -0.7875
 4813SOL     OW26071   0.404   3.907   4.646 -0.0584 -0.1151  0.2792
 4813SOL    HW126072   0.361   3.858   4.576  1.8467 -0.1742 -0.8408
 4813SOL    HW226073   0.369   3.995   4.636  2.6704  1.0082  0.5404
 4814SOL     OW26074   1.330   1.626   5.641  0.0753  0.6308 -0.0675
 4814SOL    HW126075   1.401   1.622   5.705  0.3180  1.5819 -0.2850
 4814SOL    HW226076   1.298   1.713   5.665  1.2984  1.1125 -0.1828
 4815SOL     OW26077   0.700   4.220   6.148  0.0681 -0.0660  0.4182
 4815SOL    HW126078   0.644   4.197   6.223 -0.0109  1.7509  0.8981
 4815SOL    HW226079   0.772   4.272   6.183  0.8094 -0.4040 -0.6081
 4816SOL     OW26080   3.941   2.783  12.925 -0.2829  0.0880 -0.2522
 4816SOL    HW126081   3.991   2.708  12.956  1.5687  1.9430  1.2562
 4816SOL    HW226082   3.937   2.838  13.004 -0.5266  0.7995 -0.7548
 4817SOL     OW26083   2.370   3.869  13.435  0.1360  0.4057 -0.2628
 4817SOL    HW126084   2.448   3.851  13.487 -0.0782 -2.5852 -0.9347
 4817SOL    HW226085   2.332   3.932  13.496  0.1983  0.1693  0.0208
 4818SOL     OW26086   3.797   0.028   0.672  0.3265  0.0506 -1.0181
 4818SOL    HW126087   3.807   4.673   0.670 -2.4969 -0.2818  1.0490
 4818SOL    HW226088   3.872   0.054   0.618  1.0116  3.3714  1.4882
 4819SOL     OW26089   0.727   0.566  15.766  0.1330 -0.0734  0.2713
 4819SOL    HW126090   0.635   0.578  15.744  1.2413 -2.0013 -5.2839
 4819SOL    HW226091   0.772   0.529  15.690 -1.1520  0.0422 -0.5397
 4820SOL     OW26092   2.692   3.408  12.974  0.0113 -0.3536  0.2237
 4820SOL    HW126093   2.731   3.397  12.887 -0.3652  2.2165 -0.2595
 4820SOL    HW226094   2.619   3.347  12.969  0.2366 -0.5856 -0.2724
 4821SOL     OW26095   3.509   1.362   9.308  0.0639 -0.2620 -0.0741
 4821SOL    HW126096   3.523   1.411   9.389  1.0025 -0.4009 -0.1593
 4821SOL    HW226097   3.421   1.324   9.315 -0.1770  0.3265  0.1417
 4822SOL     OW26098   2.678   1.553   9.266  0.4550  0.0304 -0.0267
 4822SOL    HW126099   2.663   1.648   9.271  1.3584 -0.0033  3.4868
 4822SOL    HW226100   2.626   1.518   9.338  0.3907 -0.3982 -0.2808
 4823SOL     OW26101   0.051   4.720  10.140  0.1493  0.1985  0.1560
 4823SOL    HW126102   4.722   4.653  10.139 -2.3941  2.8108 -2.0921
 4823SOL    HW226103   0.127   4.673  10.174 -0.0405  0.8117  1.4506
 4824SOL     OW26104   2.777   1.984   2.578  0.0042  0.6763 -0.2904
 4824SOL    HW126105   2.762   1.893   2.603  0.6716  0.8307  0.6435
 4824SOL    HW226106   2.759   2.041   2.652  0.9138 -0.7880  1.0630
 4825SOL     OW26107   0.568   0.012  11.346 -0.4211 -0.1915 -0.4353
 4825SOL    HW126108   0.565   4.732  11.252  0.9501  1.5316 -0.8301
 4825SOL    HW226109   0.614   4.675  11.379 -0.6789 -0.8779 -1.6781
 4826SOL     OW26110   2.585   4.582   6.045  0.1823 -0.3479  0.5919
 4826SOL    HW126111   2.605   4.579   5.951 -1.1780  2.0191  0.1999
 4826SOL    HW226112   2.658   4.631   6.082  0.5875  0.1767 -0.9083
 4827SOL     OW26113   0.576   4.424   8.027 -0.3357  0.0286 -0.2495
 4827SOL    HW126114   0.581   4.519   8.012 -1.3613 -0.1545 -1.7237
 4827SOL    HW226115   0.658   4.414   8.074 -0.0943 -1.2181 -0.9378
 4828SOL     OW26116   4.293   3.040   0.828  0.1837 -0.3728  0.0444
 4828SOL    HW126117   4.301   2.951   0.861  0.0996  0.2398  1.7117
 4828SOL    HW226118   4.282   3.019   0.735 -0.7235 -0.6637  0.2118
 4829SOL     OW26119   2.880   2.201   7.239  0.1082  0.1632 -0.5652
 4829SOL    HW126120   2.806   2.257   7.213  1.0313  0.6452 -2.1944
 4829SOL    HW226121   2.837   2.116   7.244  0.0539  0.0972 -2.1623
 4830SOL     OW26122   2.687   0.703   1.039 -0.3073 -0.2351 -0.1822
 4830SOL    HW126123   2.654   0.619   1.006 -1.1909  0.1332 -0.2421
 4830SOL    HW226124   2.763   0.726   0.986  0.6016  0.4742  1.4086
 4831SOL     OW26125   3.490   2.789   1.589  0.0086  0.0817 -0.3322
 4831SOL    HW126126   3.419   2.732   1.557 -0.4888 -0.6290  2.0832
 4831SOL    HW226127   3.464   2.858   1.527 -0.1709 -2.2223 -2.8104
 4832SOL     OW26128   2.849   2.220   7.700  0.5987 -0.1847 -0.5430
 4832SOL    HW126129   2.834   2.137   7.655 -1.9316  0.8792 -1.6747
 4832SOL    HW226130   2.840   2.287   7.632 -1.9335 -1.6516 -1.6434
 4833SOL     OW26131   0.179   2.025   7.878 -0.3318 -0.0421  0.1385
 4833SOL    HW126132   0.189   2.039   7.972 -4.2260 -2.6258  0.9224
 4833SOL    HW226133   0.107   2.085   7.860  0.2148  0.4962 -0.2370
 4834SOL     OW26134   2.810   4.258   1.692  0.1456  0.0329 -0.1695
 4834SOL    HW126135   2.766   4.187   1.740  1.3355 -0.0761  0.7659
 4834SOL    HW226136   2.899   4.223   1.697  0.1631 -0.0491 -1.2236
 4835SOL     OW26137   3.406   0.639   6.029 -0.3506  0.0140  0.6035
 4835SOL    HW126138   3.490   0.600   6.053 -0.7871 -1.3333 -0.0621
 4835SOL    HW226139   3.380   0.681   6.111  0.1207 -0.6358  1.0839
 4836SOL     OW26140   3.695   1.203   9.202  0.3582  0.3799 -0.1861
 4836SOL    HW126141   3.694   1.250   9.119  2.9804 -2.3150 -1.7489
 4836SOL    HW226142   3.634   1.257   9.252 -0.8095 -2.3890  1.3754
 4837SOL     OW26143   3.318   1.004   5.425  0.4324 -0.3282 -0.8237
 4837SOL    HW126144   3.360   0.996   5.339  0.7022 -3.4067 -0.4104
 4837SOL    HW226145   3.228   0.986   5.398  0.4247 -0.9718 -0.3691
 4838SOL     OW26146   3.230   1.534   8.514 -0.1225  0.5043 -0.1917
 4838SOL    HW126147   3.160   1.529   8.449 -0.9863  0.3674  0.7421
 4838SOL    HW226148   3.305   1.551   8.457  0.5698 -3.6885 -0.4999
 4839SOL     OW26149   2.245   1.945   1.862  0.2707  0.3259  0.1586
 4839SOL    HW126150   2.248   2.034   1.828 -0.5415 -0.5221 -2.1366
 4839SOL    HW226151   2.249   1.956   1.957 -0.7949  2.1769 -0.0197
 4840SOL     OW26152   0.935   4.305   4.534  0.5386 -0.1627 -0.2228
 4840SOL    HW126153   0.912   4.382   4.587  0.3697 -1.2432  1.2624
 4840SOL    HW226154   0.849   4.273   4.506 -0.9363  2.2767  1.5037
 4841SOL     OW26155   3.563   3.609   2.440 -0.0495  0.5395 -0.4760
 4841SOL    HW126156   3.627   3.540   2.461  1.0763  1.6298 -0.3594
 4841SOL    HW226157   3.483   3.557   2.443  1.6044 -1.9920 -0.2129
 4842SOL     OW26158   0.341   3.166   4.639  0.2425  0.3665  0.2250
 4842SOL    HW126159   0.313   3.174   4.548 -0.5549 -1.8282  0.2633
 4842SOL    HW226160   0.276   3.101   4.665  1.0191 -0.1718  0.8431
 4843SOL     OW26161   2.084   2.393   3.764  0.1850  0.0368 -0.0859
 4843SOL    HW126162   2.000   2.438   3.767 -1.3452 -2.9203  1.4154
 4843SOL    HW226163   2.099   2.385   3.858  2.7611  1.0941 -0.4102
 4844SOL     OW26164   1.914   1.599   5.469 -0.0068  0.6053 -0.1517
 4844SOL    HW126165   1.864   1.667   5.514 -0.6772  0.2575 -0.3711
 4844SOL    HW226166   1.951   1.564   5.551 -0.1000 -0.2066 -0.4543
 4845SOL     OW26167   0.515   3.687  13.195 -0.0908 -0.1630  0.1078
 4845SOL    HW126168   0.489   3.656  13.108 -1.0915  1.3411 -0.1206
 4845SOL    HW226169   0.471   3.635  13.262 -0.7950 -0.8524 -0.8857
 4846SOL     OW26170   1.649   1.215   8.462 -0.5821 -0.0288 -0.1699
 4846SOL    HW126171   1.593   1.139   8.475  1.8316 -1.4179  2.0858
 4846SOL    HW226172   1.723   1.181   8.411 -1.5824  0.3138 -1.8411
 4847SOL     OW26173   0.132   0.903   6.453  0.2418 -0.0603  0.6314
 4847SOL    HW126174   0.177   0.912   6.536 -0.6004 -2.3981  1.3384
 4847SOL    HW226175   0.136   0.996   6.429  2.3623  0.2104  2.0388
 4848SOL     OW26176   0.018   4.150  11.100  0.1848  0.2237 -0.8539
 4848SOL    HW126177   4.723   4.090  11.167  1.4763  2.5174  1.8584
 4848SOL    HW226178   0.054   4.086  11.038 -2.5634 -0.1816 -2.0375
 4849SOL     OW26179   0.855   2.706   2.640  0.4870 -0.0491  0.4005
 4849SOL    HW126180   0.808   2.667   2.714 -2.1192 -0.5105 -1.5294
 4849SOL    HW226181   0.818   2.794   2.646 -0.7014 -0.7408  3.4908
 4850SOL     OW26182   0.436   1.745  11.432  0.2916 -0.6169  0.1437
 4850SOL    HW126183   0.444   1.727  11.338  0.9880 -0.3154  0.1419
 4850SOL    HW226184   0.511   1.804  11.438  0.5732 -0.8794 -0.7534
 4851SOL     OW26185   1.245   2.936  17.067  0.2350  0.1926  0.3856
 4851SOL    HW126186   1.192   3.010  17.098 -1.2012 -0.7943  0.2713
 4851SOL    HW226187   1.189   2.900  16.997  1.1388  1.3705 -0.9504
 4852SOL     OW26188   3.425   0.664   9.495  0.4874  0.3108 -0.6987
 4852SOL    HW126189   3.481   0.736   9.524  0.0880  0.0307  0.7829
 4852SOL    HW226190   3.360   0.705   9.438 -0.2530 -1.0955 -0.8730
 4853SOL     OW26191   4.638   0.015   9.814  0.2688  0.1463 -0.3100
 4853SOL    HW126192   4.734   0.019   9.820  0.2514 -1.0066  0.6668
 4853SOL    HW226193   4.611   0.089   9.868  0.0709  0.0486 -0.2774
 4854SOL     OW26194   0.237   0.427   7.883 -0.2680 -0.2986  0.0934
 4854SOL    HW126195   0.164   0.435   7.944 -1.2416  0.7433 -1.1922
 4854SOL    HW226196   0.302   0.461   7.945 -1.0452  1.5591 -0.1048
 4855SOL     OW26197   0.582   4.364   2.513  0.4460  0.7402 -0.4754
 4855SOL    HW126198   0.560   4.353   2.605 -0.5432 -0.2979 -0.8373
 4855SOL    HW226199   0.493   4.340   2.487  1.5457 -1.3282 -2.3120
 4856SOL     OW26200   3.456   0.325  12.828 -0.1036 -0.5211  0.3335
 4856SOL    HW126201   3.534   0.373  12.799  0.1570  0.9007  3.4549
 4856SOL    HW226202   3.475   0.313  12.921 -1.1187  1.1868  0.7595
 4857SOL     OW26203   3.471   3.681   5.584  0.3145  0.2414  0.4105
 4857SOL    HW126204   3.530   3.743   5.628  0.3015  0.7131 -0.2443
 4857SOL    HW226205   3.501   3.696   5.495 -1.4604  4.2470  0.4971
 4858SOL     OW26206   2.307   3.939  10.977  0.3342  0.0745  0.5562
 4858SOL    HW126207   2.292   4.013  11.036 -0.3961 -0.2227  0.7400
 4858SOL    HW226208   2.267   3.966  10.894 -0.8052 -4.6907 -0.4239
 4859SOL     OW26209   4.051   4.420   4.978  0.4675  0.7091 -0.1312
 4859SOL    HW126210   4.019   4.449   4.893  1.5145  0.6812 -0.5349
 4859SOL    HW226211   4.125   4.363   4.959  0.6216  0.4863  1.1164
 4860SOL     OW26212   3.472   0.360  15.620 -0.0858  0.4125 -0.2448
 4860SOL    HW126213   3.383   0.348  15.587 -0.9074  0.7061  1.8557
 4860SOL    HW226214   3.523   0.283  15.600  0.4867  1.0472 -1.1964
 4861SOL     OW26215   2.579   0.806   5.086 -0.3571 -0.1333 -0.2546
 4861SOL    HW126216   2.506   0.745   5.074  1.1044 -2.1573  1.0709
 4861SOL    HW226217   2.624   0.806   5.002  0.2915  0.8857  0.0805
 4862SOL     OW26218   0.208   2.085   3.633  0.4779  0.6963 -0.2179
 4862SOL    HW126219   0.234   2.048   3.549  2.2491  2.4951 -0.4596
 4862SOL    HW226220   0.113   2.084   3.626  0.5207  0.0278 -0.7042
 4863SOL     OW26221   4.264   4.014   7.831  0.5305  0.1118  0.1224
 4863SOL    HW126222   4.264   4.099   7.876 -0.4374  0.2974 -0.2342
 4863SOL    HW226223   4.181   3.983   7.867 -0.9798  2.8180 -1.0453
 4864SOL     OW26224   2.354   3.160   2.707 -0.1432 -0.4006  0.0360
 4864SOL    HW126225   2.374   3.214   2.631  0.7351  0.2688  0.7399
 4864SOL    HW226226   2.401   3.078   2.693  0.5692 -0.1533  0.9737
 4865SOL     OW26227   1.211   2.636   7.670 -0.0020  0.2586  0.5817
 4865SOL    HW126228   1.290   2.584   7.679 -0.2911 -0.6539 -2.4093
 4865SOL    HW226229   1.230   2.710   7.727  1.9647 -1.2306  1.8400
 4866SOL     OW26230   0.231   2.301   8.846  0.2940  0.1992 -0.1941
 4866SOL    HW126231   0.256   2.255   8.926  0.2466 -0.4985 -0.5829
 4866SOL    HW226232   0.316   2.332   8.813  1.3794 -0.8845  1.5995
 4867SOL     OW26233   1.876   2.047   7.831  0.3294  0.0822  0.3279
 4867SOL    HW126234   1.802   2.074   7.886  0.2215 -0.1980  0.3211
 4867SOL    HW226235   1.860   1.953   7.824  2.5849 -0.0430 -3.1740
 4868SOL     OW26236   0.502   2.691   4.253  0.1295 -0.2835  0.0654
 4868SOL    HW126237   0.426   2.637   4.236 -0.8592  0.8409  0.9076
 4868SOL    HW226238   0.578   2.633   4.257  0.1711 -0.2823 -0.7335
 4869SOL     OW26239   3.975   2.689   3.375  0.6389 -0.0144  0.0272
 4869SOL    HW126240   3.957   2.656   3.463 -0.3656  1.2835  0.3168
 4869SOL    HW226241   3.921   2.767   3.390  2.0080  0.7147  1.1167
 4870SOL     OW26242   0.021   0.468   2.354 -0.2373  0.4241 -0.2536
 4870SOL    HW126243   0.065   0.539   2.401 -2.1272  0.0329  2.1296
 4870SOL    HW226244   0.057   0.390   2.396 -0.1446  0.5886 -0.0311
 4871SOL     OW26245   0.973   1.233   5.706 -0.4978  0.1620  0.3572
 4871SOL    HW126246   0.940   1.227   5.617 -1.4915 -2.0208  0.8866
 4871SOL    HW226247   0.921   1.312   5.725  0.1180  1.2389 -2.3543
 4872SOL     OW26248   1.966   0.617   9.329  0.1004 -0.5427  0.0517
 4872SOL    HW126249   2.010   0.591   9.410 -1.3509 -0.0477  0.9925
 4872SOL    HW226250   2.038   0.629   9.267  0.3711  1.7037  0.7923
 4873SOL     OW26251   2.977   3.293   3.258 -0.8348  0.1065 -0.4337
 4873SOL    HW126252   2.990   3.375   3.305 -1.9880  0.0177  0.0603
 4873SOL    HW226253   2.906   3.255   3.311 -0.0841 -0.0934  0.4197
 4874SOL     OW26254   0.763   0.184   6.963 -0.2450  0.0371  0.5029
 4874SOL    HW126255   0.713   0.177   7.044  0.1127 -1.3227  0.6034
 4874SOL    HW226256   0.735   0.099   6.929  1.4876  0.8118 -2.8432
 4875SOL     OW26257   3.019   1.051   2.586 -0.0656 -0.0344 -0.3767
 4875SOL    HW126258   2.964   1.031   2.510 -0.4460  1.1322 -0.4057
 4875SOL    HW226259   3.109   1.034   2.557  0.7152 -0.4882  2.3799
 4876SOL     OW26260   1.931   3.988   5.847 -0.0687  0.2773 -0.1981
 4876SOL    HW126261   1.874   4.045   5.898  2.9492  1.7379  1.5870
 4876SOL    HW226262   2.001   4.041   5.808 -0.3383  0.7603 -0.0268
 4877SOL     OW26263   0.891   2.923   7.023  0.0416 -0.2804  0.0473
 4877SOL    HW126264   0.822   2.917   6.956 -1.6678  0.0296  1.7669
 4877SOL    HW226265   0.959   2.970   6.975  0.4429  2.0155  2.8605
 4878SOL     OW26266   0.870   1.759   8.611 -0.1277 -0.6103  0.0149
 4878SOL    HW126267   0.924   1.734   8.537 -1.7677  3.3406 -2.4991
 4878SOL    HW226268   0.825   1.829   8.564  0.5318 -0.1951 -0.0018
 4879SOL     OW26269   1.321   2.859  12.182  0.6068  0.4935  0.3705
 4879SOL    HW126270   1.317   2.955  12.177 -0.1056  0.5544  2.1005
 4879SOL    HW226271   1.260   2.822  12.119  0.2268  1.7804 -0.0136
 4880SOL     OW26272   0.243   1.523   7.444  0.4221  0.1006 -0.4732
 4880SOL    HW126273   0.281   1.449   7.397  2.0721  1.3707 -1.1295
 4880SOL    HW226274   0.197   1.469   7.508  1.2948 -0.5671 -0.4239
 4881SOL     OW26275   2.375   0.337   2.610  0.1974  0.7896  0.2302
 4881SOL    HW126276   2.451   0.394   2.617  2.2491 -2.0584  1.1851
 4881SOL    HW226277   2.367   0.326   2.705  1.9305 -2.7816 -0.0154
 4882SOL     OW26278   4.452   1.599  13.999  0.1012  0.1834 -0.4945
 4882SOL    HW126279   4.423   1.689  13.987 -0.0265  0.0215 -1.3868
 4882SOL    HW226280   4.493   1.562  13.921  1.1206  0.7257 -0.2146
 4883SOL     OW26281   3.465   4.410   7.963  0.3453  0.4174 -0.1718
 4883SOL    HW126282   3.410   4.342   8.001  0.9502  0.9253  1.6017
 4883SOL    HW226283   3.433   4.413   7.872  1.2061  0.8999 -0.4641
 4884SOL     OW26284   0.495   2.066   9.311  0.1846 -0.2326  0.3898
 4884SOL    HW126285   0.516   1.976   9.338  2.3000 -0.6952 -2.7522
 4884SOL    HW226286   0.545   2.112   9.378 -0.6107 -2.1351  2.2955
 4885SOL     OW26287   2.078   3.584  17.431 -0.3649  0.0142  0.4531
 4885SOL    HW126288   2.082   3.558  17.339  0.8416  4.7837 -0.8490
 4885SOL    HW226289   2.167   3.569  17.463  0.2828  0.9379 -0.9430
 4886SOL     OW26290   1.732   2.305  17.270 -0.4652 -0.0487  0.4529
 4886SOL    HW126291   1.792   2.341  17.205  0.4042 -0.6475  0.9197
 4886SOL    HW226292   1.654   2.337  17.225 -0.5086  2.3692  2.2532
 4887SOL     OW26293   2.615   2.356   4.652  0.1199  0.3905  0.6733
 4887SOL    HW126294   2.688   2.417   4.646 -0.0577  0.7174  1.8069
 4887SOL    HW226295   2.595   2.347   4.745  0.4686  2.4382  0.9453
 4888SOL     OW26296   3.255   4.285   4.091  0.2999 -0.4500  0.2930
 4888SOL    HW126297   3.295   4.254   4.172  0.0673 -2.5900 -0.4177
 4888SOL    HW226298   3.330   4.330   4.052  1.2448 -2.0052  0.3129
 4889SOL     OW26299   1.220   2.075   4.461 -0.1920  0.2096 -0.4987
 4889SOL    HW126300   1.313   2.054   4.471 -0.0392  1.0043 -0.2381
 4889SOL    HW226301   1.184   2.017   4.394 -1.6745  0.5815 -0.0161
 4890SOL     OW26302   0.437   4.069   9.291 -0.0394 -0.3818  0.0153
 4890SOL    HW126303   0.400   3.987   9.260  1.9256 -1.3229  0.1533
 4890SOL    HW226304   0.367   4.104   9.347 -0.4434 -0.6087 -0.3543
 4891SOL     OW26305   1.848   4.158  16.883 -0.4659  0.5262  0.0457
 4891SOL    HW126306   1.759   4.135  16.909 -0.1796  0.6432  1.1321
 4891SOL    HW226307   1.874   4.097  16.814 -1.7807  0.4956 -0.4232
 4892SOL     OW26308   0.530   0.840  16.633 -0.0756 -0.4125  0.5443
 4892SOL    HW126309   0.593   0.799  16.692  0.9510 -1.2808 -1.1480
 4892SOL    HW226310   0.593   0.837  16.561  0.5669 -2.3434  1.1868
 4893SOL     OW26311   1.437   3.868   7.492  0.1452 -0.1084 -0.6150
 4893SOL    HW126312   1.522   3.855   7.450  0.1783 -1.9342  0.0081
 4893SOL    HW226313   1.438   3.963   7.495  0.4730 -0.1796  1.9936
 4894SOL     OW26314   4.497   3.724  10.623  0.0491 -1.0879  0.0801
 4894SOL    HW126315   4.522   3.658  10.559 -0.4534 -0.3343 -0.8975
 4894SOL    HW226316   4.503   3.668  10.700  0.3694 -0.9894  0.1261
 4895SOL     OW26317   0.315   3.904   5.255  0.1142 -0.6803 -0.1426
 4895SOL    HW126318   0.240   3.881   5.310  0.3035 -0.5965  0.1526
 4895SOL    HW226319   0.381   3.850   5.298 -0.1174 -1.3734 -0.6470
 4896SOL     OW26320   1.294   2.663   3.675 -0.1145  0.0706 -0.2867
 4896SOL    HW126321   1.219   2.683   3.618 -1.0756  0.1352  0.9977
 4896SOL    HW226322   1.360   2.632   3.614 -1.4464  1.2295 -2.3387
 4897SOL     OW26323   2.125   1.902   4.377  0.7585  0.0552 -0.0173
 4897SOL    HW126324   2.113   1.808   4.365  0.3111  0.3111 -1.6295
 4897SOL    HW226325   2.169   1.911   4.293 -1.3659 -2.1816 -1.3773
 4898SOL     OW26326   4.612   3.176   6.943  0.2788 -0.7459  0.1757
 4898SOL    HW126327   4.635   3.089   6.913 -0.2290  0.0433 -2.4792
 4898SOL    HW226328   4.650   3.173   7.032  1.9334 -3.2716 -0.6189
 4899SOL     OW26329   1.765   4.339   8.399 -0.3947  0.1967 -0.1610
 4899SOL    HW126330   1.847   4.300   8.369 -0.2807  1.7903 -1.9375
 4899SOL    HW226331   1.780   4.425   8.360 -1.4931  1.3134  1.8466
 4900SOL     OW26332   4.357   3.961   6.817 -0.1991 -0.9223  0.1690
 4900SOL    HW126333   4.441   3.979   6.861 -0.9324 -3.1286  2.4714
 4900SOL    HW226334   4.310   3.926   6.892 -0.2990  0.5890  0.8160
 4901SOL     OW26335   1.491   2.101   6.361  0.1883 -0.1345 -0.2819
 4901SOL    HW126336   1.448   2.174   6.317  1.6623 -0.5882 -2.4868
 4901SOL    HW226337   1.583   2.109   6.335  0.4943  1.2467  1.1904
 4902SOL     OW26338   3.232   2.916   5.939 -0.0314  0.6278 -0.0177
 4902SOL    HW126339   3.228   2.822   5.956  0.3693  0.8861  1.5239
 4902SOL    HW226340   3.308   2.937   5.885  1.2415 -0.5235  1.3183
 4903SOL     OW26341   3.824   2.273   3.617  0.3100  0.4445 -0.0073
 4903SOL    HW126342   3.769   2.254   3.693  0.9840 -1.0907  0.0930
 4903SOL    HW226343   3.879   2.343   3.651 -1.3607  0.1013  3.3534
 4904SOL     OW26344   2.734   3.309   9.440 -0.0306  0.3910  0.3451
 4904SOL    HW126345   2.661   3.282   9.496 -0.2231  0.4713  0.1312
 4904SOL    HW226346   2.807   3.267   9.484  0.0763 -0.6409 -0.8293
 4905SOL     OW26347   4.405   2.558   2.603 -0.2162  0.3742  0.2063
 4905SOL    HW126348   4.371   2.527   2.687  0.5214  1.4159  0.8742
 4905SOL    HW226349   4.461   2.486   2.574 -0.4547  0.2282  0.0981
 4906SOL     OW26350   4.313   3.550   2.097  0.7319  0.3230  0.0749
 4906SOL    HW126351   4.295   3.608   2.023  1.8950  0.3838 -0.1549
 4906SOL    HW226352   4.400   3.523   2.069  1.2351 -0.3697  2.3644
 4907SOL     OW26353   2.511   0.364   1.934  0.6208 -0.0605  0.1613
 4907SOL    HW126354   2.589   0.308   1.927  1.1636  0.5034  1.6099
 4907SOL    HW226355   2.453   0.311   1.881 -0.1000  0.2057  0.6868
 4908SOL     OW26356   0.202   0.847   1.041  0.8292 -0.1382  0.3328
 4908SOL    HW126357   0.265   0.859   0.970 -1.1972  0.3374 -1.3758
 4908SOL    HW226358   0.214   0.924   1.098  1.8477 -2.1240  2.7877
 4909SOL     OW26359   4.495   2.668   0.514 -0.3433  0.3882  0.1235
 4909SOL    HW126360   4.427   2.677   0.448  1.4294  0.8483 -1.6453
 4909SOL    HW226361   4.571   2.629   0.470  0.2212 -0.9856  2.2821
 4910SOL     OW26362   0.608   2.247   8.577 -0.0292 -0.2677  0.4205
 4910SOL    HW126363   0.519   2.256   8.542  0.5434  0.3096 -0.9058
 4910SOL    HW226364   0.643   2.329   8.543  0.2385 -0.9659 -1.0381
 4911SOL     OW26365   1.754   0.602   4.608  0.6473  0.5702 -0.5930
 4911SOL    HW126366   1.779   0.510   4.607 -1.4889 -0.0089  0.6841
 4911SOL    HW226367   1.794   0.623   4.523 -1.2749  1.3490 -1.3064
 4912SOL     OW26368   1.487   0.499   7.647 -0.3782  0.1133 -0.0282
 4912SOL    HW126369   1.579   0.509   7.669 -0.2184 -2.5778  0.5261
 4912SOL    HW226370   1.457   0.490   7.738  0.8227  1.1834  0.4658
 4913SOL     OW26371   1.184   3.282   4.958  0.0037 -0.4175 -0.3704
 4913SOL    HW126372   1.164   3.373   4.978 -0.6130 -1.3552  3.4235
 4913SOL    HW226373   1.277   3.292   4.975 -0.3966  1.4687  0.7068
 4914SOL     OW26374   0.847   3.197  10.989  0.4104 -0.2366  0.4328
 4914SOL    HW126375   0.899   3.214  11.067  0.4085  0.2536  0.3245
 4914SOL    HW226376   0.890   3.260  10.931 -0.6735 -0.3798 -0.5361
 4915SOL     OW26377   3.890   1.378   0.005  0.4634  0.4061  0.3961
 4915SOL    HW126378   3.895   1.317  17.688  0.7848 -0.7192  1.3658
 4915SOL    HW226379   3.939   1.331   0.073  0.3103  0.4404  0.5309
 4916SOL     OW26380   1.927   2.930   8.063 -0.0788  0.4894  0.1744
 4916SOL    HW126381   1.891   2.942   7.975  0.3439 -0.1613 -0.0827
 4916SOL    HW226382   2.012   2.974   8.068  0.4756 -0.5974  0.2296
 4917SOL     OW26383   4.000   2.835   0.529 -0.3414  0.2434 -0.0301
 4917SOL    HW126384   4.092   2.840   0.503 -0.7147  1.2406 -1.1252
 4917SOL    HW226385   3.990   2.741   0.547 -1.3939  0.2972 -0.3239
 4918SOL     OW26386   4.129   1.421   5.102 -0.2170 -0.1733  0.2414
 4918SOL    HW126387   4.105   1.499   5.052  0.5671 -0.0896  0.0031
 4918SOL    HW226388   4.047   1.412   5.151 -0.5644 -0.2003 -0.3536
 4919SOL     OW26389   4.648   1.893  14.371 -0.2997  0.5378  0.8069
 4919SOL    HW126390   4.621   1.926  14.285 -0.0125  0.1319  0.5621
 4919SOL    HW226391   4.570   1.905  14.425 -0.8165  0.8821 -0.0036
 4920SOL     OW26392   1.900   3.815  13.063 -0.0604  0.0839 -0.2453
 4920SOL    HW126393   1.969   3.874  13.033 -0.4990  1.2831  1.1389
 4920SOL    HW226394   1.950   3.748  13.108  2.7332  2.3694  0.0342
 4921SOL     OW26395   2.688   1.655   8.027 -0.4185 -0.3459  0.1911
 4921SOL    HW126396   2.627   1.591   8.064  0.5389 -1.2841  0.1373
 4921SOL    HW226397   2.684   1.606   7.946  0.5681 -0.1573  0.0245
 4922SOL     OW26398   0.338   0.134   6.589 -0.0847  0.3268  0.4211
 4922SOL    HW126399   0.329   0.093   6.675  1.1577 -1.6726 -0.4199
 4922SOL    HW226400   0.348   0.222   6.626 -0.1799  0.4011  0.2733
 4923SOL     OW26401   3.080   3.266  15.146 -0.3746 -0.3213  0.7095
 4923SOL    HW126402   3.060   3.344  15.095  0.9669 -0.7546 -0.4785
 4923SOL    HW226403   3.167   3.251  15.109 -0.5493 -0.5387  0.3906
 4924SOL     OW26404   0.450   0.733   2.793  0.1260 -0.5104  0.3580
 4924SOL    HW126405   0.390   0.659   2.793  0.0299 -0.4084 -2.9802
 4924SOL    HW226406   0.473   0.749   2.885 -2.7354 -0.5709  1.1002
 4925SOL     OW26407   0.862   3.204   4.141 -0.2574 -0.1610 -0.3010
 4925SOL    HW126408   0.916   3.257   4.198 -1.8144 -1.1802  2.1320
 4925SOL    HW226409   0.810   3.149   4.200 -0.2402  0.4383  0.2721
 4926SOL     OW26410   0.271   1.991   4.446  1.0429  0.1880 -0.0937
 4926SOL    HW126411   0.358   2.015   4.478  1.3308  0.7443 -1.3105
 4926SOL    HW226412   0.255   2.072   4.398 -0.4824  0.1819  0.3805
 4927SOL     OW26413   1.976   1.866  11.286 -0.2496 -0.3320 -0.1690
 4927SOL    HW126414   1.941   1.886  11.200  2.7044 -1.3138 -1.6147
 4927SOL    HW226415   1.956   1.948  11.332 -0.5850 -0.7157  0.3726
 4928SOL     OW26416   2.043   1.000   3.289 -0.6003  0.2365 -0.0272
 4928SOL    HW126417   2.009   0.911   3.289 -1.7841  0.6899  1.2681
 4928SOL    HW226418   2.077   1.012   3.377 -0.4097 -0.2883 -0.0260
 4929SOL     OW26419   1.525   2.421  10.779  0.2570  0.3214 -0.1895
 4929SOL    HW126420   1.472   2.434  10.857  0.2733  0.7588 -0.2499
 4929SOL    HW226421   1.528   2.513  10.751 -0.0282  0.4186  0.0980
 4930SOL     OW26422   1.081   4.252   4.787 -0.0045 -0.1368  0.1776
 4930SOL    HW126423   1.069   4.198   4.709  2.3854 -0.9053  0.3482
 4930SOL    HW226424   1.000   4.241   4.838 -1.0296  0.4282 -1.3436
 4931SOL     OW26425   2.135   2.505  15.701  0.2420  0.1022 -0.2006
 4931SOL    HW126426   2.117   2.435  15.638 -1.1488  1.1212 -0.9578
 4931SOL    HW226427   2.064   2.570  15.701 -1.1606 -1.4426 -1.1686
 4932SOL     OW26428   0.260   4.215   0.075  0.0798  0.2308  0.0919
 4932SOL    HW126429   0.169   4.245   0.079  0.6041  1.7973  0.3539
 4932SOL    HW226430   0.298   4.291   0.031  0.1854 -0.2568 -0.6608
 4933SOL     OW26431   3.119   2.235   2.479  0.6075 -0.0332  0.3841
 4933SOL    HW126432   3.087   2.145   2.481  2.2250 -0.6360 -0.7045
 4933SOL    HW226433   3.141   2.242   2.386  0.8053  0.3049  0.4553
 4934SOL     OW26434   2.804   1.755   7.687  0.0605 -0.2122  0.0998
 4934SOL    HW126435   2.823   1.683   7.628 -0.6886 -1.0987  0.9366
 4934SOL    HW226436   2.771   1.704   7.761 -1.0525  0.6673  0.2205
 4935SOL     OW26437   1.572   0.097   8.184  0.5300 -0.1523 -0.1452
 4935SOL    HW126438   1.545   0.157   8.114 -0.4884 -0.6327 -0.1603
 4935SOL    HW226439   1.584   0.018   8.132  0.2920 -1.6180  2.0304
 4936SOL     OW26440   4.219   4.405   6.305 -0.0083  0.1978 -0.1618
 4936SOL    HW126441   4.164   4.400   6.384 -1.2206 -0.2240 -1.0213
 4936SOL    HW226442   4.209   4.500   6.299 -1.7174  0.0263 -0.2130
 4937SOL     OW26443   1.157   3.758   7.970  0.2198  0.3463  0.0126
 4937SOL    HW126444   1.103   3.813   7.914 -1.4068 -1.1064  0.1320
 4937SOL    HW226445   1.241   3.757   7.924  0.1093 -0.1903 -0.1807
 4938SOL     OW26446   1.940   0.415   6.720 -0.2439  0.3838 -0.1194
 4938SOL    HW126447   1.867   0.471   6.747 -0.0628  1.3999 -1.7606
 4938SOL    HW226448   1.910   0.412   6.629  2.8447 -3.0599 -0.9974
 4939SOL     OW26449   4.439   0.479   0.768  0.1389 -0.0066 -0.6505
 4939SOL    HW126450   4.441   0.518   0.681 -0.1268  2.1564  0.3271
 4939SOL    HW226451   4.360   0.426   0.759 -0.9707  1.1043  2.7986
 4940SOL     OW26452   3.471   1.018   9.348 -0.1332  0.2844  0.2984
 4940SOL    HW126453   3.434   0.981   9.267  0.3302 -0.8244  0.5933
 4940SOL    HW226454   3.420   1.098   9.356  0.9232  1.0017 -0.2022
 4941SOL     OW26455   3.182   0.620  17.310 -0.0707 -0.3124  0.4960
 4941SOL    HW126456   3.152   0.543  17.262  1.1273  1.2082 -2.6821
 4941SOL    HW226457   3.104   0.616  17.366 -1.3668  0.1753 -1.2710
 4942SOL     OW26458   0.429   1.558   9.824 -0.2936 -0.4556  0.2400
 4942SOL    HW126459   0.517   1.596   9.828 -0.7031  0.4997  0.1031
 4942SOL    HW226460   0.405   1.565   9.732  2.1581  1.5311 -0.2666
 4943SOL     OW26461   0.341   4.572   5.764 -0.0424 -0.4405  0.4068
 4943SOL    HW126462   0.390   4.499   5.726 -0.1529 -0.2940 -0.0140
 4943SOL    HW226463   0.412   4.603   5.821 -0.4478  0.6902  0.2841
 4944SOL     OW26464   1.112   2.446   1.839 -0.4317 -0.0847 -0.1349
 4944SOL    HW126465   1.158   2.431   1.922 -0.3234 -0.8954 -0.3441
 4944SOL    HW226466   1.058   2.524   1.853  1.0008  0.9814 -0.5367
 4945SOL     OW26467   2.350   2.510  15.537  0.2217 -0.2320 -0.1487
 4945SOL    HW126468   2.270   2.474  15.500  1.2312 -0.5493 -2.0323
 4945SOL    HW226469   2.313   2.552  15.615 -1.4134 -1.1136 -0.4544
 4946SOL     OW26470   2.676   1.269   4.232 -0.3296  0.1903 -0.9716
 4946SOL    HW126471   2.589   1.239   4.257 -1.1712  2.5854 -1.0521
 4946SOL    HW226472   2.652   1.337   4.169 -0.0108  1.0908 -0.1050
 4947SOL     OW26473   1.817   4.729   4.074  0.2594 -0.2404 -0.3298
 4947SOL    HW126474   1.805   0.083   4.054 -1.5543 -0.6327 -1.0647
 4947SOL    HW226475   1.879   4.703   4.006  0.2919  0.9006 -0.7412
 4948SOL     OW26476   2.346   0.751  11.446 -0.1948  0.4946  0.2752
 4948SOL    HW126477   2.398   0.829  11.428 -1.1747  1.0702 -0.0238
 4948SOL    HW226478   2.274   0.753  11.384 -0.1909 -2.0416  0.1571
 4949SOL     OW26479   2.564   4.089   4.706 -0.4235  0.0685 -0.9366
 4949SOL    HW126480   2.535   4.177   4.685  0.6896  1.1652  2.2870
 4949SOL    HW226481   2.657   4.112   4.714 -0.4440 -0.2211  0.0949
 4950SOL     OW26482   2.785   1.478   2.631  0.1944  0.5078  0.5077
 4950SOL    HW126483   2.822   1.462   2.544  0.5866  1.0511  0.5698
 4950SOL    HW226484   2.862   1.448   2.679 -0.3975 -2.1233 -0.2323
 4951SOL     OW26485   0.771   2.368   3.604 -0.2835 -0.3524  0.1200
 4951SOL    HW126486   0.758   2.369   3.699 -0.0678 -1.0187  0.1582
 4951SOL    HW226487   0.708   2.435   3.576  1.0499  1.1043  0.6132
 4952SOL     OW26488   0.605   2.766  12.319  0.0936 -0.0136  0.5814
 4952SOL    HW126489   0.648   2.817  12.388  1.1709  0.8562 -0.7265
 4952SOL    HW226490   0.676   2.703  12.305 -1.5220 -1.2385 -1.8928
 4953SOL     OW26491   1.913   3.032   4.537 -0.0568 -0.4002 -0.4143
 4953SOL    HW126492   1.838   2.985   4.573 -0.3038 -0.1821 -0.6470
 4953SOL    HW226493   1.965   2.953   4.520 -2.4968 -2.1450  0.2420
 4954SOL     OW26494   1.876   2.798   6.872  0.0964  0.2190 -0.0747
 4954SOL    HW126495   1.967   2.771   6.862  0.4189  1.5679 -0.8040
 4954SOL    HW226496   1.854   2.752   6.953  1.6955 -0.3768  0.0077
 4955SOL     OW26497   1.664   0.698   6.369 -0.6534 -0.0682  0.5703
 4955SOL    HW126498   1.635   0.771   6.422 -0.7648  1.2101 -1.2432
 4955SOL    HW226499   1.648   0.730   6.280 -0.6730  1.1300  1.0177
 4956SOL     OW26500   3.154   3.463   4.281 -0.1859  0.3654  0.5809
 4956SOL    HW126501   3.219   3.438   4.346  1.3048  0.5069 -0.8503
 4956SOL    HW226502   3.207   3.504   4.213  0.9136 -1.9759  0.0213
 4957SOL     OW26503   2.519   1.769   7.257 -0.2728  0.0087  0.4457
 4957SOL    HW126504   2.487   1.698   7.313  0.4432  0.0360  0.8910
 4957SOL    HW226505   2.488   1.840   7.312  0.1403  0.5599 -0.0276
 4958SOL     OW26506   3.013   3.869   1.389 -0.3607  0.2518  0.7000
 4958SOL    HW126507   2.999   3.929   1.317 -0.8514  0.9324  1.3647
 4958SOL    HW226508   3.048   3.792   1.343  1.3489  0.5468  1.4963
 4959SOL     OW26509   2.705   2.835   1.786 -0.6830 -0.4876 -0.0810
 4959SOL    HW126510   2.709   2.770   1.716 -0.0004 -0.5149 -0.0248
 4959SOL    HW226511   2.629   2.888   1.766 -0.1129 -0.1525 -1.3693
 4960SOL     OW26512   3.190   2.588   9.489  0.2355  0.4951 -0.4656
 4960SOL    HW126513   3.219   2.547   9.570 -3.6923  0.4115  0.8906
 4960SOL    HW226514   3.272   2.626   9.458  0.9485 -0.7446 -0.0619
 4961SOL     OW26515   1.011   4.178  14.368  0.1572  0.1650  0.3695
 4961SOL    HW126516   0.953   4.130  14.309 -2.3400 -0.7526  3.5336
 4961SOL    HW226517   0.958   4.249  14.403  1.9086  0.6022  2.1743
 4962SOL     OW26518   3.775   2.414   1.853  0.1543 -0.4784 -0.2950
 4962SOL    HW126519   3.758   2.504   1.826 -3.1333 -1.5620 -1.8241
 4962SOL    HW226520   3.776   2.360   1.774 -0.9292 -0.8754 -0.0331
 4963SOL     OW26521   2.889   1.356   4.994 -0.1138  0.4592  1.0492
 4963SOL    HW126522   2.936   1.380   4.914 -0.1129 -0.8180  0.6784
 4963SOL    HW226523   2.947   1.394   5.060  1.1327 -1.1219  0.8499
 4964SOL     OW26524   0.834   0.567   5.517  0.1015 -0.1426 -0.2895
 4964SOL    HW126525   0.815   0.585   5.609  1.5440  1.8217 -0.3810
 4964SOL    HW226526   0.836   0.472   5.511  0.0321 -0.1736  0.1757
 4965SOL     OW26527   2.027   3.283   9.028  0.8206  0.4480  0.7076
 4965SOL    HW126528   2.006   3.321   8.942 -1.2380 -0.3077  0.8816
 4965SOL    HW226529   1.978   3.328   9.097  0.0880  1.4759 -0.4657
 4966SOL     OW26530   0.975   2.856  10.063 -0.1567  0.0678 -0.7575
 4966SOL    HW126531   0.966   2.947  10.036  0.8630  0.2050 -0.6318
 4966SOL    HW226532   0.942   2.813   9.984 -1.5741 -2.4833  1.2255
 4967SOL     OW26533   2.986   1.116  17.354  0.3086 -0.3752 -0.2962
 4967SOL    HW126534   2.895   1.090  17.339 -0.2020  1.0925  0.2494
 4967SOL    HW226535   3.035   1.033  17.347  2.6214  1.0054 -0.6037
 4968SOL     OW26536   1.567   0.744   4.730 -0.1111  0.3979  0.1928
 4968SOL    HW126537   1.637   0.697   4.685  0.0653  1.7537 -0.9609
 4968SOL    HW226538   1.610   0.759   4.814 -0.7773  0.6244  0.4970
 4969SOL     OW26539   2.419   2.129  11.908 -0.5832  0.3115 -0.7425
 4969SOL    HW126540   2.430   2.085  11.993  1.0977 -1.3520 -1.8021
 4969SOL    HW226541   2.497   2.098  11.861 -0.0482  0.9415 -0.2735
 4970SOL     OW26542   0.178   0.043   7.357  0.4050 -0.3072 -0.1208
 4970SOL    HW126543   0.149   0.132   7.336 -0.5248 -0.4533  0.5775
 4970SOL    HW226544   0.136   0.020   7.440  0.7412 -2.5861 -0.5706
 4971SOL     OW26545   1.568   0.957   3.339  0.2813  0.0305  1.0971
 4971SOL    HW126546   1.542   1.030   3.395  1.9637  1.0538  0.5587
 4971SOL    HW226547   1.652   0.988   3.306 -1.1726  0.9313 -1.7833
 4972SOL     OW26548   1.216   0.477  16.413  0.4544 -0.1399 -0.3632
 4972SOL    HW126549   1.222   0.471  16.318 -0.3755 -0.3580 -0.4028
 4972SOL    HW226550   1.184   0.567  16.420 -0.4358 -0.5117  0.3047
 4973SOL     OW26551   4.690   4.129   7.666 -0.1179  0.1490 -0.0715
 4973SOL    HW126552   0.000   4.090   7.738  0.0931 -0.3344 -0.4812
 4973SOL    HW226553   4.606   4.096   7.698 -0.7826 -0.2849 -2.2882
 4974SOL     OW26554   0.465   1.893  12.056  0.2069 -0.2017  0.5292
 4974SOL    HW126555   0.385   1.942  12.071 -0.4040 -0.7153 -1.0639
 4974SOL    HW226556   0.516   1.924  12.131  0.5438  1.5025 -0.3921
 4975SOL     OW26557   4.379   2.965   6.808 -0.5156 -0.4162  0.9069
 4975SOL    HW126558   4.386   2.896   6.742 -0.8650  1.0147 -0.6277
 4975SOL    HW226559   4.459   2.956   6.860 -1.4509  0.7718  2.5369
 4976SOL     OW26560   0.134   2.126   4.941 -0.5617  0.0592  0.3370
 4976SOL    HW126561   0.145   2.071   4.863 -2.9775 -0.5276  0.4101
 4976SOL    HW226562   0.203   2.088   4.996 -0.3513  0.2923  0.2361
 4977SOL     OW26563   2.979   1.903   9.780 -0.3180  0.0077 -0.5600
 4977SOL    HW126564   2.985   1.842   9.854  0.6927  0.8492  0.0580
 4977SOL    HW226565   3.071   1.903   9.755  0.1280 -3.7769  1.0776
 4978SOL     OW26566   1.845   4.508  15.375  0.5173  0.0980  0.0522
 4978SOL    HW126567   1.845   4.413  15.366 -1.1806  0.1353 -0.2495
 4978SOL    HW226568   1.933   4.535  15.404 -0.2227  2.2052  0.3512
 4979SOL     OW26569   3.223   4.493  10.757 -0.5897  0.3522  0.1079
 4979SOL    HW126570   3.156   4.529  10.815 -1.2992 -0.3210 -0.2981
 4979SOL    HW226571   3.201   4.401  10.773 -1.0261  0.4698  0.1866
 4980SOL     OW26572   1.572   2.438  16.101  0.4386  0.3578 -0.4490
 4980SOL    HW126573   1.512   2.500  16.061 -0.3751 -1.2751 -1.7566
 4980SOL    HW226574   1.530   2.353  16.091 -0.6743  0.8592 -0.0711
 4981SOL     OW26575   1.752   1.644   8.930 -0.4236  0.0909  0.2595
 4981SOL    HW126576   1.718   1.684   9.011  1.6263  1.8308  0.2927
 4981SOL    HW226577   1.715   1.556   8.937  0.4168 -0.1656  1.6678
 4982SOL     OW26578   3.294   1.900  16.125  0.3212 -0.7343 -0.2449
 4982SOL    HW126579   3.351   1.975  16.144  1.2005 -1.0635 -1.5842
 4982SOL    HW226580   3.293   1.896  16.030  2.3517  2.8759 -0.4017
 4983SOL     OW26581   4.318   1.671  13.248 -0.0211 -0.0243  0.3120
 4983SOL    HW126582   4.229   1.646  13.272 -0.6295  1.8111 -0.0559
 4983SOL    HW226583   4.370   1.605  13.293 -0.3194 -0.5538 -0.1139
 4984SOL     OW26584   0.245   4.421   4.677  0.6492 -0.1757 -0.1876
 4984SOL    HW126585   0.192   4.394   4.601 -0.0509 -1.2335  0.6721
 4984SOL    HW226586   0.184   4.431   4.750 -1.3429 -1.2958 -1.7080
 4985SOL     OW26587   3.891   4.602   0.250 -0.5881  0.3566  0.2748
 4985SOL    HW126588   3.984   4.585   0.233 -0.4510  0.9966  0.3864
 4985SOL    HW226589   3.887   4.686   0.204 -0.2011 -0.5848 -1.4983
 4986SOL     OW26590   1.716   0.244   6.460  0.1685  0.3687  0.2421
 4986SOL    HW126591   1.687   0.156   6.480 -0.2163 -0.1590 -2.6972
 4986SOL    HW226592   1.812   0.234   6.458  0.2513  0.8918  1.3735
 4987SOL     OW26593   0.960   2.896   7.811 -0.3577 -0.2045 -0.3762
 4987SOL    HW126594   0.903   2.821   7.800 -2.0365  1.2560 -1.6078
 4987SOL    HW226595   0.920   2.954   7.746 -2.4000 -1.1718  0.0272
 4988SOL     OW26596   0.312   1.615   2.093 -0.0302  0.1676 -0.3115
 4988SOL    HW126597   0.351   1.701   2.081 -1.0176  0.4410 -1.5692
 4988SOL    HW226598   0.219   1.631   2.076 -0.5674 -1.1134  1.3815
 4989SOL     OW26599   2.948   1.665   3.367 -0.2727  0.2658  0.1314
 4989SOL    HW126600   2.888   1.677   3.441 -0.8689  0.5320 -0.3928
 4989SOL    HW226601   2.884   1.690   3.300 -0.8972  0.0026  0.6277
 4990SOL     OW26602   3.770   0.810   3.536 -0.0301  0.3361 -0.0926
 4990SOL    HW126603   3.772   0.902   3.511  0.1790  0.1583 -0.7446
 4990SOL    HW226604   3.851   0.786   3.582  0.8253  1.4504 -1.0100
 4991SOL     OW26605   3.590   1.201   4.144 -0.2278  0.0740  0.0997
 4991SOL    HW126606   3.684   1.220   4.156 -0.5451  0.7749  1.4460
 4991SOL    HW226607   3.581   1.148   4.065  0.3831 -0.7754  0.6015
 4992SOL     OW26608   0.400   0.080   1.994  0.0689  0.5100 -0.5859
 4992SOL    HW126609   0.463   0.016   1.961 -1.0551 -1.0272  0.2328
 4992SOL    HW226610   0.321   0.063   1.943 -0.6937 -1.9511  1.3347
 4993SOL     OW26611   1.912   0.086   1.896 -0.1656 -0.2384  0.1996
 4993SOL    HW126612   1.972   0.011   1.892  1.0309  0.4572  4.7413
 4993SOL    HW226613   1.888   0.101   1.805 -0.3039 -0.7205  0.1572
 4994SOL     OW26614   1.812   4.561  16.878 -0.5336 -0.1708 -0.3810
 4994SOL    HW126615   1.755   4.533  16.950  1.3283 -0.6748  0.8874
 4994SOL    HW226616   1.790   4.654  16.874  0.2913  0.0219 -0.2880
 4995SOL     OW26617   0.475   1.357   6.795  0.2453  0.0553  0.1002
 4995SOL    HW126618   0.473   1.452   6.782 -2.3933  0.0948  0.7787
 4995SOL    HW226619   0.530   1.324   6.724 -1.1201  0.9639 -1.3872
 4996SOL     OW26620   3.571   1.545   1.956  0.2239 -0.3697 -0.1847
 4996SOL    HW126621   3.558   1.533   1.862 -0.2641  2.9816 -0.5556
 4996SOL    HW226622   3.481   1.556   1.985  0.8999  2.2693  0.9988
 4997SOL     OW26623   1.898   4.594  14.238 -0.0745 -0.3778  0.0038
 4997SOL    HW126624   1.875   4.664  14.177  1.1733 -2.2251 -2.5995
 4997SOL    HW226625   1.970   4.638  14.283 -1.2036  0.2941  1.1118
 4998SOL     OW26626   3.202   2.219   4.000  0.2853  0.1093 -0.5070
 4998SOL    HW126627   3.239   2.132   4.015 -1.8274 -0.6719  0.2715
 4998SOL    HW226628   3.108   2.202   4.003  0.4334 -0.4205  1.6101
 4999SOL     OW26629   4.296   3.975   9.836  0.3969  0.4616 -0.0530
 4999SOL    HW126630   4.261   3.938   9.918 -1.0929  2.1277  0.0706
 4999SOL    HW226631   4.380   4.011   9.861  0.0634  1.8116 -0.8693
 5000SOL     OW26632   0.719   4.302  17.375 -0.4254 -0.4369 -0.5367
 5000SOL    HW126633   0.782   4.331  17.309 -0.7780  0.6534 -0.3916
 5000SOL    HW226634   0.674   4.233  17.325  0.7130 -1.5373 -0.0359
 5001SOL     OW26635   0.992   3.140   0.383 -0.2043  0.1541 -0.3139
 5001SOL    HW126636   0.992   3.233   0.401  1.9231  0.3497 -1.3255
 5001SOL    HW226637   0.979   3.143   0.288 -0.1553  3.0328 -0.2282
 5002SOL     OW26638   0.172   0.708   8.208 -0.4001  0.1534  0.4490
 5002SOL    HW126639   0.080   0.735   8.210 -0.1376  1.1287 -0.6292
 5002SOL    HW226640   0.147   0.615   8.211  0.6770 -0.1897 -1.3855
 5003SOL     OW26641   3.699   4.556  12.169  0.0660 -0.2631 -0.4894
 5003SOL    HW126642   3.715   4.650  12.155 -0.8725 -0.3774 -2.2753
 5003SOL    HW226643   3.691   4.559  12.265  0.9997 -1.7634 -0.3747
 5004SOL     OW26644   3.195   4.111   3.585  0.1062  0.5259 -0.5581
 5004SOL    HW126645   3.144   4.192   3.590 -1.4051 -0.2476 -3.3289
 5004SOL    HW226646   3.206   4.095   3.491 -0.0936  4.7081 -1.3143
 5005SOL     OW26647   3.695   2.437   6.984  0.5110 -0.5231  0.0619
 5005SOL    HW126648   3.607   2.449   6.948 -0.0326  1.7932  2.1467
 5005SOL    HW226649   3.718   2.529   6.967 -0.4173 -0.4843 -0.9937
 5006SOL     OW26650   3.699   3.304   7.691 -0.5516 -0.1957  0.0411
 5006SOL    HW126651   3.789   3.280   7.668 -0.4957  0.6517 -0.6091
 5006SOL    HW226652   3.712   3.375   7.753 -1.4374 -0.8145  0.9455
 5007SOL     OW26653   3.661   2.026   9.791 -0.9043  0.2061  0.3932
 5007SOL    HW126654   3.685   2.027   9.883 -0.1455 -2.1889  0.2216
 5007SOL    HW226655   3.741   1.991   9.751 -0.8758 -0.9322  1.4383
 5008SOL     OW26656   0.786   3.795   9.058  0.0330  0.4209  0.3740
 5008SOL    HW126657   0.792   3.867   8.996 -0.9453  0.7801  0.6947
 5008SOL    HW226658   0.855   3.820   9.120 -0.6064  0.9089  0.8852
 5009SOL     OW26659   2.477   1.807   5.064 -0.4541 -0.3982  0.3432
 5009SOL    HW126660   2.451   1.715   5.061  1.0641 -0.7437 -1.5831
 5009SOL    HW226661   2.426   1.834   5.141 -0.0809  3.1379 -0.6387
 5010SOL     OW26662   1.601   1.360   0.196  0.0839 -0.2874  0.7732
 5010SOL    HW126663   1.623   1.274   0.234  2.0026  0.0649  0.4632
 5010SOL    HW226664   1.683   1.396   0.162 -0.5848  0.3704 -0.1327
 5011SOL     OW26665   0.490   1.955   3.479 -0.5677 -0.0367  0.4325
 5011SOL    HW126666   0.411   1.922   3.438 -0.5246 -1.4130  1.4422
 5011SOL    HW226667   0.541   1.937   3.400 -0.3899 -1.5302  0.8958
 5012SOL     OW26668   4.524   2.184  15.872 -0.4805 -0.4666 -0.3959
 5012SOL    HW126669   4.563   2.209  15.955  0.0988 -0.5379 -0.6473
 5012SOL    HW226670   4.500   2.274  15.847  0.5603  0.6672  2.7612
 5013SOL     OW26671   1.090   2.309   3.387 -0.0325 -0.5261  0.2457
 5013SOL    HW126672   1.097   2.214   3.396 -0.7247 -0.5493  0.5513
 5013SOL    HW226673   1.168   2.331   3.437 -0.1458  0.1145  0.1339
 5014SOL     OW26674   2.569   4.471   8.580  0.3202 -0.0593 -0.0163
 5014SOL    HW126675   2.498   4.459   8.517  0.7754 -1.6399 -0.2284
 5014SOL    HW226676   2.568   4.567   8.581 -1.4282 -0.0968  2.2387
 5015SOL     OW26677   0.884   3.579   5.333 -0.3061  0.1202 -0.2654
 5015SOL    HW126678   0.852   3.501   5.288 -0.5981 -0.4186  0.8735
 5015SOL    HW226679   0.918   3.546   5.416 -1.8763 -3.2869 -0.9924
 5016SOL     OW26680   3.817   2.305   4.018  0.1763  0.2613 -0.0957
 5016SOL    HW126681   3.732   2.276   3.985  1.0065 -0.5429 -1.5248
 5016SOL    HW226682   3.847   2.218   4.044 -0.1272  0.2949  0.3492
 5017SOL     OW26683   2.047   0.593   6.886 -0.8276 -0.3005 -0.6276
 5017SOL    HW126684   2.014   0.527   6.824  0.7621  0.0622 -1.8649
 5017SOL    HW226685   2.083   0.651   6.820  0.9551 -1.3942 -0.6076
 5018SOL     OW26686   0.600   2.610   5.623 -0.5965  0.0614 -0.0870
 5018SOL    HW126687   0.667   2.560   5.576  0.0233  1.9656 -1.2499
 5018SOL    HW226688   0.658   2.668   5.672 -0.6602  0.0324  0.0221
 5019SOL     OW26689   2.797   0.704   7.585  0.1424 -0.4290 -0.4375
 5019SOL    HW126690   2.792   0.697   7.489  2.8391  0.3212 -0.6336
 5019SOL    HW226691   2.724   0.647   7.609 -0.0041 -0.8696 -1.9334
 5020SOL     OW26692   1.344   4.145   2.864 -0.5837 -0.0864  0.1901
 5020SOL    HW126693   1.287   4.076   2.898 -0.6741 -0.2687 -0.3178
 5020SOL    HW226694   1.323   4.164   2.772 -1.9755 -0.0266  0.5273
 5021SOL     OW26695   2.285   2.027   2.570 -0.2817 -0.4013 -1.0371
 5021SOL    HW126696   2.313   2.118   2.556 -0.4855  0.0861  1.8510
 5021SOL    HW226697   2.362   1.983   2.533  1.5477  2.5978 -0.7922
 5022SOL     OW26698   3.874   4.312   2.878 -0.7459 -0.4529  0.4099
 5022SOL    HW126699   3.818   4.358   2.940  0.3343 -0.0099  1.0618
 5022SOL    HW226700   3.821   4.233   2.873 -2.0370  0.5250 -1.0463
 5023SOL     OW26701   3.312   1.888   4.988 -0.4851 -0.2237 -0.1356
 5023SOL    HW126702   3.261   1.933   5.055 -0.0199  0.3198 -0.1433
 5023SOL    HW226703   3.341   1.944   4.916 -0.0673  0.7824  0.8027
 5024SOL     OW26704   3.579   3.690   7.024  0.2613  0.0150  0.1112
 5024SOL    HW126705   3.518   3.757   6.992  1.4193  0.9745 -0.0905
 5024SOL    HW226706   3.621   3.660   6.943  0.4062  0.8287 -0.1127
 5025SOL     OW26707   0.799   3.367   1.494 -0.2323 -0.0600 -0.6296
 5025SOL    HW126708   0.784   3.296   1.431 -1.2819  1.4135 -2.0704
 5025SOL    HW226709   0.892   3.356   1.509 -0.4979 -1.8260 -0.3072
 5026SOL     OW26710   3.848   1.046   5.034  0.1422 -0.0020  0.0030
 5026SOL    HW126711   3.799   0.979   4.986 -0.5206 -0.0032  0.6750
 5026SOL    HW226712   3.883   1.006   5.113  1.4733 -0.6736 -0.9313
 5027SOL     OW26713   3.438   0.838   2.672  0.1841 -0.1291  0.7274
 5027SOL    HW126714   3.417   0.759   2.722 -0.9213 -0.6899 -0.6298
 5027SOL    HW226715   3.530   0.823   2.650  0.1368 -0.8571  1.0378
 5028SOL     OW26716   3.830   0.432   3.602  0.0128  0.2186  0.6302
 5028SOL    HW126717   3.882   0.477   3.668  2.5826 -1.8692  0.0338
 5028SOL    HW226718   3.894   0.377   3.557  0.5105 -0.5177  2.2307
 5029SOL     OW26719   0.746   2.355   6.339 -0.4205  0.2128 -0.0841
 5029SOL    HW126720   0.825   2.363   6.284 -1.9646  0.1233 -2.3396
 5029SOL    HW226721   0.789   2.339   6.423  0.1778 -1.0996 -0.6414
 5030SOL     OW26722   1.900   3.164   6.936 -0.1177 -0.0428  0.2667
 5030SOL    HW126723   1.833   3.233   6.938  0.7973  0.8987 -1.2824
 5030SOL    HW226724   1.917   3.148   6.844 -0.0408 -0.1455  0.3000
 5031SOL     OW26725   0.801   4.087  13.260  0.2702 -0.9469 -0.3344
 5031SOL    HW126726   0.788   4.070  13.354 -1.0234 -0.7537 -0.4709
 5031SOL    HW226727   0.713   4.056  13.236  0.6347 -1.1175 -1.4355
 5032SOL     OW26728   3.296   0.272   8.623 -0.2072 -0.3987  0.4993
 5032SOL    HW126729   3.281   0.366   8.616  2.7207 -0.0351 -0.7390
 5032SOL    HW226730   3.370   0.263   8.684 -0.2032  2.8109  0.9714
 5033SOL     OW26731   0.236   3.415   4.920  0.6542  0.0247 -0.0445
 5033SOL    HW126732   0.328   3.389   4.911  0.2852 -0.6087 -1.8825
 5033SOL    HW226733   0.216   3.462   4.839  1.7141  0.1775 -0.2094
 5034SOL     OW26734   0.947   1.762   4.454  0.3353  0.2755 -0.1145
 5034SOL    HW126735   0.860   1.724   4.465 -0.5731  2.4581  0.3023
 5034SOL    HW226736   0.976   1.787   4.541 -0.4365  0.5147  0.0766
 5035SOL     OW26737   1.557   3.913  14.340 -0.3723 -0.3070  0.2414
 5035SOL    HW126738   1.559   3.952  14.428  1.9793  0.6080 -0.2077
 5035SOL    HW226739   1.584   3.823  14.358  0.4293 -0.1800 -0.3613
 5036SOL     OW26740   0.072   4.724   4.808  0.3463 -0.3296 -0.3082
 5036SOL    HW126741   0.071   4.650   4.869 -1.5318 -0.9062 -1.0298
 5036SOL    HW226742   4.719   0.002   4.794 -0.1068 -2.0423  0.5150
 5037SOL     OW26743   2.730   1.926  15.582 -0.2136 -0.4280  0.0086
 5037SOL    HW126744   2.816   1.952  15.551 -0.4399 -0.9744 -1.0494
 5037SOL    HW226745   2.686   2.008  15.607 -0.8380  0.1130 -2.8582
 5038SOL     OW26746   1.561   1.989   5.745 -0.2481  0.2104  0.0179
 5038SOL    HW126747   1.655   2.010   5.745  0.0279 -1.1204 -1.8870
 5038SOL    HW226748   1.541   2.036   5.664 -0.2263 -0.1218 -0.1796
 5039SOL     OW26749   0.909   4.446  12.046 -0.2430 -0.5787  0.0365
 5039SOL    HW126750   0.889   4.489  11.963 -0.1555  0.0952  0.3664
 5039SOL    HW226751   0.835   4.385  12.046  2.1276 -3.4737 -1.1256
 5040SOL     OW26752   3.006   3.889   6.945  0.6449  0.1946  0.0645
 5040SOL    HW126753   3.041   3.818   6.891  0.5381 -0.5294  0.9693
 5040SOL    HW226754   2.913   3.877   6.925  0.6396  0.6636 -0.1962
 5041SOL     OW26755   1.939   0.405  11.144  0.6929  0.4419 -0.0379
 5041SOL    HW126756   1.846   0.389  11.130  0.4010  0.7474  1.5525
 5041SOL    HW226757   1.977   0.397  11.057 -1.1619  0.3713 -0.8256
 5042SOL     OW26758   4.101   1.230   1.340  0.5517 -0.8878  0.0627
 5042SOL    HW126759   4.036   1.296   1.365  1.3379 -0.1501  0.1424
 5042SOL    HW226760   4.180   1.272   1.373 -2.0049  2.4661  1.9261
 5043SOL     OW26761   1.729   4.504   9.266 -0.1561  0.5237  0.0129
 5043SOL    HW126762   1.671   4.579   9.255 -1.2081 -0.4487 -1.1211
 5043SOL    HW226763   1.793   4.521   9.197  0.7364 -0.1619  0.6620
 5044SOL     OW26764   0.853   2.883   4.189 -0.2240  0.5186  0.2477
 5044SOL    HW126765   0.919   2.934   4.142  0.2083  1.3774  1.7701
 5044SOL    HW226766   0.812   2.945   4.250 -0.9293 -1.1249  1.4504
 5045SOL     OW26767   0.776   3.770   5.168  0.6206  0.2857 -1.0720
 5045SOL    HW126768   0.830   3.707   5.216 -0.6122 -0.2280 -0.3574
 5045SOL    HW226769   0.851   3.818   5.132  0.4113  0.5205 -1.1886
 5046SOL     OW26770   1.830   1.397  11.634 -0.1656  0.1158  0.1404
 5046SOL    HW126771   1.843   1.444  11.716 -0.0924  0.7506 -0.2296
 5046SOL    HW226772   1.888   1.322  11.649  0.1452  1.0157  3.4908
 5047SOL     OW26773   1.018   1.253   9.006 -0.2248  0.1539  0.5964
 5047SOL    HW126774   1.024   1.157   9.005  2.1446  0.3164 -0.9664
 5047SOL    HW226775   1.111   1.272   8.999 -0.3056  0.1985 -0.3847
 5048SOL     OW26776   2.676   3.392   4.740 -0.3187 -0.0124 -0.7751
 5048SOL    HW126777   2.762   3.363   4.711 -0.2824 -1.6105  0.9269
 5048SOL    HW226778   2.697   3.428   4.827 -0.0517  1.2084 -1.3394
 5049SOL     OW26779   2.902   3.886  10.904 -0.3982  0.0260  0.1003
 5049SOL    HW126780   2.964   3.857  10.971  0.8101 -0.0260 -1.0329
 5049SOL    HW226781   2.904   3.806  10.851  0.2326  0.4673 -0.5386
 5050SOL     OW26782   1.402   3.414  16.856  0.3309 -0.3733 -0.2292
 5050SOL    HW126783   1.473   3.449  16.909  1.5798  0.6912 -2.5908
 5050SOL    HW226784   1.441   3.327  16.850  0.3369 -0.2442 -2.2020
 5051SOL     OW26785   1.861   1.577   6.073 -0.7185  0.5122  0.2096
 5051SOL    HW126786   1.954   1.578   6.048 -0.9062  0.9718 -0.4816
 5051SOL    HW226787   1.855   1.624   6.157 -2.4318  0.2520  0.2183
 5052SOL     OW26788   4.605   4.690  10.742  0.5604 -0.1932 -0.5383
 5052SOL    HW126789   4.534   4.627  10.728 -0.5224  1.0671 -0.6484
 5052SOL    HW226790   4.684   4.637  10.751  0.0813 -1.1311 -1.7203
 5053SOL     OW26791   1.146   2.151   3.732 -0.5578  0.2471 -0.1884
 5053SOL    HW126792   1.113   2.175   3.819  1.4352 -0.1037  0.6730
 5053SOL    HW226793   1.064   2.120   3.696 -1.6541  1.0715  1.5774
 5054SOL     OW26794   0.292   0.406   6.660 -0.0259 -0.0735  0.1556
 5054SOL    HW126795   0.366   0.438   6.609  1.2082  0.5871  2.3604
 5054SOL    HW226796   0.255   0.482   6.705 -0.9704 -0.0491 -0.6610
 5055SOL     OW26797   2.991   1.514   0.564 -0.0217  0.2575 -0.0642
 5055SOL    HW126798   3.006   1.572   0.639 -0.2061  0.4973 -0.2139
 5055SOL    HW226799   2.912   1.553   0.526  0.5936  0.7170 -0.8779
 5056SOL     OW26800   0.441   1.605   0.498 -0.3783 -0.0279  0.3530
 5056SOL    HW126801   0.513   1.568   0.448 -0.6089 -1.3872  1.0309
 5056SOL    HW226802   0.401   1.671   0.442  0.7264  1.9541  1.8923
 5057SOL     OW26803   2.947   2.724   9.980  0.1774  0.0740  0.3722
 5057SOL    HW126804   3.000   2.783   9.927  1.4289 -0.0257  1.5214
 5057SOL    HW226805   2.968   2.639   9.941  1.6493  1.4219 -1.7847
 5058SOL     OW26806   1.749   4.566   2.887 -0.2331  0.4618  0.1444
 5058SOL    HW126807   1.738   4.572   2.792  1.9632  1.3053 -0.0554
 5058SOL    HW226808   1.811   4.638   2.897  0.2316  0.2319 -1.0427
 5059SOL     OW26809   4.404   4.572   1.509 -0.1389  0.0115  0.2051
 5059SOL    HW126810   4.492   4.599   1.535  0.0838 -0.0715 -0.4472
 5059SOL    HW226811   4.382   4.629   1.434  1.3535  1.7349  1.0736
 5060SOL     OW26812   4.127   0.174   2.413 -0.6590  0.1610  0.0227
 5060SOL    HW126813   4.140   0.257   2.367  1.8006 -0.4585 -0.3929
 5060SOL    HW226814   4.033   0.159   2.414 -0.3465 -1.8157 -0.6084
 5061SOL     OW26815   2.165   0.585  17.038  0.3661 -0.2570 -0.4749
 5061SOL    HW126816   2.072   0.562  17.034  0.4288 -0.5374 -0.2994
 5061SOL    HW226817   2.188   0.534  17.115  2.0680  1.5024  0.1463
 5062SOL     OW26818   1.699   0.631   8.762  0.2232 -0.0613  0.3003
 5062SOL    HW126819   1.788   0.627   8.798  1.1335  3.0160 -1.6811
 5062SOL    HW226820   1.678   0.539   8.747  1.7022  0.0582 -2.3981
 5063SOL     OW26821   3.284   4.111  13.467 -0.3394 -0.2100  0.1642
 5063SOL    HW126822   3.368   4.066  13.480  0.5235  1.9802  2.1734
 5063SOL    HW226823   3.297   4.192  13.516 -1.2103  2.2954 -3.7309
 5064SOL     OW26824   1.384   0.245   1.683 -0.2036  0.1786 -0.1301
 5064SOL    HW126825   1.299   0.252   1.727  0.3486 -0.7271  1.0766
 5064SOL    HW226826   1.379   0.162   1.636 -2.7897 -0.7578  1.7613
 5065SOL     OW26827   0.789   1.350   7.367 -0.2426 -0.4000  0.6123
 5065SOL    HW126828   0.721   1.284   7.362 -1.2942  0.5451  2.6388
 5065SOL    HW226829   0.749   1.424   7.322  2.0443 -0.4832 -1.5427
 5066SOL     OW26830   0.217   1.588   4.546 -0.0049  0.8158  0.1938
 5066SOL    HW126831   0.182   1.635   4.471 -0.8217  0.3194  0.2720
 5066SOL    HW226832   0.308   1.584   4.515  0.0544  1.0844  0.3275
 5067SOL     OW26833   3.698   1.883   4.964 -0.3647  0.4980 -0.5257
 5067SOL    HW126834   3.664   1.802   4.927 -0.8726  0.8480 -0.8241
 5067SOL    HW226835   3.671   1.866   5.055  1.1813  5.1034  0.8056
 5068SOL     OW26836   0.331   4.331   3.685  0.3223  0.6058  0.4000
 5068SOL    HW126837   0.363   4.418   3.708  0.6940  0.5157  0.2411
 5068SOL    HW226838   0.295   4.340   3.597  0.8100  0.8123  0.2223
 5069SOL     OW26839   4.679   0.895   7.157  0.1051  0.9712 -0.5118
 5069SOL    HW126840   4.628   0.818   7.181  0.8570  0.5875 -0.1297
 5069SOL    HW226841   4.659   0.950   7.232 -0.3027 -0.4447  0.4059
 5070SOL     OW26842   2.834   2.914   6.785 -0.0733  0.0813  0.1453
 5070SOL    HW126843   2.880   2.940   6.865 -0.3079 -2.0935  0.9970
 5070SOL    HW226844   2.854   2.982   6.721 -2.6440  0.8606  0.1540
 5071SOL     OW26845   2.675   4.467  12.909  0.1700  0.2427  0.4062
 5071SOL    HW126846   2.666   4.426  12.995 -1.0687  0.9546  0.6287
 5071SOL    HW226847   2.609   4.424  12.854  2.7975 -1.3194 -1.5106
 5072SOL     OW26848   0.680   2.194   7.969  0.3901 -0.0264  0.0627
 5072SOL    HW126849   0.614   2.227   7.908  0.6846  0.3849 -0.0409
 5072SOL    HW226850   0.646   2.235   8.048 -0.5760  1.9058 -1.3576
 5073SOL     OW26851   1.796   1.903  13.883  0.0835 -0.1280  0.1365
 5073SOL    HW126852   1.808   1.825  13.829  0.0348 -0.3423  0.4302
 5073SOL    HW226853   1.702   1.897  13.898  0.0277  2.6269  0.8344
 5074SOL     OW26854   3.843   0.386   9.866  0.0023  0.2835  0.1875
 5074SOL    HW126855   3.912   0.356   9.925  0.6250  1.1183 -0.1169
 5074SOL    HW226856   3.772   0.399   9.928  2.1698  1.2593  2.4574
 5075SOL     OW26857   1.576   3.506   3.826 -0.2978  0.9390  0.4312
 5075SOL    HW126858   1.584   3.461   3.742 -0.9602 -0.0972  0.9200
 5075SOL    HW226859   1.629   3.449   3.881  1.2924  0.9320 -1.1216
 5076SOL     OW26860   0.081   3.365   5.616 -0.1030  1.2413  0.5090
 5076SOL    HW126861   0.037   3.283   5.636  1.3441  0.9030  2.3637
 5076SOL    HW226862   0.175   3.349   5.617 -0.2297  0.4478 -1.4689
 5077SOL     OW26863   0.602   0.284   7.923 -0.6527  0.3342  0.3853
 5077SOL    HW126864   0.525   0.271   7.977 -0.5101  2.3997  1.0921
 5077SOL    HW226865   0.578   0.370   7.888  1.3668  1.9495  2.9566
 5078SOL     OW26866   0.777   3.305   5.328 -0.0241  0.2057  0.2634
 5078SOL    HW126867   0.844   3.237   5.332 -1.5148 -1.3493 -1.0594
 5078SOL    HW226868   0.773   3.313   5.233 -1.3495 -1.3854  0.1811
 5079SOL     OW26869   2.927   0.947   5.369  0.3740  0.3814 -0.3781
 5079SOL    HW126870   2.911   0.862   5.409 -1.3666  0.4171 -0.9729
 5079SOL    HW226871   2.965   0.988   5.446  1.0951  0.9921 -1.0596
 5080SOL     OW26872   2.600   0.514   4.342 -0.0980  0.0345  0.0760
 5080SOL    HW126873   2.694   0.501   4.329 -0.1593 -0.1454 -0.2067
 5080SOL    HW226874   2.594   0.508   4.437 -0.6332  1.5810  0.1336
 5081SOL     OW26875   4.530   0.777   6.703  0.0306  0.0871  0.1657
 5081SOL    HW126876   4.574   0.706   6.656 -0.4659  0.7722 -1.3268
 5081SOL    HW226877   4.479   0.723   6.763  0.5706 -1.7396 -1.0191
 5082SOL     OW26878   3.407   1.056  17.418 -0.1337 -0.3278  0.0726
 5082SOL    HW126879   3.389   1.126  17.481 -0.8040  1.6055 -2.3004
 5082SOL    HW226880   3.499   1.072  17.398 -0.1732 -1.7563 -1.2934
 5083SOL     OW26881   1.055   0.542   3.802 -0.3736 -0.4683 -0.3877
 5083SOL    HW126882   1.077   0.519   3.712  0.8047 -0.1972 -0.1632
 5083SOL    HW226883   1.056   0.637   3.791 -0.8181 -0.2331  1.5637
 5084SOL     OW26884   3.706   0.945   9.146  0.1050  0.0615 -0.3907
 5084SOL    HW126885   3.699   0.929   9.240 -1.8737  0.8024 -0.4092
 5084SOL    HW226886   3.727   1.038   9.157  1.7879 -0.3767  0.0615
 5085SOL     OW26887   1.587   0.244  10.910  0.3714 -0.2811 -0.2061
 5085SOL    HW126888   1.581   0.317  10.971  1.0359 -0.1650 -0.2865
 5085SOL    HW226889   1.680   0.231  10.893  0.3363 -0.5111 -0.2307
 5086SOL     OW26890   0.644   0.619   6.419  0.6083  0.2438  0.0668
 5086SOL    HW126891   0.707   0.675   6.464 -0.6208  0.6941  1.2218
 5086SOL    HW226892   0.667   0.642   6.329 -0.9702  3.3851  0.4705
 5087SOL     OW26893   2.394   2.747   5.854 -0.3781  0.3275  0.3231
 5087SOL    HW126894   2.354   2.661   5.869  0.4042 -0.0472  0.2522
 5087SOL    HW226895   2.326   2.812   5.872 -2.2673 -1.3879 -0.6046
 5088SOL     OW26896   0.580   3.477   7.738 -0.0500  0.1752  0.0501
 5088SOL    HW126897   0.573   3.569   7.712  0.8810 -0.4693 -2.4829
 5088SOL    HW226898   0.656   3.492   7.794 -1.6198  1.8534  1.7233
 5089SOL     OW26899   4.344   1.798   3.036 -0.6866  0.3492  0.2431
 5089SOL    HW126900   4.274   1.844   3.082  0.3571  0.7307  1.4722
 5089SOL    HW226901   4.377   1.868   2.980  1.6064 -1.3206 -0.5283
 5090SOL     OW26902   1.028   3.127   9.001 -0.3543  0.1739 -0.3763
 5090SOL    HW126903   1.055   3.044   9.039  0.9650  0.6635 -0.2162
 5090SOL    HW226904   0.965   3.152   9.069 -0.2129  1.3896 -0.6784
 5091SOL     OW26905   0.648   3.342   4.372 -0.2035  0.0326 -0.3423
 5091SOL    HW126906   0.707   3.417   4.367 -0.8512  0.4221 -2.0256
 5091SOL    HW226907   0.632   3.314   4.282 -1.5202  1.2096 -0.4894
 5092SOL     OW26908   1.682   0.712   5.901  0.6897 -0.5371 -0.0450
 5092SOL    HW126909   1.618   0.773   5.937  1.2211  0.1042 -0.1838
 5092SOL    HW226910   1.682   0.634   5.957  0.7570  0.1505  0.9024
 5093SOL     OW26911   1.391   2.477  10.984 -0.3396  0.6639 -0.2833
 5093SOL    HW126912   1.309   2.450  11.026 -0.2361 -1.0738 -1.1986
 5093SOL    HW226913   1.426   2.539  11.047 -0.7935  1.0481 -0.4100
 5094SOL     OW26914   4.316   4.675   9.175  0.0881 -0.1233 -0.2789
 5094SOL    HW126915   4.387   0.000   9.169 -0.6384  0.6125 -1.0052
 5094SOL    HW226916   4.312   4.671   9.270 -0.1513 -1.6494 -0.3589
 5095SOL     OW26917   0.744   4.381   5.251 -0.4899 -0.2057  0.6697
 5095SOL    HW126918   0.818   4.375   5.311  0.7623 -2.6244 -1.1263
 5095SOL    HW226919   0.785   4.436   5.184 -0.9841 -0.4110  0.1945
 5096SOL     OW26920   1.890   0.052   5.368  0.0614 -0.3639  0.9440
 5096SOL    HW126921   1.814   0.015   5.412  0.1324 -0.7711  0.7287
 5096SOL    HW226922   1.902   4.727   5.298 -1.0171 -0.7250  1.0988
 5097SOL     OW26923   4.633   2.348  16.070 -0.0982  0.0050 -0.0081
 5097SOL    HW126924   4.715   2.370  16.025 -0.8243 -1.6768 -2.1660
 5097SOL    HW226925   4.607   2.434  16.102 -0.6188 -0.5750  1.1299
 5098SOL     OW26926   4.307   4.616   4.964 -0.2884 -0.1595 -0.0420
 5098SOL    HW126927   4.262   4.664   5.034  0.9856  1.7929 -0.5677
 5098SOL    HW226928   4.315   4.525   4.991  4.0056  0.4343  0.5823
 5099SOL     OW26929   1.576   1.570  12.193  0.4553  0.1670 -0.5624
 5099SOL    HW126930   1.644   1.626  12.157  1.0423 -0.1890 -0.0006
 5099SOL    HW226931   1.529   1.529  12.119 -0.0099 -0.7600  0.2487
 5100SOL     OW26932   0.616   4.424   3.317  0.9756  0.5333  0.1666
 5100SOL    HW126933   0.590   4.473   3.239  1.1643  1.5595  0.7396
 5100SOL    HW226934   0.564   4.345   3.310  0.0984  1.0033  1.3785
 5101SOL     OW26935   1.067   3.205   9.497 -0.0222 -0.3251 -0.1226
 5101SOL    HW126936   1.057   3.257   9.418  0.6573 -0.7854 -0.5139
 5101SOL    HW226937   1.162   3.197   9.508 -0.2302 -1.2569  1.0606
 5102SOL     OW26938   1.458   3.992   9.054 -0.0149 -0.0034 -0.3668
 5102SOL    HW126939   1.531   3.962   9.107  0.6496  0.9840 -0.7237
 5102SOL    HW226940   1.385   3.949   9.100  1.2047 -1.5109  0.1320
 5103SOL     OW26941   4.725   1.115  11.601 -0.4261  0.0318  0.2553
 5103SOL    HW126942   4.683   1.131  11.686  1.0313  1.6272  0.6836
 5103SOL    HW226943   4.713   1.020  11.604 -0.5453  0.0991  1.9722
 5104SOL     OW26944   0.674   3.513   9.144  0.3035  0.2084 -0.5075
 5104SOL    HW126945   0.611   3.507   9.073  0.7700 -0.5973 -0.8546
 5104SOL    HW226946   0.717   3.597   9.125  1.7305 -0.2500  0.6436
 5105SOL     OW26947   2.160   2.646   6.064  1.0699 -0.9253 -0.3952
 5105SOL    HW126948   2.203   2.578   6.012  0.5420 -2.5617  1.2992
 5105SOL    HW226949   2.092   2.681   6.005  0.1794 -0.2867  1.0051
 5106SOL     OW26950   1.095   0.872  14.632 -0.5629 -0.7295  0.1270
 5106SOL    HW126951   1.077   0.964  14.649  1.5728 -0.4123  0.5862
 5106SOL    HW226952   1.055   0.835  14.711  4.3617  0.2341  3.0565
 5107SOL     OW26953   2.398   4.378   9.872  0.3896  0.6544 -0.0224
 5107SOL    HW126954   2.474   4.433   9.855 -1.2999  3.0428  0.2723
 5107SOL    HW226955   2.387   4.334   9.787 -0.3431 -0.7802  0.8091
 5108SOL     OW26956   0.362   4.312   5.145  0.7986  0.2425 -0.0602
 5108SOL    HW126957   0.322   4.396   5.168 -0.5348 -0.1310 -1.0057
 5108SOL    HW226958   0.369   4.276   5.233  2.9896  1.4490  0.2566
 5109SOL     OW26959   3.184   1.467  15.611 -0.2968  1.2306 -0.1127
 5109SOL    HW126960   3.116   1.408  15.579 -0.8512  0.4084  2.5920
 5109SOL    HW226961   3.206   1.432  15.697 -3.3376 -1.3267 -0.3715
 5110SOL     OW26962   4.343   4.420   1.112 -0.1933  0.1805  0.3803
 5110SOL    HW126963   4.283   4.414   1.186  2.2877  0.5337  2.4434
 5110SOL    HW226964   4.343   4.337   1.066  2.5652  0.6226 -0.4517
 5111SOL     OW26965   2.782   4.065   8.841  0.3898 -0.3027 -0.2671
 5111SOL    HW126966   2.784   4.144   8.894 -0.2326  0.0921 -0.8379
 5111SOL    HW226967   2.707   4.092   8.789  0.0011 -2.3578 -0.7591
 5112SOL     OW26968   3.594   1.819   6.080 -0.0191  0.0136 -0.6281
 5112SOL    HW126969   3.626   1.729   6.075 -0.7782 -0.4266  2.4574
 5112SOL    HW226970   3.514   1.820   6.027  0.0449 -0.0991 -0.7282
 5113SOL     OW26971   1.306   2.115   2.021 -0.4211  0.0314 -0.3082
 5113SOL    HW126972   1.286   2.206   2.042 -0.6307 -0.3110  0.9924
 5113SOL    HW226973   1.282   2.106   1.929  2.0292  0.0054 -0.9402
 5114SOL     OW26974   4.690   2.113  17.077 -0.9440 -0.4517  0.0072
 5114SOL    HW126975   4.705   2.205  17.060 -1.0750 -0.0479  2.0999
 5114SOL    HW226976   4.615   2.089  17.023  0.1726 -2.5258 -0.6370
 5115SOL     OW26977   4.193   2.800  10.763 -0.4501  0.2637 -0.1533
 5115SOL    HW126978   4.132   2.813  10.836 -0.8236 -0.9419 -0.2556
 5115SOL    HW226979   4.277   2.817  10.806  0.4835 -0.5819 -1.6367
 5116SOL     OW26980   0.919   0.712   8.807 -0.1465 -0.0215 -0.2199
 5116SOL    HW126981   0.952   0.645   8.866 -0.8958 -1.1622 -1.1117
 5116SOL    HW226982   0.951   0.682   8.722 -1.3641  0.3017 -0.7786
 5117SOL     OW26983   4.387   0.589   2.467 -0.3591  0.7590 -0.1642
 5117SOL    HW126984   4.415   0.539   2.390 -1.7935 -0.1968 -0.0567
 5117SOL    HW226985   4.373   0.674   2.426  0.5181  0.3057 -1.4199
 5118SOL     OW26986   3.502   0.162  14.012 -0.1412 -0.5125 -0.3862
 5118SOL    HW126987   3.581   0.123  13.976  0.8814  0.1368  1.1446
 5118SOL    HW226988   3.494   0.239  13.956 -0.9918  0.4906  1.0891
 5119SOL     OW26989   1.032   2.647   3.793  0.1754 -0.1778 -0.2701
 5119SOL    HW126990   1.043   2.625   3.700 -1.1885 -0.7703 -0.2798
 5119SOL    HW226991   1.090   2.588   3.841  0.4792  0.5611  0.2710
 5120SOL     OW26992   0.251   2.731   6.469  0.7918  0.4298 -0.2083
 5120SOL    HW126993   0.313   2.680   6.521  0.3537 -0.8791 -0.9747
 5120SOL    HW226994   0.184   2.667   6.446 -1.2779  1.6064  2.4205
 5121SOL     OW26995   0.804   2.893   1.191 -0.0015 -0.1332 -0.6772
 5121SOL    HW126996   0.731   2.855   1.142  2.4431 -1.7037 -3.1694
 5121SOL    HW226997   0.875   2.849   1.143  0.7863 -0.6675  0.9726
 5122SOL     OW26998   2.844   4.609   8.164 -0.8485 -0.4751 -0.1102
 5122SOL    HW126999   2.902   4.613   8.240  0.8060 -2.6793 -1.2858
 5122SOL    HW227000   2.843   4.700   8.133  3.0455 -1.4241 -3.0020
 5123SOL     OW27001   2.320   0.886   3.064  0.8981  0.1257 -0.0729
 5123SOL    HW127002   2.378   0.826   3.018 -0.1854 -1.7093  0.9641
 5123SOL    HW227003   2.266   0.823   3.111 -0.6487  1.8828  0.5037
 5124SOL     OW27004   2.150   0.417   7.041  0.0200 -0.1258  0.1416
 5124SOL    HW127005   2.117   0.478   6.976 -0.6773  1.2651  1.8142
 5124SOL    HW227006   2.089   0.412   7.114 -0.5240  0.3092 -0.2852
 5125SOL     OW27007   2.671   4.477   1.757  0.1820  0.0870  0.2076
 5125SOL    HW127008   2.720   4.504   1.835 -0.2140  1.0752  0.1136
 5125SOL    HW227009   2.723   4.404   1.725 -0.1751 -1.0395  2.1782
 5126SOL     OW27010   1.472   4.532   4.089  0.1468  0.1552 -0.0151
 5126SOL    HW127011   1.421   4.483   4.024  2.2982 -2.0954 -0.0064
 5126SOL    HW227012   1.404   4.559   4.151  0.8833 -0.2351  0.9518
 5127SOL     OW27013   1.540   0.646  16.114  0.5097 -0.0997  0.2993
 5127SOL    HW127014   1.524   0.588  16.039 -1.8366 -0.8802  1.3694
 5127SOL    HW227015   1.607   0.706  16.082 -0.6567  0.4172 -1.1935
 5128SOL     OW27016   1.529   2.790  12.342  0.3542  0.2521  0.0564
 5128SOL    HW127017   1.450   2.800  12.289 -1.0108  0.4903  2.1044
 5128SOL    HW227018   1.539   2.695  12.346 -0.7596  0.2279  2.2424
 5129SOL     OW27019   1.993   0.227   6.377 -0.1870  0.0232 -0.1555
 5129SOL    HW127020   2.083   0.214   6.407 -1.0245 -0.5759  2.0897
 5129SOL    HW227021   1.988   0.174   6.298  1.2950 -0.9945  0.4354
 5130SOL     OW27022   1.441   0.737   2.518 -0.1535  0.0058 -0.4618
 5130SOL    HW127023   1.533   0.738   2.546 -0.5069  0.2158  0.7175
 5130SOL    HW227024   1.420   0.646   2.540  0.4244 -0.3132 -1.2475
 5131SOL     OW27025   3.100   3.951   4.781 -0.6664 -0.9318 -0.0360
 5131SOL    HW127026   3.137   3.970   4.695 -1.3875 -0.8581 -0.3326
 5131SOL    HW227027   3.138   4.023   4.832  0.5345  0.0911 -2.4174
 5132SOL     OW27028   1.422   2.581   5.346 -0.6549  0.4130  0.4885
 5132SOL    HW127029   1.481   2.521   5.391 -2.0277 -0.5110  1.0630
 5132SOL    HW227030   1.343   2.528   5.338  0.3652 -0.9847 -0.1843
 5133SOL     OW27031   4.177   0.434   8.360 -0.2870  0.1652 -0.2081
 5133SOL    HW127032   4.107   0.429   8.294 -1.4739  0.4388  1.0275
 5133SOL    HW227033   4.148   0.364   8.419 -0.3744 -0.0116 -0.4598
 5134SOL     OW27034   0.338   2.935   3.777  0.2158 -0.4459 -0.1418
 5134SOL    HW127035   0.402   3.006   3.781 -0.3500  0.0104  0.7216
 5134SOL    HW227036   0.393   2.857   3.782  3.8955  2.1900  0.4238
 5135SOL     OW27037   4.228   2.693   1.864  0.3205 -0.2066  0.1980
 5135SOL    HW127038   4.291   2.658   1.927  1.7781  2.3031  0.1036
 5135SOL    HW227039   4.139   2.692   1.900  0.0050  1.0361 -0.5548
 5136SOL     OW27040   3.092   1.442   4.395  0.2542 -0.1008  0.3315
 5136SOL    HW127041   3.043   1.360   4.388 -0.2371  0.0977  1.3358
 5136SOL    HW227042   3.069   1.478   4.309 -1.1058  1.3035  1.2704
 5137SOL     OW27043   4.118   3.951   2.139  0.0012 -0.8378 -0.1578
 5137SOL    HW127044   4.172   4.002   2.080 -0.2849 -1.2542 -0.7816
 5137SOL    HW227045   4.156   3.865   2.120  2.4990  0.0962  0.6656
 5138SOL     OW27046   1.911   4.241   0.276  0.6343  0.2178  0.0459
 5138SOL    HW127047   1.896   4.185   0.200 -0.7214 -0.1912  0.6193
 5138SOL    HW227048   1.896   4.326   0.235 -0.6370  0.6596  1.4263
 5139SOL     OW27049   2.795   3.005  16.116  0.0358  0.6824 -0.4439
 5139SOL    HW127050   2.875   3.001  16.064  1.3653 -1.5251  1.7514
 5139SOL    HW227051   2.733   2.967  16.054  0.4635  0.7634 -0.9163
 5140SOL     OW27052   4.052   3.851   1.242  0.2863 -0.4522  0.2562
 5140SOL    HW127053   3.980   3.906   1.211  0.8186  0.5765  0.8370
 5140SOL    HW227054   4.092   3.916   1.301  0.7487  0.6901 -1.2990
 5141SOL     OW27055   1.198   2.879   6.762 -0.0113 -0.2290 -0.2026
 5141SOL    HW127056   1.163   2.795   6.792  0.2778 -0.8556 -1.6091
 5141SOL    HW227057   1.274   2.844   6.716  1.2906 -1.0642  2.5324
 5142SOL     OW27058   3.206   1.329   6.430  0.3348 -0.5988  0.3581
 5142SOL    HW127059   3.175   1.337   6.340 -1.8207  3.2382  1.4485
 5142SOL    HW227060   3.302   1.338   6.426  0.5041 -2.5044 -0.0351
 5143SOL     OW27061   2.581   2.152  16.769  0.3953  0.3359  0.1629
 5143SOL    HW127062   2.507   2.117  16.718 -0.3095  0.0171  1.4158
 5143SOL    HW227063   2.572   2.248  16.767  1.0716  0.4386  2.2972
 5144SOL     OW27064   4.072   1.224   0.149  0.6565  0.1207  0.6652
 5144SOL    HW127065   4.149   1.198   0.099 -1.8770 -0.1322 -3.1076
 5144SOL    HW227066   4.085   1.151   0.209  0.3421 -1.9885 -1.8619
 5145SOL     OW27067   3.779   4.299   3.598 -0.6645 -0.2175  0.3205
 5145SOL    HW127068   3.774   4.350   3.679 -0.0136 -1.3231  1.0588
 5145SOL    HW227069   3.859   4.326   3.553  0.4376 -1.9552  1.2310
 5146SOL     OW27070   2.909   4.391   2.410 -0.0140 -0.2458  0.4835
 5146SOL    HW127071   2.959   4.310   2.401 -1.8955 -1.4241  0.6055
 5146SOL    HW227072   2.926   4.439   2.329  1.2584 -1.3673  0.0892
 5147SOL     OW27073   3.896   3.033   0.746  0.0966 -0.5389  0.4487
 5147SOL    HW127074   3.949   2.983   0.683  0.6566  0.8560 -0.1814
 5147SOL    HW227075   3.846   2.959   0.781 -1.7891  0.3540 -0.4048
 5148SOL     OW27076   4.383   3.086  13.297  0.2130  0.2342  0.0345
 5148SOL    HW127077   4.459   3.133  13.261  2.6251 -2.4358  1.6645
 5148SOL    HW227078   4.399   2.994  13.277 -2.1676  0.1911 -1.6133
 5149SOL     OW27079   0.086   4.417   7.876 -0.0976  0.2302  0.2241
 5149SOL    HW127080   0.017   4.448   7.817 -0.5403  0.1008  0.6708
 5149SOL    HW227081   0.065   4.323   7.870 -1.2712  0.3482  2.4030
 5150SOL     OW27082   1.075   3.328   4.605 -0.1965 -0.3400 -0.0798
 5150SOL    HW127083   1.134   3.267   4.650 -0.8038 -0.0790  1.0785
 5150SOL    HW227084   1.090   3.410   4.651 -1.1700  0.2289 -0.7856
 5151SOL     OW27085   1.316   1.989   2.639 -0.5915 -0.2482  0.0447
 5151SOL    HW127086   1.303   1.914   2.581 -1.0493  1.3863 -1.9351
 5151SOL    HW227087   1.229   1.992   2.678 -0.5493 -0.0998  0.1290
 5152SOL     OW27088   3.127   3.295   7.854  0.2978  0.3059 -0.2210
 5152SOL    HW127089   3.195   3.328   7.795  0.2247 -0.9687 -1.0099
 5152SOL    HW227090   3.123   3.201   7.836 -2.5757  0.3882 -0.0794
 5153SOL     OW27091   0.110   2.296   3.465 -0.2935 -0.2409  0.1498
 5153SOL    HW127092   0.104   2.319   3.373 -0.2174 -0.4569  0.0912
 5153SOL    HW227093   0.084   2.384   3.492  2.4311  0.8503 -0.7754
 5154SOL     OW27094   1.489   0.142  14.708  0.0109  0.3286 -0.1292
 5154SOL    HW127095   1.544   0.194  14.649 -1.1679  2.9102  1.0744
 5154SOL    HW227096   1.545   0.064  14.711  0.5309  0.6102 -2.8640
 5155SOL     OW27097   4.282   4.494   1.854 -0.1693 -0.0126 -0.4406
 5155SOL    HW127098   4.368   4.455   1.839 -0.1508 -0.7854  1.6144
 5155SOL    HW227099   4.277   4.480   1.949 -1.7903  0.4336 -0.4717
 5156SOL     OW27100   3.628   3.371   5.065  0.5789 -0.3370  0.0317
 5156SOL    HW127101   3.533   3.378   5.057  0.1207 -2.3612  3.4336
 5156SOL    HW227102   3.648   3.423   4.988 -1.0861 -0.9208 -0.7983
 5157SOL     OW27103   4.290   1.373  11.709 -0.3354 -0.0840 -0.2504
 5157SOL    HW127104   4.370   1.374  11.760 -1.4184 -3.2439  1.5054
 5157SOL    HW227105   4.325   1.395  11.622 -2.2406 -1.1164 -1.2794
 5158SOL     OW27106   4.581   3.532   2.064  0.8745 -0.2358 -0.4283
 5158SOL    HW127107   4.591   3.540   2.158  0.1501 -1.7174 -0.2143
 5158SOL    HW227108   4.675   3.521   2.051  0.9504 -1.1508  0.9044
 5159SOL     OW27109   2.414   0.543   1.509  0.0668  0.2033  0.0730
 5159SOL    HW127110   2.400   0.479   1.439  0.1189  0.2720  0.0002
 5159SOL    HW227111   2.349   0.613   1.500 -1.1440 -0.8558  0.5805
 5160SOL     OW27112   1.122   1.806   5.285 -0.0007 -0.1380 -0.0240
 5160SOL    HW127113   1.162   1.723   5.261 -0.6278 -0.7917  1.1803
 5160SOL    HW227114   1.075   1.792   5.368  2.5382  0.2735  1.5023
 5161SOL     OW27115   1.312   0.225   8.818 -0.0464 -0.2267 -0.1979
 5161SOL    HW127116   1.362   0.247   8.896 -1.0458 -1.3792  0.7593
 5161SOL    HW227117   1.323   0.130   8.820  0.5857 -0.1701 -0.7792
 5162SOL     OW27118   4.164   0.577   4.325  0.8726  1.3088  0.3630
 5162SOL    HW127119   4.155   0.579   4.229 -2.1239  1.5045  0.6468
 5162SOL    HW227120   4.257   0.599   4.326  1.1536  0.0794  2.0233
 5163SOL     OW27121   2.328   2.647   8.125  0.3851 -0.3095  0.1148
 5163SOL    HW127122   2.238   2.627   8.153 -0.5611  1.1317 -1.9053
 5163SOL    HW227123   2.315   2.733   8.085 -1.0268 -0.7776 -0.4498
 5164SOL     OW27124   0.670   3.584   1.882 -0.4341 -0.1449 -0.2591
 5164SOL    HW127125   0.680   3.567   1.976 -0.3306 -1.1084 -0.4374
 5164SOL    HW227126   0.575   3.579   1.870 -0.4682  0.6836 -0.3315
 5165SOL     OW27127   3.601   3.113  10.929  0.3113  0.0473  0.0472
 5165SOL    HW127128   3.638   3.093  10.843 -0.7268  1.5132 -0.7294
 5165SOL    HW227129   3.677   3.090  10.983  1.7321  1.1410 -1.5013
 5166SOL     OW27130   4.266   4.473   2.145  0.4347 -0.2077 -0.8700
 5166SOL    HW127131   4.342   4.455   2.201 -2.2572 -0.9410  2.5763
 5166SOL    HW227132   4.257   4.565   2.170  1.9025 -0.0847 -0.8041
 5167SOL     OW27133   1.768   2.084   4.742  0.3381 -0.0642  0.3758
 5167SOL    HW127134   1.729   2.169   4.718  1.2410  0.3359  0.3282
 5167SOL    HW227135   1.762   2.043   4.656 -0.3023 -1.2267  0.9670
 5168SOL     OW27136   2.140   0.636   1.552 -0.1729 -0.0149 -0.4942
 5168SOL    HW127137   2.099   0.588   1.481 -0.5399  0.1568 -0.3966
 5168SOL    HW227138   2.069   0.644   1.616  0.1711 -1.5428  0.0916
 5169SOL     OW27139   1.524   4.075  14.920  0.4600 -0.4426  0.5992
 5169SOL    HW127140   1.531   4.130  14.842 -0.2556 -1.6373 -0.3181
 5169SOL    HW227141   1.610   4.035  14.907  0.5345 -0.3510  0.8217
 5170SOL     OW27142   0.728   0.209   6.413  0.0652  0.2719  0.3536
 5170SOL    HW127143   0.672   0.239   6.485 -0.5707  2.5217 -1.0918
 5170SOL    HW227144   0.797   0.275   6.416  1.0100 -0.6961 -0.1652
 5171SOL     OW27145   0.693   2.874   3.019  0.4477  0.6414 -0.1647
 5171SOL    HW127146   0.709   2.968   3.026 -0.5634  0.6640  2.0853
 5171SOL    HW227147   0.616   2.868   3.075  1.7477 -0.3131  1.5386
 5172SOL     OW27148   0.358   3.795  10.956 -0.5218 -0.4305  0.1239
 5172SOL    HW127149   0.283   3.743  10.985 -1.1880  0.6157  0.2939
 5172SOL    HW227150   0.410   3.805  11.035  1.8862 -1.9393 -1.2696
 5173SOL     OW27151   3.094   3.622   5.301  0.0236 -0.0766  0.6996
 5173SOL    HW127152   3.039   3.680   5.353  1.7341 -2.3830  5.0905
 5173SOL    HW227153   3.145   3.686   5.252  0.6790 -0.4992  0.8273
 5174SOL     OW27154   0.378   0.256   3.990  0.5646  0.2861 -0.0140
 5174SOL    HW127155   0.432   0.311   4.048 -0.1487 -0.7955  1.6531
 5174SOL    HW227156   0.422   0.257   3.904  0.4862 -0.0512 -0.0565
 5175SOL     OW27157   1.805   2.569   6.245  0.5956  0.1595  0.0763
 5175SOL    HW127158   1.746   2.640   6.270  2.6754  1.2650  1.8984
 5175SOL    HW227159   1.892   2.608   6.248  1.7029 -2.2284 -0.5830
 5176SOL     OW27160   3.625   2.615   4.807  0.5862 -0.4333  0.6680
 5176SOL    HW127161   3.655   2.673   4.737 -1.4436 -0.6774 -0.4172
 5176SOL    HW227162   3.557   2.659   4.857 -0.7538 -1.5340 -0.1849
 5177SOL     OW27163   3.556   4.085  16.023  0.3556 -0.2442  0.0166
 5177SOL    HW127164   3.540   4.164  15.971  0.1462  1.2565  2.3731
 5177SOL    HW227165   3.524   4.120  16.106 -1.0758  0.0862 -0.6695
 5178SOL     OW27166   1.197   0.155   3.168 -0.3530 -0.0688 -0.2959
 5178SOL    HW127167   1.209   0.245   3.137  2.9645  0.3030  2.0555
 5178SOL    HW227168   1.136   0.116   3.106 -0.8065  4.8579 -2.9583
 5179SOL     OW27169   1.612   3.627  14.380 -0.0304  0.4660  0.1926
 5179SOL    HW127170   1.532   3.615  14.431 -0.4802  0.2583 -0.5600
 5179SOL    HW227171   1.668   3.582  14.443  0.1971  0.5951  0.0839
 5180SOL     OW27172   2.333   3.935   3.894  0.1048 -0.0114  0.5026
 5180SOL    HW127173   2.308   3.843   3.901 -3.0868  0.8261  0.1147
 5180SOL    HW227174   2.245   3.974   3.901  0.1249  0.0456  0.4326
 5181SOL     OW27175   0.587   1.132   3.278 -0.0178  0.1028 -0.0029
 5181SOL    HW127176   0.644   1.110   3.204  0.4068 -0.4329  0.4774
 5181SOL    HW227177   0.606   1.055   3.331 -0.4909 -0.5082 -0.7377
 5182SOL     OW27178   1.085   3.241   2.891 -0.5451 -0.0929  0.0595
 5182SOL    HW127179   1.114   3.323   2.852 -2.0278 -0.4241 -1.7468
 5182SOL    HW227180   1.140   3.241   2.969  0.7541 -0.1680 -0.8688
 5183SOL     OW27181   0.579   4.642   4.912  0.2102 -0.5091  0.3333
 5183SOL    HW127182   0.497   4.689   4.923  1.0769  1.2564 -0.7727
 5183SOL    HW227183   0.569   4.614   4.821 -1.2922 -1.8361  0.9121
 5184SOL     OW27184   0.520   1.194   5.581  0.0052 -0.2429  0.0393
 5184SOL    HW127185   0.499   1.282   5.611  1.2752  0.5864 -1.4873
 5184SOL    HW227186   0.518   1.201   5.485 -1.7722  1.2962  0.2022
 5185SOL     OW27187   4.303   2.861   7.769 -0.1579  0.3238 -0.5876
 5185SOL    HW127188   4.362   2.890   7.838 -0.0923 -1.1547 -0.0206
 5185SOL    HW227189   4.277   2.772   7.794  0.7166 -1.2265 -5.1390
 5186SOL     OW27190   3.214   0.027   8.524  0.5992 -0.8228 -0.4909
 5186SOL    HW127191   3.220   0.036   8.429  0.0393  0.5578 -0.4049
 5186SOL    HW227192   3.237   0.117   8.549 -0.0282 -0.6896 -0.3971
 5187SOL     OW27193   4.653   3.554   2.345 -0.2044  0.3526 -0.4411
 5187SOL    HW127194   4.603   3.616   2.398 -0.7476 -0.3355 -0.1577
 5187SOL    HW227195   0.001   3.568   2.382 -0.4008 -0.2322  0.2420
 5188SOL     OW27196   0.454   2.452   7.209 -0.0777  0.4908 -0.0583
 5188SOL    HW127197   0.399   2.427   7.135 -0.5442 -0.6175  0.6569
 5188SOL    HW227198   0.395   2.494   7.271  0.0876  0.7291 -0.0638
 5189SOL     OW27199   4.579   1.260   9.913  0.4141  0.2456  0.1763
 5189SOL    HW127200   4.631   1.182   9.892  0.1129  1.0666 -3.7848
 5189SOL    HW227201   4.654   1.318   9.901  1.0366 -0.7134 -0.5677
 5190SOL     OW27202   4.701   3.855  16.904 -0.0292  0.3603 -0.1319
 5190SOL    HW127203   4.705   3.916  16.830  2.5016 -1.7967 -1.7637
 5190SOL    HW227204   4.610   3.845  16.930 -0.6617  4.1462 -0.7931
 5191SOL     OW27205   4.091   3.663   2.818 -0.2136 -0.3661  0.2429
 5191SOL    HW127206   4.167   3.719   2.804 -1.9644  2.0520  0.3906
 5191SOL    HW227207   4.064   3.646   2.728  0.4045 -2.1532  0.3915
 5192SOL     OW27208   4.519   3.720   1.133  0.1776  0.6018 -0.4580
 5192SOL    HW127209   4.529   3.667   1.212 -0.4182 -0.4496 -1.0839
 5192SOL    HW227210   4.539   3.661   1.061 -0.6356 -0.3381  0.0817
 5193SOL     OW27211   3.112   2.755  12.411 -0.3840 -0.3018 -0.0453
 5193SOL    HW127212   3.135   2.784  12.322 -1.0247  0.2031 -0.0513
 5193SOL    HW227213   3.157   2.672  12.425 -0.5832 -0.6606 -1.4332
 5194SOL     OW27214   4.383   2.880   4.480 -0.1799  0.3909  0.3341
 5194SOL    HW127215   4.397   2.786   4.475 -2.6137 -0.0391  1.6475
 5194SOL    HW227216   4.343   2.896   4.394 -0.3074  0.8430  0.4762
 5195SOL     OW27217   2.786   1.073  11.025  0.1955 -0.4041  0.7699
 5195SOL    HW127218   2.795   0.983  11.055  1.4773 -0.3371  0.5693
 5195SOL    HW227219   2.706   1.060  10.973  0.3934  0.8401  0.1304
 5196SOL     OW27220   4.563   3.174  10.490 -0.1338  1.0280  0.4282
 5196SOL    HW127221   4.621   3.127  10.430 -1.5654 -0.7827  0.4817
 5196SOL    HW227222   4.623   3.248  10.503  0.7183 -0.1794  3.3154
 5197SOL     OW27223   3.236   1.874   9.759  0.1994  0.2319 -0.1184
 5197SOL    HW127224   3.289   1.950   9.784 -0.5634  0.3066  1.2680
 5197SOL    HW227225   3.293   1.814   9.711  1.9340  1.7432  0.0838
 5198SOL     OW27226   2.274   3.259  10.845  0.2597 -0.2427  0.6857
 5198SOL    HW127227   2.351   3.236  10.898 -0.1276 -2.1382  0.3961
 5198SOL    HW227228   2.240   3.170  10.848  0.1586 -0.2318 -0.4877
 5199SOL     OW27229   4.193   4.732   1.736  0.3707 -0.5025  0.4536
 5199SOL    HW127230   4.216   4.645   1.767 -0.3470 -0.5233  0.9175
 5199SOL    HW227231   4.274   0.041   1.720 -0.1059  0.2107  0.1806
 5200SOL     OW27232   4.045   0.644  13.449 -0.2305  0.4835  0.2813
 5200SOL    HW127233   4.029   0.695  13.529  1.8474  0.0734  0.9544
 5200SOL    HW227234   4.099   0.706  13.400 -2.1102  0.1513 -2.1916
 5201SOL     OW27235   0.038   2.349   3.188 -0.4876  0.1945  0.0762
 5201SOL    HW127236   4.712   2.400   3.141 -3.5307 -3.4515  0.3902
 5201SOL    HW227237   0.116   2.397   3.159 -0.0863 -0.1006  0.6744
 5202SOL     OW27238   1.029   2.908  16.431 -0.1615 -0.1903  0.1882
 5202SOL    HW127239   0.943   2.882  16.463  0.0116 -3.0537 -1.6371
 5202SOL    HW227240   1.049   2.989  16.478 -0.1661 -1.3569  2.2295
 5203SOL     OW27241   2.124   0.001   7.477  0.6483  0.4176  0.2486
 5203SOL    HW127242   2.207   0.026   7.436 -0.5605  0.3044 -2.2820
 5203SOL    HW227243   2.080   4.691   7.408  1.2155 -1.2365  1.0710
 5204SOL     OW27244   2.089   4.345   8.736  0.0386 -0.3022 -0.0394
 5204SOL    HW127245   2.117   4.437   8.731 -0.9344  0.0374  0.6512
 5204SOL    HW227246   1.995   4.361   8.737  0.6015  3.0326  1.2544
 5205SOL     OW27247   2.956   4.331   4.679 -0.4384  0.5850 -0.1343
 5205SOL    HW127248   3.020   4.345   4.610  1.6160  0.2679  1.7128
 5205SOL    HW227249   2.879   4.329   4.621  0.0711  0.1822 -0.7976
 5206SOL     OW27250   0.523   2.101   5.180 -0.0717  1.0563  0.3105
 5206SOL    HW127251   0.567   2.058   5.254 -1.8996 -0.9497  0.2398
 5206SOL    HW227252   0.550   2.040   5.112  3.5519  3.3715 -0.3237
 5207SOL     OW27253   0.931   0.876   5.559 -0.1447  0.2434 -0.4725
 5207SOL    HW127254   0.848   0.833   5.578 -0.2890  1.4168  1.4948
 5207SOL    HW227255   0.917   0.965   5.589 -0.3732 -0.1893  0.7009
 5208SOL     OW27256   0.272   0.943  12.444  0.0694 -0.7247  0.3589
 5208SOL    HW127257   0.243   1.011  12.505  0.1659  0.3786 -0.8206
 5208SOL    HW227258   0.261   0.999  12.367 -1.5141  0.4455  1.4226
 5209SOL     OW27259   2.767   4.630   7.647  0.3212  0.1916 -0.6446
 5209SOL    HW127260   2.681   4.589   7.652  0.6580 -0.4272  0.0793
 5209SOL    HW227261   2.818   4.584   7.714 -0.1694 -0.7213 -0.9002
 5210SOL     OW27262   0.008   2.651   9.279  0.1123  0.1534 -0.2356
 5210SOL    HW127263   4.682   2.720   9.287 -1.1126 -0.9985 -0.2204
 5210SOL    HW227264   0.053   2.659   9.364 -0.7884 -0.2525  0.2808
 5211SOL     OW27265   1.205   1.050   7.473  0.0679  0.1337 -0.0969
 5211SOL    HW127266   1.167   1.080   7.390  1.8914 -0.1915 -1.0453
 5211SOL    HW227267   1.134   1.010   7.523  1.0220 -0.0450  1.1071
 5212SOL     OW27268   3.612   2.380   5.440 -0.2810  0.1533  0.1560
 5212SOL    HW127269   3.623   2.331   5.358 -1.2442  0.4845 -0.1625
 5212SOL    HW227270   3.549   2.448   5.415 -0.8752 -0.5399 -0.2328
 5213SOL     OW27271   1.622   2.606   7.382  0.3004  0.1310 -0.4397
 5213SOL    HW127272   1.600   2.600   7.289  1.4086  0.6458 -0.7404
 5213SOL    HW227273   1.704   2.656   7.383  0.9109 -0.8927  1.2842
 5214SOL     OW27274   1.838   3.678   7.064 -0.1354  0.2411 -0.3408
 5214SOL    HW127275   1.906   3.623   7.025  1.1357  1.6371 -0.0641
 5214SOL    HW227276   1.779   3.613   7.104  0.5120 -0.8215 -1.1077
 5215SOL     OW27277   3.943   1.644   8.338  0.1407  0.3957 -0.0819
 5215SOL    HW127278   3.914   1.611   8.252 -2.0762 -1.7270  1.4771
 5215SOL    HW227279   3.971   1.559   8.374 -0.2492  0.7410  1.0352
 5216SOL     OW27280   3.373   3.984   3.342  0.3076  0.3836  0.6020
 5216SOL    HW127281   3.442   3.927   3.377  0.0961 -0.0713  0.2754
 5216SOL    HW227282   3.425   4.058   3.312  1.0431 -0.3095  0.1657
 5217SOL     OW27283   0.784   0.165   2.567 -0.2657  0.0495  0.1073
 5217SOL    HW127284   0.776   0.144   2.474  1.1732  0.0947 -0.0308
 5217SOL    HW227285   0.723   0.238   2.577 -0.7862 -0.2231 -1.0894
 5218SOL     OW27286   2.268   3.154   8.995  0.7216 -0.5070  0.1157
 5218SOL    HW127287   2.247   3.060   8.989 -0.6522 -0.2120  0.2582
 5218SOL    HW227288   2.187   3.195   9.025  0.1198 -0.9037 -0.9512
 5219SOL     OW27289   2.241   4.349  12.419 -0.1178  0.3685 -0.1514
 5219SOL    HW127290   2.320   4.384  12.460 -1.2818 -1.3149  3.4501
 5219SOL    HW227291   2.199   4.434  12.405  0.5080  0.9609  1.6159
 5220SOL     OW27292   3.112   3.625   7.558  0.5038 -0.2472 -0.0908
 5220SOL    HW127293   3.064   3.660   7.634 -0.8820 -0.7400 -0.7346
 5220SOL    HW227294   3.202   3.652   7.573  0.2186  0.3726  0.5099
 5221SOL     OW27295   1.151   1.401   2.315 -0.2749 -0.2105  0.5292
 5221SOL    HW127296   1.162   1.362   2.402  2.0252  2.1469  1.2990
 5221SOL    HW227297   1.240   1.393   2.281  0.6630 -0.7634  3.0996
 5222SOL     OW27298   3.178   0.932   4.097  0.0535  0.3702 -0.6108
 5222SOL    HW127299   3.193   0.865   4.031 -0.1881 -1.8263  1.5387
 5222SOL    HW227300   3.264   0.964   4.123 -0.7406  1.9869  0.0163
 5223SOL     OW27301   1.173   2.758   6.122 -0.3961  0.0372 -0.0729
 5223SOL    HW127302   1.147   2.728   6.035  1.5293  1.4355 -1.1395
 5223SOL    HW227303   1.252   2.806   6.097 -1.3983  1.1361 -1.1493
 5224SOL     OW27304   2.121   2.598   6.559 -0.4018  0.3319  0.6297
 5224SOL    HW127305   2.091   2.641   6.478  3.7032  1.5779 -0.2028
 5224SOL    HW227306   2.048   2.538   6.574  0.3733 -0.7238  0.0954
 5225SOL     OW27307   4.624   3.931   8.193  0.1198 -0.4734  0.2556
 5225SOL    HW127308   4.700   3.879   8.167  0.0075 -1.1289  1.2397
 5225SOL    HW227309   4.569   3.912   8.118  0.3053 -2.1365  0.5234
 5226SOL     OW27310   4.185   1.831   9.732 -0.0274 -0.5652  0.2610
 5226SOL    HW127311   4.179   1.766   9.802 -1.4089  1.1789  1.7569
 5226SOL    HW227312   4.269   1.809   9.691 -1.5380  0.8734 -3.6170
 5227SOL     OW27313   4.732   2.236   8.269  0.1336 -0.3782  0.1327
 5227SOL    HW127314   4.703   2.260   8.357 -4.0234 -2.1675 -0.7259
 5227SOL    HW227315   4.682   2.154   8.263  0.4843 -0.5901  0.0995
 5228SOL     OW27316   2.616   0.524   6.601  0.2797 -0.2233  0.4000
 5228SOL    HW127317   2.558   0.546   6.674 -1.2767 -1.3027 -0.5257
 5228SOL    HW227318   2.601   0.435   6.571  0.4667 -0.6354  1.5635
 5229SOL     OW27319   3.120   3.445   7.138 -0.6756  0.2367 -0.3525
 5229SOL    HW127320   3.100   3.463   7.230 -1.2621 -2.4087  0.0324
 5229SOL    HW227321   3.216   3.449   7.139 -0.7197  1.0289  1.3384
 5230SOL     OW27322   2.978   1.818  12.951  0.1387 -0.5287  0.4971
 5230SOL    HW127323   3.068   1.798  12.977  0.4703  1.1343  0.6171
 5230SOL    HW227324   2.991   1.832  12.857  2.4433  1.7913  1.1597
 5231SOL     OW27325   0.674   1.454   5.197 -0.0577 -0.3157  0.2617
 5231SOL    HW127326   0.722   1.465   5.115 -1.1096  2.7548  0.0416
 5231SOL    HW227327   0.722   1.513   5.256  1.1352  0.9002 -1.8942
 5232SOL     OW27328   3.446   2.609   3.319  0.0075  0.2627  0.5474
 5232SOL    HW127329   3.375   2.611   3.383 -1.3525 -2.8678 -0.8418
 5232SOL    HW227330   3.437   2.690   3.268  0.0554  1.2360  2.1067
 5233SOL     OW27331   4.719   0.958   4.890 -0.4568 -0.3175  0.2834
 5233SOL    HW127332   0.014   1.042   4.920 -1.9563  1.2815 -2.4064
 5233SOL    HW227333   0.055   0.917   4.850 -0.4308 -1.2445  1.2814
 5234SOL     OW27334   2.151   4.316   5.024  0.4587  0.1642 -0.5730
 5234SOL    HW127335   2.169   4.403   4.987 -0.7540  0.5942 -0.1608
 5234SOL    HW227336   2.172   4.271   4.942  0.2591 -0.1883 -0.4297
 5235SOL     OW27337   3.609   2.947  14.825 -0.3045 -0.5806 -0.4108
 5235SOL    HW127338   3.652   2.881  14.881 -0.9343  0.4556  1.3005
 5235SOL    HW227339   3.530   2.978  14.870 -0.2651 -0.9805 -0.0607
 5236SOL     OW27340   1.770   0.203   8.523 -0.3239 -0.3685  0.9275
 5236SOL    HW127341   1.824   0.191   8.600  0.0869  2.4952  1.0766
 5236SOL    HW227342   1.761   0.295   8.497 -0.7893 -0.7251 -0.1961
 5237SOL     OW27343   3.661   0.304   8.484  0.1171  0.7095  0.7682
 5237SOL    HW127344   3.719   0.380   8.486 -0.2944  1.0030  1.4363
 5237SOL    HW227345   3.611   0.313   8.565 -0.9881 -1.4950  0.3326
 5238SOL     OW27346   4.177   4.280   5.295  0.0008  0.4528  0.2741
 5238SOL    HW127347   4.151   4.266   5.386 -1.1982  0.5233 -0.0486
 5238SOL    HW227348   4.091   4.303   5.260 -1.0631 -0.4337  2.3002
 5239SOL     OW27349   4.382   1.276  13.207  0.7459  0.1653 -0.4894
 5239SOL    HW127350   4.345   1.312  13.126 -0.0504  0.4280 -0.0058
 5239SOL    HW227351   4.470   1.258  13.175  0.9278  0.6323 -0.2510
 5240SOL     OW27352   2.455   1.276   1.877 -0.1902  0.1031  0.3645
 5240SOL    HW127353   2.495   1.265   1.964  1.5234 -0.4465 -0.4770
 5240SOL    HW227354   2.524   1.247   1.817 -0.2888 -1.0759  0.8196
 5241SOL     OW27355   0.075   1.695   4.743  0.2385  1.1426 -0.3077
 5241SOL    HW127356   0.139   1.666   4.678 -0.3291  0.7752 -0.7072
 5241SOL    HW227357   0.015   1.620   4.741  3.1649 -1.2348  0.2402
 5242SOL     OW27358   4.249   0.613   2.797 -0.3799 -0.2622  0.1454
 5242SOL    HW127359   4.260   0.536   2.741  0.7081  1.1946 -1.6245
 5242SOL    HW227360   4.287   0.678   2.738  0.4144 -0.4065  0.5018
 5243SOL     OW27361   2.085   0.176   3.733 -0.7567 -0.3267  0.5659
 5243SOL    HW127362   2.042   0.244   3.682  1.0670  0.0520 -0.4581
 5243SOL    HW227363   2.017   0.109   3.745  0.0858 -1.4627 -1.0081
 5244SOL     OW27364   2.391   1.836   7.721 -0.1981  0.2164 -0.4750
 5244SOL    HW127365   2.300   1.815   7.699 -0.3394 -0.1706  0.4645
 5244SOL    HW227366   2.443   1.761   7.693 -0.5979 -0.4297  0.5104
 5245SOL     OW27367   1.574   3.911   2.264  0.7321  0.0485  0.0917
 5245SOL    HW127368   1.590   3.832   2.317 -2.1797  1.4180  3.0071
 5245SOL    HW227369   1.651   3.923   2.208  2.4129 -0.4374  2.2843
 5246SOL     OW27370   0.398   1.070   4.265 -0.1115  0.5582 -0.1457
 5246SOL    HW127371   0.471   1.099   4.210  0.6373  1.1239  1.1263
 5246SOL    HW227372   0.349   1.035   4.192  0.0458 -0.6428  0.3326
 5247SOL     OW27373   4.096   1.503   9.110  0.0822 -0.1645  0.2348
 5247SOL    HW127374   4.186   1.534   9.125  0.6580 -0.9719 -1.5168
 5247SOL    HW227375   4.059   1.584   9.074  0.5867 -0.6177 -1.3350
 5248SOL     OW27376   3.243   0.834   3.652  0.1033 -0.6353  0.3194
 5248SOL    HW127377   3.155   0.827   3.616  0.8784 -0.4975 -1.5919
 5248SOL    HW227378   3.280   0.908   3.604 -1.1829 -1.2380 -1.6245
 5249SOL     OW27379   3.944   4.168   7.238 -0.0922 -0.5610  0.2647
 5249SOL    HW127380   3.978   4.078   7.241  0.7325 -0.2756 -0.3446
 5249SOL    HW227381   3.852   4.161   7.214 -0.0717  1.2197 -0.3337
 5250SOL     OW27382   1.356   2.934   4.870 -0.4298 -0.0112 -0.1322
 5250SOL    HW127383   1.425   2.974   4.817 -2.3868  3.5870  0.1230
 5250SOL    HW227384   1.406   2.894   4.942 -0.1393  1.4231  0.4562
 5251SOL     OW27385   4.710   3.442  12.090 -0.5259 -0.6829  0.0434
 5251SOL    HW127386   4.630   3.452  12.143 -0.0097 -0.9621  0.8695
 5251SOL    HW227387   4.676   3.372  12.034  2.0017 -0.5295 -1.6785
 5252SOL     OW27388   4.672   2.866   0.889 -0.1002 -0.3550  0.1702
 5252SOL    HW127389   4.618   2.872   0.809 -1.6663 -2.2225  1.0905
 5252SOL    HW227390   4.677   2.957   0.918 -0.8382  0.6170 -2.7304
 5253SOL     OW27391   4.209   3.802   8.499  0.6464 -0.6562  0.1677
 5253SOL    HW127392   4.178   3.892   8.505  3.9889  0.4905  0.4786
 5253SOL    HW227393   4.302   3.819   8.485  1.2467 -1.1808  3.4404
 5254SOL     OW27394   2.093   4.607   3.132 -0.0712 -0.0634  0.2723
 5254SOL    HW127395   2.155   4.535   3.122  1.1746  0.8559  1.3212
 5254SOL    HW227396   2.033   4.561   3.190  2.9391 -2.8927  1.1270
 5255SOL     OW27397   3.118   3.664   6.209 -0.5591  0.4484 -0.0176
 5255SOL    HW127398   3.146   3.715   6.133  0.4209  0.3774  0.2959
 5255SOL    HW227399   3.085   3.579   6.181  1.9212  0.4861 -3.1432
 5256SOL     OW27400   2.963   0.727   2.501 -0.2263  0.7894  0.1744
 5256SOL    HW127401   2.984   0.812   2.540  0.3643 -0.9011  3.5306
 5256SOL    HW227402   3.009   0.728   2.418  2.6277 -2.0387  1.7103
 5257SOL     OW27403   2.435   2.600   5.175 -0.4280 -0.9013 -0.0449
 5257SOL    HW127404   2.498   2.581   5.106 -0.1395  0.0869 -0.0524
 5257SOL    HW227405   2.474   2.683   5.204  0.3030 -1.2750  0.0604
 5258SOL     OW27406   0.837   2.028   9.023 -0.6509 -0.0673  0.3435
 5258SOL    HW127407   0.770   1.960   9.022 -2.6740  1.9932 -2.9002
 5258SOL    HW227408   0.846   2.040   9.118 -3.6320  0.4499  0.5655
 5259SOL     OW27409   0.692   2.729  13.759 -0.1569 -0.2525 -0.5512
 5259SOL    HW127410   0.650   2.766  13.682  0.2014 -2.2066 -1.6887
 5259SOL    HW227411   0.766   2.789  13.767 -0.7460  0.2253  1.4690
 5260SOL     OW27412   3.930   0.988   6.847 -0.5082  0.0928  0.3105
 5260SOL    HW127413   3.893   0.933   6.917  1.5032 -0.6290  0.8065
 5260SOL    HW227414   4.009   1.018   6.892 -1.3427 -0.3261  2.0860
 5261SOL     OW27415   2.513   0.970   5.312 -0.4812  0.6705 -0.3617
 5261SOL    HW127416   2.427   1.008   5.297 -0.8369 -0.5162 -1.2704
 5261SOL    HW227417   2.537   0.936   5.226 -1.5644  0.1934 -0.4660
 5262SOL     OW27418   1.203   0.967   8.580 -0.0129  0.1241 -0.2130
 5262SOL    HW127419   1.199   0.880   8.541  1.3422 -0.5630  1.2148
 5262SOL    HW227420   1.119   0.959   8.624 -0.6552  1.0787 -1.2620
 5263SOL     OW27421   1.590   1.490  15.002 -0.2824  0.0925 -0.0210
 5263SOL    HW127422   1.562   1.450  14.920 -1.4232  0.3801  0.2364
 5263SOL    HW227423   1.543   1.436  15.066 -2.4470 -0.1162 -1.7779
 5264SOL     OW27424   2.494   3.819   7.202  0.4248  0.2769 -0.2261
 5264SOL    HW127425   2.406   3.854   7.217  0.3185 -1.3637  3.1122
 5264SOL    HW227426   2.548   3.872   7.260  0.4736  0.3991 -0.3871
 5265SOL     OW27427   0.747   2.693   2.213 -0.4002  0.2080  0.2611
 5265SOL    HW127428   0.703   2.681   2.129  1.7853 -3.8937 -0.2818
 5265SOL    HW227429   0.686   2.641   2.266  0.5073  1.0945  2.1768
 5266SOL     OW27430   0.845   2.162   1.947 -0.3197 -0.4062 -0.1684
 5266SOL    HW127431   0.756   2.192   1.967  0.1873 -0.3179  1.9515
 5266SOL    HW227432   0.853   2.182   1.854  0.1750  0.1598  0.0042
 5267SOL     OW27433   1.884   2.107  11.020  0.5325 -0.1830 -0.4797
 5267SOL    HW127434   1.887   2.017  10.986 -0.4306 -0.9522  1.4905
 5267SOL    HW227435   1.832   2.090  11.098  1.2012 -2.0657 -0.4286
 5268SOL     OW27436   0.073   2.786   9.528  0.3745 -0.0955 -0.0514
 5268SOL    HW127437   0.010   2.794   9.600  0.2265 -0.8789 -0.0983
 5268SOL    HW227438   0.100   2.878   9.518 -0.0783 -0.0665 -0.9606
 5269SOL     OW27439   0.660   1.635   9.504 -0.1746  0.7321 -0.0135
 5269SOL    HW127440   0.642   1.555   9.552 -2.4191  0.1869 -1.7981
 5269SOL    HW227441   0.705   1.678   9.577  0.4137  1.2204 -0.6574
 5270SOL     OW27442   0.126   1.254   3.595  0.5154 -0.8685  0.2674
 5270SOL    HW127443   0.128   1.193   3.520  1.3808  0.5892 -0.8946
 5270SOL    HW227444   0.057   1.317   3.575 -0.4222 -1.5961  1.2026
 5271SOL     OW27445   4.627   3.378   2.940  0.0990  0.3065 -0.5347
 5271SOL    HW127446   4.638   3.322   2.863  1.9349 -1.4171  1.0177
 5271SOL    HW227447   4.638   3.317   3.012 -0.0673  4.1620  2.7485
 5272SOL     OW27448   2.556   3.047   8.703  0.4449  0.3640 -0.3474
 5272SOL    HW127449   2.534   3.060   8.795  0.7959  2.3183 -0.5513
 5272SOL    HW227450   2.592   2.958   8.706  0.7895  0.4971 -0.5681
 5273SOL     OW27451   3.095   3.952   7.998 -0.3262 -0.1480 -0.6783
 5273SOL    HW127452   3.067   4.034   7.959 -0.9464 -0.9325 -1.8809
 5273SOL    HW227453   3.188   3.940   7.976 -0.5889  1.5562 -2.6543
 5274SOL     OW27454   0.220   2.065   6.584  0.7523  0.3341 -0.0563
 5274SOL    HW127455   0.257   2.149   6.555  0.4434  0.0687 -1.2195
 5274SOL    HW227456   0.152   2.096   6.643 -0.7553 -0.6227 -1.3093
 5275SOL     OW27457   0.524   3.997  13.754 -0.5973 -0.2345 -0.5675
 5275SOL    HW127458   0.602   4.048  13.776  0.0443 -0.5844 -1.9958
 5275SOL    HW227459   0.557   3.908  13.739 -1.4041 -0.4410 -1.1062
 5276SOL     OW27460   1.653   3.852   1.908 -0.4378  0.5029 -0.1821
 5276SOL    HW127461   1.652   3.947   1.903 -1.9530  0.4819 -0.3192
 5276SOL    HW227462   1.748   3.842   1.921 -1.0221 -0.8657  3.0959
 5277SOL     OW27463   3.505   0.362  10.623  0.0822  0.8442  0.4070
 5277SOL    HW127464   3.491   0.430  10.558 -0.1325 -0.9167 -1.3801
 5277SOL    HW227465   3.417   0.324  10.628  1.3580 -2.1462  0.4371
 5278SOL     OW27466   2.156   0.642   5.594 -0.6618  0.2087 -0.0619
 5278SOL    HW127467   2.169   0.560   5.642  2.4354  1.1050  0.6311
 5278SOL    HW227468   2.071   0.621   5.557  0.6684 -1.1152 -2.3833
 5279SOL     OW27469   1.219   4.720   7.365  0.1190  0.1913 -0.1477
 5279SOL    HW127470   1.128   4.727   7.338  0.0519 -1.2295 -0.2933
 5279SOL    HW227471   1.258   0.047   7.308 -1.5552 -0.2758 -1.8410
 5280SOL     OW27472   2.643   0.162   5.536  0.5235  0.3610 -0.7227
 5280SOL    HW127473   2.621   0.077   5.496  0.6914  0.4505 -1.0015
 5280SOL    HW227474   2.733   0.155   5.567 -0.0877  0.4095  1.0823
 5281SOL     OW27475   0.673   4.259   7.092 -0.1510  0.2338 -0.4807
 5281SOL    HW127476   0.601   4.316   7.066  2.1446  3.1485 -0.3882
 5281SOL    HW227477   0.746   4.318   7.111  0.0543  0.1758 -1.0708
 5282SOL     OW27478   3.850   2.937   9.060 -0.2974  0.0833  0.5298
 5282SOL    HW127479   3.861   3.032   9.057  0.6917 -0.0577 -0.1429
 5282SOL    HW227480   3.756   2.930   9.077 -0.6038  0.4319 -1.0264
 5283SOL     OW27481   4.450   4.284   7.335 -0.3559  0.5825 -0.7728
 5283SOL    HW127482   4.430   4.223   7.406  2.1060 -2.0525 -2.3423
 5283SOL    HW227483   4.546   4.282   7.344 -0.4438  0.8584  0.2344
 5284SOL     OW27484   2.958   4.689  14.637  0.3927 -0.3148 -0.4202
 5284SOL    HW127485   2.909   4.725  14.562 -0.0208 -0.9258 -0.4493
 5284SOL    HW227486   3.007   0.022  14.675 -2.4237  0.7145  1.2265
 5285SOL     OW27487   2.545   3.764   4.342 -0.5074 -0.1233  0.4845
 5285SOL    HW127488   2.625   3.786   4.295  0.1918 -2.5784  0.5576
 5285SOL    HW227489   2.535   3.671   4.324  4.7353 -0.8354  1.6012
 5286SOL     OW27490   3.057   3.469   1.704 -0.2823  0.3613 -0.1683
 5286SOL    HW127491   2.993   3.540   1.698 -1.6416 -0.7626  0.9673
 5286SOL    HW227492   3.128   3.503   1.649  1.0440 -1.0758  0.6721
 5287SOL     OW27493   1.598   1.458   6.388 -0.1290 -0.5463  0.4151
 5287SOL    HW127494   1.614   1.475   6.481  0.8587  1.4231 -0.1009
 5287SOL    HW227495   1.687   1.438   6.361 -0.6663 -0.6346 -1.2554
 5288SOL     OW27496   1.785   2.960   7.125  0.6519  0.2336 -0.3792
 5288SOL    HW127497   1.825   3.039   7.162 -1.2773  0.7246  0.6775
 5288SOL    HW227498   1.843   2.957   7.049  1.4814 -0.4731  0.2826
 5289SOL     OW27499   0.923   0.554   1.904  0.0808 -0.4532  0.7306
 5289SOL    HW127500   0.877   0.531   1.823 -2.9116  0.3197  2.2067
 5289SOL    HW227501   1.009   0.559   1.863 -0.5258 -0.7665 -0.5688
 5290SOL     OW27502   0.660   4.124  13.510  0.6844  0.2218 -0.1947
 5290SOL    HW127503   0.675   4.135  13.604 -2.6864  0.3526  0.3047
 5290SOL    HW227504   0.565   4.116  13.509  0.6710  0.4768 -0.5983
 5291SOL     OW27505   4.248   0.667   8.847 -0.5534  0.6440  0.2031
 5291SOL    HW127506   4.276   0.587   8.893 -0.7775  0.0871 -0.6447
 5291SOL    HW227507   4.195   0.627   8.779 -0.7543 -1.3703  1.5374
 5292SOL     OW27508   4.398   3.358   2.622  0.3174  0.0804  0.0865
 5292SOL    HW127509   4.432   3.319   2.542  0.7411  1.0398 -0.2105
 5292SOL    HW227510   4.315   3.391   2.588  1.2389  0.4451 -1.7837
 5293SOL     OW27511   4.278   3.219  14.214 -0.2574 -0.3711  0.1521
 5293SOL    HW127512   4.370   3.211  14.187 -0.9460  2.4370 -3.0741
 5293SOL    HW227513   4.282   3.254  14.303 -0.5724 -0.4046  0.1794
 5294SOL     OW27514   0.062   3.008  15.635  0.4686  0.1105  0.5806
 5294SOL    HW127515   0.123   3.078  15.611 -0.1962  0.3104 -0.5421
 5294SOL    HW227516   0.012   3.059  15.698 -2.8469 -1.9195 -0.4432
 5295SOL     OW27517   0.532   2.525   3.470  0.4408 -0.2297 -0.3845
 5295SOL    HW127518   0.565   2.453   3.416  1.0756 -0.0858 -0.1882
 5295SOL    HW227519   0.456   2.549   3.416 -0.1939  0.0264  0.6246
 5296SOL     OW27520   4.207   4.192   6.688 -0.1738  0.1381 -0.1027
 5296SOL    HW127521   4.274   4.130   6.716 -2.4439 -1.4028  1.9176
 5296SOL    HW227522   4.171   4.159   6.606 -0.4248  1.8053 -0.6646
 5297SOL     OW27523   2.599   0.600   1.770  0.2163 -0.2804 -0.1996
 5297SOL    HW127524   2.586   0.589   1.864  0.9240 -2.1522 -0.3102
 5297SOL    HW227525   2.597   0.506   1.750 -1.7024 -0.4448  0.7528
 5298SOL     OW27526   2.183   3.206   6.667  0.7741  0.2701 -0.4266
 5298SOL    HW127527   2.190   3.118   6.630 -0.7438  0.0564 -0.2328
 5298SOL    HW227528   2.162   3.200   6.760 -1.7356  2.5783 -0.8409
 5299SOL     OW27529   4.194   4.703   4.734  0.1418 -0.0493 -0.3169
 5299SOL    HW127530   4.213   4.680   4.825 -0.3591  2.0069  0.3279
 5299SOL    HW227531   4.208   0.058   4.740 -1.4729  0.1695 -0.0681
 5300SOL     OW27532   3.500   4.047  15.682  0.1456 -0.4909 -0.8736
 5300SOL    HW127533   3.550   4.127  15.700  1.8945 -1.5694 -1.0041
 5300SOL    HW227534   3.413   4.080  15.658  0.1586  2.2103  2.8734
 5301SOL     OW27535   0.595   1.311   8.552 -0.2382 -0.3837  0.0419
 5301SOL    HW127536   0.593   1.406   8.563  1.7233 -0.1076 -2.0780
 5301SOL    HW227537   0.645   1.292   8.631  0.0702  0.8972  0.1646
 5302SOL     OW27538   2.206   1.583   6.568 -0.2589 -0.5692  0.0870
 5302SOL    HW127539   2.237   1.654   6.511 -0.5122 -0.8752 -0.4306
 5302SOL    HW227540   2.248   1.602   6.652 -0.4934 -0.6369  0.2190
 5303SOL     OW27541   2.374   3.254   5.995 -0.3705 -0.6027 -0.1560
 5303SOL    HW127542   2.363   3.265   5.900 -0.8726 -0.3967 -0.0782
 5303SOL    HW227543   2.359   3.346   6.016  1.5627  0.0753 -1.7326
 5304SOL     OW27544   0.366   1.274   4.559 -0.2590  0.2661 -0.0886
 5304SOL    HW127545   0.423   1.321   4.499 -0.8360 -0.5053 -1.2618
 5304SOL    HW227546   0.385   1.313   4.644 -1.2421 -0.0372  0.2780
 5305SOL     OW27547   1.064   3.875   3.499 -0.1526  0.7758  0.0484
 5305SOL    HW127548   0.994   3.844   3.441 -1.6657  0.1105  2.2386
 5305SOL    HW227549   1.056   3.821   3.578 -0.3907 -0.8415 -1.0836
 5306SOL     OW27550   2.080   3.471  15.875  0.0195 -0.1490 -0.0134
 5306SOL    HW127551   2.160   3.521  15.857 -1.1641  1.1060 -1.8219
 5306SOL    HW227552   2.091   3.389  15.829  1.7266  0.1765 -0.1881
 5307SOL     OW27553   3.466   3.508  12.858 -0.0462  0.0928 -0.5194
 5307SOL    HW127554   3.401   3.482  12.923 -0.0003 -0.1668 -0.5779
 5307SOL    HW227555   3.435   3.461  12.781  1.1652  2.9627 -2.7768
 5308SOL     OW27556   4.287   3.350  16.062  0.3952 -0.1886  0.8469
 5308SOL    HW127557   4.204   3.322  16.100 -1.1446  1.1797 -1.5093
 5308SOL    HW227558   4.281   3.445  16.076  0.7793 -0.0629  0.1289
 5309SOL     OW27559   0.387   0.659   8.335 -0.3003  0.4120  0.8210
 5309SOL    HW127560   0.303   0.681   8.296  0.3706  1.3123 -0.1210
 5309SOL    HW227561   0.449   0.667   8.263 -0.4913 -1.3613  0.4613
 5310SOL     OW27562   1.555   2.428   3.823 -0.3544  0.0319  0.2208
 5310SOL    HW127563   1.527   2.404   3.735 -2.0404  1.4948  0.3541
 5310SOL    HW227564   1.562   2.342   3.863  2.2120 -0.6657 -1.7012
 5311SOL     OW27565   0.601   4.360   1.581  0.8914 -0.6105  0.0916
 5311SOL    HW127566   0.568   4.354   1.671  2.7880 -0.0917  0.8241
 5311SOL    HW227567   0.548   4.430   1.544  2.1255  1.0850  1.5306
 5312SOL     OW27568   3.696   2.955   9.458 -0.1299 -0.1814 -0.1144
 5312SOL    HW127569   3.737   2.959   9.544 -0.2800  1.1417 -0.1003
 5312SOL    HW227570   3.710   3.042   9.421 -0.8755  0.3881  0.9560
 5313SOL     OW27571   3.110   1.258   8.685 -0.4043  0.0190  0.7700
 5313SOL    HW127572   3.065   1.248   8.769 -2.0451 -1.8072 -0.3233
 5313SOL    HW227573   3.111   1.353   8.685 -0.1088  0.0181  0.5294
 5314SOL     OW27574   1.675   2.148   2.386  0.4926  0.7614  0.2229
 5314SOL    HW127575   1.582   2.140   2.409  1.0080  0.9653  2.3895
 5314SOL    HW227576   1.674   2.177   2.295  0.0413 -1.6493 -0.5272
 5315SOL     OW27577   2.660   1.255   9.197  0.1982 -0.3219 -0.1674
 5315SOL    HW127578   2.705   1.337   9.179 -2.0563  0.9677  0.1704
 5315SOL    HW227579   2.737   1.200   9.212 -0.1992 -0.8358  0.0039
 5316SOL     OW27580   2.112   1.871   7.648  0.3116 -0.2009 -0.4706
 5316SOL    HW127581   2.079   1.870   7.737  0.3035  2.4270 -0.4283
 5316SOL    HW227582   2.131   1.964   7.633  0.5943 -0.0308  0.9258
 5317SOL     OW27583   2.530   3.540  17.199 -0.4791 -0.0917 -0.6823
 5317SOL    HW127584   2.520   3.609  17.134  0.7821  1.3639  0.6744
 5317SOL    HW227585   2.446   3.494  17.189 -0.0240 -0.6349 -2.0953
 5318SOL     OW27586   2.499   0.608  12.343  0.7512  0.3319  0.1426
 5318SOL    HW127587   2.432   0.565  12.395  1.7609 -0.5561  0.7120
 5318SOL    HW227588   2.548   0.527  12.328 -1.1354 -0.7909  0.0665
 5319SOL     OW27589   2.627   1.227   7.784 -0.3007 -0.1121 -0.5175
 5319SOL    HW127590   2.535   1.246   7.802  0.2888  3.5663 -1.3579
 5319SOL    HW227591   2.629   1.144   7.736 -1.0029 -0.8671  0.7700
 5320SOL     OW27592   3.071   3.658   6.800 -0.0580  0.2055 -0.1607
 5320SOL    HW127593   3.046   3.603   6.726  1.9478  1.7082 -1.9276
 5320SOL    HW227594   3.085   3.593   6.869  0.4008  0.3562 -0.1083
 5321SOL     OW27595   0.879   1.463  11.695  0.2146 -0.2841  0.1878
 5321SOL    HW127596   0.889   1.395  11.629 -2.4140  1.0884 -1.6525
 5321SOL    HW227597   0.939   1.436  11.764 -0.6579 -0.6987  0.7903
 5322SOL     OW27598   4.023   3.265  12.536  0.3502 -0.6106 -0.0976
 5322SOL    HW127599   4.089   3.197  12.538  0.3153 -0.6656 -0.8468
 5322SOL    HW227600   3.947   3.226  12.579  0.3403 -2.2318 -1.6074
 5323SOL     OW27601   1.959   4.504   3.948  0.1144  0.2522  0.4067
 5323SOL    HW127602   1.958   4.485   4.042  0.6263  1.6446  0.6904
 5323SOL    HW227603   1.932   4.422   3.907 -4.0371  1.6865  0.2642
 5324SOL     OW27604   2.354   2.447  15.879 -0.1651  0.1335 -0.0046
 5324SOL    HW127605   2.293   2.510  15.842 -1.4717  0.3528  2.5469
 5324SOL    HW227606   2.322   2.366  15.839  1.3515 -0.2669 -0.4129
 5325SOL     OW27607   1.810   1.772   6.351  0.1897  0.2212 -0.5274
 5325SOL    HW127608   1.809   1.854   6.400 -0.2251  0.0093 -0.1759
 5325SOL    HW227609   1.718   1.759   6.326 -0.1541  0.6359  0.5199
 5326SOL     OW27610   2.489   4.046   5.726 -0.2093  0.1238  0.2796
 5326SOL    HW127611   2.453   4.093   5.802 -1.9732  1.0895 -1.1545
 5326SOL    HW227612   2.578   4.033   5.758 -0.1717 -1.4377 -0.4645
 5327SOL     OW27613   0.591   2.184   2.105 -0.4175 -0.7583 -0.7939
 5327SOL    HW127614   0.590   2.105   2.159 -3.0379  0.8789  1.5499
 5327SOL    HW227615   0.528   2.170   2.034 -0.9548 -0.6854 -0.3289
 5328SOL     OW27616   1.982   1.081   6.407 -0.0264  0.1829  0.1430
 5328SOL    HW127617   2.024   1.051   6.488 -1.7589  0.9927  1.3431
 5328SOL    HW227618   2.056   1.070   6.347  0.2310  1.8741  0.1568
 5329SOL     OW27619   4.104   2.933  12.735  0.5185 -0.0817  0.5747
 5329SOL    HW127620   4.067   2.860  12.785 -1.6618  1.4996  1.2598
 5329SOL    HW227621   4.020   2.975  12.719  1.2853  2.0951  2.2644
 5330SOL     OW27622   2.261   0.344   9.245  0.2368 -0.5434 -0.3139
 5330SOL    HW127623   2.289   0.329   9.335 -1.2551 -1.3793  0.0124
 5330SOL    HW227624   2.333   0.398   9.211  0.4811 -0.4699  0.3280
 5331SOL     OW27625   4.446   0.199  10.221 -0.1947  0.2234 -0.1474
 5331SOL    HW127626   4.462   0.292  10.205  0.2469 -0.0219 -1.1488
 5331SOL    HW227627   4.366   0.201  10.273  1.0726  1.1334  1.7740
 5332SOL     OW27628   0.878   2.440   6.100 -0.0495 -0.9632  0.5900
 5332SOL    HW127629   0.860   2.533   6.089  1.3798 -0.8344 -0.6305
 5332SOL    HW227630   0.830   2.401   6.027 -1.1865  1.7068 -0.0459
 5333SOL     OW27631   1.768   3.282   2.227 -0.9154  0.2643  0.3127
 5333SOL    HW127632   1.678   3.298   2.253 -1.1047 -1.7479  0.8930
 5333SOL    HW227633   1.816   3.346   2.280  0.7148 -1.0097  0.3864
 5334SOL     OW27634   3.574   2.592   2.806 -0.3593  0.5747  0.2320
 5334SOL    HW127635   3.639   2.522   2.802 -0.1271  0.9127 -1.9557
 5334SOL    HW227636   3.613   2.666   2.758 -0.3953  0.2384 -0.3088
 5335SOL     OW27637   3.449   4.120   6.413  0.0928  0.2269 -0.2534
 5335SOL    HW127638   3.475   4.049   6.471 -1.0591 -0.6585 -0.8264
 5335SOL    HW227639   3.536   4.158   6.400 -0.0342  0.4124 -0.5728
 5336SOL     OW27640   0.232   1.764   7.550  0.3605  0.3216  0.0878
 5336SOL    HW127641   0.241   1.753   7.644 -0.5800  3.2690  0.5402
 5336SOL    HW227642   0.250   1.679   7.511  3.9135  1.0799  0.0813
 5337SOL     OW27643   0.902   3.099   7.633  0.2791 -0.3354 -0.3548
 5337SOL    HW127644   0.967   3.168   7.616  0.2912 -0.4666 -0.8454
 5337SOL    HW227645   0.824   3.142   7.600 -0.4095  1.4701  3.5790
 5338SOL     OW27646   1.828   4.422   8.674 -0.1648 -0.5549 -0.2062
 5338SOL    HW127647   1.877   4.463   8.602 -0.3619 -0.3185 -0.2064
 5338SOL    HW227648   1.761   4.375   8.625 -0.6793 -1.2241  1.1547
 5339SOL     OW27649   2.602   1.008   7.618  0.3617 -0.3675  0.3157
 5339SOL    HW127650   2.526   0.950   7.614  0.6334 -0.7313  0.4937
 5339SOL    HW227651   2.649   0.972   7.542 -1.5783 -0.1493 -0.9907
 5340SOL     OW27652   0.422   4.371   7.562  0.0799  0.0949 -0.1913
 5340SOL    HW127653   0.414   4.335   7.650 -0.6984 -0.9975 -0.7041
 5340SOL    HW227654   0.332   4.386   7.533  0.6410  1.1841 -1.3459
 5341SOL     OW27655   3.500   4.228   7.569  0.3259 -0.1529 -0.3720
 5341SOL    HW127656   3.544   4.149   7.540  1.1921  0.2659 -0.2011
 5341SOL    HW227657   3.557   4.255   7.641 -1.1087  0.0023  0.7072
 5342SOL     OW27658   0.119   4.518   9.143  0.0559 -0.4242 -0.1973
 5342SOL    HW127659   0.103   4.427   9.170 -1.1193  0.1614  1.0165
 5342SOL    HW227660   0.053   4.566   9.192 -1.4827  0.4943 -3.2003
 5343SOL     OW27661   4.005   1.385   8.458 -0.3549 -0.0231  0.4100
 5343SOL    HW127662   3.989   1.381   8.553  0.1946 -1.3799  0.4454
 5343SOL    HW227663   4.035   1.294   8.454  1.3774  0.6151 -0.6129
 5344SOL     OW27664   3.148   3.188  13.842  0.0667 -0.4543  0.4824
 5344SOL    HW127665   3.126   3.126  13.773  1.5887  0.8091 -1.1110
 5344SOL    HW227666   3.237   3.205  13.811  0.3184 -0.7228  1.0573
 5345SOL     OW27667   2.501   2.384  11.979  0.3236  0.0435 -0.4789
 5345SOL    HW127668   2.579   2.338  12.008 -0.6970 -1.0194  0.5979
 5345SOL    HW227669   2.444   2.308  11.963 -0.0362 -0.0080  1.0728
 5346SOL     OW27670   2.982   2.175   6.628 -0.1066  0.3015 -0.0683
 5346SOL    HW127671   3.056   2.147   6.574 -0.2627 -0.3458  0.0511
 5346SOL    HW227672   3.021   2.191   6.714 -1.8358 -0.7565  0.9022
 5347SOL     OW27673   3.356   2.243   5.597  0.2928 -0.1423  0.4834
 5347SOL    HW127674   3.379   2.302   5.525 -0.4724  1.5589  1.6244
 5347SOL    HW227675   3.441   2.225   5.637  1.3016  0.5397 -1.3764
 5348SOL     OW27676   2.615   3.226  14.178  0.8024  0.0277 -0.4900
 5348SOL    HW127677   2.691   3.186  14.136 -0.7503 -3.4039 -0.0087
 5348SOL    HW227678   2.580   3.277  14.105  1.0363  0.5674 -0.2299
 5349SOL     OW27679   1.158   4.580  10.208 -0.5391 -0.2443  0.0256
 5349SOL    HW127680   1.157   4.513  10.276 -0.8452  0.7067  0.9661
 5349SOL    HW227681   1.183   4.657  10.260  0.4717 -1.3523  1.1790
 5350SOL     OW27682   2.731   1.149   3.765  0.2483 -0.0558 -0.5411
 5350SOL    HW127683   2.754   1.224   3.711  0.0088  0.2065 -0.2734
 5350SOL    HW227684   2.645   1.119   3.735 -0.0882 -0.0084  0.3959
 5351SOL     OW27685   2.243   0.203   6.471  0.0276  0.4835  0.5413
 5351SOL    HW127686   2.312   0.226   6.408 -0.1390  1.3293  0.6589
 5351SOL    HW227687   2.287   0.203   6.556 -0.1010  1.8906  0.6094
 5352SOL     OW27688   1.653   1.684   5.241 -0.0995 -0.1871  0.0163
 5352SOL    HW127689   1.632   1.597   5.209  1.8391 -0.5328 -0.3163
 5352SOL    HW227690   1.566   1.710   5.272  0.1977 -0.0421  0.7282
 5353SOL     OW27691   3.640   0.129   7.088 -0.6562 -0.0844  0.2216
 5353SOL    HW127692   3.674   0.147   7.175 -0.5794 -3.3084  0.8344
 5353SOL    HW227693   3.677   0.045   7.062 -2.2890 -1.1846  1.4804
 5354SOL     OW27694   0.875   0.637   8.258  0.0410  0.2030 -0.7812
 5354SOL    HW127695   0.809   0.572   8.231  0.0341 -0.1771  0.1391
 5354SOL    HW227696   0.937   0.571   8.289 -2.4572 -1.0659  1.5602
 5355SOL     OW27697   1.384   1.541   0.157  0.2058 -0.0240  0.1790
 5355SOL    HW127698   1.371   1.525   0.251 -0.1560 -0.2999  0.0812
 5355SOL    HW227699   1.461   1.485   0.150  0.5420  0.0526  2.9774
 5356SOL     OW27700   3.221   0.500  12.985  0.5041 -0.6889 -0.5057
 5356SOL    HW127701   3.313   0.473  12.986  0.6673 -0.1273 -0.1293
 5356SOL    HW227702   3.180   0.456  13.059  2.4312  1.8374  2.1052
 5357SOL     OW27703   0.917   3.296   1.135 -0.2496  0.1819  0.1951
 5357SOL    HW127704   0.902   3.278   1.042  1.4944  0.1467 -0.0937
 5357SOL    HW227705   0.965   3.378   1.123 -1.8707  1.1419  0.3648
 5358SOL     OW27706   2.321   3.858   5.957 -0.2018 -0.5479 -0.7433
 5358SOL    HW127707   2.391   3.921   5.977  0.2795 -0.9962 -1.0057
 5358SOL    HW227708   2.378   3.803   5.904  1.6768 -0.0104  0.7039
 5359SOL     OW27709   4.131   4.709  15.136  0.1575  0.7064  0.5204
 5359SOL    HW127710   4.171   4.709  15.224  0.3440  1.0995  0.4334
 5359SOL    HW227711   4.186   4.649  15.085  1.3068  0.1730  2.3399
 5360SOL     OW27712   1.563   2.708   6.315 -0.1465  0.1331 -0.4410
 5360SOL    HW127713   1.551   2.640   6.382 -1.7453 -0.7028 -1.5731
 5360SOL    HW227714   1.479   2.751   6.329 -0.9035 -0.8049 -2.0972
 5361SOL     OW27715   4.291   1.874  13.030 -0.1175  0.0455 -0.0290
 5361SOL    HW127716   4.326   1.831  13.108 -0.7916 -1.4373 -0.5477
 5361SOL    HW227717   4.201   1.884  13.061  0.3742  1.6934  0.8779
 5362SOL     OW27718   1.992   0.659   2.657  0.1409  0.1734 -0.1374
 5362SOL    HW127719   2.043   0.579   2.651  2.5994  1.6023  1.5000
 5362SOL    HW227720   1.916   0.648   2.599  0.6449  0.1446 -0.8016
 5363SOL     OW27721   4.738   3.575   0.359  0.4582 -0.1440  0.4699
 5363SOL    HW127722   4.670   3.509   0.350  0.8112 -0.4470  0.0629
 5363SOL    HW227723   0.049   3.583   0.279  1.1022  0.1914  0.9069
 5364SOL     OW27724   1.704   3.685   0.141 -0.0421  0.2540  0.3974
 5364SOL    HW127725   1.638   3.674   0.209  0.1503  0.5329  0.6304
 5364SOL    HW227726   1.719   3.602   0.097 -3.9652  0.3100 -1.0821
 5365SOL     OW27727   4.479   4.216  15.526  0.4350 -0.0265  0.0349
 5365SOL    HW127728   4.467   4.293  15.581 -1.2439 -0.1089 -0.2165
 5365SOL    HW227729   4.432   4.142  15.565 -3.1810  2.8521  1.0972
 5366SOL     OW27730   3.888   0.268   4.830 -0.5273 -0.2525  0.0143
 5366SOL    HW127731   3.942   0.345   4.846 -1.2182  0.4137 -0.8780
 5366SOL    HW227732   3.934   0.237   4.752 -1.7142 -1.8255 -0.0453
 5367SOL     OW27733   4.085   4.581   5.202  0.0807 -0.3083 -0.0174
 5367SOL    HW127734   4.039   4.659   5.170  0.5144  0.5860  1.5214
 5367SOL    HW227735   4.085   4.519   5.130 -2.1835 -0.1333 -0.1779
 5368SOL     OW27736   4.409   2.676   8.816  0.9026 -0.2298 -0.0726
 5368SOL    HW127737   4.420   2.581   8.818 -0.8916 -0.4145  0.6764
 5368SOL    HW227738   4.470   2.705   8.884 -1.3323 -1.3262  2.3680
 5369SOL     OW27739   2.740   3.493   2.224  0.3418 -0.0779 -0.0880
 5369SOL    HW127740   2.811   3.505   2.160  1.6252  1.4053  1.6134
 5369SOL    HW227741   2.761   3.572   2.274  1.1914 -0.6472  0.4538
 5370SOL     OW27742   4.668   4.556   6.646  0.4394 -0.0617 -0.0767
 5370SOL    HW127743   4.694   4.617   6.714 -0.6448 -1.0403  1.2185
 5370SOL    HW227744   0.015   4.517   6.630  0.7440  1.0613 -1.1603
 5371SOL     OW27745   4.489   2.367  12.640 -0.2526 -0.0409 -0.4324
 5371SOL    HW127746   4.536   2.323  12.711 -2.7184 -0.7666  0.7929
 5371SOL    HW227747   4.399   2.357  12.672  1.3370 -0.9733  3.7459
 5372SOL     OW27748   4.529   2.905   5.762 -0.4411 -0.9039 -0.3008
 5372SOL    HW127749   4.520   2.818   5.802 -1.6356 -0.2643  0.8431
 5372SOL    HW227750   4.564   2.872   5.680 -1.6997 -1.0754 -0.7667
 5373SOL     OW27751   3.876   0.987   7.555 -0.2558 -0.1391 -0.4174
 5373SOL    HW127752   3.869   0.909   7.501 -1.4936  0.9989 -1.8999
 5373SOL    HW227753   3.962   1.017   7.525 -0.8481 -0.1821 -2.1381
 5374SOL     OW27754   2.629   3.697   2.659  0.0193  0.1388  0.2342
 5374SOL    HW127755   2.670   3.613   2.637  1.4342  1.0376 -0.5701
 5374SOL    HW227756   2.551   3.684   2.605  0.0849 -3.2493  0.9991
 5375SOL     OW27757   2.711   0.850   8.933  0.0134 -0.1943  0.3507
 5375SOL    HW127758   2.705   0.916   8.864  2.1483 -0.9111 -0.5209
 5375SOL    HW227759   2.751   0.783   8.878  0.9162  1.1257 -0.5935
 5376SOL     OW27760   1.958   2.182   3.051  0.1335 -0.1541  0.5888
 5376SOL    HW127761   1.898   2.120   3.093  1.5678 -0.9600  1.4458
 5376SOL    HW227762   2.020   2.120   3.013  0.3810  0.6584 -0.3444
 5377SOL     OW27763   3.094   0.502  12.518  0.0743 -0.2463 -0.1640
 5377SOL    HW127764   3.052   0.575  12.563  2.1414  2.3556 -2.4383
 5377SOL    HW227765   3.132   0.443  12.584 -0.1615  0.2055  0.3722
 5378SOL     OW27766   1.366   1.273   6.873  0.1805 -0.1797 -0.0384
 5378SOL    HW127767   1.303   1.343   6.854 -0.7609 -1.0282  0.0191
 5378SOL    HW227768   1.380   1.240   6.784 -0.7454  1.7225 -0.9117
 5379SOL     OW27769   4.344   1.234   8.382 -0.3586 -0.2172 -0.1798
 5379SOL    HW127770   4.385   1.186   8.454  0.1649  0.5083  0.0048
 5379SOL    HW227771   4.279   1.164   8.377 -1.7458  1.1595 -1.5891
 5380SOL     OW27772   1.622   2.086   4.170  0.2603  0.6800 -0.0286
 5380SOL    HW127773   1.582   2.022   4.111  2.1692  0.5197 -1.1451
 5380SOL    HW227774   1.704   2.046   4.198  0.3446  0.0627 -1.1542
 5381SOL     OW27775   2.551   4.062   2.113  0.2233  0.6494 -0.0490
 5381SOL    HW127776   2.576   4.155   2.113 -1.8483  1.2092  3.3541
 5381SOL    HW227777   2.580   4.043   2.202  0.3412 -2.0389 -0.6711
 5382SOL     OW27778   3.344   1.820   5.955 -0.1522  0.4018 -0.3961
 5382SOL    HW127779   3.328   1.869   5.874 -0.0090  1.5250  0.2527
 5382SOL    HW227780   3.256   1.809   5.992  1.0632  1.6255  2.8398
 5383SOL     OW27781   2.189   1.041  17.051 -0.2834 -0.3993  0.2966
 5383SOL    HW127782   2.229   1.127  17.062 -2.4813  0.7251 -0.3738
 5383SOL    HW227783   2.258   0.989  17.093  1.5547  0.8716 -1.1468
 5384SOL     OW27784   2.910   1.232   4.370 -0.0629  0.3111 -0.5626
 5384SOL    HW127785   2.855   1.171   4.419  1.3408  0.2082  0.8745
 5384SOL    HW227786   2.841   1.270   4.316 -2.0014 -3.6149 -0.8438
 5385SOL     OW27787   4.356   0.539   1.699  0.3318  0.1762 -0.1149
 5385SOL    HW127788   4.338   0.584   1.616  2.7659  2.7588  0.7418
 5385SOL    HW227789   4.356   0.450   1.664  5.0234  0.1042  0.0103
 5386SOL     OW27790   1.299   2.252   7.705 -0.6265  0.1093  0.4951
 5386SOL    HW127791   1.346   2.335   7.712 -0.3694  0.0313 -0.3184
 5386SOL    HW227792   1.310   2.218   7.794  0.9181 -0.1438  0.2099
 5387SOL     OW27793   4.289   1.907   6.369  0.5230  0.4295  0.1248
 5387SOL    HW127794   4.272   1.829   6.421  1.1026  1.1270  1.3485
 5387SOL    HW227795   4.207   1.956   6.380 -0.1824 -0.7602  0.1957
 5388SOL     OW27796   3.166   0.537   6.426 -0.1354  0.0062 -0.2886
 5388SOL    HW127797   3.219   0.491   6.362  0.3809  1.6119 -1.0041
 5388SOL    HW227798   3.099   0.582   6.374 -0.5266 -0.5624 -0.2788
 5389SOL     OW27799   3.988   3.276   7.689  0.6355 -0.5965  0.6937
 5389SOL    HW127800   4.041   3.252   7.612 -0.5307 -1.4141  0.1570
 5389SOL    HW227801   4.036   3.355   7.716  0.3305  0.2030 -1.1382
 5390SOL     OW27802   1.884   2.172  13.195 -0.4354 -0.3631  0.3514
 5390SOL    HW127803   1.825   2.131  13.132 -1.3584 -0.7693  1.4796
 5390SOL    HW227804   1.892   2.261  13.162  0.2118 -0.2820  0.7245
 5391SOL     OW27805   2.469   0.098   5.994  0.4595 -0.3439  0.0934
 5391SOL    HW127806   2.506   0.154   5.926 -1.9510  0.4878 -0.5463
 5391SOL    HW227807   2.531   0.030   6.018  1.8926  1.0590  0.3813
 5392SOL     OW27808   0.828   3.770   6.905 -0.0093 -0.3077  0.0385
 5392SOL    HW127809   0.828   3.866   6.895 -0.0970 -0.2314  0.7827
 5392SOL    HW227810   0.822   3.777   7.001 -0.2309 -0.7679  0.0551
 5393SOL     OW27811   4.040   3.514   3.247  0.1577 -0.1201 -0.2522
 5393SOL    HW127812   4.114   3.458   3.224 -1.0534 -2.2178  0.9874
 5393SOL    HW227813   4.069   3.550   3.330  1.2124 -3.6063  0.8686
 5394SOL     OW27814   2.442   3.492   6.615  0.2198  0.3424 -0.3317
 5394SOL    HW127815   2.377   3.503   6.685  0.1142 -2.0500 -0.0642
 5394SOL    HW227816   2.516   3.488   6.676  0.5812  1.5970 -0.6869
 5395SOL     OW27817   3.423   3.295   7.779 -0.4153  0.1409  0.1087
 5395SOL    HW127818   3.511   3.275   7.747  0.2210  1.4663  1.0420
 5395SOL    HW227819   3.380   3.318   7.697  0.3211 -1.2048 -0.6623
 5396SOL     OW27820   4.477   1.291   4.312 -0.0318 -0.7087  0.0757
 5396SOL    HW127821   4.432   1.218   4.355  1.4095 -1.6151  0.0469
 5396SOL    HW227822   4.510   1.261   4.227 -1.2440 -1.1353 -0.2481
 5397SOL     OW27823   4.442   3.331   5.559 -0.3535  0.3009 -0.3671
 5397SOL    HW127824   4.418   3.246   5.595  0.4848  0.9367  1.6803
 5397SOL    HW227825   4.460   3.302   5.470 -0.4388 -2.9571  0.6896
 5398SOL     OW27826   0.988   3.056   6.790 -0.1099  0.5392  0.5787
 5398SOL    HW127827   1.046   3.130   6.770  1.0191 -0.4049  0.3854
 5398SOL    HW227828   1.056   2.989   6.782 -2.1752 -1.4389 -0.3570
 5399SOL     OW27829   1.536   4.599  14.986 -0.1681 -0.2300 -0.2883
 5399SOL    HW127830   1.586   4.519  14.967  0.5338  0.1167  0.0702
 5399SOL    HW227831   1.504   4.623  14.899  0.7922  0.1610 -0.5430
 5400SOL     OW27832   0.435   4.164   2.935 -0.2574  0.4939 -0.3145
 5400SOL    HW127833   0.441   4.117   3.019 -1.4412 -0.5964 -0.8435
 5400SOL    HW227834   0.357   4.125   2.895  1.0154 -2.6755  0.2244
 5401SOL     OW27835   3.977   4.000  12.189 -0.2929  0.4865  0.4066
 5401SOL    HW127836   3.986   4.023  12.282 -2.9608  0.2596  0.7202
 5401SOL    HW227837   4.061   3.961  12.167  0.7410  1.1593  3.0943
 5402SOL     OW27838   4.035   1.397   1.912  0.1239 -0.5263 -0.1954
 5402SOL    HW127839   4.114   1.442   1.942  1.0181 -0.8529 -2.1023
 5402SOL    HW227840   4.062   1.310   1.884 -0.8270 -1.3537  1.3915
 5403SOL     OW27841   4.504   3.291  14.466 -0.2482 -0.2826 -0.5079
 5403SOL    HW127842   4.422   3.339  14.455 -0.0176 -0.2150 -2.0078
 5403SOL    HW227843   4.543   3.326  14.546  1.9353 -0.6421 -1.4262
 5404SOL     OW27844   0.302   1.986   8.369  0.0064 -0.3354  0.0650
 5404SOL    HW127845   0.383   1.980   8.317  0.1116  0.9897  0.0999
 5404SOL    HW227846   0.341   2.036   8.440 -1.6436 -0.2244  0.8950
 5405SOL     OW27847   3.922   3.111  14.735  0.0122 -0.0696 -0.2668
 5405SOL    HW127848   3.935   3.017  14.751  0.0343  0.0413  0.3560
 5405SOL    HW227849   3.982   3.160  14.791 -1.9079 -0.7179  2.4124
 5406SOL     OW27850   1.720   3.103   1.644 -0.0233  0.8090 -0.3185
 5406SOL    HW127851   1.766   3.075   1.723 -0.1690  1.7223  0.0875
 5406SOL    HW227852   1.693   3.019   1.606 -0.0521 -0.0414  1.5681
 5407SOL     OW27853   2.034   1.951   5.995 -0.3218 -0.0324 -0.4797
 5407SOL    HW127854   1.998   1.885   6.053 -0.6780  0.9804  0.4544
 5407SOL    HW227855   2.111   1.981   6.044  0.6356 -2.3782 -0.5442
 5408SOL     OW27856   1.499   2.005   4.431  0.0093 -0.3435  0.0840
 5408SOL    HW127857   1.573   2.012   4.491 -0.0719 -0.1097  0.1565
 5408SOL    HW227858   1.534   2.064   4.365  2.6387 -0.7063  1.1541
 5409SOL     OW27859   4.008   4.567   5.708  0.0410 -0.0334  0.0003
 5409SOL    HW127860   3.950   4.600   5.640  0.6307 -1.2272 -1.0856
 5409SOL    HW227861   3.960   4.581   5.790 -0.5033  0.1822 -0.3598
 5410SOL     OW27862   0.858   1.842   7.252 -0.3690  0.0429 -0.3652
 5410SOL    HW127863   0.847   1.869   7.161 -2.0014 -1.3292 -0.5822
 5410SOL    HW227864   0.782   1.785   7.262  1.0949 -2.1233 -1.5026
 5411SOL     OW27865   0.899   4.385  14.486  0.4677  0.6650  0.3206
 5411SOL    HW127866   0.967   4.419  14.545  1.1579 -0.6412  0.2647
 5411SOL    HW227867   0.874   4.466  14.441  1.4004  0.7365 -0.0806
 5412SOL     OW27868   4.589   2.066   8.980  0.6463  0.1791 -0.1919
 5412SOL    HW127869   4.581   2.160   9.000  0.5095 -0.1617  1.3035
 5412SOL    HW227870   4.630   2.041   9.063  0.3554 -1.5904 -0.5953
 5413SOL     OW27871   4.048   0.453   6.883 -0.7129  0.3196 -0.0432
 5413SOL    HW127872   4.054   0.542   6.847  0.3675 -0.1951 -1.1499
 5413SOL    HW227873   4.135   0.418   6.861 -0.2138  0.6514  1.4578
 5414SOL     OW27874   2.810   3.380   6.418 -0.2267  0.2357 -0.8043
 5414SOL    HW127875   2.724   3.406   6.386 -1.5109  1.2896  3.4030
 5414SOL    HW227876   2.810   3.295   6.374  0.6310  0.3060 -0.9389
 5415SOL     OW27877   2.992   4.006   1.628 -0.4858 -0.2060 -0.1983
 5415SOL    HW127878   3.044   4.074   1.585  0.1772 -0.6769 -0.1414
 5415SOL    HW227879   3.001   3.953   1.549 -2.2087 -0.7328 -0.0527
 5416SOL     OW27880   1.873   2.870   8.803  0.0547  0.2875 -0.8401
 5416SOL    HW127881   1.872   2.957   8.762 -0.2976 -0.5458 -2.5817
 5416SOL    HW227882   1.867   2.821   8.721  4.5334  0.3963 -1.2646
 5417SOL     OW27883   3.979   4.255   1.605 -0.5639  0.6029 -0.2275
 5417SOL    HW127884   4.058   4.301   1.578  0.4538 -1.4348 -0.6961
 5417SOL    HW227885   3.986   4.237   1.698 -2.4657  0.7600 -0.0421
 5418SOL     OW27886   2.992   1.375  15.308  0.3765  0.3913 -0.0484
 5418SOL    HW127887   2.987   1.353  15.401  0.4380 -2.1619 -0.6562
 5418SOL    HW227888   2.903   1.407  15.294  0.6209  2.1564  2.4682
 5419SOL     OW27889   1.692   2.406   3.476 -0.4755  0.3843  0.1510
 5419SOL    HW127890   1.721   2.365   3.557 -0.2205 -0.1257 -0.1983
 5419SOL    HW227891   1.771   2.429   3.427  1.1151 -2.9621  1.1485
 5420SOL     OW27892   3.608   0.653   4.625  0.4157 -0.0403 -0.4753
 5420SOL    HW127893   3.571   0.568   4.648  1.3279 -0.6273 -1.1472
 5420SOL    HW227894   3.699   0.646   4.655 -0.0237  1.4480  1.1779
 5421SOL     OW27895   2.822   2.883   4.598  0.3730 -0.4427 -0.2789
 5421SOL    HW127896   2.874   2.911   4.523  0.9261  0.4479  0.4425
 5421SOL    HW227897   2.814   2.962   4.651 -0.0190 -1.6086  1.3997
 5422SOL     OW27898   2.302   3.060   2.995  0.0969  0.0255  0.0381
 5422SOL    HW127899   2.297   3.100   2.907  1.4131  1.3527  0.5606
 5422SOL    HW227900   2.310   2.967   2.977  0.8862 -0.1426  1.3083
 5423SOL     OW27901   2.697   1.407   0.012 -0.6514  0.3289  0.1822
 5423SOL    HW127902   2.781   1.453   0.016 -0.3271 -0.3979  1.6301
 5423SOL    HW227903   2.648   1.430  17.689  0.5324  0.6666 -0.4489
 5424SOL     OW27904   4.086   3.781   7.568  0.6608  0.0243  0.8389
 5424SOL    HW127905   4.079   3.770   7.663 -0.3547 -0.0409  0.7616
 5424SOL    HW227906   4.029   3.857   7.557 -2.2816 -2.4010 -0.6213
 5425SOL     OW27907   3.778   3.444   2.474  0.4960 -0.5833 -0.7309
 5425SOL    HW127908   3.825   3.471   2.552  0.1728  1.5264 -1.2533
 5425SOL    HW227909   3.780   3.349   2.483  1.2976 -0.1848  2.9371
 5426SOL     OW27910   3.367   1.315   6.953 -0.7917 -0.2849 -0.3172
 5426SOL    HW127911   3.339   1.240   6.901 -0.9359  0.6851 -1.6435
 5426SOL    HW227912   3.281   1.357   6.961  0.1152  1.6019 -0.5558
 5427SOL     OW27913   0.135   3.456  11.312  0.2191 -0.1340  0.1772
 5427SOL    HW127914   0.091   3.373  11.331 -0.9792  0.5932  0.5700
 5427SOL    HW227915   0.227   3.429  11.308 -0.0409 -1.0925  0.5218
 5428SOL     OW27916   1.337   1.775   1.841  0.0541 -0.3729  0.6618
 5428SOL    HW127917   1.266   1.837   1.859 -0.5401 -1.2505  1.3467
 5428SOL    HW227918   1.281   1.701   1.817 -0.7929  0.8115 -0.9963
 5429SOL     OW27919   3.683   1.522   6.469 -0.4953  0.0873 -0.2410
 5429SOL    HW127920   3.663   1.581   6.542  1.5823 -1.2137  1.3666
 5429SOL    HW227921   3.740   1.575   6.413 -0.6875 -1.3531 -1.7779
 5430SOL     OW27922   3.678   2.926  14.091  0.8020  0.6587  0.2690
 5430SOL    HW127923   3.770   2.934  14.114  0.9092  2.0188 -0.6784
 5430SOL    HW227924   3.662   2.833  14.107  0.5911  1.3670  4.1808
 5431SOL     OW27925   4.543   3.084   3.071  0.2177 -0.3299  0.4990
 5431SOL    HW127926   4.476   3.142   3.108  1.6476  1.8473 -0.2665
 5431SOL    HW227927   4.507   3.059   2.986 -0.2694  1.6133  0.1223
 5432SOL     OW27928   2.466   1.971  12.112  0.0918  0.2726  0.0887
 5432SOL    HW127929   2.543   1.914  12.118  0.8635  1.2162 -0.6476
 5432SOL    HW227930   2.412   1.928  12.178  2.1230 -2.3370  0.0796
 5433SOL     OW27931   0.208   0.089   4.123  0.2114  0.0550  0.0413
 5433SOL    HW127932   0.245   0.112   4.209  1.6875  0.3364 -0.6583
 5433SOL    HW227933   0.246   0.158   4.069 -0.5034 -0.3505 -0.9792
 5434SOL     OW27934   0.508   4.049   7.208 -0.6372 -0.5259 -0.2925
 5434SOL    HW127935   0.575   4.057   7.275  0.4084  0.7238 -1.4744
 5434SOL    HW227936   0.552   4.105   7.143  2.2491 -2.5828 -0.1257
 5435SOL     OW27937   1.352   3.679   7.767 -0.3736 -0.2903 -0.3679
 5435SOL    HW127938   1.348   3.594   7.723  2.5744 -1.3866  1.3960
 5435SOL    HW227939   1.421   3.662   7.832 -0.1095 -0.0222 -0.5788
 5436SOL     OW27940   3.784   2.273   7.161  0.0048 -0.1014  0.3099
 5436SOL    HW127941   3.790   2.344   7.097 -0.5100 -0.0601  0.3077
 5436SOL    HW227942   3.870   2.239   7.186 -0.5296 -0.7185  1.3270
 5437SOL     OW27943   0.042   3.274  11.794  0.0582 -0.3103  0.0563
 5437SOL    HW127944   0.018   3.239  11.709 -2.5972 -0.3734  0.8482
 5437SOL    HW227945   4.703   3.256  11.846  0.2650  0.5086  0.6484
 5438SOL     OW27946   4.526   1.855   4.145  0.0422  0.3282 -0.3566
 5438SOL    HW127947   4.526   1.892   4.233  1.4503 -0.5659  0.0337
 5438SOL    HW227948   4.439   1.877   4.113 -0.3117 -0.8189 -0.1916
 5439SOL     OW27949   3.659   0.963   5.734 -0.1176  0.5521  0.2562
 5439SOL    HW127950   3.591   0.914   5.687  0.7238  0.4858 -0.8964
 5439SOL    HW227951   3.728   0.937   5.673 -0.6590 -0.2091 -0.0276
 5440SOL     OW27952   2.284   1.077   7.267 -0.2694 -0.1077  0.0275
 5440SOL    HW127953   2.289   1.128   7.348  1.4929  1.2459 -0.9410
 5440SOL    HW227954   2.188   1.076   7.265 -0.2586 -0.7938 -0.1219
 5441SOL     OW27955   1.506   2.431  17.130 -0.6417 -0.0138 -1.1713
 5441SOL    HW127956   1.431   2.415  17.073 -1.9782  1.8149  0.0327
 5441SOL    HW227957   1.488   2.524  17.146 -0.5442 -0.4223  1.3417
 5442SOL     OW27958   2.232   3.525   3.271  0.6397  0.0629  0.0212
 5442SOL    HW127959   2.319   3.557   3.295  0.4573  0.1353  0.5978
 5442SOL    HW227960   2.260   3.454   3.213 -0.4617 -1.3245  1.1832
 5443SOL     OW27961   0.487   2.049   3.731  0.2273  0.3683 -0.2528
 5443SOL    HW127962   0.411   2.101   3.705  0.6504  0.9644 -0.2959
 5443SOL    HW227963   0.489   1.998   3.650 -1.5045  0.7205 -0.5115
 5444SOL     OW27964   1.626   3.483   7.095 -0.1843  0.4434  0.2423
 5444SOL    HW127965   1.652   3.416   7.032  0.1524  0.5938  0.2181
 5444SOL    HW227966   1.539   3.453   7.120 -0.6545  0.9660 -0.7858
 5445SOL     OW27967   1.862   1.209  14.913 -0.0878 -0.0554 -0.3134
 5445SOL    HW127968   1.931   1.199  14.848 -0.6311  0.0965 -0.9192
 5445SOL    HW227969   1.785   1.202  14.857 -0.4736  0.8928  0.1034
 5446SOL     OW27970   0.197   4.509   5.223 -0.7817 -0.0403  0.5729
 5446SOL    HW127971   0.206   4.583   5.283 -1.2520  3.2907 -3.4399
 5446SOL    HW227972   0.156   4.449   5.285  0.0710 -1.6160 -0.3920
 5447SOL     OW27973   2.151   0.919   3.531  0.0139  0.0944 -0.0341
 5447SOL    HW127974   2.170   1.006   3.566  0.3533  0.1173 -0.2726
 5447SOL    HW227975   2.064   0.891   3.558  1.3427 -2.5787  1.5155
 5448SOL     OW27976   0.184   0.873  17.353 -0.2158 -0.0570 -0.4631
 5448SOL    HW127977   0.234   0.837  17.280  0.6509 -0.4551  0.3325
 5448SOL    HW227978   0.188   0.812  17.427  1.6362  0.0490 -0.4942
 5449SOL     OW27979   0.643   0.335   7.474 -0.1854  0.3921 -0.1272
 5449SOL    HW127980   0.559   0.293   7.490  0.5135 -1.3307 -0.9196
 5449SOL    HW227981   0.615   0.426   7.484 -2.2389 -0.2827  0.1675
 5450SOL     OW27982   3.301   4.524   0.690 -0.3244  0.2778  0.1362
 5450SOL    HW127983   3.274   4.433   0.677  1.6761 -0.5354  1.7466
 5450SOL    HW227984   3.370   4.514   0.755 -0.7453  0.4726  0.6178
 5451SOL     OW27985   2.546   2.244   4.089 -0.3688 -0.0928 -0.2227
 5451SOL    HW127986   2.493   2.227   4.011  0.5493 -0.1546 -0.8362
 5451SOL    HW227987   2.629   2.232   4.043 -1.4267 -4.2454 -1.0079
 5452SOL     OW27988   2.948   2.816   2.753 -0.2131  0.3278 -0.1720
 5452SOL    HW127989   2.900   2.769   2.684 -1.6092  2.7577 -0.8352
 5452SOL    HW227990   3.037   2.782   2.741  0.1136  1.3361 -0.5944
 5453SOL     OW27991   1.007   1.146   3.032  0.1167 -0.6453  0.1615
 5453SOL    HW127992   1.065   1.113   3.101 -1.2843 -1.5845  0.8874
 5453SOL    HW227993   1.071   1.186   2.973 -0.4937 -0.3503 -0.2958
 5454SOL     OW27994   3.803   1.067   4.659  0.1894 -0.1501  0.2016
 5454SOL    HW127995   3.884   1.067   4.710  0.4433  2.5119 -0.1715
 5454SOL    HW227996   3.810   0.984   4.613  1.8681 -0.0969  0.3445
 5455SOL     OW27997   1.808   2.011   6.486 -0.2075  0.0150  0.6592
 5455SOL    HW127998   1.762   2.071   6.428  0.7789  0.0890 -0.0484
 5455SOL    HW227999   1.770   2.039   6.570 -0.5072  0.4260  0.3883
 5456SOL     OW28000   3.592   1.899  12.784 -0.3810  0.1670  0.4785
 5456SOL    HW128001   3.667   1.839  12.790  0.5671  1.2788 -0.2543
 5456SOL    HW228002   3.619   1.963  12.718 -2.9296 -0.5478 -1.2433
 5457SOL     OW28003   2.511   0.288   8.562  0.2012 -0.0709  0.1923
 5457SOL    HW128004   2.510   0.311   8.655 -2.1698 -1.6859  0.5789
 5457SOL    HW228005   2.515   0.374   8.520 -0.4890  0.3260  0.9351
 5458SOL     OW28006   2.336   2.000  10.946 -0.5214  0.0771 -0.3877
 5458SOL    HW128007   2.297   2.068  10.892 -0.4459  0.2728 -0.1962
 5458SOL    HW228008   2.425   2.012  10.913 -0.7837  1.4511 -0.6055
 5459SOL     OW28009   2.533   1.941   4.164 -0.3399  0.3940  0.0505
 5459SOL    HW128010   2.584   1.878   4.112 -0.9890  0.3474 -0.5353
 5459SOL    HW228011   2.574   2.024   4.141  2.0072 -1.2482 -1.7602
 5460SOL     OW28012   2.583   4.169  17.199 -0.6766 -0.2195 -0.3605
 5460SOL    HW128013   2.523   4.128  17.262  0.7523 -3.0866 -0.9054
 5460SOL    HW228014   2.617   4.089  17.160  0.1626  0.4620 -1.0177
 5461SOL     OW28015   4.042   1.220   0.876  0.0229 -0.0714 -0.4184
 5461SOL    HW128016   4.071   1.310   0.860 -0.6392  0.1085 -0.6087
 5461SOL    HW228017   4.005   1.208   0.789 -2.1779 -2.7951  0.9075
 5462SOL     OW28018   0.529   2.822  14.863 -0.4611  0.0896 -0.1903
 5462SOL    HW128019   0.504   2.736  14.828 -0.2760  0.4539 -1.2058
 5462SOL    HW228020   0.622   2.840  14.851 -0.8646  1.6658 -0.9208
 5463SOL     OW28021   3.244   1.178   5.907 -0.0382 -0.3912  0.3140
 5463SOL    HW128022   3.286   1.092   5.904  1.3561  0.3556 -1.5175
 5463SOL    HW228023   3.240   1.197   5.813 -0.1382  1.6127  0.7318
 5464SOL     OW28024   3.382   4.287   8.755  0.1881 -0.2548 -0.3322
 5464SOL    HW128025   3.331   4.215   8.794 -1.2357  0.5648 -0.6700
 5464SOL    HW228026   3.316   4.354   8.733  0.5332 -0.2124 -1.2201
 5465SOL     OW28027   1.598   0.998  10.557  0.2257  0.0144 -0.0845
 5465SOL    HW128028   1.593   1.027  10.466 -2.3797  0.9266  0.3636
 5465SOL    HW228029   1.654   1.068  10.592 -0.4443  0.1703  0.6867
 5466SOL     OW28030   3.862   0.924   3.934  0.3413 -0.4338 -0.1486
 5466SOL    HW128031   3.895   0.959   3.851 -1.0943 -2.4336 -1.5489
 5466SOL    HW228032   3.767   0.928   3.923  0.4787  0.1597 -1.1645
 5467SOL     OW28033   3.630   3.808  13.945 -0.1350 -0.1801 -0.0581
 5467SOL    HW128034   3.653   3.866  14.017 -3.6176  0.5270  0.4766
 5467SOL    HW228035   3.553   3.850  13.907  0.9334  2.5682  0.7731
 5468SOL     OW28036   0.194   1.256  11.896 -0.4301 -0.4734  0.1939
 5468SOL    HW128037   0.109   1.214  11.882  0.3852 -1.2944 -2.4320
 5468SOL    HW228038   0.247   1.179  11.873  1.3315  0.6511  0.5224
 5469SOL     OW28039   1.566   0.162   2.851 -0.4392 -0.1326  0.0250
 5469SOL    HW128040   1.535   0.081   2.811 -0.9613 -0.5109  1.2087
 5469SOL    HW228041   1.566   0.134   2.943  1.3110  0.3475  0.1823
 5470SOL     OW28042   2.540   2.146   7.636  0.7340  0.2919  0.0451
 5470SOL    HW128043   2.584   2.211   7.581  3.8744 -1.0290  1.0178
 5470SOL    HW228044   2.610   2.080   7.633  1.6600  1.3658 -2.4824
 5471SOL     OW28045   3.181   3.659   6.481  0.2553 -0.4364 -0.2602
 5471SOL    HW128046   3.144   3.571   6.488 -0.6370  0.0254  0.8903
 5471SOL    HW228047   3.135   3.688   6.402 -0.0833  3.9318  1.5450
 5472SOL     OW28048   1.169   0.681   8.967  0.0012  0.1559 -0.7304
 5472SOL    HW128049   1.218   0.701   9.047 -1.8014  0.0225  0.4116
 5472SOL    HW228050   1.228   0.711   8.898 -0.6049 -0.1720 -1.3812
 5473SOL     OW28051   1.297   1.462  11.212 -0.0029 -0.4022  0.4725
 5473SOL    HW128052   1.272   1.518  11.139 -0.8601 -0.3461  0.8143
 5473SOL    HW228053   1.385   1.490  11.237 -0.2802  0.3617  0.5760
 5474SOL     OW28054   1.090   0.468  15.756  0.3940 -0.7110 -0.2777
 5474SOL    HW128055   1.046   0.426  15.830 -0.8594  0.0939 -0.5648
 5474SOL    HW228056   1.144   0.537  15.794  0.0418 -1.3291  1.3306
 5475SOL     OW28057   1.676   1.499   9.507 -0.2534  0.8866 -0.1537
 5475SOL    HW128058   1.612   1.456   9.451 -1.4300  1.5852  0.6584
 5475SOL    HW228059   1.745   1.433   9.498  2.2155  3.3663  0.6332
 5476SOL     OW28060   1.218   4.423  15.902  0.0653 -0.3747 -0.0183
 5476SOL    HW128061   1.314   4.429  15.910 -0.0254 -1.2660  1.7380
 5476SOL    HW228062   1.203   4.334  15.934 -1.2766 -0.6861 -1.5540
 5477SOL     OW28063   0.062   3.017   7.302  0.5283  0.0243 -0.4180
 5477SOL    HW128064   0.129   3.081   7.325  0.2146  0.3201 -0.3158
 5477SOL    HW228065   0.112   2.940   7.277 -1.9933 -2.2790  1.5834
 5478SOL     OW28066   3.872   3.085   3.850 -0.2125 -0.1538 -0.1664
 5478SOL    HW128067   3.851   3.176   3.830 -0.0437 -0.5343 -2.0998
 5478SOL    HW228068   3.780   3.057   3.856  0.4620 -2.2907  0.3213
 5479SOL     OW28069   1.127   3.130   6.345  0.5733  0.1566 -0.4958
 5479SOL    HW128070   1.215   3.107   6.375  0.7072 -1.4838 -2.1101
 5479SOL    HW228071   1.081   3.057   6.387  0.0779 -0.3969 -2.0046
 5480SOL     OW28072   0.445   2.823   5.989  0.1937 -0.1916  0.3555
 5480SOL    HW128073   0.436   2.845   6.082 -1.7182 -1.7685  0.5343
 5480SOL    HW228074   0.485   2.736   5.990 -0.4086 -0.4552  2.1835
 5481SOL     OW28075   0.734   2.706  12.795  0.4635  0.3846  0.2671
 5481SOL    HW128076   0.656   2.757  12.817  0.5012  1.7359 -2.7089
 5481SOL    HW228077   0.809   2.760  12.819  2.1466 -0.4645 -3.0046
 5482SOL     OW28078   3.411   2.276   3.025 -0.6809 -0.0974  0.8199
 5482SOL    HW128079   3.327   2.233   3.007 -0.2612 -0.1186 -1.0693
 5482SOL    HW228080   3.462   2.202   2.994 -1.8617 -1.1724  1.4068
 5483SOL     OW28081   3.874   1.515  11.509  0.2226 -0.0531 -0.4952
 5483SOL    HW128082   3.868   1.510  11.604  0.5539  1.5113 -0.3844
 5483SOL    HW228083   3.965   1.485  11.510  0.5902  1.0197 -1.4816
 5484SOL     OW28084   1.304   1.122   8.280  0.2808 -0.4963  0.0273
 5484SOL    HW128085   1.334   1.090   8.365  3.4342  1.0782 -0.5158
 5484SOL    HW228086   1.358   1.201   8.279 -0.0515 -0.2827 -1.2375
 5485SOL     OW28087   3.598   4.361  17.015  0.0435 -0.8610 -0.7217
 5485SOL    HW128088   3.566   4.426  16.952 -0.8984 -0.8644 -0.2365
 5485SOL    HW228089   3.587   4.409  17.097 -0.8902 -0.3084 -1.1611
 5486SOL     OW28090   3.839   1.281  16.697 -0.1725 -0.0321  0.1243
 5486SOL    HW128091   3.862   1.215  16.763  0.7317 -1.3939 -1.5365
 5486SOL    HW228092   3.845   1.364  16.744  1.9777 -0.1761  0.1354
 5487SOL     OW28093   3.620   1.114   5.160 -0.1674 -0.2250  0.6047
 5487SOL    HW128094   3.613   1.102   5.065  1.0118 -1.9479  0.7358
 5487SOL    HW228095   3.712   1.133   5.177 -0.2350 -1.2020  2.0665
 5488SOL     OW28096   0.417   1.058  10.184 -0.0961  0.0504 -0.2126
 5488SOL    HW128097   0.499   1.014  10.164  0.4885  0.0465  2.1052
 5488SOL    HW228098   0.457   1.130  10.233 -1.0261  0.3496  0.1025
 5489SOL     OW28099   0.386   1.853   5.878  0.3135  0.2750  0.0967
 5489SOL    HW128100   0.467   1.866   5.928 -0.4444  1.4383  1.0508
 5489SOL    HW228101   0.370   1.944   5.852  2.4134 -0.1016 -2.4951
 5490SOL     OW28102   0.049   0.116   7.087  0.3616 -0.0693  0.0435
 5490SOL    HW128103   0.057   0.165   7.169  0.1906 -0.0543  0.0512
 5490SOL    HW228104   0.003   0.180   7.033  2.5362  2.5499  1.3297
 5491SOL     OW28105   3.007   1.056   7.684  0.0146  0.1301 -0.7082
 5491SOL    HW128106   2.934   1.008   7.723  1.4035 -0.8226  0.6923
 5491SOL    HW228107   2.980   1.055   7.593 -1.8630  2.4867 -0.2012
 5492SOL     OW28108   2.406   4.328   3.977  0.2568  0.0723 -0.4674
 5492SOL    HW128109   2.393   4.413   4.019 -1.8538 -0.5907  0.2192
 5492SOL    HW228110   2.430   4.356   3.888 -0.3398  1.4658 -0.1897
 5493SOL     OW28111   2.042   4.019   8.421 -0.4893 -0.2004  0.3641
 5493SOL    HW128112   2.122   4.031   8.370 -0.8635  0.5739 -0.0341
 5493SOL    HW228113   2.001   4.100   8.394  2.4584  0.9110 -0.8213
 5494SOL     OW28114   2.482   2.653  11.931 -0.0900  0.0016  0.2353
 5494SOL    HW128115   2.494   2.563  11.960  1.2988 -0.0773 -0.5971
 5494SOL    HW228116   2.399   2.646  11.883 -1.8421  3.8592  2.6317
 5495SOL     OW28117   2.621   0.774  14.490  0.1665 -0.2811  0.1993
 5495SOL    HW128118   2.697   0.752  14.436 -0.3325 -0.3163 -0.4915
 5495SOL    HW228119   2.590   0.858  14.458 -1.7963 -1.6664 -1.5305
 5496SOL     OW28120   1.770   2.513  16.999 -0.6492  0.1590 -0.4502
 5496SOL    HW128121   1.744   2.602  16.974  0.5911  0.1991 -1.6139
 5496SOL    HW228122   1.703   2.460  16.955 -0.9217 -0.5138  0.7927
 5497SOL     OW28123   4.665   0.615  15.138  0.0282 -0.1355  0.0312
 5497SOL    HW128124   0.007   0.617  15.088 -0.8714  0.5803 -1.3980
 5497SOL    HW228125   4.645   0.524  15.115 -3.5216  0.7668 -0.4810
 5498SOL     OW28126   3.242   1.783   7.501  0.6687  0.3399 -0.0088
 5498SOL    HW128127   3.190   1.807   7.578 -1.0656  1.3208 -1.4757
 5498SOL    HW228128   3.205   1.843   7.437  1.9651  0.1973 -0.8827
 5499SOL     OW28129   2.612   0.357  12.307 -0.3290  0.1388  0.4056
 5499SOL    HW128130   2.628   0.264  12.291  1.7146  1.1867 -3.8131
 5499SOL    HW228131   2.666   0.369  12.385 -1.1968 -0.6762  1.1316
 5500SOL     OW28132   1.763   0.627  12.985  0.1625 -0.6985 -0.3145
 5500SOL    HW128133   1.734   0.709  12.945 -0.2943 -0.7823 -0.1589
 5500SOL    HW228134   1.855   0.627  12.959  0.3704  0.0621  0.4034
 5501SOL     OW28135   0.217   4.294   5.901  0.1596 -0.1697 -0.0864
 5501SOL    HW128136   0.204   4.386   5.881  0.0901 -0.2852 -0.5731
 5501SOL    HW228137   0.291   4.301   5.962 -1.2901  1.1382  1.4942
 5502SOL     OW28138   0.438   3.698   7.252  0.9765 -0.3705  0.1986
 5502SOL    HW128139   0.439   3.616   7.301  2.1971  0.2333  1.1679
 5502SOL    HW228140   0.392   3.751   7.317 -0.9515 -1.1336 -0.5366
 5503SOL     OW28141   1.561   0.356  15.869 -0.0485  0.1308 -0.2803
 5503SOL    HW128142   1.586   0.297  15.797 -2.2906  0.2511 -1.1622
 5503SOL    HW228143   1.576   0.441  15.828  1.5707 -0.3087 -0.6034
 5504SOL     OW28144   0.509   4.337   2.764  0.0855  0.2155  0.6730
 5504SOL    HW128145   0.497   4.261   2.821 -3.4798  1.9353  2.2457
 5504SOL    HW228146   0.439   4.389   2.805 -0.2353  0.5338 -0.2838
 5505SOL     OW28147   4.007   0.224   8.015  0.1735 -0.8235 -0.0007
 5505SOL    HW128148   4.070   0.249   7.948 -0.6527  1.8469  0.2482
 5505SOL    HW228149   3.963   0.302   8.048 -0.1073 -1.1514  0.4055
 5506SOL     OW28150   4.697   3.501  15.306  0.2803 -0.2523 -0.3028
 5506SOL    HW128151   4.642   3.544  15.240 -0.2966  0.6004  0.7267
 5506SOL    HW228152   4.738   3.430  15.257  0.1122  1.2542 -2.6198
 5507SOL     OW28153   2.050   1.561  13.964  0.3864 -0.5718 -0.0164
 5507SOL    HW128154   2.049   1.624  13.892 -1.2883 -0.6876 -0.0788
 5507SOL    HW228155   2.137   1.520  13.959  0.5087 -0.1886 -1.1016
 5508SOL     OW28156   1.667   2.858  14.322  0.0688 -1.0006  0.1725
 5508SOL    HW128157   1.607   2.816  14.384 -1.1208  1.7236  0.8622
 5508SOL    HW228158   1.734   2.789  14.325 -1.2875 -2.3894 -1.1643
 5509SOL     OW28159   1.206   0.210  14.583 -0.7429  0.1668 -0.1336
 5509SOL    HW128160   1.136   0.164  14.537 -0.5798 -0.2608  0.0447
 5509SOL    HW228161   1.267   0.145  14.617 -0.9069  0.9946  1.7274
 5510SOL     OW28162   2.582   4.289   5.071  0.3657  0.4802 -0.3267
 5510SOL    HW128163   2.645   4.338   5.018 -0.0570  1.2948 -0.0649
 5510SOL    HW228164   2.504   4.311   5.019  1.0552  1.9860 -0.7062
 5511SOL     OW28165   4.477   3.313   0.621 -0.3548 -0.5063  0.2890
 5511SOL    HW128166   4.403   3.290   0.565 -0.1706  1.2309 -0.6643
 5511SOL    HW228167   4.524   3.230   0.630  2.7828  1.2107 -0.4494
 5512SOL     OW28168   0.435   2.099   6.979  0.2818  0.5077  0.3347
 5512SOL    HW128169   0.370   2.126   7.045 -0.5637  2.0691 -1.1236
 5512SOL    HW228170   0.518   2.140   7.003 -0.1854  0.3008  2.3444
 5513SOL     OW28171   0.289   3.671   5.026 -0.2335 -0.5828  0.3712
 5513SOL    HW128172   0.363   3.652   5.083  0.3774  0.1879 -0.1729
 5513SOL    HW228173   0.259   3.587   4.989 -0.3412 -0.5412  0.3633
 5514SOL     OW28174   3.724   3.218   0.477  0.2112  0.4693  0.2274
 5514SOL    HW128175   3.668   3.255   0.409 -0.3898  0.1235  0.5256
 5514SOL    HW228176   3.698   3.286   0.539 -1.3191  1.6664 -1.7606
 5515SOL     OW28177   3.883   0.711   6.339  0.1149 -0.2093 -0.2584
 5515SOL    HW128178   3.927   0.627   6.337 -2.1741 -1.4130 -0.2439
 5515SOL    HW228179   3.922   0.746   6.419  1.9071 -0.3763 -1.0645
 5516SOL     OW28180   1.110   3.084   7.219 -0.5093 -0.0886  0.0510
 5516SOL    HW128181   1.040   3.020   7.212  1.2955 -2.2388  1.8510
 5516SOL    HW228182   1.183   3.046   7.170 -0.1965  1.4949 -0.7314
 5517SOL     OW28183   3.883   1.795   0.638 -0.2342 -0.4553  0.0968
 5517SOL    HW128184   3.842   1.783   0.723 -0.3238  1.5078  0.3476
 5517SOL    HW228185   3.937   1.716   0.637 -1.1784 -1.0997  1.2523
 5518SOL     OW28186   0.902   1.397  17.329 -0.1698  0.0283  0.0595
 5518SOL    HW128187   0.954   1.477  17.318  0.2290 -0.3865 -1.0758
 5518SOL    HW228188   0.956   1.344  17.386 -0.7494 -0.4740  0.1440
 5519SOL     OW28189   4.388   3.605   8.770  0.1494 -0.2052  0.7437
 5519SOL    HW128190   4.383   3.669   8.840  0.4167 -0.4408  0.9792
 5519SOL    HW228191   4.454   3.638   8.709 -0.4039  1.1890  0.9008
 5520SOL     OW28192   2.428   1.172   4.284  0.2530 -0.3689 -0.3573
 5520SOL    HW128193   2.346   1.129   4.259 -0.5135  0.0989  1.3126
 5520SOL    HW228194   2.421   1.180   4.380 -1.9140  1.6250 -0.6644
 5521SOL     OW28195   1.595   3.502   5.158  0.4550  1.0782  0.6295
 5521SOL    HW128196   1.656   3.576   5.161 -0.6918  1.9701  1.8161
 5521SOL    HW228197   1.628   3.453   5.233 -1.7406  1.0730  1.5990
 5522SOL     OW28198   4.017   2.496   2.043  0.1447  0.4724  0.3315
 5522SOL    HW128199   3.960   2.495   1.966  1.5138 -0.0574 -0.6802
 5522SOL    HW228200   4.015   2.402   2.061 -0.4499  0.3439 -0.3839
 5523SOL     OW28201   0.440   1.265   9.893  0.2469  0.2489  0.4224
 5523SOL    HW128202   0.409   1.349   9.859 -2.2321 -0.9896 -0.3895
 5523SOL    HW228203   0.503   1.239   9.826  1.0192  1.0832  0.8314
 5524SOL     OW28204   0.053   3.677   6.330 -0.3721 -0.2044  0.2359
 5524SOL    HW128205   4.734   3.616   6.285 -0.1840 -0.3200  0.1470
 5524SOL    HW228206   0.089   3.733   6.261 -1.2192 -0.0606 -0.0807
 5525SOL     OW28207   0.704   4.200  13.798 -0.2161  0.0794 -0.3995
 5525SOL    HW128208   0.709   4.294  13.780  0.4208  0.0192 -0.5652
 5525SOL    HW228209   0.778   4.189  13.857 -0.8812 -0.5659  0.3054
 5526SOL     OW28210   0.234   4.612  17.481 -0.0399 -0.5490 -0.4507
 5526SOL    HW128211   0.272   4.698  17.464 -0.2899 -0.4117 -0.3204
 5526SOL    HW228212   0.142   4.631  17.464  0.0565 -0.4816 -0.8731
 5527SOL     OW28213   0.128   4.361   3.461 -0.0550  0.2339 -0.2617
 5527SOL    HW128214   0.048   4.389   3.417 -0.4883  1.5359  1.3648
 5527SOL    HW228215   0.087   4.347   3.546 -0.3317 -1.2880 -0.6451
 5528SOL     OW28216   4.112   0.251   9.779 -0.5485 -0.2580  0.3344
 5528SOL    HW128217   4.054   0.272   9.705  0.6370 -1.9906 -1.0831
 5528SOL    HW228218   4.123   0.337   9.821 -1.5774 -1.4751  3.1199
 5529SOL     OW28219   3.560   3.007   5.854 -0.2067 -0.4854 -0.1209
 5529SOL    HW128220   3.497   3.077   5.839  0.4393  0.0562 -0.3114
 5529SOL    HW228221   3.613   3.032   5.930 -0.1763  0.6854 -0.5425
 5530SOL     OW28222   1.365   4.648   0.196  0.0280 -0.0732 -0.6191
 5530SOL    HW128223   1.345   4.673   0.286 -0.0498 -1.3807 -0.2727
 5530SOL    HW228224   1.315   4.566   0.191  0.9366 -0.6385 -0.3859
 5531SOL     OW28225   3.190   3.046   7.746  0.2670  0.2378  0.4571
 5531SOL    HW128226   3.168   2.983   7.815 -0.9550 -0.3762 -0.4870
 5531SOL    HW228227   3.284   3.028   7.751  0.2552  0.5541  1.6574
 5532SOL     OW28228   0.847   4.261   4.911  0.0804  0.1585 -0.2786
 5532SOL    HW128229   0.826   4.187   4.968  0.6220  0.4401  0.2983
 5532SOL    HW228230   0.764   4.307   4.919 -0.0196 -0.2535  1.0124
 5533SOL     OW28231   1.425   1.514  14.023 -0.1421  0.8463 -0.5390
 5533SOL    HW128232   1.387   1.427  14.031  0.8649  0.4530  0.0622
 5533SOL    HW228233   1.416   1.549  14.112 -0.1508 -3.2598  1.1054
 5534SOL     OW28234   3.140   2.074   4.499 -0.4630 -0.3169  0.1497
 5534SOL    HW128235   3.191   2.050   4.576  0.4460 -1.5410 -0.8344
 5534SOL    HW228236   3.066   2.115   4.544  0.1429  1.0263 -0.0615
 5535SOL     OW28237   4.340   2.167   8.258 -0.7687  0.3066 -0.8905
 5535SOL    HW128238   4.405   2.097   8.258  1.2822  2.2218  1.6137
 5535SOL    HW228239   4.389   2.244   8.231 -1.6637  1.5486  1.0277
 5536SOL     OW28240   1.297   0.095   5.758 -0.2483  0.4134  0.2104
 5536SOL    HW128241   1.293   0.109   5.663  3.4057  0.2564  0.0151
 5536SOL    HW228242   1.280   0.001   5.762 -1.7762  0.5232 -3.3561
 5537SOL     OW28243   4.370   2.008   7.223 -0.0236  0.5476 -0.7977
 5537SOL    HW128244   4.288   2.052   7.203 -0.1895  1.2879  1.4651
 5537SOL    HW228245   4.391   2.019   7.316 -1.1624 -2.2298 -0.2264
 5538SOL     OW28246   2.476   3.083   4.154 -0.3886 -0.1279  0.7321
 5538SOL    HW128247   2.521   3.051   4.076 -2.0020 -0.0847 -0.2046
 5538SOL    HW228248   2.408   3.018   4.168  0.2409 -0.5926  1.6374
 5539SOL     OW28249   3.717   3.281   2.225  0.1390 -0.0023 -0.4535
 5539SOL    HW128250   3.776   3.352   2.248 -1.5029  0.5678  1.9655
 5539SOL    HW228251   3.708   3.237   2.310  1.3222  1.4178  0.4152
 5540SOL     OW28252   2.315   2.922   1.282 -0.6174 -0.0789  0.0536
 5540SOL    HW128253   2.274   2.904   1.366 -0.0774 -0.7867  0.1624
 5540SOL    HW228254   2.287   3.010   1.255  1.6143  0.7962  0.6557
 5541SOL     OW28255   2.520   0.179   0.896  0.0852  0.3337 -0.3113
 5541SOL    HW128256   2.597   0.124   0.902 -0.1622  0.2004  1.7360
 5541SOL    HW228257   2.488   0.198   0.984  0.3483  1.6631 -0.4930
 5542SOL     OW28258   1.150   3.767  16.701  0.4732  0.0898  0.3952
 5542SOL    HW128259   1.102   3.712  16.639  0.3393  0.1649  0.4324
 5542SOL    HW228260   1.106   3.852  16.694 -1.1021 -0.7023  0.7768
 5543SOL     OW28261   2.413   2.332  10.965  0.1317  0.0889 -0.2519
 5543SOL    HW128262   2.426   2.388  11.041  1.4523  0.0377 -0.4298
 5543SOL    HW228263   2.334   2.281  10.982  0.4986 -0.3722  0.0882
 5544SOL     OW28264   4.400   4.429   9.973 -0.8751 -0.2984 -0.6848
 5544SOL    HW128265   4.353   4.345   9.977  1.5604 -1.7227 -1.9438
 5544SOL    HW228266   4.345   4.477   9.911 -0.8336  2.2034  1.2478
 5545SOL     OW28267   4.559   0.737   1.378 -0.1399  0.1802 -0.2022
 5545SOL    HW128268   4.553   0.773   1.289 -2.4347  0.1452 -0.0467
 5545SOL    HW228269   4.520   0.650   1.375 -0.9097  0.5057  0.4747
 5546SOL     OW28270   2.733   1.759   1.126  0.1678  0.5151 -0.7522
 5546SOL    HW128271   2.800   1.722   1.184  1.4951  2.1544 -1.2238
 5546SOL    HW228272   2.653   1.720   1.161  0.9346  0.9745  1.5665
 5547SOL     OW28273   1.075   3.529   8.122  0.0084 -0.2486  0.7893
 5547SOL    HW128274   1.049   3.467   8.054  0.2115  1.0815 -0.4884
 5547SOL    HW228275   1.101   3.600   8.063  0.1947  1.9024  3.4310
 5548SOL     OW28276   0.546   2.357   7.745 -0.3687 -0.1343  0.1861
 5548SOL    HW128277   0.472   2.314   7.704 -0.0549 -0.0330 -0.4773
 5548SOL    HW228278   0.574   2.404   7.667  1.3922 -1.1109  0.2293
 5549SOL     OW28279   0.792   0.185   1.784 -0.1920  0.1379  0.3233
 5549SOL    HW128280   0.786   0.261   1.726  0.9751  0.2232  0.2949
 5549SOL    HW228281   0.793   0.229   1.869  0.1813  1.8027 -0.5375
 5550SOL     OW28282   3.917   0.415   7.306  0.0267  0.6941 -0.1363
 5550SOL    HW128283   3.954   0.371   7.230 -1.1822  0.3190 -0.4944
 5550SOL    HW228284   3.829   0.439   7.277 -0.1165  1.2686  0.7621
 5551SOL     OW28285   4.421   2.017  16.170 -0.1211  0.0658  0.2344
 5551SOL    HW128286   4.485   2.084  16.195 -0.2488 -0.0078  0.7574
 5551SOL    HW228287   4.401   1.973  16.253 -2.5316  2.5320  0.9972
 5552SOL     OW28288   0.078   4.633  11.281  0.0040 -0.0144  0.5368
 5552SOL    HW128289   0.053   4.541  11.283  0.0571 -0.1415 -3.8728
 5552SOL    HW228290   0.166   4.642  11.317  0.1086  0.4959  0.1632
 5553SOL     OW28291   1.505   2.456   6.899  0.1895 -0.5018  0.1374
 5553SOL    HW128292   1.590   2.444   6.942  0.9401  1.1319 -0.9215
 5553SOL    HW228293   1.494   2.548   6.875 -1.3168 -0.2413  1.8287
 5554SOL     OW28294   3.952   4.012   6.037  0.2469  0.0166 -0.2903
 5554SOL    HW128295   4.034   4.047   6.001  0.6569  0.8057  1.3864
 5554SOL    HW228296   3.963   4.036   6.129 -1.6900 -0.1981 -0.0013
 5555SOL     OW28297   1.778   1.596   4.225 -0.2053  0.1141  0.2926
 5555SOL    HW128298   1.834   1.581   4.301  0.5361  4.2794  0.5410
 5555SOL    HW228299   1.706   1.650   4.259 -0.9078 -0.0431 -0.9576
 5556SOL     OW28300   4.472   0.433   8.223  0.0296  0.2203 -0.2735
 5556SOL    HW128301   4.394   0.411   8.275 -1.3298  2.8439 -1.2231
 5556SOL    HW228302   4.432   0.512   8.188  1.7297  1.7837  1.3032
 5557SOL     OW28303   0.581   1.697   2.636 -0.5697  0.7465 -0.1041
 5557SOL    HW128304   0.673   1.723   2.644  0.3128 -2.2714 -0.3481
 5557SOL    HW228305   0.593   1.623   2.575 -4.3374  0.0620 -0.0063
 5558SOL     OW28306   4.374   0.583   1.008 -0.4998 -0.2679  0.4493
 5558SOL    HW128307   4.401   0.495   1.033 -0.9922 -0.1994  1.2415
 5558SOL    HW228308   4.403   0.589   0.917  0.5388 -1.8123  0.6881
 5559SOL     OW28309   1.297   3.461  15.718 -0.2780  0.4388  0.3145
 5559SOL    HW128310   1.332   3.549  15.708  0.6473 -0.1653 -1.7244
 5559SOL    HW228311   1.211   3.490  15.747 -1.4372 -0.3343 -2.3619
 5560SOL     OW28312   2.883   3.792   8.849 -0.5709  0.5091  0.4326
 5560SOL    HW128313   2.891   3.884   8.874  1.7334  0.3068  0.4816
 5560SOL    HW228314   2.892   3.754   8.936 -2.0075 -0.8327  0.0035
 5561SOL     OW28315   2.782   4.010  16.754  0.6299  0.0981 -0.2708
 5561SOL    HW128316   2.812   4.015  16.663  0.5880 -1.7223 -0.3677
 5561SOL    HW228317   2.821   4.096  16.772  0.4925 -0.0834  0.8690
 5562SOL     OW28318   4.060   3.269   4.888 -0.0109 -0.4718 -0.1046
 5562SOL    HW128319   3.993   3.228   4.943  0.5381 -0.8558  0.2778
 5562SOL    HW228320   4.139   3.236   4.931 -0.9574 -1.9078  0.5361
 5563SOL     OW28321   4.429   1.290   5.848  0.2344  0.3525  0.0797
 5563SOL    HW128322   4.523   1.307   5.859  0.2147  0.6191 -0.1744
 5563SOL    HW228323   4.399   1.308   5.936  0.0042 -0.1714  0.1074
 5564SOL     OW28324   4.231   0.042   7.199  0.2117  0.5667 -0.1989
 5564SOL    HW128325   4.167   0.034   7.128  3.0410 -0.7446 -2.5595
 5564SOL    HW228326   4.314   0.027   7.156 -1.4013 -1.4064 -2.6185
 5565SOL     OW28327   0.506   0.301   6.908  0.4478 -0.4619 -0.5981
 5565SOL    HW128328   0.598   0.277   6.922 -0.1609 -1.6597  1.3638
 5565SOL    HW228329   0.514   0.354   6.829  0.8980  0.4803  0.0666
 5566SOL     OW28330   2.200   4.253  17.278  0.4033  0.1628  0.5373
 5566SOL    HW128331   2.165   4.333  17.240 -4.3720 -1.2027  2.0599
 5566SOL    HW228332   2.171   4.199  17.205 -1.1771 -0.1461  1.3865
 5567SOL     OW28333   4.561   1.089   7.442  0.1174 -0.2039  0.5648
 5567SOL    HW128334   4.498   1.096   7.370 -1.3997 -1.0572  1.7955
 5567SOL    HW228335   4.586   1.182   7.445  0.5651 -0.3744  2.0205
 5568SOL     OW28336   0.446   4.601   3.165  0.1425 -0.0735  0.3785
 5568SOL    HW128337   0.419   4.516   3.200 -0.3879 -0.7095 -1.5506
 5568SOL    HW228338   0.381   4.657   3.209 -0.0212  0.8342 -1.0026
 5569SOL     OW28339   2.605   3.512   8.016 -0.3386 -0.2534 -0.1585
 5569SOL    HW128340   2.687   3.514   8.066  0.1542 -0.1443 -0.9758
 5569SOL    HW228341   2.545   3.543   8.084 -0.3550 -3.0210  1.0848
 5570SOL     OW28342   3.220   1.006  10.793 -0.4580 -0.3206 -0.8026
 5570SOL    HW128343   3.147   1.060  10.822  1.2325  1.2621  0.5579
 5570SOL    HW228344   3.222   1.009  10.698  1.4786  3.1848 -0.6645
 5571SOL     OW28345   1.721   1.670   1.388  0.4377 -0.1432 -0.1890
 5571SOL    HW128346   1.635   1.651   1.426  0.5994  0.8900  0.6760
 5571SOL    HW228347   1.724   1.765   1.395 -0.2269 -0.2633  1.7955
 5572SOL     OW28348   3.114   1.456   1.616  0.4559  0.3478  0.5046
 5572SOL    HW128349   3.157   1.512   1.551 -2.9620  0.9901 -1.2200
 5572SOL    HW228350   3.104   1.376   1.564  1.1242 -0.1303  1.1267
 5573SOL     OW28351   0.757   2.460  13.806  0.7104 -0.2030 -0.1426
 5573SOL    HW128352   0.735   2.553  13.816 -0.8151 -0.5275 -0.4335
 5573SOL    HW228353   0.675   2.427  13.844  1.1791 -0.7228  0.4167
 5574SOL     OW28354   2.843   2.348   2.247  0.2921  0.0325  0.3174
 5574SOL    HW128355   2.832   2.255   2.229 -2.2859  0.7209 -1.6928
 5574SOL    HW228356   2.772   2.343   2.311 -0.8063 -1.1402 -0.9894
 5575SOL     OW28357   1.512   3.897   8.370 -0.5890  0.5527 -0.5202
 5575SOL    HW128358   1.567   3.820   8.353 -1.9666 -0.4592 -0.4200
 5575SOL    HW228359   1.563   3.958   8.423  1.1380 -2.4952  1.3743
 5576SOL     OW28360   4.277   1.582   2.901  0.9385 -0.1299  0.1157
 5576SOL    HW128361   4.333   1.647   2.944 -2.2986  1.6322  1.7110
 5576SOL    HW228362   4.190   1.617   2.921  0.5545 -0.7525 -0.4827
 5577SOL     OW28363   0.201   0.391   3.154  0.0620  0.1071 -0.4591
 5577SOL    HW128364   0.153   0.345   3.085 -0.3483  0.2094 -0.2418
 5577SOL    HW228365   0.287   0.352   3.140 -0.0272 -0.1998 -0.1407
 5578SOL     OW28366   0.571   3.205   4.146  0.1183  0.0285  0.7091
 5578SOL    HW128367   0.617   3.214   4.063  0.7605 -1.6393  0.8732
 5578SOL    HW228368   0.547   3.113   4.154 -0.7021  0.2162  0.3957
 5579SOL     OW28369   4.249   3.319   7.436 -0.4756  0.2811 -0.5096
 5579SOL    HW128370   4.275   3.227   7.437  2.0529  1.0475  1.7439
 5579SOL    HW228371   4.306   3.353   7.367  1.3455 -1.3974  0.1749
 5580SOL     OW28372   1.718   1.218   7.969 -0.1785  0.3157 -0.3238
 5580SOL    HW128373   1.790   1.240   7.911  1.2261 -0.8638  0.9705
 5580SOL    HW228374   1.744   1.131   7.999 -0.5771  0.3940  0.2777
 5581SOL     OW28375   2.039   4.673  16.555 -0.4298 -0.6037  0.4439
 5581SOL    HW128376   2.083   4.680  16.640 -0.0757 -1.2857  0.3155
 5581SOL    HW228377   2.049   0.022  16.520 -0.9685 -0.3131  1.0216
 5582SOL     OW28378   0.089   1.010   2.529  0.0630 -0.2182  0.0176
 5582SOL    HW128379   0.163   1.072   2.524 -0.1273 -0.0590 -0.8282
 5582SOL    HW228380   0.078   0.986   2.620 -4.8045 -2.1437 -1.1227
 5583SOL     OW28381   3.479   3.335   9.097 -0.1019  0.4349  0.0779
 5583SOL    HW128382   3.549   3.337   9.032  0.4324 -1.3361  0.5957
 5583SOL    HW228383   3.413   3.334   9.028 -0.3729 -0.3035  0.3458
 5584SOL     OW28384   2.415   3.233   9.393 -0.0878  0.0997 -0.2985
 5584SOL    HW128385   2.471   3.216   9.468 -0.2101  0.1251 -0.2013
 5584SOL    HW228386   2.350   3.164   9.405 -0.0271  0.1488  0.2990
 5585SOL     OW28387   4.019   2.891   3.938 -0.4383 -0.1250  0.2422
 5585SOL    HW128388   3.960   2.951   3.891 -0.4933  0.1131  0.6199
 5585SOL    HW228389   4.097   2.946   3.931 -0.9289  0.4731 -0.7226
 5586SOL     OW28390   3.218   4.251   2.865 -0.0440 -0.6117  0.3165
 5586SOL    HW128391   3.153   4.263   2.796 -0.1111 -0.6458  0.3741
 5586SOL    HW228392   3.237   4.345   2.865  3.8052 -1.4230 -1.7689
 5587SOL     OW28393   0.465   3.658  14.873  0.6041  0.4745  0.0039
 5587SOL    HW128394   0.536   3.723  14.874  3.3077 -2.4713  2.9312
 5587SOL    HW228395   0.460   3.625  14.784  1.1265 -1.6713  0.7810
 5588SOL     OW28396   4.591   4.668   7.384 -0.1449 -0.0475  0.1713
 5588SOL    HW128397   4.659   4.645   7.320 -0.8247 -2.8809  0.4910
 5588SOL    HW228398   4.538   4.590   7.393  2.7355 -2.0543 -0.2720
 5589SOL     OW28399   3.743   1.420  10.546  0.2720 -0.1424 -0.2693
 5589SOL    HW128400   3.748   1.362  10.622  1.4211 -1.0822 -1.0800
 5589SOL    HW228401   3.816   1.478  10.569  0.5011 -0.5799  0.0992
 5590SOL     OW28402   4.241   3.098  15.051 -0.1034 -0.1241  0.3843
 5590SOL    HW128403   4.285   3.113  15.135 -1.2615  1.0464  0.7777
 5590SOL    HW228404   4.295   3.025  15.020 -2.3618 -1.3923 -0.5251
 5591SOL     OW28405   4.307   0.082   9.649  0.3748  0.0675 -0.0469
 5591SOL    HW128406   4.247   0.143   9.690  0.4754  0.7354 -0.8978
 5591SOL    HW228407   4.378   0.142   9.625 -1.1099  1.5480 -0.7042
 5592SOL     OW28408   2.011   0.885  16.872  0.1268  0.6260 -0.1230
 5592SOL    HW128409   1.986   0.798  16.905  0.2097  0.7329  0.2277
 5592SOL    HW228410   2.093   0.901  16.919  0.6467 -2.6610  0.1087
 5593SOL     OW28411   1.104   2.476   4.421 -0.2108 -0.5353 -0.4234
 5593SOL    HW128412   1.186   2.518   4.396 -1.5932  2.1514 -0.3753
 5593SOL    HW228413   1.044   2.543   4.387  1.6110  0.6974 -1.1812
 5594SOL     OW28414   0.571   0.425   4.869 -0.5505 -0.3427 -0.1094
 5594SOL    HW128415   0.605   0.488   4.807 -1.3222  2.8057  2.6859
 5594SOL    HW228416   0.601   0.350   4.817  0.9370 -0.2376  0.5783
 5595SOL     OW28417   4.018   3.221  14.975  0.1582 -0.0308  0.6078
 5595SOL    HW128418   3.966   3.198  15.052 -1.0585  1.7211  0.3093
 5595SOL    HW228419   4.080   3.148  14.977 -0.3768 -0.4850  0.5108
 5596SOL     OW28420   4.613   0.129   6.498 -0.5226 -0.1584 -0.4665
 5596SOL    HW128421   4.702   0.095   6.503  0.4402  2.5048  0.5860
 5596SOL    HW228422   4.560   0.053   6.475 -0.1250 -0.8854  1.0309
 5597SOL     OW28423   4.431   4.637   6.500  0.3409  0.5452  0.3697
 5597SOL    HW128424   4.376   4.646   6.578  0.4015 -1.3240  0.6194
 5597SOL    HW228425   4.511   4.604   6.541 -0.4714 -1.9097 -0.0174
 5598SOL     OW28426   2.230   4.529  15.731 -0.2298  0.5300 -0.0475
 5598SOL    HW128427   2.227   4.433  15.741  1.1547  0.5898  1.0038
 5598SOL    HW228428   2.199   4.566  15.813 -1.4955 -0.6572  0.0197
 5599SOL     OW28429   1.467   3.844   5.330  0.0014 -0.1975  0.0145
 5599SOL    HW128430   1.495   3.888   5.250 -1.8365  2.3976  0.7947
 5599SOL    HW228431   1.456   3.751   5.310 -0.2753 -0.0827 -0.3546
 5600SOL     OW28432   1.134   2.727   7.416 -0.0467 -0.0131  0.2427
 5600SOL    HW128433   1.193   2.800   7.430  1.9623 -1.2051 -2.0158
 5600SOL    HW228434   1.177   2.663   7.472  1.7233  1.0127  0.0410
 5601SOL     OW28435   4.237   3.004   8.158  0.4127  0.4275  0.6540
 5601SOL    HW128436   4.196   2.926   8.120  2.1604 -1.0648  1.8187
 5601SOL    HW228437   4.314   2.970   8.202  0.6699 -0.3287 -0.3830
 5602SOL     OW28438   1.289   0.630  15.865  0.0255 -0.4571  0.2411
 5602SOL    HW128439   1.262   0.720  15.848 -2.5158 -0.9721  1.5859
 5602SOL    HW228440   1.384   0.637  15.874  0.0133  2.2189 -1.6997
 5603SOL     OW28441   1.136   2.955   1.711 -0.2186 -0.3091  0.5580
 5603SOL    HW128442   1.056   2.991   1.675  1.0695  0.2933 -1.7135
 5603SOL    HW228443   1.143   3.016   1.784  2.0295  0.7862 -0.5625
 5604SOL     OW28444   1.874   1.586  10.382 -0.1092  0.0934  0.0597
 5604SOL    HW128445   1.845   1.670  10.347 -0.4942  0.5168  1.3896
 5604SOL    HW228446   1.961   1.570  10.345  0.5885  0.3517  1.5706
 5605SOL     OW28447   2.640   2.747  14.010 -0.8242  0.0780 -0.0228
 5605SOL    HW128448   2.615   2.675  14.068  0.6315  0.3111  0.8904
 5605SOL    HW228449   2.548   2.771  13.995 -1.0886 -1.9286 -1.7266
 5606SOL     OW28450   2.888   3.660  11.198 -0.2174  0.0918 -0.0324
 5606SOL    HW128451   2.896   3.573  11.159  0.9097  0.4163 -0.5217
 5606SOL    HW228452   2.793   3.671  11.204 -0.1025 -0.1691  1.9967
 5607SOL     OW28453   1.184   0.255  11.895 -0.1398  0.5831  0.6441
 5607SOL    HW128454   1.223   0.304  11.967  0.3601 -0.9847  1.4361
 5607SOL    HW228455   1.131   0.316  11.843  0.9145  1.5367  0.7023
 5608SOL     OW28456   0.958   0.716  17.347 -0.3617 -0.1853  0.5341
 5608SOL    HW128457   0.954   0.678  17.259 -0.1646  0.7622  0.1139
 5608SOL    HW228458   0.897   0.790  17.351  0.7176  0.7423 -0.5091
 5609SOL     OW28459   0.010   0.551   6.981  0.2065  0.7206 -0.4849
 5609SOL    HW128460   4.720   0.537   7.071 -0.3695 -3.5296 -1.3133
 5609SOL    HW228461   4.667   0.562   6.934  0.1320  0.7013 -0.3585
 5610SOL     OW28462   2.148   1.920  10.399 -0.1665 -0.0598 -0.2109
 5610SOL    HW128463   2.052   1.916  10.396 -0.1321 -1.1055  0.1329
 5610SOL    HW228464   2.163   2.000  10.449 -0.5302  1.1534 -2.0443
 5611SOL     OW28465   4.646   0.203   5.998 -0.5803  0.4104  0.1559
 5611SOL    HW128466   4.726   0.165   6.034 -0.3390  1.0106  0.2565
 5611SOL    HW228467   4.593   0.125   6.013  0.3254 -0.9334 -3.5556
 5612SOL     OW28468   4.227   2.852  13.310  0.3653  0.2051  0.1802
 5612SOL    HW128469   4.148   2.813  13.272 -0.0352  0.9712  0.2311
 5612SOL    HW228470   4.188   2.912  13.374 -2.0074 -1.0104 -0.1319
 5613SOL     OW28471   1.154   4.594   3.626 -0.1482  0.0819 -0.1853
 5613SOL    HW128472   1.109   4.675   3.602  1.0874  0.7123 -0.3469
 5613SOL    HW228473   1.186   4.550   3.548 -2.0303  1.7661 -1.8855
 5614SOL     OW28474   1.024   0.298   8.730 -0.1197 -0.2539  0.5953
 5614SOL    HW128475   0.976   0.361   8.785  0.4588 -0.1449  0.9668
 5614SOL    HW228476   1.091   0.265   8.789  0.2067  1.1117  1.0094
 5615SOL     OW28477   0.564   2.426   9.941 -0.6952 -0.3635 -0.2511
 5615SOL    HW128478   0.584   2.490  10.009 -1.4999 -1.1848  0.7602
 5615SOL    HW228479   0.473   2.443   9.919 -0.5035  1.1281  0.1289
 5616SOL     OW28480   3.904   1.480   9.340 -0.0662  0.3626  0.1479
 5616SOL    HW128481   3.896   1.472   9.435  0.1596 -0.5394  0.0956
 5616SOL    HW228482   3.992   1.515   9.330  0.8128 -1.2888  2.1359
 5617SOL     OW28483   1.856   3.438  17.433  0.1329 -0.3985  0.3928
 5617SOL    HW128484   1.931   3.494  17.455 -0.6618  0.6240  0.5399
 5617SOL    HW228485   1.893   3.350  17.436 -1.5893 -1.0138  3.1370
 5618SOL     OW28486   3.325   0.199   4.660 -0.2932 -0.0251  0.4274
 5618SOL    HW128487   3.373   0.121   4.688  3.5609  1.9333 -0.7276
 5618SOL    HW228488   3.272   0.219   4.737 -2.3878 -1.5351 -0.6532
 5619SOL     OW28489   2.404   1.193   9.248 -0.0308  0.0436 -0.4456
 5619SOL    HW128490   2.371   1.267   9.299 -1.1812 -0.8762  0.1572
 5619SOL    HW228491   2.483   1.229   9.209 -0.2999  2.0788  0.9076
 5620SOL     OW28492   2.941   2.430   3.875 -0.7722  0.2861 -0.4433
 5620SOL    HW128493   2.878   2.502   3.887 -1.8814 -0.6826 -0.4351
 5620SOL    HW228494   2.882   2.365   3.913  1.9376 -0.9667  1.6058
 5621SOL     OW28495   2.201   0.936   0.106 -0.2610  0.3807  0.2372
 5621SOL    HW128496   2.171   0.944   0.196  2.1111 -1.5476  1.1809
 5621SOL    HW228497   2.263   0.866   0.126  0.9040  0.7502 -2.0688
 5622SOL     OW28498   1.972   1.710   5.829 -0.8362 -0.0524  1.3157
 5622SOL    HW128499   1.880   1.715   5.801 -0.5347  0.4005  0.4113
 5622SOL    HW228500   1.996   1.802   5.832  2.7283 -0.9963  1.3425
 5623SOL     OW28501   0.037   0.446  14.573  0.1421  0.3036 -0.0922
 5623SOL    HW128502   0.084   0.529  14.572  2.1716 -0.8450 -1.7159
 5623SOL    HW228503   4.705   0.455  14.511 -0.1561 -1.6323 -0.0395
 5624SOL     OW28504   3.202   1.901   8.876 -0.0265 -0.0542  0.2282
 5624SOL    HW128505   3.242   1.815   8.861 -1.2450 -0.6152  0.2069
 5624SOL    HW228506   3.238   1.960   8.810 -0.1294  0.7689  0.9165
 5625SOL     OW28507   0.130   0.408   1.496  0.3371  0.5421 -0.0209
 5625SOL    HW128508   0.203   0.450   1.542  2.5829 -3.4820  0.1580
 5625SOL    HW228509   0.167   0.420   1.408  0.3121  1.8487  0.1574
 5626SOL     OW28510   3.064   3.088  11.813 -0.3568  0.2482 -0.4212
 5626SOL    HW128511   3.081   3.170  11.767 -1.4373  0.8903  0.3364
 5626SOL    HW228512   3.152   3.050  11.810 -0.8405 -0.8326 -1.2589
 5627SOL     OW28513   2.263   0.455  13.457 -0.5533 -0.3701 -0.0632
 5627SOL    HW128514   2.183   0.504  13.438  1.1991  1.8834 -1.6462
 5627SOL    HW228515   2.324   0.503  13.400 -1.0238 -0.1378 -0.3693
 5628SOL     OW28516   4.291   4.653   9.431  0.4190  1.0566  0.0272
 5628SOL    HW128517   4.277   4.574   9.483  0.5534  0.7968 -0.3390
 5628SOL    HW228518   4.285   4.719   9.501  0.5485  0.0562  0.9796
 5629SOL     OW28519   2.031   1.791   2.931  0.2447  0.2322  0.0151
 5629SOL    HW128520   2.069   1.850   2.866 -1.4821  0.0367 -1.1845
 5629SOL    HW228521   1.957   1.843   2.962 -0.6270 -1.6551  1.1272
 5630SOL     OW28522   1.858   4.078  14.809  0.0985  0.2350  0.1445
 5630SOL    HW128523   1.777   4.123  14.783 -0.1846 -0.6982 -0.5699
 5630SOL    HW228524   1.829   4.001  14.859  0.9001  0.7813  1.4644
 5631SOL     OW28525   2.148   2.326   3.300  0.0602  0.0064 -0.3521
 5631SOL    HW128526   2.178   2.257   3.241 -2.0402 -3.5227  2.7336
 5631SOL    HW228527   2.096   2.275   3.362 -0.0408 -0.0251 -0.4653
 5632SOL     OW28528   4.246   0.392  10.096 -0.3084 -0.0836  0.0156
 5632SOL    HW128529   4.263   0.428  10.009 -1.4239  0.1829 -0.0988
 5632SOL    HW228530   4.291   0.451  10.156 -1.1200 -0.8503  1.3927
 5633SOL     OW28531   3.908   1.257  17.527 -0.6312 -0.3289 -0.3611
 5633SOL    HW128532   3.884   1.339  17.486 -0.7406  0.4305  1.2093
 5633SOL    HW228533   3.985   1.230  17.477 -0.9218  1.8315 -1.9601
 5634SOL     OW28534   1.633   4.255  12.409 -0.0035 -0.2738 -0.4411
 5634SOL    HW128535   1.574   4.282  12.480  1.2337  0.0627  0.4763
 5634SOL    HW228536   1.595   4.305  12.337  2.1697 -0.4631 -1.7011
 5635SOL     OW28537   0.258   1.503   5.015  0.1165 -0.2407 -0.0080
 5635SOL    HW128538   0.337   1.521   4.964 -0.5160 -2.0799 -1.6342
 5635SOL    HW228539   0.229   1.421   4.974  2.5632 -0.8956 -0.4109
 5636SOL     OW28540   1.399   4.601   9.463  1.2712  0.3720 -0.5587
 5636SOL    HW128541   1.435   4.526   9.510  2.7478  2.2961  1.4047
 5636SOL    HW228542   1.317   4.556   9.441  0.3100  2.2277 -0.7945
 5637SOL     OW28543   2.205   0.155   2.096  0.1193 -0.1294  0.4022
 5637SOL    HW128544   2.217   0.094   2.169  0.0293 -0.6764 -0.0404
 5637SOL    HW228545   2.294   0.167   2.065 -0.3132 -2.7646 -1.8811
 5638SOL     OW28546   4.240   2.911   4.854  0.5175 -0.5728 -0.0296
 5638SOL    HW128547   4.185   2.904   4.932  1.1023 -0.9580  0.3503
 5638SOL    HW228548   4.182   2.856   4.802 -0.0798  0.4203 -0.4313
 5639SOL     OW28549   3.365   2.201   3.305  0.0973 -0.2824  0.1442
 5639SOL    HW128550   3.444   2.243   3.339  1.0502 -1.2419 -0.9468
 5639SOL    HW228551   3.356   2.245   3.221  1.4815 -0.9730 -0.3507
 5640SOL     OW28552   3.027   3.402   8.203  0.0929  0.4309 -0.3691
 5640SOL    HW128553   3.043   3.314   8.168 -0.2984 -0.6819  2.2443
 5640SOL    HW228554   2.942   3.427   8.167  0.0371 -0.1186 -0.6285
 5641SOL     OW28555   2.020   3.888   3.848  0.7921 -0.0469 -0.1556
 5641SOL    HW128556   1.985   3.954   3.907  1.6145  0.9941 -0.8344
 5641SOL    HW228557   1.964   3.817   3.880  1.0887 -0.3417 -0.2850
 5642SOL     OW28558   3.127   4.065  16.920  0.6761 -0.3349 -0.2896
 5642SOL    HW128559   3.189   4.131  16.889  1.3235 -1.7000 -1.8958
 5642SOL    HW228560   3.117   4.066  17.015  1.0957 -2.4549 -0.2255
 5643SOL     OW28561   4.437   2.160   7.903 -0.2800 -0.4257  0.0611
 5643SOL    HW128562   4.417   2.111   7.823  0.2487  2.0525 -1.6037
 5643SOL    HW228563   4.499   2.103   7.947 -0.3619  0.2707  1.0690
 5644SOL     OW28564   0.112   3.979   2.514  0.4160 -0.0526 -0.3371
 5644SOL    HW128565   0.023   3.960   2.485  0.1970  0.2824  0.1135
 5644SOL    HW228566   0.092   4.037   2.588 -1.4767  0.4335 -1.2344
 5645SOL     OW28567   3.294   1.937   4.700 -0.7396  0.3662  0.1246
 5645SOL    HW128568   3.338   2.010   4.745  2.1856 -0.7250 -0.9362
 5645SOL    HW228569   3.369   1.887   4.667 -0.6694 -0.3115  1.3272
 5646SOL     OW28570   3.633   4.505   3.461 -0.8729 -0.2354  0.6027
 5646SOL    HW128571   3.620   4.426   3.513  0.7006 -1.1384 -0.3629
 5646SOL    HW228572   3.546   4.525   3.426 -0.7789 -1.6988 -0.4544
 5647SOL     OW28573   2.743   3.108  10.016 -0.5269 -0.1750  0.2548
 5647SOL    HW128574   2.764   3.186  10.068 -0.0090 -0.4653  0.4747
 5647SOL    HW228575   2.823   3.060  10.035  0.2592  1.1835  0.4166
 5648SOL     OW28576   4.445   0.050  10.967  0.0356  0.1906  0.2852
 5648SOL    HW128577   4.503   0.019  10.897  2.8672  1.0128  2.2957
 5648SOL    HW228578   4.506   0.054  11.040  1.2322  0.9689 -0.7713
 5649SOL     OW28579   2.034   2.906   2.236  0.3933 -0.3103  0.3865
 5649SOL    HW128580   1.978   2.872   2.305  2.3776 -2.9357  0.6841
 5649SOL    HW228581   2.021   2.838   2.170 -0.8413 -0.9892  1.3302
 5650SOL     OW28582   0.592   3.133   1.677  0.1254  0.7922  0.1660
 5650SOL    HW128583   0.679   3.173   1.676  1.0173 -1.1233  0.1160
 5650SOL    HW228584   0.539   3.198   1.722 -1.9991 -1.3544  0.8098
 5651SOL     OW28585   0.233   0.659   2.415  0.9574 -0.4667 -0.4253
 5651SOL    HW128586   0.244   0.693   2.504 -0.6086 -0.7310 -0.1306
 5651SOL    HW228587   0.216   0.744   2.375  1.0237  0.0212  0.5568
 5652SOL     OW28588   4.232   1.560   8.087 -0.2552  0.4815  0.7151
 5652SOL    HW128589   4.249   1.605   8.170 -1.8393  0.1105  1.2481
 5652SOL    HW228590   4.314   1.512   8.074 -0.4837 -0.0262  1.1184
 5653SOL     OW28591   0.277   0.510   7.355 -0.4770  0.9898  0.3054
 5653SOL    HW128592   0.341   0.472   7.295 -2.4393 -1.2547 -0.3870
 5653SOL    HW228593   0.319   0.594   7.369  0.8653  0.4051 -0.2295
 5654SOL     OW28594   4.432   3.660   7.747 -0.1377  0.1617  0.2042
 5654SOL    HW128595   4.454   3.571   7.719 -1.7379 -0.3416  0.5376
 5654SOL    HW228596   4.364   3.638   7.810  1.2667 -0.6898  1.4181
 5655SOL     OW28597   3.928   1.618   5.842  0.1233 -0.1419  0.0491
 5655SOL    HW128598   3.954   1.650   5.929 -2.2432 -0.7613  0.9953
 5655SOL    HW228599   4.016   1.608   5.805  0.4291 -1.9731  1.2585
 5656SOL     OW28600   2.603   1.636   4.353  0.4821 -0.3180  0.1296
 5656SOL    HW128601   2.528   1.633   4.413 -1.4671 -1.8435 -2.3487
 5656SOL    HW228602   2.664   1.572   4.387 -0.3380 -0.5638  1.1318
 5657SOL     OW28603   1.361   2.257   1.620  0.5779 -0.2032  0.1080
 5657SOL    HW128604   1.315   2.191   1.672 -2.2647  1.7921  0.1227
 5657SOL    HW228605   1.287   2.309   1.589 -1.1463 -3.5808 -1.4037
 5658SOL     OW28606   0.421   0.552   5.901 -0.1394  0.7735 -0.9197
 5658SOL    HW128607   0.497   0.571   5.957  1.1295 -1.4791 -1.8881
 5658SOL    HW228608   0.375   0.635   5.915 -1.6917 -0.0655 -1.0137
 5659SOL     OW28609   2.226   1.118  13.699 -0.1349 -0.7076 -1.0297
 5659SOL    HW128610   2.263   1.031  13.682 -0.7115 -1.2722  0.5961
 5659SOL    HW228611   2.184   1.098  13.783  0.5275 -0.3272 -0.6070
 5660SOL     OW28612   3.947   3.392   6.265  0.3165  0.0116 -0.1112
 5660SOL    HW128613   4.038   3.370   6.282 -0.2827 -0.9816  1.9258
 5660SOL    HW228614   3.911   3.304   6.251 -3.4785  1.2308  2.0217
 5661SOL     OW28615   4.032   0.299   7.102  0.0823  0.6498  0.5911
 5661SOL    HW128616   4.027   0.368   7.035  0.4559  1.2001  1.1304
 5661SOL    HW228617   4.061   0.227   7.047 -2.3475 -0.5284  0.8311
 5662SOL     OW28618   1.987   3.988   5.324  0.5015  0.0564  0.4409
 5662SOL    HW128619   1.919   3.956   5.264 -0.7134  2.7923  0.3537
 5662SOL    HW228620   2.035   3.907   5.344 -1.9454 -2.0455 -2.1050
 5663SOL     OW28621   3.766   4.199   6.011 -0.3031  0.1794 -0.6948
 5663SOL    HW128622   3.736   4.108   6.012  0.7088 -0.1491  0.9832
 5663SOL    HW228623   3.795   4.205   5.920  0.9675 -1.8749 -0.4285
 5664SOL     OW28624   3.883   0.878   6.119  0.1349  0.1669  0.2118
 5664SOL    HW128625   3.873   0.813   6.189  0.3114  0.6128  0.6533
 5664SOL    HW228626   3.797   0.865   6.079 -0.5069 -1.7241  2.1885
 5665SOL     OW28627   0.450   1.493   5.627  0.2115  1.0185 -0.5422
 5665SOL    HW128628   0.466   1.579   5.588  2.2568  0.5382 -0.8036
 5665SOL    HW228629   0.409   1.517   5.710 -0.1075 -0.8862 -0.1512
 5666SOL     OW28630   1.042   1.879   1.725 -0.5642 -0.4611  0.3935
 5666SOL    HW128631   1.057   1.790   1.760 -0.8625 -0.2854  0.9735
 5666SOL    HW228632   1.061   1.861   1.633  1.4993  0.8654  0.5598
 5667SOL     OW28633   4.264   3.119  12.592  0.0431  0.3249 -0.4094
 5667SOL    HW128634   4.237   3.033  12.624  1.1709 -0.3592 -1.2766
 5667SOL    HW228635   4.250   3.181  12.663  0.7972 -0.6230  0.5630
 5668SOL     OW28636   4.053   1.740   4.101 -0.4519 -0.1830 -0.5646
 5668SOL    HW128637   3.981   1.710   4.046 -0.8846  0.9885 -0.6266
 5668SOL    HW228638   4.055   1.664   4.159  0.1899 -0.6141 -1.1512
 5669SOL     OW28639   1.061   0.010  11.944 -0.0655  0.4889  0.2149
 5669SOL    HW128640   1.111   0.090  11.931 -2.6123  1.5325 -3.0125
 5669SOL    HW228641   1.096   4.726  12.030  1.1590 -1.0978 -0.7026
 5670SOL     OW28642   2.810   3.339  13.278  0.1553 -0.3396 -0.2648
 5670SOL    HW128643   2.727   3.298  13.255 -0.6476  0.1984  1.6599
 5670SOL    HW228644   2.780   3.429  13.287 -0.0517 -0.7952  4.0449
 5671SOL     OW28645   2.421   0.811   7.643 -0.5026  0.2336 -0.1235
 5671SOL    HW128646   2.325   0.818   7.644 -0.6620 -1.0725 -4.0584
 5671SOL    HW228647   2.445   0.735   7.590 -2.5024  0.9129 -2.0274
 5672SOL     OW28648   1.843   0.066  17.534  0.1761 -0.3729  0.3244
 5672SOL    HW128649   1.786   0.036  17.464  1.5565  0.8264 -1.3338
 5672SOL    HW228650   1.805   0.008  17.600 -2.8279 -0.7477 -1.7466
 5673SOL     OW28651   1.692   1.865   1.629 -0.0427 -0.0111 -0.2908
 5673SOL    HW128652   1.713   1.952   1.662 -0.2691  0.0710 -0.3602
 5673SOL    HW228653   1.705   1.882   1.535  1.7210 -0.8181 -0.1968
 5674SOL     OW28654   3.315   2.924  17.575 -0.2552 -0.4008  0.3380
 5674SOL    HW128655   3.367   2.994  17.615 -0.3824 -0.5375  0.7452
 5674SOL    HW228656   3.232   2.968  17.555 -0.4554 -0.3055  1.3767
 5675SOL     OW28657   3.494   1.267  11.101 -0.5573 -0.4072 -0.0470
 5675SOL    HW128658   3.496   1.233  11.012  0.4666  0.4981 -0.3743
 5675SOL    HW228659   3.459   1.356  11.094 -0.1532 -0.3119 -0.8122
 5676SOL     OW28660   3.932   4.649   5.451  0.1119 -0.4086  0.3992
 5676SOL    HW128661   3.886   4.636   5.368 -0.7830  1.1492  0.6544
 5676SOL    HW228662   4.016   4.620   5.416 -0.1827  1.2705 -1.7242
 5677SOL     OW28663   3.404   0.999  16.007 -0.1280  0.3363  0.2821
 5677SOL    HW128664   3.389   1.089  16.036 -1.8562 -0.4216  1.7276
 5677SOL    HW228665   3.475   1.012  15.944 -0.7738 -2.6593 -1.0667
 5678SOL     OW28666   0.053   2.829   8.143 -0.1653 -0.4203  0.1107
 5678SOL    HW128667   0.030   2.877   8.222 -1.9174 -2.5925  0.9074
 5678SOL    HW228668   0.034   2.889   8.071  0.6847  0.7559  0.8685
 5679SOL     OW28669   0.426   1.727   8.687  0.4693  0.4185 -0.4404
 5679SOL    HW128670   0.461   1.779   8.759 -0.1194  0.5851 -0.2768
 5679SOL    HW228671   0.497   1.665   8.670  0.2759  0.3843 -1.1238
 5680SOL     OW28672   2.455   4.195   3.589 -0.2086  0.4136 -0.2610
 5680SOL    HW128673   2.375   4.248   3.598 -0.2817  0.7548 -3.0385
 5680SOL    HW228674   2.431   4.140   3.515  0.9802 -0.8232  0.2695
 5681SOL     OW28675   2.624   0.387   1.056  0.1802  0.3823  0.3736
 5681SOL    HW128676   2.703   0.333   1.059  0.9568  1.4488 -1.5629
 5681SOL    HW228677   2.597   0.377   0.965  0.5113  0.8313  0.2318
 5682SOL     OW28678   1.466   1.462   3.815 -0.1298 -0.3520 -0.5541
 5682SOL    HW128679   1.508   1.546   3.836 -0.4313 -0.5078  0.7213
 5682SOL    HW228680   1.538   1.410   3.780  0.6651  0.8269 -0.6751
 5683SOL     OW28681   0.482   3.561  14.626  0.3334 -0.2825  0.2549
 5683SOL    HW128682   0.437   3.500  14.567 -0.4295  1.2921 -0.7950
 5683SOL    HW228683   0.493   3.641  14.575  2.5453  0.3365  1.7420
 5684SOL     OW28684   0.376   1.669  13.525  1.5336 -0.0816 -0.2685
 5684SOL    HW128685   0.425   1.612  13.585  0.9964 -1.8866 -1.5241
 5684SOL    HW228686   0.313   1.717  13.578  0.3536  0.5014 -2.1948
 5685SOL     OW28687   1.198   3.903   9.394  0.1265  0.0820 -0.2080
 5685SOL    HW128688   1.217   3.996   9.383 -1.5556  0.3499 -0.7154
 5685SOL    HW228689   1.214   3.899   9.488 -0.6080 -1.9585 -0.1697
 5686SOL     OW28690   2.839   1.809  11.636 -0.0587 -0.7667  0.4255
 5686SOL    HW128691   2.753   1.771  11.657 -0.4992 -1.0521 -1.9305
 5686SOL    HW228692   2.828   1.818  11.541  0.7178  0.9022  0.4874
 5687SOL     OW28693   1.810   2.044   4.444  0.8037 -0.2451 -0.0152
 5687SOL    HW128694   1.848   2.127   4.473 -0.1546 -0.0365  0.6389
 5687SOL    HW228695   1.857   2.044   4.361  0.4767 -0.7992 -0.2028
 5688SOL     OW28696   2.781   1.286   0.415  0.0480 -0.6392 -0.3595
 5688SOL    HW128697   2.765   1.371   0.457  0.1096 -2.1544  2.6818
 5688SOL    HW228698   2.859   1.303   0.361  0.0572 -1.2187 -0.5234
 5689SOL     OW28699   4.296   0.866   3.743 -0.1121  0.6274 -0.1310
 5689SOL    HW128700   4.312   0.934   3.809 -0.0134  2.1677 -1.7404
 5689SOL    HW228701   4.213   0.892   3.704 -0.9016 -0.0302  1.1008
 5690SOL     OW28702   0.769   4.297   3.494  0.2544  0.5247  0.1136
 5690SOL    HW128703   0.833   4.364   3.519  0.4825  0.7948 -1.1464
 5690SOL    HW228704   0.699   4.334   3.439 -2.4288 -0.8458  2.6219
 5691SOL     OW28705   0.801   4.618  10.235  0.6947 -0.2732 -0.1980
 5691SOL    HW128706   0.710   4.647  10.225  0.5997 -0.8887 -1.1146
 5691SOL    HW228707   0.841   4.700  10.264 -2.2666  0.3220  2.1898
 5692SOL     OW28708   3.856   0.693   7.407  0.1370 -0.1764  0.1873
 5692SOL    HW128709   3.830   0.655   7.491 -0.8731 -2.6300 -1.2411
 5692SOL    HW228710   3.833   0.616   7.356  0.8366  0.5523 -1.2450
 5693SOL     OW28711   1.815   3.833   3.155  0.4030  0.1650 -0.1446
 5693SOL    HW128712   1.768   3.753   3.179  0.7234  0.3975  1.2734
 5693SOL    HW228713   1.751   3.901   3.179 -0.0727 -0.4985  0.4782
 5694SOL     OW28714   1.103   4.338  11.071 -0.1024  0.0155 -0.3937
 5694SOL    HW128715   1.051   4.270  11.027  0.2236 -1.3694  1.3486
 5694SOL    HW228716   1.037   4.407  11.073 -1.9027 -1.7638  2.3642
 5695SOL     OW28717   1.830   0.318   1.430  0.2699  0.2661  0.1148
 5695SOL    HW128718   1.871   0.403   1.414 -1.3267  0.7681 -1.2800
 5695SOL    HW228719   1.746   0.351   1.461  0.7015  1.7817 -0.3297
 5696SOL     OW28720   1.021   2.988   8.655 -0.2640 -0.0166  0.3981
 5696SOL    HW128721   0.970   3.070   8.652 -0.9312 -0.4921 -1.7838
 5696SOL    HW228722   1.095   3.029   8.700 -0.6532  0.7577  0.3449
 5697SOL     OW28723   0.920   1.833   1.953 -0.5814  0.8565 -1.1077
 5697SOL    HW128724   0.968   1.894   2.008  1.0587 -0.8727 -0.6287
 5697SOL    HW228725   0.964   1.851   1.870  2.8077 -1.1154  0.2711
 5698SOL     OW28726   3.829   1.504   8.120  0.1502 -0.5178 -0.1902
 5698SOL    HW128727   3.736   1.499   8.145  0.2012 -1.6169 -0.2130
 5698SOL    HW228728   3.832   1.548   8.035 -0.0593  1.3739  0.7724
 5699SOL     OW28729   0.589   1.405  10.113  0.0632  0.1874 -0.2073
 5699SOL    HW128730   0.588   1.357  10.195 -1.3130 -0.6705 -0.7261
 5699SOL    HW228731   0.539   1.342  10.060  0.1767 -2.4697  2.8359
 5700SOL     OW28732   3.697   0.552   9.395 -0.4723  0.2242  0.5840
 5700SOL    HW128733   3.609   0.590   9.395 -0.8075 -0.5627 -3.3764
 5700SOL    HW228734   3.673   0.461   9.380  0.7171  0.2824 -1.7485
 5701SOL     OW28735   2.104   4.434   6.833 -0.3494 -0.2239 -0.5085
 5701SOL    HW128736   2.096   4.490   6.911  2.2455  0.1303 -0.4832
 5701SOL    HW228737   2.144   4.503   6.780 -0.0912  0.2646  0.3112
 5702SOL     OW28738   4.394   2.839   8.328 -0.0792 -0.3803  0.3125
 5702SOL    HW128739   4.328   2.828   8.397 -0.0307 -0.4195  0.3525
 5702SOL    HW228740   4.443   2.757   8.335  0.7020  0.0133 -0.6072
 5703SOL     OW28741   4.486   0.224   5.429  0.1334 -0.4769  0.3027
 5703SOL    HW128742   4.400   0.199   5.463  0.0994  0.2626  0.7551
 5703SOL    HW228743   4.550   0.186   5.489  2.1305 -0.6715 -1.9561
 5704SOL     OW28744   0.687   2.421   7.474  0.0810 -0.0342  0.8613
 5704SOL    HW128745   0.712   2.514   7.474 -1.6915  0.4386  1.0379
 5704SOL    HW228746   0.705   2.400   7.383 -1.6682  1.5852  0.1542
 5705SOL     OW28747   0.891   3.604   4.695 -0.4057  0.3467 -0.3664
 5705SOL    HW128748   0.857   3.682   4.740  0.9534  0.6253  0.1677
 5705SOL    HW228749   0.969   3.587   4.747 -1.3363 -2.8424 -0.0083
 5706SOL     OW28750   1.878   4.461   9.515  0.2780 -0.3394 -0.0821
 5706SOL    HW128751   1.882   4.554   9.539  3.2045 -0.8505  1.4929
 5706SOL    HW228752   1.835   4.455   9.430  0.2418 -1.7811  0.0386
 5707SOL     OW28753   0.759   2.542   4.548  0.7125  0.1751 -0.1077
 5707SOL    HW128754   0.825   2.599   4.508  1.7765 -0.1926  1.1322
 5707SOL    HW228755   0.711   2.607   4.600 -0.8182 -1.2651  0.2590
 5708SOL     OW28756   1.524   1.809   9.834 -0.1579  0.2449  0.2166
 5708SOL    HW128757   1.518   1.756   9.754 -1.4273 -2.4903  2.1325
 5708SOL    HW228758   1.464   1.884   9.829 -0.9741 -0.3825  0.6268
 5709SOL     OW28759   3.796   2.764  14.977  0.1210  0.2070 -0.0500
 5709SOL    HW128760   3.854   2.745  15.051 -0.2073 -0.6995 -0.0236
 5709SOL    HW228761   3.861   2.792  14.913 -1.5638  0.9046 -1.4666
 5710SOL     OW28762   4.498   1.895   5.059  0.1987  0.1463  0.2859
 5710SOL    HW128763   4.414   1.880   5.102  0.7217 -4.3343 -0.2110
 5710SOL    HW228764   4.545   1.812   5.061  0.2397  0.1169 -1.9392
 5711SOL     OW28765   0.520   0.025   5.434 -0.0050 -0.7656 -0.4427
 5711SOL    HW128766   0.520   0.025   5.529  0.7660 -2.5293 -0.4338
 5711SOL    HW228767   0.534   4.671   5.415 -3.4067 -1.0027 -1.6897
 5712SOL     OW28768   1.972   4.624   8.487 -0.2832  0.0967 -0.6520
 5712SOL    HW128769   2.036   4.633   8.416  0.7991  0.5153  0.3793
 5712SOL    HW228770   1.900   4.666   8.439  0.1684  0.3280 -1.1191
 5713SOL     OW28771   0.677   2.841   8.141 -0.0888 -0.3190 -0.3519
 5713SOL    HW128772   0.683   2.879   8.229 -1.5705  2.3318 -1.4080
 5713SOL    HW228773   0.604   2.888   8.101  0.4450  0.2699 -0.6244
 5714SOL     OW28774   3.679   1.166   7.639  0.2654  0.3211  0.4472
 5714SOL    HW128775   3.726   1.092   7.600 -2.7157 -1.1223 -0.4270
 5714SOL    HW228776   3.643   1.209   7.562  1.0549  2.3083  1.2083
 5715SOL     OW28777   4.425   1.839   7.800 -0.2174  0.1388 -0.1730
 5715SOL    HW128778   4.500   1.791   7.834 -1.9150 -2.7468 -0.5014
 5715SOL    HW228779   4.353   1.775   7.808  0.7110 -1.2042 -2.5903
 5716SOL     OW28780   2.915   3.841   5.411 -0.5002  0.7938  0.3478
 5716SOL    HW128781   2.850   3.879   5.469 -0.6444  0.4483  0.4151
 5716SOL    HW228782   2.895   3.884   5.328 -1.2380 -0.6668 -0.2447
 5717SOL     OW28783   1.481   1.950   8.997 -0.3758 -0.0481  0.3610
 5717SOL    HW128784   1.461   1.887   8.928 -0.4620 -0.2086  0.5345
 5717SOL    HW228785   1.551   2.001   8.955 -0.3532 -1.2721 -1.1015
 5718SOL     OW28786   1.086   3.547   3.436  0.0049 -0.0907  0.1345
 5718SOL    HW128787   1.088   3.598   3.517 -0.5427 -0.3680  0.3185
 5718SOL    HW228788   1.173   3.508   3.437  0.0965  0.0430 -3.6992
 5719SOL     OW28789   0.063   3.850  17.189 -0.5030 -0.1425 -0.1274
 5719SOL    HW128790   0.049   3.857  17.094  3.4400 -1.5534 -0.8193
 5719SOL    HW228791   0.068   3.942  17.216  0.0134 -0.0493 -0.5298
 5720SOL     OW28792   3.000   0.343   8.852 -0.2941 -0.5809 -0.4636
 5720SOL    HW128793   3.040   0.338   8.938  0.6407 -0.3120 -0.8803
 5720SOL    HW228794   3.050   0.416   8.816 -0.0673 -1.0407 -1.0860
 5721SOL     OW28795   1.186   4.563  17.182  0.3858  0.5322 -0.2204
 5721SOL    HW128796   1.213   4.611  17.260 -0.0632 -0.3733  0.4779
 5721SOL    HW228797   1.184   4.638  17.122 -0.1903  1.3053  0.7884
 5722SOL     OW28798   0.594   3.977   2.390  0.5395  0.2638  0.2058
 5722SOL    HW128799   0.627   4.045   2.448 -1.5433  1.8858 -0.5268
 5722SOL    HW228800   0.506   3.970   2.426 -0.3411  0.5864 -1.8876
 5723SOL     OW28801   0.117   0.587  10.027 -0.0584 -0.6524 -0.4212
 5723SOL    HW128802   0.179   0.635   9.972  0.4018  2.1391  2.5242
 5723SOL    HW228803   0.096   0.512   9.971  0.6822 -0.8060 -0.4936
 5724SOL     OW28804   1.132   2.713  11.900  0.4851 -0.5522 -0.1660
 5724SOL    HW128805   1.179   2.797  11.905 -0.6798  0.1838 -1.3281
 5724SOL    HW228806   1.200   2.657  11.864 -0.6685 -1.0016 -1.6536
 5725SOL     OW28807   4.166   3.178   6.779 -0.1264  0.4733  0.3293
 5725SOL    HW128808   4.230   3.111   6.806 -0.2553 -1.3910 -4.0351
 5725SOL    HW228809   4.144   3.221   6.862 -3.1344  1.2968 -0.9094
 5726SOL     OW28810   1.699   4.634  12.148  0.0378  0.0408 -0.0872
 5726SOL    HW128811   1.712   4.718  12.191  2.5052 -0.4509  0.1417
 5726SOL    HW228812   1.768   4.585  12.194  0.1462 -0.9213 -1.2700
 5727SOL     OW28813   3.682   3.697  10.710 -0.3660 -0.6766  0.2450
 5727SOL    HW128814   3.603   3.677  10.660  0.0003  1.6596 -1.2484
 5727SOL    HW228815   3.669   3.649  10.791 -1.4284 -1.1286 -0.1887
 5728SOL     OW28816   1.012   4.642   8.861  0.2208 -0.0066  0.4612
 5728SOL    HW128817   0.952   4.590   8.807 -0.4329  0.8221  0.4062
 5728SOL    HW228818   0.971   4.728   8.852  1.0105  0.1365 -1.8375
 5729SOL     OW28819   0.166   3.066  15.040 -0.1652 -0.3807  0.1448
 5729SOL    HW128820   0.158   2.973  15.063  1.4194 -0.0626  2.0351
 5729SOL    HW228821   0.217   3.048  14.960  0.1939  0.4424  0.1893
 5730SOL     OW28822   3.953   4.030   5.324  0.6134 -0.5317 -0.1370
 5730SOL    HW128823   3.869   4.004   5.288  0.1536  2.6416 -1.3825
 5730SOL    HW228824   3.981   4.100   5.264 -0.2398 -0.3405 -0.3040
 5731SOL     OW28825   1.810   4.165  12.245  0.5372  0.2119  0.4010
 5731SOL    HW128826   1.743   4.199  12.305 -1.0389  0.3629 -1.4325
 5731SOL    HW228827   1.888   4.185  12.297  1.2280 -2.7192  0.4838
 5732SOL     OW28828   2.923   2.671   6.915 -0.3524  0.7205 -0.1044
 5732SOL    HW128829   2.951   2.712   6.833  1.5419  0.0095  0.1712
 5732SOL    HW228830   2.954   2.732   6.982 -1.4804  0.6320  0.4872
 5733SOL     OW28831   1.836   3.252   3.805 -0.3834 -0.1067  0.5267
 5733SOL    HW128832   1.816   3.279   3.894 -0.2643  0.4706  0.3784
 5733SOL    HW228833   1.823   3.158   3.796 -1.5192  0.2016 -1.1463
 5734SOL     OW28834   2.778   1.384   2.996  0.4883  0.0194  0.1847
 5734SOL    HW128835   2.850   1.377   2.933  0.4784 -1.2475  0.3045
 5734SOL    HW228836   2.806   1.451   3.057 -0.4490 -0.5387  1.2308
 5735SOL     OW28837   2.322   2.834  13.177  0.2505 -0.4144  0.1239
 5735SOL    HW128838   2.246   2.855  13.231  0.0178  0.4345 -0.5347
 5735SOL    HW228839   2.377   2.911  13.191  0.2610 -0.3313 -0.3983
 5736SOL     OW28840   4.042   4.349   2.100 -0.2846 -0.2483  0.2803
 5736SOL    HW128841   4.131   4.384   2.104 -0.3275  0.0985 -1.5955
 5736SOL    HW228842   3.995   4.432   2.110  0.5768  0.4562 -1.3772
 5737SOL     OW28843   3.258   4.500   8.583  0.0976  0.4500  0.1394
 5737SOL    HW128844   3.252   4.592   8.610  0.3108  0.8272 -1.0953
 5737SOL    HW228845   3.316   4.503   8.507  0.8336 -0.5497  0.6718
 5738SOL     OW28846   4.434   0.381   3.660  0.2093 -0.0155 -0.0740
 5738SOL    HW128847   4.439   0.287   3.645 -0.4372  0.0988 -0.9862
 5738SOL    HW228848   4.512   0.408   3.611  0.4285 -2.5399 -1.1327
 5739SOL     OW28849   2.165   4.233  16.386  1.0905  0.6701  0.4168
 5739SOL    HW128850   2.167   4.191  16.473 -1.6490 -0.2191  0.0418
 5739SOL    HW228851   2.211   4.312  16.416 -0.3970  0.8099  2.3813
 5740SOL     OW28852   4.422   4.233   6.395 -0.3508 -0.3534 -0.7346
 5740SOL    HW128853   4.371   4.300   6.349  1.2107  0.5918 -1.1020
 5740SOL    HW228854   4.368   4.158   6.371 -1.9448  0.2300  1.0517
 5741SOL     OW28855   2.958   2.722  14.082  0.3193  0.5376  0.7042
 5741SOL    HW128856   3.015   2.701  14.156 -0.0325 -3.7028 -0.2437
 5741SOL    HW228857   2.897   2.649  14.073  0.7945  0.0059  1.6909
 5742SOL     OW28858   0.992   1.210   1.656  0.0754  0.1993 -0.2108
 5742SOL    HW128859   0.992   1.115   1.670 -1.0021  0.0977 -0.8713
 5742SOL    HW228860   0.906   1.237   1.625 -0.0545  0.8796  0.7294
 5743SOL     OW28861   1.637   2.272   6.679 -0.0983  0.0550  0.0523
 5743SOL    HW128862   1.606   2.293   6.767 -1.0643 -2.6253  0.3655
 5743SOL    HW228863   1.564   2.227   6.635  1.3181 -0.3537 -1.9043
 5744SOL     OW28864   0.448   3.380   5.989  0.1352 -0.2416 -0.4276
 5744SOL    HW128865   0.457   3.394   5.895  0.4618  1.5948 -0.1372
 5744SOL    HW228866   0.417   3.460   6.033 -1.9365 -1.1760 -0.1764
 5745SOL     OW28867   4.352   2.466   2.923 -0.1874 -0.8051 -0.6297
 5745SOL    HW128868   4.267   2.424   2.932  0.1123 -0.6936  2.5454
 5745SOL    HW228869   4.406   2.388   2.935 -1.6568 -1.6891  0.2069
 5746SOL     OW28870   3.126   3.099   6.113  0.5801  0.0331  0.0907
 5746SOL    HW128871   3.170   3.062   6.189 -1.2755 -3.3378 -0.4614
 5746SOL    HW228872   3.164   3.048   6.041 -2.5864 -1.7897 -0.2605
 5747SOL     OW28873   1.539   0.638   8.081 -0.2158 -0.1088  0.1625
 5747SOL    HW128874   1.631   0.611   8.084  0.0394  0.8954  1.4199
 5747SOL    HW228875   1.489   0.560   8.062 -0.2867 -0.1402  0.4764
 5748SOL     OW28876   1.080   1.727   7.421  0.1758 -0.7338 -0.1331
 5748SOL    HW128877   1.015   1.755   7.357  0.8931  1.0070 -0.0868
 5748SOL    HW228878   1.030   1.737   7.502  2.9303  2.4912  1.1296
 5749SOL     OW28879   1.933   4.546   4.905  0.2431 -0.3734  0.6668
 5749SOL    HW128880   1.928   4.450   4.899  2.9468 -0.3630 -1.6176
 5749SOL    HW228881   2.028   4.552   4.917  0.3495 -0.7718  0.0300
 5750SOL     OW28882   2.671   2.046  14.032 -0.4206  0.5971  0.1327
 5750SOL    HW128883   2.692   2.022  13.942 -0.3343  2.0391 -0.2386
 5750SOL    HW228884   2.592   1.992  14.039 -0.4705  0.6860  0.2502
 5751SOL     OW28885   0.555   0.651   9.010  0.0051 -0.0140 -0.9302
 5751SOL    HW128886   0.512   0.670   9.094  0.8276  1.1677 -0.7870
 5751SOL    HW228887   0.647   0.650   9.034 -0.2561 -0.9267  0.0793
 5752SOL     OW28888   0.358   3.365   5.734 -0.3222 -0.1831 -0.0307
 5752SOL    HW128889   0.379   3.449   5.694  0.0635 -1.1761 -1.9013
 5752SOL    HW228890   0.400   3.304   5.673  0.6638 -1.3437  1.8351
 5753SOL     OW28891   1.631   1.796   7.555 -0.5094  0.2436  0.2931
 5753SOL    HW128892   1.546   1.760   7.528 -2.0926  1.5705  3.4929
 5753SOL    HW228893   1.601   1.878   7.593 -3.1695  0.1027 -1.4966
 5754SOL     OW28894   3.519   3.053  10.011  0.0857 -0.3183 -0.4977
 5754SOL    HW128895   3.557   3.140  10.001  3.0649 -1.4885  0.3723
 5754SOL    HW228896   3.541   3.035  10.103  0.7506  1.7391 -0.2550
 5755SOL     OW28897   4.406   3.913   1.935  0.3633 -0.5267 -0.2710
 5755SOL    HW128898   4.323   3.866   1.939  0.5831 -0.5107  4.3847
 5755SOL    HW228899   4.383   4.005   1.921 -0.8502 -1.0961 -2.0678
 5756SOL     OW28900   4.534   2.906   3.637 -0.2674  0.0547  0.0027
 5756SOL    HW128901   4.610   2.893   3.694 -0.6033 -0.7429  0.2698
 5756SOL    HW228902   4.506   2.815   3.640  0.3592 -0.1693 -0.7650
 5757SOL     OW28903   2.634   2.760   5.400  0.0890 -0.5388  0.4033
 5757SOL    HW128904   2.576   2.751   5.475  0.5453 -0.0299  0.8137
 5757SOL    HW228905   2.575   2.796   5.334  1.4714  0.8939 -0.0387
 5758SOL     OW28906   1.569   4.610   5.163  0.0650  0.6531  0.1679
 5758SOL    HW128907   1.515   4.538   5.132  1.6910 -0.7801  0.6536
 5758SOL    HW228908   1.512   4.683   5.139  0.9081  1.3541  0.3075
 5759SOL     OW28909   3.488   2.267   6.327 -0.5453  0.0183  0.3501
 5759SOL    HW128910   3.502   2.195   6.266  1.6364 -0.0835  0.9544
 5759SOL    HW228911   3.463   2.338   6.269 -3.0061  0.7348  2.2943
 5760SOL     OW28912   1.494   1.354   3.277  0.1702 -0.0581 -0.4792
 5760SOL    HW128913   1.582   1.326   3.252 -0.5352 -0.6962 -2.2939
 5760SOL    HW228914   1.471   1.283   3.337  1.1501 -0.2354 -0.3086
 5761SOL     OW28915   0.494   2.878   5.525  0.5325 -0.8308 -0.0472
 5761SOL    HW128916   0.461   2.918   5.606  3.0341 -1.6508  1.3625
 5761SOL    HW228917   0.508   2.788   5.553 -0.1082 -0.9116  0.0092
 5762SOL     OW28918   3.136   0.703   5.309 -0.1081  0.4975  0.4008
 5762SOL    HW128919   3.065   0.741   5.258 -1.5803 -1.1515  1.2494
 5762SOL    HW228920   3.101   0.713   5.398 -0.1903  0.9350  0.3173
 5763SOL     OW28921   0.103   1.470   5.643 -0.2350  0.1334 -0.1936
 5763SOL    HW128922   0.087   1.547   5.697  1.7176  0.4025 -0.0303
 5763SOL    HW228923   0.024   1.418   5.624 -1.0499  1.7583 -1.2664
 5764SOL     OW28924   1.490   0.120   7.227  0.4083 -0.6970  0.1123
 5764SOL    HW128925   1.464   0.186   7.291 -2.6615 -1.2198 -0.6092
 5764SOL    HW228926   1.537   0.055   7.281  1.3087  0.5254  0.7960
 5765SOL     OW28927   2.586   0.724   4.162 -0.5086  0.0459  0.2508
 5765SOL    HW128928   2.624   0.801   4.205  0.6483 -0.7311  0.6121
 5765SOL    HW228929   2.555   0.677   4.239  1.8022 -0.4102  0.8810
 5766SOL     OW28930   0.911   2.321   8.018 -0.1581  0.1998 -0.1628
 5766SOL    HW128931   0.836   2.262   8.025 -2.2421  2.5872 -2.2500
 5766SOL    HW228932   0.888   2.392   8.077  0.5927  1.6241 -1.5808
 5767SOL     OW28933   2.577   3.532   2.929  0.6937 -0.9171  0.7508
 5767SOL    HW128934   2.603   3.618   2.962  0.4884 -0.1570 -1.0419
 5767SOL    HW228935   2.600   3.538   2.836 -2.8846 -1.2037 -0.1389
 5768SOL     OW28936   3.834   2.654   6.659  0.2582  0.1878 -0.6763
 5768SOL    HW128937   3.814   2.676   6.568 -0.8797 -0.6799 -0.6432
 5768SOL    HW228938   3.788   2.570   6.657  0.2589  0.1743 -0.1524
 5769SOL     OW28939   0.905   0.424   7.902 -0.0403  0.4434  0.0330
 5769SOL    HW128940   0.912   0.475   7.821  0.4168  1.1471  0.5152
 5769SOL    HW228941   0.830   0.369   7.879 -0.3952  0.1801  1.8589
 5770SOL     OW28942   2.895   2.074   5.588 -0.1882  0.2503 -0.2931
 5770SOL    HW128943   2.864   2.041   5.503 -2.9783  0.4846  0.6368
 5770SOL    HW228944   2.988   2.054   5.578 -0.3134 -0.0149 -0.9229
 5771SOL     OW28945   4.592   0.717   2.587 -0.0651 -0.9761 -0.2625
 5771SOL    HW128946   4.519   0.768   2.622  1.8624  1.4476  0.2363
 5771SOL    HW228947   4.532   0.656   2.544 -0.1397 -1.4286  0.4927
 5772SOL     OW28948   3.700   3.943   6.001 -0.2655 -0.4062  0.3103
 5772SOL    HW128949   3.795   3.939   6.009 -0.0755  0.3333 -1.7265
 5772SOL    HW228950   3.682   3.905   6.088 -0.4461  1.5108  1.1043
 5773SOL     OW28951   2.078   2.061   7.240  0.4811  0.5392  0.8613
 5773SOL    HW128952   2.010   2.080   7.305  1.3940  0.3935  1.8502
 5773SOL    HW228953   2.036   1.987   7.196 -0.2835  0.4168  1.7943
 5774SOL     OW28954   3.990   4.047   6.305 -0.2871  0.0326  0.1461
 5774SOL    HW128955   3.997   4.002   6.389 -0.5985 -0.2772  0.0023
 5774SOL    HW228956   3.932   4.121   6.322  0.2310  0.3864  0.3985
 5775SOL     OW28957   1.394   2.149   5.545 -0.2036  0.2460 -0.4427
 5775SOL    HW128958   1.302   2.169   5.566 -0.4980 -1.3637 -0.2185
 5775SOL    HW228959   1.383   2.111   5.457  2.2793 -0.7920 -0.2862
 5776SOL     OW28960   3.601   1.276   7.978  0.8315  0.6819 -0.7091
 5776SOL    HW128961   3.664   1.331   7.932  3.7859 -0.6947  1.6400
 5776SOL    HW228962   3.635   1.187   7.985 -0.3521  0.4559  2.1519
 5777SOL     OW28963   3.092   0.015   3.556  0.6438  0.8500  0.0631
 5777SOL    HW128964   3.020   0.029   3.495 -0.8825 -1.8436  1.2516
 5777SOL    HW228965   3.076   0.077   3.626 -0.4742  0.2959  0.2926
 5778SOL     OW28966   1.446   1.532   6.132 -0.4388  0.1558  0.1325
 5778SOL    HW128967   1.511   1.469   6.164 -0.9293 -0.4933 -0.1501
 5778SOL    HW228968   1.371   1.474   6.138 -1.5068  1.5661  0.4982
 5779SOL     OW28969   0.779   3.700   3.815 -0.0416 -0.4217  0.5966
 5779SOL    HW128970   0.765   3.760   3.888  0.2843 -1.3944  1.4597
 5779SOL    HW228971   0.699   3.702   3.762 -0.3196  0.3089  1.0443
 5780SOL     OW28972   1.852   4.728  11.029  0.0628 -0.5966 -0.3684
 5780SOL    HW128973   1.865   0.009  11.122  2.6260  0.9938 -1.0892
 5780SOL    HW228974   1.837   4.634  11.027 -2.7508 -0.1726  0.3887
 5781SOL     OW28975   0.064   3.524   9.565 -0.5374 -0.4437 -0.3964
 5781SOL    HW128976   0.001   3.595   9.570 -1.2944 -1.2367  1.3939
 5781SOL    HW228977   0.125   3.564   9.503  1.3987  0.0638  1.8386
 5782SOL     OW28978   2.811   2.397   6.871 -0.2162 -0.1041 -0.3715
 5782SOL    HW128979   2.886   2.338   6.873 -0.7457 -0.7605  0.1867
 5782SOL    HW228980   2.864   2.475   6.886  2.1081 -1.5812 -0.8540
 5783SOL     OW28981   4.180   1.123   7.706 -0.0768 -0.2737  0.0401
 5783SOL    HW128982   4.163   1.197   7.765  3.5145 -0.3637  1.1798
 5783SOL    HW228983   4.193   1.053   7.770 -1.4932 -1.5874 -1.1163
 5784SOL     OW28984   1.094   4.561   2.848 -0.5238 -0.2839 -0.2970
 5784SOL    HW128985   1.018   4.502   2.856 -0.8033  0.2787  1.1975
 5784SOL    HW228986   1.070   4.609   2.769  1.5321  0.8166 -0.2338
 5785SOL     OW28987   1.201   4.034   7.822  0.6363 -0.0035  0.4564
 5785SOL    HW128988   1.158   4.036   7.737  1.5281  1.2846  0.0378
 5785SOL    HW228989   1.250   4.114   7.839  1.7110 -0.6379  0.3170
 5786SOL     OW28990   4.107   0.248  13.185  0.7300 -0.1914 -0.3106
 5786SOL    HW128991   4.011   0.247  13.181  0.6260 -2.1786  2.8495
 5786SOL    HW228992   4.138   0.332  13.153 -0.1048  0.2115 -0.0539
 5787SOL     OW28993   0.213   0.903   2.286 -0.5439  0.3239 -0.4931
 5787SOL    HW128994   0.267   0.980   2.269 -0.3053  0.5503  1.3082
 5787SOL    HW228995   0.157   0.945   2.352 -3.2145 -0.5003 -2.2324
 5788SOL     OW28996   3.033   4.403   2.740 -0.1123  0.9497 -0.2818
 5788SOL    HW128997   3.011   4.492   2.767 -1.1738  1.4087 -2.6262
 5788SOL    HW228998   2.962   4.345   2.770 -0.5653  1.2456 -0.7680
 5789SOL     OW28999   0.864   4.578   3.500 -0.1487  0.1770  0.1825
 5789SOL    HW129000   0.904   4.656   3.461  1.8394 -0.8273  0.2218
 5789SOL    HW229001   0.798   4.547   3.437 -1.8845 -0.5986  2.3997
 5790SOL     OW29002   2.093   4.608  12.413 -0.3706  0.4765  0.0666
 5790SOL    HW129003   2.093   4.599  12.508 -1.1066 -4.1379 -0.3539
 5790SOL    HW229004   2.102   4.701  12.392  3.5803  0.3044  0.9164
 5791SOL     OW29005   3.025   1.941   1.136  0.2231 -0.3729 -0.1810
 5791SOL    HW129006   2.957   1.960   1.201  0.1461 -1.7746  0.1387
 5791SOL    HW229007   2.978   1.978   1.062  0.2599  1.5833  0.7635
 5792SOL     OW29008   3.440   4.555   3.757  0.2702  0.7846  0.2971
 5792SOL    HW129009   3.462   4.465   3.782 -0.2447  0.3132 -0.9223
 5792SOL    HW229010   3.355   4.552   3.713 -0.4856  0.7823  1.7720
 5793SOL     OW29011   4.428   3.627   0.510 -0.2442 -0.7682  0.2280
 5793SOL    HW129012   4.480   3.560   0.467  0.9310  0.3750 -0.1435
 5793SOL    HW229013   4.360   3.583   0.561  0.2052 -2.7150 -0.8526
 5794SOL     OW29014   0.691   3.359   9.870  0.3197 -0.0003 -0.1218
 5794SOL    HW129015   0.633   3.296   9.913 -0.8697  0.4509 -1.0626
 5794SOL    HW229016   0.668   3.435   9.924  0.1218 -0.4296  0.3913
 5795SOL     OW29017   0.935   0.958   2.373 -0.5983 -0.3594  0.2746
 5795SOL    HW129018   1.018   0.946   2.326 -1.2642 -0.6740 -0.8348
 5795SOL    HW229019   0.910   0.866   2.380  0.9289 -0.8964 -1.4476
 5796SOL     OW29020   0.713   3.779   4.423 -0.3907 -0.3918 -1.0020
 5796SOL    HW129021   0.699   3.823   4.507 -2.8418  2.7303 -3.0397
 5796SOL    HW229022   0.743   3.695   4.458  0.2592 -0.1968 -1.0891
 5797SOL     OW29023   3.942   3.981   4.291  0.3180  0.3924 -0.1601
 5797SOL    HW129024   3.855   3.944   4.308 -1.3645  3.6619 -1.6927
 5797SOL    HW229025   3.996   3.929   4.350 -0.6209  0.6555  0.9436
 5798SOL     OW29026   2.064   2.770   5.464  0.4852 -0.4364  0.1843
 5798SOL    HW129027   2.118   2.848   5.472  1.1718 -0.8590 -0.3373
 5798SOL    HW229028   2.120   2.718   5.521 -1.0669 -2.3528 -0.0402
 5799SOL     OW29029   3.577   2.927   9.112 -0.4393 -0.5345 -0.0909
 5799SOL    HW129030   3.558   2.836   9.135 -1.2231 -0.4085 -0.2685
 5799SOL    HW229031   3.515   2.945   9.042 -0.1689 -0.3537 -0.2858
 5800SOL     OW29032   3.248   2.339   8.277 -0.2212  0.5909  0.3122
 5800SOL    HW129033   3.262   2.331   8.183 -2.3753 -2.0386  0.1892
 5800SOL    HW229034   3.268   2.431   8.294  2.1083  0.1087  0.1593
 5801SOL     OW29035   1.253   0.942   5.777  0.7769 -0.2063  0.4103
 5801SOL    HW129036   1.342   0.972   5.759  1.4055 -1.4230  1.4894
 5801SOL    HW229037   1.238   0.889   5.698 -1.1740  2.8016 -1.2595
 5802SOL     OW29038   0.282   1.568  12.647 -0.3745 -0.4834 -0.0944
 5802SOL    HW129039   0.355   1.515  12.680 -0.3865  0.1937  1.0133
 5802SOL    HW229040   0.207   1.519  12.681  0.5804 -0.7069  1.7243
 5803SOL     OW29041   4.679   0.174   4.129  0.4160 -0.8383  0.4716
 5803SOL    HW129042   0.022   0.143   4.167 -0.0360  1.2196  3.1834
 5803SOL    HW229043   4.659   0.091   4.086  0.3576 -2.5408  3.7036
 5804SOL     OW29044   3.340   1.381  13.490  0.1640 -0.5184 -0.2204
 5804SOL    HW129045   3.350   1.471  13.522 -3.8043 -0.2806  0.3149
 5804SOL    HW229046   3.267   1.390  13.430 -1.3495  0.6661  1.7894
 5805SOL     OW29047   2.907   2.636   0.336 -0.2727 -0.5963 -0.4263
 5805SOL    HW129048   2.944   2.548   0.323  1.6388  0.5338 -2.6327
 5805SOL    HW229049   2.865   2.632   0.421  0.0176 -0.3379 -0.2736
 5806SOL     OW29050   1.173   0.805   6.886  0.3929 -0.6713  0.1064
 5806SOL    HW129051   1.138   0.725   6.926  1.2192  0.2701  2.7320
 5806SOL    HW229052   1.100   0.819   6.826  0.4168  0.9466  0.4750
 5807SOL     OW29053   0.548   0.240   1.365  0.1184 -0.2244  0.4075
 5807SOL    HW129054   0.604   0.208   1.295 -0.2895  0.9138 -0.4497
 5807SOL    HW229055   0.584   0.327   1.383  1.2718 -0.9557  1.6578
 5808SOL     OW29056   1.254   4.727  12.138 -0.2619  0.6366  0.2548
 5808SOL    HW129057   1.296   0.066  12.173  0.4643  0.4013 -0.0825
 5808SOL    HW229058   1.250   4.678  12.220 -0.4365  1.1360  0.5489
 5809SOL     OW29059   3.541   0.690   4.363  0.2504  0.2180 -0.1002
 5809SOL    HW129060   3.621   0.730   4.328  0.4033 -0.1739 -0.2002
 5809SOL    HW229061   3.561   0.653   4.449  1.3515  0.8517 -0.0730
 5810SOL     OW29062   1.672   4.306  16.521 -0.4744 -0.1109  0.5792
 5810SOL    HW129063   1.760   4.338  16.540 -0.4791 -0.1920  0.7392
 5810SOL    HW229064   1.648   4.344  16.437  2.4889 -1.1326 -0.7148
 5811SOL     OW29065   2.930   2.205   6.219  0.7594  0.1119 -0.3464
 5811SOL    HW129066   2.993   2.259   6.266  0.2392  0.5739 -0.1839
 5811SOL    HW229067   2.850   2.229   6.266  1.1032  0.8694 -0.1509
 5812SOL     OW29068   0.575   1.406   7.756 -0.1546 -0.1523 -0.3768
 5812SOL    HW129069   0.523   1.347   7.701 -0.8331  0.4403 -0.3651
 5812SOL    HW229070   0.606   1.469   7.691  2.7795 -1.3104 -0.1320
 5813SOL     OW29071   2.102   0.817   7.922 -0.4406  0.0690  0.0659
 5813SOL    HW129072   2.119   0.911   7.935  1.7796 -0.1771 -1.2229
 5813SOL    HW229073   2.190   0.779   7.923 -0.6371 -0.3809  0.2259
 5814SOL     OW29074   4.054   2.839  13.614  0.4053 -0.0497  0.0342
 5814SOL    HW129075   4.079   2.917  13.565 -3.1445 -0.0904 -1.8389
 5814SOL    HW229076   4.139   2.813  13.650 -1.2446 -1.8647  2.6537
 5815SOL     OW29077   1.417   2.415   7.178 -0.5811 -0.1745  0.1754
 5815SOL    HW129078   1.464   2.436   7.097 -0.0858 -2.4986 -0.1255
 5815SOL    HW229079   1.366   2.495   7.187  1.0557  1.0336 -1.1287
 5816SOL     OW29080   2.043   2.028   9.161  0.1970  0.1662  0.0413
 5816SOL    HW129081   2.027   2.094   9.093 -2.2304  0.9141  1.3654
 5816SOL    HW229082   2.026   1.948   9.112  1.6714  0.3865 -0.8605
 5817SOL     OW29083   0.959   3.166   9.921  0.7122  0.4349  0.3486
 5817SOL    HW129084   0.888   3.137   9.864  0.2872  2.3452 -0.0889
 5817SOL    HW229085   1.036   3.112   9.904  0.0902 -0.1726 -0.5351
 5818SOL     OW29086   2.127   0.373   5.641  0.6769 -0.2072  0.2031
 5818SOL    HW129087   2.203   0.331   5.602  0.9128  1.3675 -1.0416
 5818SOL    HW229088   2.050   0.346   5.591  0.1302 -0.0062  0.9318
 5819SOL     OW29089   3.793   2.728  13.660  0.2126  0.0028  0.3075
 5819SOL    HW129090   3.817   2.791  13.729 -3.0065  2.3319 -0.6785
 5819SOL    HW229091   3.868   2.747  13.604  0.0802 -0.8067 -0.1489
 5820SOL     OW29092   1.829   0.961   8.693  0.4741  0.1128 -0.3521
 5820SOL    HW129093   1.795   1.050   8.695 -1.8584 -0.8501  1.8349
 5820SOL    HW229094   1.748   0.924   8.727  0.1494  1.7338  0.6216
 5821SOL     OW29095   1.480   4.622   4.719 -0.3190  0.1964 -0.9874
 5821SOL    HW129096   1.513   4.533   4.734 -0.8479  0.3813  1.3017
 5821SOL    HW229097   1.405   4.608   4.661 -0.4059 -1.2745 -0.5321
 5822SOL     OW29098   2.862   4.462   7.106  0.1964  0.0377  0.5329
 5822SOL    HW129099   2.875   4.407   7.029  0.3906  1.5440 -0.5133
 5822SOL    HW229100   2.947   4.506   7.108 -0.8710  2.1293 -0.5201
 5823SOL     OW29101   4.241   0.121   5.466  0.4679  0.0881  0.2361
 5823SOL    HW129102   4.264   0.041   5.513 -1.6504  1.0210  2.8125
 5823SOL    HW229103   4.152   0.136   5.499  0.6371  1.5426  0.0548
 5824SOL     OW29104   3.213   0.958   7.851  0.0057 -0.0980  0.7059
 5824SOL    HW129105   3.180   0.985   7.765 -0.9788 -0.1698  1.0641
 5824SOL    HW229106   3.290   1.014   7.861 -0.3748  0.7229 -0.8842
 5825SOL     OW29107   4.111   3.807   5.360  0.3925  0.4706  0.6730
 5825SOL    HW129108   4.047   3.874   5.384  0.3951  1.5432 -2.2999
 5825SOL    HW229109   4.095   3.728   5.411  1.3850 -1.0705 -1.3958
 5826SOL     OW29110   2.045   0.621   3.848  0.3806 -0.2335  0.6535
 5826SOL    HW129111   2.025   0.653   3.936 -0.9392 -1.8079  0.9467
 5826SOL    HW229112   2.022   0.529   3.861 -1.2360  0.0853  0.0570
 5827SOL     OW29113   4.225   2.324   7.874  0.0912 -0.0008  0.0802
 5827SOL    HW129114   4.307   2.279   7.893 -0.2352 -1.8477 -2.9741
 5827SOL    HW229115   4.169   2.258   7.833 -0.9030 -0.1196  1.5840
 5828SOL     OW29116   0.941   4.466   7.690 -0.5952 -0.0668 -0.0924
 5828SOL    HW129117   0.934   4.420   7.774 -2.5305  1.8964  0.8473
 5828SOL    HW229118   0.941   4.560   7.706  0.0881  0.3547 -2.5580
 5829SOL     OW29119   3.646   3.827   5.730  0.0084 -0.0788  0.0024
 5829SOL    HW129120   3.712   3.774   5.774  0.7242  0.2066 -0.7405
 5829SOL    HW229121   3.638   3.886   5.805  1.5417  1.2272 -0.8600
 5830SOL     OW29122   0.133   1.134   7.381  0.0456 -0.1538  0.0758
 5830SOL    HW129123   0.160   1.082   7.457 -0.8237  0.1822  0.6137
 5830SOL    HW229124   0.055   1.176   7.415  0.9931 -0.3022  2.4785
 5831SOL     OW29125   1.342   3.186   2.544 -0.2052  0.1139 -0.1005
 5831SOL    HW129126   1.429   3.160   2.516 -0.5641 -0.9903 -0.1841
 5831SOL    HW229127   1.300   3.102   2.564 -1.4202  1.0313  1.2335
 5832SOL     OW29128   0.182   2.328   6.397  0.2402  0.0844 -0.2355
 5832SOL    HW129129   0.198   2.244   6.355 -1.1669 -0.5820  0.5676
 5832SOL    HW229130   0.233   2.391   6.346 -0.7141  0.1685 -1.0648
 5833SOL     OW29131   2.151   0.374   3.200  0.2796  0.3128 -0.2394
 5833SOL    HW129132   2.206   0.296   3.194  0.1099  0.0569  1.5414
 5833SOL    HW229133   2.078   0.345   3.145  0.9275 -0.2409 -0.8126
 5834SOL     OW29134   0.279   3.376   1.017 -0.3550  0.2982 -0.0027
 5834SOL    HW129135   0.241   3.309   0.960 -2.0088  0.5982  0.7447
 5834SOL    HW229136   0.342   3.327   1.071 -1.2027  1.0436  1.6696
 5835SOL     OW29137   3.787   0.157   3.995 -0.2718  0.2276 -0.1443
 5835SOL    HW129138   3.764   0.236   4.044  0.3222  0.4299 -0.1894
 5835SOL    HW229139   3.712   0.141   3.938  0.3510  0.2991 -0.9989
 5836SOL     OW29140   3.335   1.578   2.080  0.0192  0.8364 -0.0196
 5836SOL    HW129141   3.261   1.639   2.078 -1.0986 -0.5822 -2.4355
 5836SOL    HW229142   3.309   1.508   2.139  0.3355 -0.3697 -1.3260
 5837SOL     OW29143   0.392   0.330   4.557  0.1094  0.3326 -0.2207
 5837SOL    HW129144   0.327   0.282   4.609  0.9449 -1.8645 -1.1924
 5837SOL    HW229145   0.471   0.291   4.596 -1.1550  0.0084  1.9936
 5838SOL     OW29146   3.192   2.645   5.965 -0.3114 -0.2203 -0.1119
 5838SOL    HW129147   3.143   2.562   5.968  1.2679 -1.1589 -0.2254
 5838SOL    HW229148   3.255   2.627   5.895 -1.8417  0.4621 -1.6537
 5839SOL     OW29149   0.907   3.079   8.053  0.7803 -1.1077  0.2011
 5839SOL    HW129150   0.900   2.992   8.014  1.1191 -0.9221 -0.2721
 5839SOL    HW229151   0.908   3.063   8.147 -1.6616  0.6411  0.4992
 5840SOL     OW29152   3.933   0.917   2.156 -0.8918 -0.2829 -1.0791
 5840SOL    HW129153   3.894   0.844   2.204 -0.2580 -0.2167 -0.4699
 5840SOL    HW229154   3.886   0.928   2.073 -0.6853  0.9376 -1.0413
 5841SOL     OW29155   4.491   4.556  13.974  0.0008 -0.1924 -0.1005
 5841SOL    HW129156   4.562   4.619  13.988 -0.9250  1.2095 -1.6184
 5841SOL    HW229157   4.529   4.475  14.006 -1.3179 -1.0571 -0.7265
 5842SOL     OW29158   1.258   1.220  14.759  0.0793  0.0989 -0.2633
 5842SOL    HW129159   1.265   1.132  14.794  0.8027  0.4036  0.3664
 5842SOL    HW229160   1.318   1.259  14.823  1.7516  2.3841 -3.2418
 5843SOL     OW29161   2.259   1.940   8.443 -0.1910  0.6763  0.2762
 5843SOL    HW129162   2.290   1.950   8.533 -1.4294 -2.8908  1.0820
 5843SOL    HW229163   2.339   1.977   8.405 -1.1367  2.8810  0.4418
 5844SOL     OW29164   4.688   4.735  17.725  0.3574  0.3554  0.5690
 5844SOL    HW129165   0.032   4.737   0.016 -0.1229  1.5467  1.3787
 5844SOL    HW229166   4.624   0.006   0.039  0.4994  0.9037  0.6171
 5845SOL     OW29167   3.142   2.463   9.265  0.7087 -0.6507 -0.4398
 5845SOL    HW129168   3.212   2.397   9.266  0.5274 -0.8369 -0.2353
 5845SOL    HW229169   3.164   2.503   9.349  0.1210 -0.8714 -0.1786
 5846SOL     OW29170   2.870   3.616   4.761 -0.2058  0.5277 -0.2137
 5846SOL    HW129171   2.844   3.705   4.785 -0.2486  0.1836  1.0549
 5846SOL    HW229172   2.963   3.630   4.744 -0.0333 -0.4585 -0.0883
 5847SOL     OW29173   3.671   1.299   4.602 -0.0902 -0.4645 -0.8687
 5847SOL    HW129174   3.713   1.218   4.632 -0.9509 -0.4994  0.2558
 5847SOL    HW229175   3.727   1.347   4.541  2.4712 -2.4328 -0.0789
 5848SOL     OW29176   1.603   2.065   5.302  0.3119  0.2348 -0.5510
 5848SOL    HW129177   1.518   2.023   5.316  1.4051 -1.8588 -0.1264
 5848SOL    HW229178   1.636   2.018   5.225  0.0703 -0.6958 -0.0887
 5849SOL     OW29179   3.789   0.055   9.665  0.3934 -0.4864 -0.0853
 5849SOL    HW129180   3.879   0.070   9.634 -0.3504  1.7199 -1.1342
 5849SOL    HW229181   3.736   0.097   9.598 -1.5773  0.4222  2.0466
 5850SOL     OW29182   0.274   2.955  17.580 -0.2587 -0.9469  0.2259
 5850SOL    HW129183   0.360   2.984  17.610  0.9444 -2.8921 -1.3405
 5850SOL    HW229184   0.256   2.878  17.636 -2.0857  0.2847  1.3386
 5851SOL     OW29185   4.501   2.855   4.859  0.2784 -0.8399  0.5133
 5851SOL    HW129186   4.407   2.835   4.859  0.0627  0.0804  1.7668
 5851SOL    HW229187   4.507   2.882   4.951 -1.1064 -1.0090  0.6496
 5852SOL     OW29188   3.439   1.090  12.146  0.3329  0.2102 -0.3834
 5852SOL    HW129189   3.390   1.125  12.221 -1.2399 -0.2283 -1.2113
 5852SOL    HW229190   3.376   1.079  12.075 -1.1111 -1.8408  1.2146
 5853SOL     OW29191   2.821   3.176   2.627  0.5925  0.4616 -0.7453
 5853SOL    HW129192   2.913   3.195   2.609  0.4869  1.2844 -0.3875
 5853SOL    HW229193   2.819   3.165   2.722  2.7843  1.4301 -0.5963
 5854SOL     OW29194   4.020   0.065   6.276  0.2979 -0.1764  0.3699
 5854SOL    HW129195   4.102   0.016   6.267  1.6796  1.8189  2.2964
 5854SOL    HW229196   4.003   0.075   6.182 -1.3455 -1.4857  0.5145
 5855SOL     OW29197   1.767   4.413  15.751  0.0524  0.7130 -0.2007
 5855SOL    HW129198   1.793   4.491  15.703 -1.0637  1.6365  0.6980
 5855SOL    HW229199   1.840   4.402  15.812 -0.7698 -0.0634  0.6468
 5856SOL     OW29200   2.831   2.850  16.436 -0.1010 -0.1174  0.0396
 5856SOL    HW129201   2.873   2.847  16.522  0.3836 -2.6868 -0.2632
 5856SOL    HW229202   2.861   2.762  16.411  0.6275  0.0154  0.4613
 5857SOL     OW29203   0.692   0.761   7.898  0.0377  0.2986  0.0651
 5857SOL    HW129204   0.730   0.690   7.949  1.7142 -1.1132 -3.0972
 5857SOL    HW229205   0.768   0.819   7.896 -0.4542  0.9283 -0.4773
 5858SOL     OW29206   1.471   1.557  11.926 -0.5038  0.6501 -0.1205
 5858SOL    HW129207   1.442   1.592  11.842  0.7110 -1.5758 -1.4888
 5858SOL    HW229208   1.545   1.498  11.910 -1.1290 -0.3905  0.7686
 5859SOL     OW29209   2.467   3.192   7.949 -0.5146  0.0486 -0.2260
 5859SOL    HW129210   2.453   3.138   7.871  0.5926 -0.5270 -0.0439
 5859SOL    HW229211   2.387   3.244   7.954 -1.3423 -1.2897  0.3699
 5860SOL     OW29212   3.497   2.190   2.648 -0.2244 -0.1872 -1.1008
 5860SOL    HW129213   3.468   2.128   2.715  2.1060  0.2050  0.2524
 5860SOL    HW229214   3.501   2.130   2.573  0.0507  1.5038 -2.4577
 5861SOL     OW29215   3.404   2.117   9.706  0.3851  0.1645  1.1129
 5861SOL    HW129216   3.396   2.191   9.766 -1.3584  0.0634  1.0140
 5861SOL    HW229217   3.480   2.068   9.735  1.7242  0.4740 -1.8151
 5862SOL     OW29218   2.677   0.847   3.549  0.1362 -0.2065 -0.3907
 5862SOL    HW129219   2.690   0.901   3.472  1.4600 -2.4272 -1.7200
 5862SOL    HW229220   2.584   0.856   3.570  0.0981  0.2856 -0.7828
 5863SOL     OW29221   2.210   0.688   5.928  0.2623 -0.3133 -0.2687
 5863SOL    HW129222   2.150   0.613   5.931 -1.8063  1.3639  0.8884
 5863SOL    HW229223   2.145   0.749   5.891 -0.1706 -0.8047 -0.3259
 5864SOL     OW29224   2.002   3.300   4.923  0.2677 -0.1851  0.3007
 5864SOL    HW129225   1.992   3.309   4.828 -0.0005  3.2523  0.6229
 5864SOL    HW229226   2.095   3.276   4.918  0.0987 -0.5191 -1.3032
 5865SOL     OW29227   2.379   2.260   4.530 -0.2645 -0.1388  0.5806
 5865SOL    HW129228   2.460   2.297   4.567 -0.8792  2.2042 -0.4270
 5865SOL    HW229229   2.318   2.277   4.601  0.4969 -1.1470  1.4653
 5866SOL     OW29230   2.371   4.591   4.122 -0.2380 -0.3293  0.1090
 5866SOL    HW129231   2.448   4.622   4.074  0.2760 -2.2517 -0.2987
 5866SOL    HW229232   2.384   4.629   4.209 -1.1651  1.3885 -0.5189
 5867SOL     OW29233   0.833   4.475   8.699  0.4221  0.0185 -0.3532
 5867SOL    HW129234   0.787   4.433   8.772  0.8527  0.8077  0.3760
 5867SOL    HW229235   0.800   4.449   8.613  0.6167 -0.2633 -0.3447
 5868SOL     OW29236   1.154   2.196   4.900 -0.2309  0.0081  0.6001
 5868SOL    HW129237   1.225   2.260   4.902 -0.3774  0.2157 -0.7828
 5868SOL    HW229238   1.110   2.230   4.821 -2.1153 -0.4843  1.4400
 5869SOL     OW29239   0.748   0.172  13.264  0.3080  0.2468  0.6210
 5869SOL    HW129240   0.762   0.171  13.358  2.1696  0.2215  0.3590
 5869SOL    HW229241   0.679   0.106  13.257  0.2011  0.5347 -1.1942
 5870SOL     OW29242   2.923   3.250  13.007 -0.3037 -0.1258 -0.6160
 5870SOL    HW129243   2.859   3.314  13.037 -1.4670 -0.7648 -1.7407
 5870SOL    HW229244   2.951   3.218  13.094 -0.1639  0.1915 -0.5461
 5871SOL     OW29245   1.663   1.619   6.884 -0.0839  0.6807  0.4238
 5871SOL    HW129246   1.644   1.533   6.920  0.8616  0.2399 -0.1166
 5871SOL    HW229247   1.744   1.637   6.931  1.6605  1.1787 -2.7579
 5872SOL     OW29248   0.314   3.424  16.158  0.3876 -0.2182  0.1915
 5872SOL    HW129249   0.254   3.495  16.135  0.9488  0.6685  1.5038
 5872SOL    HW229250   0.380   3.434  16.090  0.4507 -0.7914  0.1691
 5873SOL     OW29251   1.836   2.980   1.856 -0.2988 -0.2652 -0.1370
 5873SOL    HW129252   1.902   2.918   1.884  1.2843  1.6199  0.2766
 5873SOL    HW229253   1.795   3.005   1.939  1.2265  0.4400  0.3881
 5874SOL     OW29254   2.880   3.503   7.699  0.2053 -0.2825 -0.0021
 5874SOL    HW129255   2.899   3.413   7.671  2.1766 -0.4267  1.7888
 5874SOL    HW229256   2.944   3.508   7.770 -0.4703 -0.8233  0.6508
 5875SOL     OW29257   1.205   0.385  12.371 -0.4309 -0.1476  0.0288
 5875SOL    HW129258   1.130   0.422  12.418 -0.5603  1.0155 -1.0759
 5875SOL    HW229259   1.236   0.328  12.441  1.7755  0.9406 -0.0715
 5876SOL     OW29260   2.422   3.075   7.718  0.0702  0.2961  0.4666
 5876SOL    HW129261   2.335   3.053   7.686  0.4757 -0.3225 -0.2140
 5876SOL    HW229262   2.444   3.143   7.654 -0.7645  2.2060  2.2254
 5877SOL     OW29263   1.152   2.305   5.457  0.6619 -0.3306  0.6809
 5877SOL    HW129264   1.086   2.373   5.471 -0.5374 -1.1130 -1.0972
 5877SOL    HW229265   1.188   2.326   5.370  0.4754 -2.0458  0.1758
 5878SOL     OW29266   0.063   0.835  14.843  0.5187 -0.2315  0.4052
 5878SOL    HW129267   0.046   0.925  14.871 -0.0520  0.0868 -0.9933
 5878SOL    HW229268   0.131   0.803  14.902  1.6473  0.6615 -0.4168
 5879SOL     OW29269   1.456   0.624   7.419 -0.0313  0.2173 -0.2993
 5879SOL    HW129270   1.456   0.583   7.506 -1.0529  0.9919  0.0581
 5879SOL    HW229271   1.363   0.645   7.411 -0.3703 -0.9427  0.6150
 5880SOL     OW29272   3.774   3.974  12.703 -0.6077  0.2120 -0.3064
 5880SOL    HW129273   3.762   3.937  12.615  0.2530  0.4007 -0.5020
 5880SOL    HW229274   3.744   3.910  12.768  0.4672  1.2498  1.1865
 5881SOL     OW29275   3.257   0.682  16.261 -0.3083  0.6360  0.3220
 5881SOL    HW129276   3.246   0.587  16.262 -1.1824  0.7115 -2.2294
 5881SOL    HW229277   3.181   0.706  16.207 -1.9952 -1.9547  1.5246
 5882SOL     OW29278   1.476   3.944   3.596  0.1152  0.1441  0.2489
 5882SOL    HW129279   1.548   3.882   3.584  0.4766  0.6743 -0.2820
 5882SOL    HW229280   1.422   3.897   3.661 -0.1200  3.0253  2.1413
 5883SOL     OW29281   4.080   3.669   3.493  0.0532 -0.2420 -0.9870
 5883SOL    HW129282   4.087   3.602   3.560  0.7624  0.8047 -0.0129
 5883SOL    HW229283   4.014   3.725   3.533  1.9658  0.2158  1.5932
 5884SOL     OW29284   0.215   4.082   3.956 -0.2998 -0.3238 -0.6595
 5884SOL    HW129285   0.197   4.176   3.949 -1.3968 -0.5947 -1.4284
 5884SOL    HW229286   0.293   4.072   3.902 -0.8548  0.5372 -1.6161
 5885SOL     OW29287   3.389   2.549  14.280  0.3122  0.3477 -0.2202
 5885SOL    HW129288   3.371   2.610  14.351  2.2853  0.5738  0.0953
 5885SOL    HW229289   3.352   2.471  14.321  1.0975  0.7944  1.3484
 5886SOL     OW29290   1.227   2.985   5.892 -0.1870  0.0106  0.1842
 5886SOL    HW129291   1.203   3.063   5.943 -0.1460 -0.3701  0.7930
 5886SOL    HW229292   1.313   2.967   5.931 -0.1784 -1.4056 -0.4951
 5887SOL     OW29293   2.190   1.418   3.461  0.4473  0.6378  0.0103
 5887SOL    HW129294   2.284   1.428   3.475  0.5927 -0.1207 -0.4241
 5887SOL    HW229295   2.188   1.390   3.370 -0.0470 -0.2089  0.2877
 5888SOL     OW29296   3.544   1.328   3.637 -0.0210  0.4077 -0.5230
 5888SOL    HW129297   3.510   1.260   3.695  0.8691 -0.0885 -0.5866
 5888SOL    HW229298   3.622   1.353   3.688  0.2009  0.2162 -0.7705
 5889SOL     OW29299   3.376   0.222   5.065 -0.1854 -0.2351 -0.1148
 5889SOL    HW129300   3.389   0.317   5.071 -0.9730 -0.3201  2.6788
 5889SOL    HW229301   3.416   0.198   4.981 -1.6124 -0.0217 -0.8525
 5890SOL     OW29302   1.842   4.225   4.215 -0.2954 -0.1265 -0.0803
 5890SOL    HW129303   1.879   4.224   4.303 -1.8805 -0.0407  0.5835
 5890SOL    HW229304   1.815   4.317   4.217  1.3251  0.3418 -0.1480
 5891SOL     OW29305   4.527   2.377   5.483  0.4392 -0.4194 -0.1010
 5891SOL    HW129306   4.507   2.304   5.425  1.2870 -1.6330  1.1546
 5891SOL    HW229307   4.481   2.348   5.561 -3.0954 -2.0954 -2.8032
 5892SOL     OW29308   0.260   0.294  10.414  0.2491  0.4246 -0.6245
 5892SOL    HW129309   0.182   0.257  10.455 -0.8601  2.6964 -0.6924
 5892SOL    HW229310   0.221   0.294  10.327 -1.8395  2.0510  0.3166
 5893SOL     OW29311   1.245   4.644   4.249 -0.8613 -0.7156 -0.0099
 5893SOL    HW129312   1.238   4.556   4.287  1.0686 -0.7251  0.3042
 5893SOL    HW229313   1.165   4.655   4.198 -1.2032  0.4166  0.7738
 5894SOL     OW29314   4.680   3.004  14.816 -0.5051 -0.5749  1.0508
 5894SOL    HW129315   0.031   3.034  14.824 -0.9775  0.7085  1.5142
 5894SOL    HW229316   4.639   3.088  14.834  0.7972  0.2836  0.0250
 5895SOL     OW29317   4.603   1.997   8.023  0.3718 -0.8978 -0.2788
 5895SOL    HW129318   4.670   1.929   8.014  1.8444  0.9472 -3.4596
 5895SOL    HW229319   4.534   1.950   8.070  0.0010  1.6007  1.7076
 5896SOL     OW29320   2.334   3.937   8.520  0.3944 -0.0085  0.2188
 5896SOL    HW129321   2.280   3.989   8.578 -0.5161  1.7936 -2.2702
 5896SOL    HW229322   2.318   3.844   8.539 -1.8521  0.0960 -1.2261
 5897SOL     OW29323   2.785   4.546   6.408 -0.0599 -0.1555 -0.0218
 5897SOL    HW129324   2.851   4.581   6.347  1.0648  1.5406  2.1855
 5897SOL    HW229325   2.838   4.535   6.487  0.4879 -0.8690 -0.4882
 5898SOL     OW29326   1.904   1.641   8.675  0.1479 -0.4696  0.7217
 5898SOL    HW129327   1.857   1.718   8.644  0.0489 -0.3524  1.1621
 5898SOL    HW229328   1.852   1.644   8.755 -0.6685  3.1134  0.0500
 5899SOL     OW29329   0.742   3.770   6.458  0.0026 -0.1002  0.2411
 5899SOL    HW129330   0.695   3.700   6.413  0.7251 -0.1643 -0.4099
 5899SOL    HW229331   0.673   3.834   6.475  0.4523  0.2271  0.8213
 5900SOL     OW29332   2.553   3.414   6.351 -0.1936  0.0705 -0.1046
 5900SOL    HW129333   2.553   3.419   6.447  0.6905  1.0680 -0.1681
 5900SOL    HW229334   2.463   3.384   6.338 -0.9676  3.1402 -1.6372
 5901SOL     OW29335   1.241   0.695   5.571  0.2713  0.1681 -0.3646
 5901SOL    HW129336   1.245   0.604   5.600 -0.1642  0.6187  1.1250
 5901SOL    HW229337   1.148   0.704   5.549 -0.1211 -1.4958  0.6249
 5902SOL     OW29338   3.330   1.958   4.335 -0.3960  0.0530  0.6639
 5902SOL    HW129339   3.263   2.006   4.384  1.0350  1.9581  0.7454
 5902SOL    HW229340   3.310   1.865   4.345 -1.3271 -0.0141 -1.7077
 5903SOL     OW29341   2.054   2.006   2.730  0.0080  0.2889  0.5350
 5903SOL    HW129342   2.123   1.982   2.667  2.3005  1.5857  2.5432
 5903SOL    HW229343   1.990   2.050   2.674 -0.4772  0.5492  1.2910
 5904SOL     OW29344   0.118   2.760   8.644  0.2315 -0.0689 -0.5771
 5904SOL    HW129345   0.066   2.815   8.703  1.4505  2.1204 -1.5251
 5904SOL    HW229346   0.192   2.736   8.700 -0.7462  0.3763  0.9042
 5905SOL     OW29347   4.417   2.313   5.103 -0.4385 -0.2262 -0.2993
 5905SOL    HW129348   4.387   2.238   5.155  1.0485 -0.7016 -0.1270
 5905SOL    HW229349   4.357   2.309   5.028 -0.1415 -0.1339 -0.5391
 5906SOL     OW29350   2.825   2.302   9.528  0.3345  0.0813 -0.1186
 5906SOL    HW129351   2.839   2.227   9.585 -1.2757 -0.7092 -0.7575
 5906SOL    HW229352   2.875   2.280   9.449 -0.5571  1.0420 -0.9691
 5907SOL     OW29353   0.877   4.344  13.296 -0.6913 -0.5394  0.5240
 5907SOL    HW129354   0.839   4.264  13.260 -1.6784  0.1674 -0.0360
 5907SOL    HW229355   0.948   4.361  13.235 -1.3793 -1.6044 -0.5811
 5908SOL     OW29356   4.689   2.624   7.785 -0.3963 -0.3286 -0.3760
 5908SOL    HW129357   4.623   2.596   7.721 -0.0021  1.7780 -1.7203
 5908SOL    HW229358   4.649   2.594   7.867 -0.0055 -0.2695 -0.1630
 5909SOL     OW29359   1.563   0.206  16.100  0.3312  0.0744  0.2756
 5909SOL    HW129360   1.640   0.263  16.102  0.3206  0.1226 -1.0056
 5909SOL    HW229361   1.505   0.252  16.041 -1.0736  0.4279  1.9294
 5910SOL     OW29362   0.848   4.337   2.455 -0.1302 -0.6548  0.1493
 5910SOL    HW129363   0.831   4.253   2.499 -0.3756 -0.9437 -0.4950
 5910SOL    HW229364   0.764   4.373   2.482 -0.4293 -2.4924  1.7135
 5911SOL     OW29365   2.017   4.629   1.495  0.2816  0.3930  0.2534
 5911SOL    HW129366   1.976   4.546   1.520  2.2743  0.1541  2.6662
 5911SOL    HW229367   1.971   4.632   1.411 -2.3450  0.6539  1.7112
 5912SOL     OW29368   2.054   3.192   3.058 -0.0238 -0.7643  0.0883
 5912SOL    HW129369   2.026   3.102   3.041 -0.5299 -0.4163 -0.9315
 5912SOL    HW229370   2.146   3.169   3.044  0.4598  0.6837  0.9593
 5913SOL     OW29371   0.669   2.191   4.193  0.4105  0.3125 -0.3509
 5913SOL    HW129372   0.709   2.119   4.243  0.9781 -0.4169 -1.8620
 5913SOL    HW229373   0.581   2.159   4.177  1.2623 -1.2593 -1.8135
 5914SOL     OW29374   4.696   1.992   3.860  0.0336  0.7452  0.1794
 5914SOL    HW129375   4.709   1.972   3.768 -0.7493  0.0762  0.2138
 5914SOL    HW229376   4.600   1.993   3.870 -0.1488 -1.0988 -1.4179
 5915SOL     OW29377   0.688   1.149   2.336  0.6241 -0.2999  0.3100
 5915SOL    HW129378   0.739   1.069   2.344  2.3275  0.7679  0.1616
 5915SOL    HW229379   0.750   1.199   2.283 -0.5713 -0.8342 -1.6282
 5916SOL     OW29380   2.810   3.216  13.817  0.4084  0.4811 -0.3977
 5916SOL    HW129381   2.892   3.178  13.785  0.1561  0.0852 -0.5689
 5916SOL    HW229382   2.783   3.158  13.889  1.3484  1.7628  0.9879
 5917SOL     OW29383   3.118   1.746   2.141  0.4786  0.7569  0.0687
 5917SOL    HW129384   3.070   1.736   2.223  0.4331  0.6021  0.0218
 5917SOL    HW229385   3.045   1.760   2.081 -0.2220 -0.2616  0.6900
 5918SOL     OW29386   4.646   2.379   4.418  0.8598  0.4016 -0.3967
 5918SOL    HW129387   4.597   2.315   4.471 -0.0354  0.6198 -0.9538
 5918SOL    HW229388   4.622   2.455   4.470 -1.9423  0.5275 -1.8793
 5919SOL     OW29389   4.086   2.352   9.488 -0.4610 -0.1311 -0.4330
 5919SOL    HW129390   4.128   2.340   9.573 -0.1457 -0.4873 -0.6396
 5919SOL    HW229391   4.080   2.447   9.476  0.7252  0.1472  1.1928
 5920SOL     OW29392   3.098   0.819   6.987 -0.6911 -0.5814  0.6179
 5920SOL    HW129393   3.094   0.877   6.911  0.1267  0.5196  1.4259
 5920SOL    HW229394   3.185   0.824   7.025  0.5394 -0.3127 -2.2413
 5921SOL     OW29395   2.340   1.761  17.302 -0.4079 -0.4983  0.3630
 5921SOL    HW129396   2.342   1.827  17.371 -2.6121 -0.7125  0.6547
 5921SOL    HW229397   2.432   1.740  17.290  0.2459  0.7438  3.3905
 5922SOL     OW29398   0.604   0.933   3.445 -0.3243  0.3912  0.5200
 5922SOL    HW129399   0.674   0.881   3.485  0.7271  0.7945 -0.7969
 5922SOL    HW229400   0.523   0.902   3.485 -0.4404 -0.3520 -0.2994
 5923SOL     OW29401   2.474   0.342   2.877  0.5356  0.1682  0.5311
 5923SOL    HW129402   2.449   0.434   2.889  0.5631  0.0468  1.4914
 5923SOL    HW229403   2.529   0.318   2.952 -2.5876 -1.9611  2.1322
 5924SOL     OW29404   1.542   0.403   5.594  0.2503 -0.3242  0.8670
 5924SOL    HW129405   1.491   0.383   5.672 -2.5121  1.2159 -0.5503
 5924SOL    HW229406   1.607   0.463   5.632  1.4038 -2.3028  2.0021
 5925SOL     OW29407   2.881   2.677  16.971  0.4696  0.0296  0.7076
 5925SOL    HW129408   2.967   2.652  16.938 -0.3080 -1.1746 -0.3968
 5925SOL    HW229409   2.837   2.688  16.887 -0.4357  0.1226  1.1906
 5926SOL     OW29410   2.825   0.734  11.593 -0.0532  0.0570 -0.4393
 5926SOL    HW129411   2.739   0.701  11.567 -0.6445  0.6441  0.7853
 5926SOL    HW229412   2.876   0.667  11.549 -0.9348 -0.3681 -0.8200
 5927SOL     OW29413   3.994   4.335  11.021 -0.0388 -0.0525 -1.1111
 5927SOL    HW129414   3.976   4.420  10.981 -0.4230  0.9196  1.1770
 5927SOL    HW229415   4.085   4.353  11.045 -0.8447  0.8319  1.2549
 5928SOL     OW29416   1.002   1.436   2.885 -0.1601  0.1406  0.0260
 5928SOL    HW129417   1.092   1.403   2.888 -0.5690 -0.5649  5.1198
 5928SOL    HW229418   0.972   1.401   2.801 -2.1455  0.7357  0.4990
 5929SOL     OW29419   1.180   0.715   2.350 -0.5251  0.4859 -0.2871
 5929SOL    HW129420   1.122   0.681   2.282 -0.3266 -0.2388 -0.0982
 5929SOL    HW229421   1.155   0.655   2.420 -0.8642  0.0859 -0.7527
 5930SOL     OW29422   2.875   4.264  16.791  0.0796 -0.3691  0.1809
 5930SOL    HW129423   2.949   4.283  16.732  1.3912 -1.2841  1.5330
 5930SOL    HW229424   2.911   4.256  16.879 -2.6734  0.0413  1.3323
 5931SOL     OW29425   1.053   0.219   2.204 -0.4204  0.2477 -0.4124
 5931SOL    HW129426   1.115   0.146   2.203 -1.1539 -0.3696 -0.7351
 5931SOL    HW229427   1.093   0.295   2.161 -0.2541  0.2010 -0.3393
 5932SOL     OW29428   2.158   0.687   7.161 -0.4728  0.2393  0.0361
 5932SOL    HW129429   2.179   0.645   7.077  1.1319 -0.1928  0.6527
 5932SOL    HW229430   2.156   0.617   7.226  0.5794  1.2976  1.1863
 5933SOL     OW29431   3.955   2.186  13.886 -0.4541 -0.4137  0.1634
 5933SOL    HW129432   3.863   2.176  13.859 -0.3980 -2.6801  0.8181
 5933SOL    HW229433   3.940   2.247  13.958 -0.1434  0.4506 -0.4949
 5934SOL     OW29434   1.912   2.932   3.738 -0.2006 -0.1300 -0.0214
 5934SOL    HW129435   1.933   2.895   3.823  0.0319  0.6567  0.2614
 5934SOL    HW229436   2.000   2.944   3.703  0.2218 -1.2118  0.6633
 5935SOL     OW29437   2.885   0.802   3.054 -0.2656 -0.2476 -0.0926
 5935SOL    HW129438   2.912   0.761   3.136 -2.7768  1.3412  1.5134
 5935SOL    HW229439   2.954   0.865   3.031 -0.8469  0.2396 -0.4920
 5936SOL     OW29440   1.794   2.958  16.741  0.2476 -0.0832  0.1910
 5936SOL    HW129441   1.866   2.954  16.678 -0.6286 -0.6623 -0.7744
 5936SOL    HW229442   1.718   2.959  16.682  0.6833  1.6956 -0.3629
 5937SOL     OW29443   1.185   3.214  14.664  0.1730 -0.2891  0.0421
 5937SOL    HW129444   1.275   3.214  14.632  0.4942  0.0688  0.9262
 5937SOL    HW229445   1.200   3.228  14.758 -0.0510 -0.2198  0.0681
 5938SOL     OW29446   2.555   1.044   2.490  0.6331  1.1344  0.3228
 5938SOL    HW129447   2.570   0.973   2.427 -0.0970  1.4197 -0.1844
 5938SOL    HW229448   2.604   1.117   2.451 -0.2060  1.0566 -0.8957
 5939SOL     OW29449   1.133   0.249   7.573 -0.4244 -0.0271  0.1494
 5939SOL    HW129450   1.054   0.287   7.535 -0.1926  0.5454  0.2402
 5939SOL    HW229451   1.104   0.243   7.664 -0.8884  2.5339  0.1716
 5940SOL     OW29452   1.894   4.612   1.235 -0.3024 -0.2350 -0.2835
 5940SOL    HW129453   1.826   4.562   1.189 -3.4904  1.9767  2.0352
 5940SOL    HW229454   1.930   4.674   1.171 -1.5629  2.2714  1.4299
 5941SOL     OW29455   2.747   2.994  15.352 -0.3615  0.4391  0.5004
 5941SOL    HW129456   2.758   2.942  15.432 -0.9442  0.5094  0.6269
 5941SOL    HW229457   2.780   2.931  15.288 -4.1903 -1.9465  0.8157
 5942SOL     OW29458   1.312   3.531  10.690 -0.0264 -0.0779 -0.6588
 5942SOL    HW129459   1.243   3.469  10.666 -0.2299 -0.7844  1.7443
 5942SOL    HW229460   1.387   3.472  10.701  0.4010  0.7101  0.6243
 5943SOL     OW29461   0.777   3.893  12.135  0.1346  0.1725  0.3329
 5943SOL    HW129462   0.769   3.847  12.219  0.1229 -0.2468  0.1004
 5943SOL    HW229463   0.790   3.818  12.078  0.2195  0.2539  0.2448
 5944SOL     OW29464   0.841   1.536  10.855 -0.0304 -0.1381 -0.3213
 5944SOL    HW129465   0.751   1.568  10.857 -0.0665  0.0208 -3.6655
 5944SOL    HW229466   0.837   1.479  10.932  0.1901  0.3086  0.0159
 5945SOL     OW29467   3.886   0.459   1.549 -0.3429 -0.0713  0.2494
 5945SOL    HW129468   3.840   0.375   1.544  1.1429 -0.9851  1.8870
 5945SOL    HW229469   3.842   0.511   1.482  1.8188  1.8489  0.3064
 5946SOL     OW29470   1.762   1.944   9.319  0.7547 -0.2261 -0.0157
 5946SOL    HW129471   1.832   1.881   9.334  0.4894 -0.3322  0.7646
 5946SOL    HW229472   1.788   1.996   9.395  0.6620 -0.2136  0.0080
 5947SOL     OW29473   1.306   3.266   8.974 -0.1963  0.5594 -0.4355
 5947SOL    HW129474   1.383   3.212   8.993 -0.5035  0.1189 -0.4476
 5947SOL    HW229475   1.252   3.209   8.919 -0.3718 -0.0519  0.3840
 5948SOL     OW29476   0.520   1.780   5.126  0.1746 -0.1322  0.1461
 5948SOL    HW129477   0.460   1.741   5.190  1.9965  1.1093  2.5898
 5948SOL    HW229478   0.606   1.751   5.155  0.7558  1.7191  0.2807
 5949SOL     OW29479   1.933   3.493   3.287  0.1039 -0.0082  0.9686
 5949SOL    HW129480   2.025   3.514   3.269 -0.1177  0.2815  0.1484
 5949SOL    HW229481   1.938   3.405   3.324 -0.1120 -0.0833  0.8190
 5950SOL     OW29482   4.497   2.535   1.705  0.6030  0.3869 -0.0663
 5950SOL    HW129483   4.449   2.453   1.708 -1.4760  1.5814 -0.7827
 5950SOL    HW229484   4.540   2.533   1.790  0.6554 -3.2548 -0.1786
 5951SOL     OW29485   3.706   4.239  12.794  0.1332  0.2547 -0.1030
 5951SOL    HW129486   3.746   4.153  12.783 -2.8110 -1.2002  0.4348
 5951SOL    HW229487   3.655   4.243  12.713 -0.2251  1.9683  0.2045
 5952SOL     OW29488   2.060   3.838   8.695 -0.2683  0.5488  0.1853
 5952SOL    HW129489   2.082   3.912   8.639  0.5630 -0.4002 -0.7336
 5952SOL    HW229490   2.095   3.875   8.777  0.2801 -2.2137  1.1824
 5953SOL     OW29491   3.649   0.817   6.448  0.7036 -0.3457 -0.1576
 5953SOL    HW129492   3.726   0.776   6.410  1.3802  0.7711  0.0161
 5953SOL    HW229493   3.641   0.769   6.531 -0.3356 -0.7042 -0.4680
 5954SOL     OW29494   3.698   0.422  12.716  0.5953  0.3858 -0.8906
 5954SOL    HW129495   3.787   0.391  12.729  0.8436  1.9916  1.2610
 5954SOL    HW229496   3.697   0.517  12.731  0.9414  0.4129 -1.0291
 5955SOL     OW29497   1.382   1.682   6.939  0.3379 -0.2295  0.5790
 5955SOL    HW129498   1.422   1.617   6.996  2.8436  1.4914  0.7601
 5955SOL    HW229499   1.461   1.701   6.888  0.1108  1.3598  0.8086
 5956SOL     OW29500   1.832   4.181   1.227  0.2620 -0.1323  0.1314
 5956SOL    HW129501   1.800   4.191   1.316 -1.4011  0.4767 -0.5382
 5956SOL    HW229502   1.893   4.107   1.226 -3.7239 -3.3618 -1.0639
 5957SOL     OW29503   3.187   3.238   6.975  0.7075  0.0517 -0.7981
 5957SOL    HW129504   3.275   3.274   6.960  0.2101  2.6910  2.6252
 5957SOL    HW229505   3.142   3.321   6.991  0.5347 -0.1246 -0.3517
 5958SOL     OW29506   1.506   0.129   3.442 -0.0521  0.6040  0.4721
 5958SOL    HW129507   1.486   0.036   3.452  0.4217  0.5358  0.7645
 5958SOL    HW229508   1.594   0.128   3.478 -0.4191  1.4739  1.4095
 5959SOL     OW29509   4.629   0.481   7.387 -0.0925 -0.0965 -0.5282
 5959SOL    HW129510   4.663   0.503   7.474 -3.5721  0.1715  0.7794
 5959SOL    HW229511   4.554   0.429   7.418  0.6551  0.0867  1.6106
 5960SOL     OW29512   4.020   2.601  15.549  0.1092 -0.2288 -0.1251
 5960SOL    HW129513   3.981   2.687  15.531 -0.4613 -0.8760 -1.9792
 5960SOL    HW229514   3.950   2.547  15.510 -1.0549  0.4832  0.9658
 5961SOL     OW29515   2.480   1.486   3.545 -0.1656  0.0569  0.8541
 5961SOL    HW129516   2.479   1.417   3.478 -0.4102  3.0738 -2.2062
 5961SOL    HW229517   2.489   1.562   3.488 -1.8458 -1.0477 -0.9091
 5962SOL     OW29518   4.654   2.699   6.415 -0.2363 -0.3485 -0.3889
 5962SOL    HW129519   4.660   2.650   6.498 -0.2474  0.0641 -0.1435
 5962SOL    HW229520   4.568   2.668   6.385 -1.4034  3.5582 -1.0148
 5963SOL     OW29521   3.321   0.089   9.429  0.1331  0.0609  0.8461
 5963SOL    HW129522   3.330   0.107   9.523  1.2050  1.9590  0.3783
 5963SOL    HW229523   3.378   0.013   9.425 -1.1962 -0.8267 -1.1686
 5964SOL     OW29524   0.148   3.669  11.095 -0.7973 -0.2621  0.8012
 5964SOL    HW129525   0.144   3.599  11.160 -1.3134 -2.8535 -2.0765
 5964SOL    HW229526   0.170   3.742  11.154 -0.0390 -0.4757  0.7888
 5965SOL     OW29527   0.236   1.411   1.851  1.0097 -0.0233  0.2899
 5965SOL    HW129528   0.316   1.389   1.802  1.1454 -0.1074  0.5463
 5965SOL    HW229529   0.287   1.440   1.927  0.6497  2.0884 -0.2888
 5966SOL     OW29530   1.949   3.706  14.522  0.4232 -0.1246  0.0246
 5966SOL    HW129531   1.897   3.667  14.452  1.3116 -0.7035 -0.3036
 5966SOL    HW229532   1.878   3.757  14.561  0.1806 -1.2437  1.0439
 5967SOL     OW29533   3.630   3.092   2.965 -0.5557 -0.5587  0.1642
 5967SOL    HW129534   3.719   3.073   2.933 -0.4909  0.9354 -0.5426
 5967SOL    HW229535   3.578   3.044   2.901  0.7116 -0.7008 -0.7727
 5968SOL     OW29536   3.220   1.456   5.259  0.3633  0.2546 -0.2905
 5968SOL    HW129537   3.311   1.466   5.286 -0.4950 -1.8816  3.4159
 5968SOL    HW229538   3.226   1.477   5.166  0.2456  0.5595 -0.2312
 5969SOL     OW29539   4.617   0.197   3.081 -0.6793 -0.0677  0.1476
 5969SOL    HW129540   4.576   0.117   3.048 -0.2675 -0.4177  0.4695
 5969SOL    HW229541   4.695   0.217   3.029 -0.7648 -1.7467 -0.6152
 5970SOL     OW29542   4.374   4.023   0.265 -0.0383  0.1582 -0.5942
 5970SOL    HW129543   4.441   4.062   0.210  1.1564 -1.6463 -0.4307
 5970SOL    HW229544   4.309   4.008   0.196 -0.2734  4.7410 -1.3564
 5971SOL     OW29545   0.087   3.172  11.329  0.2561 -0.0563 -0.4568
 5971SOL    HW129546   0.164   3.162  11.273  1.0958 -0.1834  0.7171
 5971SOL    HW229547   0.090   3.090  11.379  1.8369  0.0511 -0.3824
 5972SOL     OW29548   0.001   0.996  12.331  0.7539  0.4947 -0.5236
 5972SOL    HW129549   0.044   1.075  12.363  2.2647 -1.4535  2.2674
 5972SOL    HW229550   0.016   1.004  12.237  0.3917  2.5091 -0.4176
 5973SOL     OW29551   3.910   1.697  15.646 -0.4082 -0.2023  0.0571
 5973SOL    HW129552   3.890   1.791  15.644  2.0669  0.3141  0.0412
 5973SOL    HW229553   3.978   1.691  15.579 -0.3829  2.1596 -0.1370
 5974SOL     OW29554   1.336   2.532   1.301  0.0555  0.3376 -0.3102
 5974SOL    HW129555   1.399   2.603   1.304  2.4272 -1.7771  0.0845
 5974SOL    HW229556   1.382   2.448   1.308 -1.3105 -0.3572  0.5547
 5975SOL     OW29557   4.263   3.530   1.260  0.2187  0.2379  0.4001
 5975SOL    HW129558   4.277   3.437   1.247 -0.9666 -0.1453  1.7960
 5975SOL    HW229559   4.177   3.543   1.221  0.5994  2.2647  0.2109
 5976SOL     OW29560   1.519   2.950  17.058 -0.5389  0.0932  0.2479
 5976SOL    HW129561   1.425   2.932  17.054 -0.5568  0.3273 -0.3648
 5976SOL    HW229562   1.539   2.980  17.147  0.9145  2.3736 -0.8584
 5977SOL     OW29563   2.764   4.350   1.444  0.1794  0.0445 -0.1701
 5977SOL    HW129564   2.850   4.352   1.402 -0.4430 -0.8167 -1.4558
 5977SOL    HW229565   2.782   4.305   1.527 -0.1199  0.4588  0.1198
 5978SOL     OW29566   3.852   0.001  14.709  0.3583 -0.2140  0.4361
 5978SOL    HW129567   3.925   4.735  14.770 -0.2892 -3.1898  0.9267
 5978SOL    HW229568   3.789   4.674  14.739  0.5186  0.2234  1.7519
 5979SOL     OW29569   4.204   1.504   0.177 -0.0031  0.3237  0.4227
 5979SOL    HW129570   4.245   1.587   0.200 -2.4037  1.3780  0.8802
 5979SOL    HW229571   4.280   1.456   0.143 -1.0710 -0.7350 -0.4881
 5980SOL     OW29572   4.505   1.709   3.596  0.2468 -0.4315 -0.3543
 5980SOL    HW129573   4.491   1.767   3.671 -2.7928 -1.3465 -0.2128
 5980SOL    HW229574   4.437   1.754   3.546  1.8865 -2.3512 -4.2639
 5981SOL     OW29575   1.705   4.669   6.210  0.2169 -0.2645  0.0041
 5981SOL    HW129576   1.692   4.688   6.303  1.4906 -0.4797  0.2307
 5981SOL    HW229577   1.798   4.692   6.214  0.1513  0.0271 -0.1527
 5982SOL     OW29578   2.076   4.573   7.250  0.4067 -0.2785 -0.4903
 5982SOL    HW129579   2.075   4.632   7.175 -3.6209  0.3543  0.0706
 5982SOL    HW229580   2.160   4.527   7.239  0.2204 -0.2947 -1.8471
 5983SOL     OW29581   0.931   3.462   2.249  0.2251 -0.8484 -0.1543
 5983SOL    HW129582   0.956   3.551   2.273  2.9704 -2.3983  2.6520
 5983SOL    HW229583   0.982   3.417   2.316 -0.1394  0.0756  0.7399
 5984SOL     OW29584   0.862   4.396   2.904 -1.0601 -0.7124  0.5081
 5984SOL    HW129585   0.889   4.311   2.869  0.8032  0.5501 -1.2000
 5984SOL    HW229586   0.809   4.374   2.980 -0.2076 -2.8080  0.4940
 5985SOL     OW29587   2.943   1.308  15.594 -0.1614 -0.2732  0.0973
 5985SOL    HW129588   2.865   1.326  15.646  0.8780  0.1066  1.5378
 5985SOL    HW229589   2.975   1.242  15.655 -0.3819 -0.5073 -0.0443
 5986SOL     OW29590   1.436   0.439   4.146  0.4229  0.4148  0.4383
 5986SOL    HW129591   1.450   0.346   4.164  1.3386 -0.2101 -3.3551
 5986SOL    HW229592   1.404   0.461   4.233 -1.9580 -0.6598 -0.1382
 5987SOL     OW29593   3.849   1.609   1.877  0.1333 -0.6258  0.1745
 5987SOL    HW129594   3.769   1.584   1.922 -0.9562 -0.7198 -1.8251
 5987SOL    HW229595   3.905   1.531   1.877 -0.5341 -1.1161 -2.2911
 5988SOL     OW29596   2.241   2.005   2.136  0.3500 -0.3322  0.4191
 5988SOL    HW129597   2.159   2.001   2.184 -0.5621 -1.8379 -1.2926
 5988SOL    HW229598   2.286   2.077   2.181 -1.4633  0.9230  0.1994
 5989SOL     OW29599   3.121   3.157   8.089 -0.1301  0.1467 -0.1132
 5989SOL    HW129600   3.117   3.212   8.010 -0.5740 -1.5225 -1.2398
 5989SOL    HW229601   3.212   3.153   8.119  0.2947  1.4132 -1.2449
 5990SOL     OW29602   0.630   4.739   4.037 -0.1856  0.0725 -0.0166
 5990SOL    HW129603   0.682   0.051   3.976  0.2803 -0.5379 -0.1424
 5990SOL    HW229604   0.575   4.698   3.971 -2.8836 -0.0022  2.2628
 5991SOL     OW29605   2.706   2.226  12.054 -0.1490  0.2812 -0.2939
 5991SOL    HW129606   2.679   2.135  12.056  2.5211 -0.4861  0.5463
 5991SOL    HW229607   2.799   2.211  12.039 -0.7534 -1.9977 -1.6561
 5992SOL     OW29608   4.665   0.967  17.354 -0.4161  0.4069 -0.1398
 5992SOL    HW129609   4.645   0.879  17.323 -1.5542  0.4586  0.4398
 5992SOL    HW229610   0.020   0.952  17.360 -0.7332 -0.3478  3.1501
 5993SOL     OW29611   1.845   0.916   4.105  0.0016 -0.0508 -0.2459
 5993SOL    HW129612   1.862   0.963   4.187 -0.8386  1.0116 -0.6869
 5993SOL    HW229613   1.749   0.924   4.099 -0.1950 -2.8510 -1.1887
 5994SOL     OW29614   1.645   1.500  16.408  0.8759  0.3544  0.3007
 5994SOL    HW129615   1.656   1.474  16.500  2.3376  0.1070  0.0534
 5994SOL    HW229616   1.730   1.542  16.398  0.9030  0.4745  0.9831
 5995SOL     OW29617   4.636   0.763   3.431 -0.1743 -0.4427 -0.2630
 5995SOL    HW129618   4.683   0.780   3.349  0.6914  1.3756  0.5892
 5995SOL    HW229619   4.549   0.800   3.415  0.4424  0.4916 -1.4220
 5996SOL     OW29620   2.761   3.474   2.613  0.0517  0.2184 -0.0386
 5996SOL    HW129621   2.770   3.379   2.621  0.1649  0.3918  1.7408
 5996SOL    HW229622   2.840   3.486   2.559  1.2664 -1.5405  1.3604
 5997SOL     OW29623   3.591   0.056   3.360 -0.1953 -0.0322  0.3151
 5997SOL    HW129624   3.615   0.017   3.444 -1.8545 -1.4801  0.1098
 5997SOL    HW229625   3.670   0.037   3.308  2.3432  4.1674  2.6580
 5998SOL     OW29626   2.409   4.170   8.900  0.2012 -0.0782 -0.6885
 5998SOL    HW129627   2.442   4.257   8.881  0.7157  0.0213  0.6452
 5998SOL    HW229628   2.379   4.167   8.991  1.6276  2.3526 -0.1370
 5999SOL     OW29629   0.801   3.845   7.153 -0.5969  0.4911  0.2964
 5999SOL    HW129630   0.854   3.920   7.179 -1.1679  0.3484  1.8658
 5999SOL    HW229631   0.725   3.863   7.208 -0.3635  1.3723  0.3323
 6000SOL     OW29632   3.102   4.191  10.490  0.1795 -0.2616  0.0789
 6000SOL    HW129633   3.115   4.111  10.439 -0.3423 -0.3189  0.0368
 6000SOL    HW229634   3.154   4.249  10.433  1.0137  0.7200  1.8422
 6001SOL     OW29635   1.919   0.210   2.608  0.2089  0.1061 -0.7346
 6001SOL    HW129636   1.889   0.277   2.669  1.0525 -0.7945  0.6723
 6001SOL    HW229637   2.014   0.216   2.622  0.0700 -3.3098  1.6894
 6002SOL     OW29638   2.669   1.167   4.911  0.3740 -0.4509 -0.0027
 6002SOL    HW129639   2.684   1.073   4.920  2.3134 -0.1417  0.1579
 6002SOL    HW229640   2.750   1.201   4.949  0.3125  1.9917 -2.0268
 6003SOL     OW29641   4.429   1.150   1.464 -0.1038  0.1604  0.0352
 6003SOL    HW129642   4.480   1.105   1.397 -0.0738  0.6792 -0.2885
 6003SOL    HW229643   4.384   1.211   1.405 -1.0417 -2.2580 -1.7431
 6004SOL     OW29644   0.075   4.648   6.877 -0.7954  0.2314 -0.2044
 6004SOL    HW129645   0.050   4.702   6.952  0.4919 -0.5686  0.7970
 6004SOL    HW229646   0.103   4.567   6.920 -2.0231  0.4232  0.9822
 6005SOL     OW29647   2.957   4.712   2.275 -0.2089 -0.8738 -0.2319
 6005SOL    HW129648   2.975   4.699   2.368 -0.6158 -2.6071 -0.4036
 6005SOL    HW229649   2.865   4.687   2.279 -0.1733 -0.8209  0.7312
 6006SOL     OW29650   0.960   0.606   3.046  0.0199 -0.3091  0.0303
 6006SOL    HW129651   0.917   0.561   2.972  0.4169  1.4067 -1.2358
 6006SOL    HW229652   0.943   0.691   3.005  1.4074  2.0936  4.4902
 6007SOL     OW29653   1.633   0.389   8.735 -0.2194 -0.0562 -0.1083
 6007SOL    HW129654   1.659   0.306   8.775 -1.1757 -0.4940 -0.4035
 6007SOL    HW229655   1.571   0.361   8.668 -1.1295  0.3767  0.5570
 6008SOL     OW29656   3.834   1.640   6.280 -1.3991  0.6383  0.3806
 6008SOL    HW129657   3.826   1.559   6.230  0.4770 -0.9378  2.6065
 6008SOL    HW229658   3.916   1.671   6.241 -1.1814 -1.9390 -1.1736
 6009SOL     OW29659   0.106   0.309   7.319 -0.3863  0.3054  0.1359
 6009SOL    HW129660   0.162   0.385   7.306 -1.1333  0.7680 -0.4185
 6009SOL    HW229661   0.023   0.349   7.347 -0.3556 -0.4324  1.2738
 6010SOL     OW29662   2.318   3.574   6.860 -0.1381  0.1124 -0.2619
 6010SOL    HW129663   2.267   3.551   6.937  1.1410  2.7392  1.3800
 6010SOL    HW229664   2.393   3.619   6.900 -0.5222  0.6373 -0.1278
 6011SOL     OW29665   4.306   2.021  12.152  0.4412  0.1036  0.0735
 6011SOL    HW129666   4.249   1.947  12.174  0.4899  0.3800  1.1094
 6011SOL    HW229667   4.371   2.028  12.221  0.3304  0.2975  0.1609
 6012SOL     OW29668   2.215   1.301   2.570 -0.0004 -0.2031 -0.0979
 6012SOL    HW129669   2.303   1.336   2.555 -0.7211  0.2424 -3.3323
 6012SOL    HW229670   2.166   1.345   2.500  0.5219 -1.3001 -1.1544
 6013SOL     OW29671   3.197   2.621   2.714  0.0499 -0.0768 -0.1273
 6013SOL    HW129672   3.254   2.558   2.671  1.2890  0.9091  0.0834
 6013SOL    HW229673   3.199   2.576   2.798  1.0553 -0.7290 -0.5005
 6014SOL     OW29674   3.477   4.255   3.522 -0.2090 -0.4796 -0.3899
 6014SOL    HW129675   3.527   4.195   3.577  1.3995  2.8890  1.8379
 6014SOL    HW229676   3.388   4.245   3.557 -0.5720 -0.2126 -1.2525
 6015SOL     OW29677   1.736   4.722  10.277  0.1180 -0.3452  0.0646
 6015SOL    HW129678   1.705   4.632  10.289 -0.0778 -0.2296  0.4648
 6015SOL    HW229679   1.717   4.733  10.184  1.7306  0.4333 -0.1694
 6016SOL     OW29680   4.411   2.400   8.473  0.1885  0.3658  1.0232
 6016SOL    HW129681   4.384   2.317   8.513 -1.1524 -0.0952 -0.7850
 6016SOL    HW229682   4.493   2.414   8.519  1.8046  0.1779 -1.8172
 6017SOL     OW29683   3.637   3.282   8.860 -0.3531  0.1538  0.0736
 6017SOL    HW129684   3.718   3.276   8.910  0.5798  0.0906 -1.4671
 6017SOL    HW229685   3.658   3.200   8.815  0.2107  1.3523 -1.8352
 6018SOL     OW29686   1.012   0.848  14.397  0.5712  0.4578 -0.0606
 6018SOL    HW129687   1.044   0.930  14.360  0.0003  1.8943  2.6544
 6018SOL    HW229688   1.042   0.858  14.487 -1.3114 -2.1367  0.8614
 6019SOL     OW29689   2.150   0.664   3.178  0.1458  0.4391 -0.6367
 6019SOL    HW129690   2.060   0.690   3.197 -0.2888 -1.0276 -0.7045
 6019SOL    HW229691   2.146   0.577   3.217 -0.1606  1.0159  0.6099
 6020SOL     OW29692   1.938   0.353  15.643 -0.1605  0.1850 -0.7754
 6020SOL    HW129693   1.929   0.436  15.597  1.4285  0.7969  0.0327
 6020SOL    HW229694   1.987   0.310  15.573  1.7926  2.6369 -0.8837
 6021SOL     OW29695   0.003   3.195   8.490  0.4278  0.2253 -0.0627
 6021SOL    HW129696   4.702   3.278   8.515 -1.1935 -0.1716 -1.4033
 6021SOL    HW229697   4.665   3.141   8.473  0.6202  0.5584 -1.9963
 6022SOL     OW29698   2.692   0.898   6.466  0.0104  0.4917 -0.7474
 6022SOL    HW129699   2.604   0.861   6.479  0.5330 -0.1468  0.9609
 6022SOL    HW229700   2.696   0.975   6.523 -3.0301  0.7747 -0.9153
 6023SOL     OW29701   1.689   4.024  15.973  0.0298 -0.7482 -0.3687
 6023SOL    HW129702   1.743   3.947  15.992 -1.7478 -0.9672  3.8522
 6023SOL    HW229703   1.683   4.066  16.059  1.7798 -2.8318  0.7882
 6024SOL     OW29704   2.843   1.085   8.510 -0.2176  0.1073  0.1662
 6024SOL    HW129705   2.780   1.155   8.495 -0.1385 -0.5296 -3.3201
 6024SOL    HW229706   2.873   1.069   8.420 -2.7845 -1.2007 -0.4746
 6025SOL     OW29707   2.518   3.499   4.271 -0.5287  0.4819 -0.0896
 6025SOL    HW129708   2.543   3.543   4.189  1.7649 -0.1270  0.2852
 6025SOL    HW229709   2.430   3.463   4.262  0.0264 -1.4238  2.2370
 6026SOL     OW29710   2.738   3.016  13.980 -0.3690 -0.6627  0.7404
 6026SOL    HW129711   2.831   2.992  13.982 -0.3102 -0.4311  0.8525
 6026SOL    HW229712   2.698   2.931  13.999 -0.7841 -0.6800 -0.2032
 6027SOL     OW29713   3.679   2.897   7.522  0.1985  0.0614 -0.1219
 6027SOL    HW129714   3.619   2.858   7.458  0.3289 -0.6429  0.1873
 6027SOL    HW229715   3.733   2.944   7.458 -2.1960  1.9475 -0.7419
 6028SOL     OW29716   3.451   0.719  11.534  0.3333 -0.7566 -0.1070
 6028SOL    HW129717   3.497   0.758  11.609 -0.7175  0.6327 -0.1896
 6028SOL    HW229718   3.455   0.779  11.460 -0.8553 -1.2461 -0.5510
 6029SOL     OW29719   2.312   0.860  13.657  0.4208  0.3228 -1.0565
 6029SOL    HW129720   2.400   0.827  13.671  0.5306  0.1371 -2.1683
 6029SOL    HW229721   2.261   0.793  13.702 -0.5924  1.5717 -0.3381
 6030SOL     OW29722   3.961   3.995  10.189 -0.5010  0.2403  0.6148
 6030SOL    HW129723   3.975   4.089  10.185  1.7623 -0.1469 -0.2041
 6030SOL    HW229724   3.876   3.977  10.149  0.6069  2.2034 -2.6223
 6031SOL     OW29725   2.114   4.108   7.723 -0.3299 -0.5699  0.5625
 6031SOL    HW129726   2.142   4.077   7.637 -0.5103 -1.8620  0.9729
 6031SOL    HW229727   2.194   4.109   7.775  1.1305  2.4022 -1.7396
 6032SOL     OW29728   1.502   3.910   5.050 -0.3292  0.6516 -0.1566
 6032SOL    HW129729   1.439   3.840   5.031  1.7179 -0.3852 -3.2740
 6032SOL    HW229730   1.502   3.955   4.965  1.8038  1.1853  0.1112
 6033SOL     OW29731   2.358   4.258   9.633  0.4606 -0.2696 -0.3484
 6033SOL    HW129732   2.308   4.177   9.645  3.4085 -1.2512  4.9792
 6033SOL    HW229733   2.304   4.297   9.564  0.8157 -2.6342 -1.9784
 6034SOL     OW29734   1.767   3.132   9.206  0.5339 -0.2850  0.0858
 6034SOL    HW129735   1.813   3.083   9.274 -1.5912 -0.9629  1.0274
 6034SOL    HW229736   1.808   3.218   9.206 -0.3970  0.1631  0.0349
 6035SOL     OW29737   1.939   0.609   9.744  0.0653  0.5101 -0.6498
 6035SOL    HW129738   1.971   0.675   9.806 -1.0126  0.1888  0.2386
 6035SOL    HW229739   1.844   0.622   9.748  0.0798  0.5106 -0.3099
 6036SOL     OW29740   1.007   0.126  17.068  0.3977 -0.5303 -0.0434
 6036SOL    HW129741   0.927   0.172  17.045  0.6891 -0.9458 -1.8726
 6036SOL    HW229742   1.066   0.117  16.993  2.0951  2.9619  0.8815
 6037SOL     OW29743   3.221   2.385   8.770 -0.2478 -0.5812  0.4449
 6037SOL    HW129744   3.157   2.374   8.700 -0.1054 -1.0647  0.3925
 6037SOL    HW229745   3.218   2.297   8.808  2.0776 -0.0380  1.8897
 6038SOL     OW29746   4.497   1.478   8.057  0.4163  0.4041  0.1865
 6038SOL    HW129747   4.517   1.497   8.149 -0.0482  0.7051  0.2251
 6038SOL    HW229748   4.517   1.385   8.059 -1.3501  0.0021 -0.7553
 6039SOL     OW29749   1.796   0.294  17.350  0.0166  0.4846  0.4646
 6039SOL    HW129750   1.829   0.222  17.403 -0.6785 -1.0447 -1.1829
 6039SOL    HW229751   1.712   0.316  17.391 -1.4183  0.1507 -2.3139
 6040SOL     OW29752   1.255   2.511   8.285  0.1473  0.0220 -0.1202
 6040SOL    HW129753   1.208   2.525   8.367 -2.4269  0.5869 -1.6930
 6040SOL    HW229754   1.267   2.603   8.261  1.6675  0.3496  1.9141
 6041SOL     OW29755   3.491   2.713   6.055  0.0411  0.4582  0.0723
 6041SOL    HW129756   3.562   2.662   6.016  0.5444  0.5907  0.8348
 6041SOL    HW229757   3.531   2.798   6.035  0.7893  0.5307  1.8592
 6042SOL     OW29758   2.079   1.294   0.148 -0.0897 -0.2201  0.0632
 6042SOL    HW129759   2.169   1.328   0.143 -0.5299  1.1437  1.2822
 6042SOL    HW229760   2.058   1.295   0.241  0.7465 -2.2864  0.2630
 6043SOL     OW29761   0.404   4.201  13.926  0.3828  0.1706  0.2554
 6043SOL    HW129762   0.422   4.277  13.871 -0.0391 -1.2171 -1.7953
 6043SOL    HW229763   0.447   4.131  13.878  2.3928  0.2706  1.9341
 6044SOL     OW29764   0.261   2.308  11.877  0.0592 -0.2950  0.2871
 6044SOL    HW129765   0.179   2.356  11.880  0.1874  0.0077 -0.7934
 6044SOL    HW229766   0.254   2.274  11.966 -2.5047  1.4279  0.7468
 6045SOL     OW29767   4.403   3.088  11.754 -0.7256  0.3073 -0.6815
 6045SOL    HW129768   4.399   3.080  11.659  1.7585  0.5424 -0.8056
 6045SOL    HW229769   4.332   3.027  11.775 -0.7049  0.2103 -0.8933
 6046SOL     OW29770   0.208   1.840   6.144  0.5301 -0.4433  0.7604
 6046SOL    HW129771   0.216   1.746   6.156 -1.8125 -0.8263 -0.6751
 6046SOL    HW229772   0.180   1.843   6.052  0.0442 -0.1792  0.9133
 6047SOL     OW29773   2.870   0.114   4.771  0.1453  0.0549  0.4894
 6047SOL    HW129774   2.862   0.202   4.734 -1.9341 -0.4132 -0.1354
 6047SOL    HW229775   2.848   0.062   4.694  0.0049 -0.2254  0.7242
 6048SOL     OW29776   3.570   4.185   4.701 -0.1689 -0.3622  0.1587
 6048SOL    HW129777   3.512   4.207   4.627  0.9383  0.0622 -0.5971
 6048SOL    HW229778   3.632   4.258   4.688 -0.2758 -0.4466 -0.8739
 6049SOL     OW29779   0.827   0.640   9.063 -0.8441 -0.2168  0.0963
 6049SOL    HW129780   0.875   0.567   9.102 -1.4602  0.3573  1.9142
 6049SOL    HW229781   0.877   0.712   9.101 -1.3442  0.6503 -0.8869
 6050SOL     OW29782   4.665   1.058   1.753  0.3005 -0.2749 -0.8248
 6050SOL    HW129783   4.709   1.119   1.694 -0.3539  1.4338  0.4592
 6050SOL    HW229784   4.636   0.981   1.705  2.2221 -0.9159 -0.9738
 6051SOL     OW29785   4.094   3.905   4.535  0.2738  0.1701  0.0803
 6051SOL    HW129786   4.177   3.924   4.578  1.0119  0.3778 -1.4282
 6051SOL    HW229787   4.026   3.947   4.588 -1.6659  1.0278 -3.0615
 6052SOL     OW29788   2.337   1.839   2.797 -0.3264  0.0724 -0.7578
 6052SOL    HW129789   2.340   1.763   2.739 -0.8659  0.5811 -1.4453
 6052SOL    HW229790   2.348   1.907   2.730  2.7499 -0.1197 -0.4149
 6053SOL     OW29791   0.898   0.125  10.289 -0.5286  0.5475 -0.1999
 6053SOL    HW129792   0.816   0.175  10.287 -0.3291  0.9092  0.7109
 6053SOL    HW229793   0.963   0.190  10.316 -1.2522  1.6725 -1.1853
 6054SOL     OW29794   3.259   2.342  14.407  0.3775 -0.5928 -0.2531
 6054SOL    HW129795   3.239   2.250  14.393 -1.6805 -0.3324  1.0670
 6054SOL    HW229796   3.251   2.348  14.502 -1.8512  1.0063 -0.5223
 6055SOL     OW29797   4.304   2.408  16.370  0.2197 -0.2544  0.2071
 6055SOL    HW129798   4.362   2.354  16.425  1.9904 -0.2700 -1.6522
 6055SOL    HW229799   4.314   2.364  16.285 -2.4615 -1.1617  0.3597
 6056SOL     OW29800   3.055   2.817  12.662  0.6293  0.7780 -0.0918
 6056SOL    HW129801   3.065   2.802  12.568  0.1944  0.6630 -0.1192
 6056SOL    HW229802   3.081   2.909  12.665  0.4666  0.8102  0.4585
 6057SOL     OW29803   3.471   0.615   8.693 -0.6122 -0.0068 -0.4099
 6057SOL    HW129804   3.442   0.564   8.617 -1.9007  0.5037 -0.2682
 6057SOL    HW229805   3.530   0.679   8.655 -2.3618  1.7931 -0.0989
 6058SOL     OW29806   0.791   2.961   2.704  0.1209  0.1083  0.1598
 6058SOL    HW129807   0.700   2.932   2.709  0.0642  0.3340  0.4731
 6058SOL    HW229808   0.798   2.995   2.794  1.5044 -1.6507  0.7242
 6059SOL     OW29809   1.338   0.479  15.049 -0.3205 -0.1651  0.4386
 6059SOL    HW129810   1.353   0.405  14.990  0.6450 -1.7976  2.7241
 6059SOL    HW229811   1.294   0.438  15.124 -0.3529  0.8938  0.9988
 6060SOL     OW29812   2.395   4.076   1.507  0.1475  0.0368  0.2700
 6060SOL    HW129813   2.444   4.157   1.496 -2.0919  1.3673  0.0879
 6060SOL    HW229814   2.315   4.118   1.476 -0.6205 -1.2230  0.5297
 6061SOL     OW29815   2.990   0.078   6.819  0.5014 -0.4049 -0.2761
 6061SOL    HW129816   3.007   4.723   6.827  1.7790 -0.1954 -0.5136
 6061SOL    HW229817   2.964   0.083   6.727  1.4432  0.4468 -0.5012
 6062SOL     OW29818   3.699   3.885   4.382 -0.8088  0.2432  0.0003
 6062SOL    HW129819   3.721   3.921   4.468 -1.2500  0.5946 -0.0284
 6062SOL    HW229820   3.721   3.796   4.408 -0.4853 -0.4810 -2.6941
 6063SOL     OW29821   2.349   4.239   5.561  0.3182 -0.0157 -0.1808
 6063SOL    HW129822   2.375   4.317   5.610  3.5864 -1.6554  0.7430
 6063SOL    HW229823   2.406   4.168   5.592 -1.1264 -1.8244 -1.6370
 6064SOL     OW29824   1.237   2.647   7.125 -0.6745 -0.1729  0.8344
 6064SOL    HW129825   1.187   2.631   7.045 -1.5896  0.6064  1.2419
 6064SOL    HW229826   1.251   2.742   7.120  0.1010 -0.3826 -1.0914
 6065SOL     OW29827   0.510   1.455  11.495  0.0468  0.0407 -0.0039
 6065SOL    HW129828   0.564   1.378  11.476  0.1016 -0.4698  2.2623
 6065SOL    HW229829   0.440   1.431  11.433 -0.3903  0.5866  0.2781
 6066SOL     OW29830   3.384   1.820   0.861  0.3230  0.7348 -0.2832
 6066SOL    HW129831   3.365   1.727   0.852  0.1287  0.8733 -1.2936
 6066SOL    HW229832   3.294   1.849   0.855 -0.3646 -1.3953 -0.2177
 6067SOL     OW29833   2.120   4.426   4.184  0.6615  0.7984 -0.3657
 6067SOL    HW129834   2.085   4.502   4.231  0.0830  1.1598 -1.3851
 6067SOL    HW229835   2.211   4.452   4.166  0.9797 -1.0645 -1.4312
 6068SOL     OW29836   2.578   1.342   4.000 -0.2429 -0.4553 -0.2789
 6068SOL    HW129837   2.506   1.344   3.936 -1.1267  1.6167  0.7939
 6068SOL    HW229838   2.590   1.247   3.992 -0.4119 -0.5225  0.2500
 6069SOL     OW29839   0.520   2.032   6.337  0.2034  0.6689 -0.2361
 6069SOL    HW129840   0.488   2.034   6.247  1.4360  1.7166 -0.6513
 6069SOL    HW229841   0.499   2.120   6.366  1.5917  1.4178 -1.4603
 6070SOL     OW29842   0.105   2.719   6.884  0.5526  0.1325  0.3206
 6070SOL    HW129843   0.173   2.671   6.933  1.2911  0.9777  0.1310
 6070SOL    HW229844   0.153   2.801   6.869  0.9919  0.3268  2.7602
 6071SOL     OW29845   3.823   1.137   2.641 -0.1388  0.0245  0.2185
 6071SOL    HW129846   3.766   1.092   2.578  0.1861 -0.5947  0.3619
 6071SOL    HW229847   3.909   1.108   2.609 -0.8526 -1.6674 -0.1636
 6072SOL     OW29848   4.171   4.116   4.050 -0.7427  0.0379 -0.4208
 6072SOL    HW129849   4.212   4.034   4.081  0.8560  0.5254 -1.2683
 6072SOL    HW229850   4.251   4.155   4.015 -0.9459 -0.0472 -0.9815
 6073SOL     OW29851   1.903   0.367  12.319 -0.2297  0.5732  0.1010
 6073SOL    HW129852   1.907   0.461  12.341  0.5628  0.3652  0.8845
 6073SOL    HW229853   1.960   0.339  12.390  1.5662 -2.5598 -2.5944
 6074SOL     OW29854   1.396   0.430   7.940 -0.3144 -0.5176  0.4594
 6074SOL    HW129855   1.369   0.339   7.926  0.5680 -0.7575  0.3502
 6074SOL    HW229856   1.310   0.471   7.955  0.6532  1.1832  1.3106
 6075SOL     OW29857   0.230   1.926   5.510 -0.1820  0.0683 -0.1074
 6075SOL    HW129858   0.181   2.007   5.502 -1.2277 -0.8737 -2.9809
 6075SOL    HW229859   0.161   1.870   5.474  2.3707 -1.5343 -2.4820
 6076SOL     OW29860   2.259   4.187   6.898 -0.1454 -0.1092 -0.5057
 6076SOL    HW129861   2.212   4.106   6.916  1.0717  0.0068  3.2264
 6076SOL    HW229862   2.193   4.235   6.849  0.4835  1.2404 -0.0418
 6077SOL     OW29863   1.748   2.410   7.548  0.0631  0.7357 -0.2088
 6077SOL    HW129864   1.706   2.417   7.634 -1.4989  1.2981 -1.0138
 6077SOL    HW229865   1.698   2.473   7.495 -2.2798  0.0777  1.1906
 6078SOL     OW29866   4.356   2.133   3.908 -0.0729  0.4707  0.0641
 6078SOL    HW129867   4.383   2.160   3.996  1.1845 -1.2184  0.1932
 6078SOL    HW229868   4.265   2.164   3.904  0.1938  1.0362 -1.9680
 6079SOL     OW29869   3.474   2.322   9.858  0.1078  0.2362 -0.5249
 6079SOL    HW129870   3.561   2.285   9.874  0.3087  1.0108  0.1879
 6079SOL    HW229871   3.469   2.390   9.925 -0.3257  0.8395 -1.1864
 6080SOL     OW29872   1.649   3.967   5.723 -0.1986  0.0450 -0.4393
 6080SOL    HW129873   1.604   4.008   5.650  0.5807 -0.9438 -1.4805
 6080SOL    HW229874   1.741   3.978   5.697  0.1127  0.2069  0.6868
 6081SOL     OW29875   4.413   2.363   8.814  0.3394  0.2211 -0.2495
 6081SOL    HW129876   4.448   2.282   8.776  0.1583  1.5105 -3.1674
 6081SOL    HW229877   4.444   2.363   8.905 -1.1377 -1.3790  0.2443
 6082SOL     OW29878   3.279   2.504   5.740 -0.6045 -0.0599  0.6006
 6082SOL    HW129879   3.268   2.411   5.720  1.2916 -0.1615  0.0825
 6082SOL    HW229880   3.230   2.548   5.671 -0.8695  1.5106  1.8076
 6083SOL     OW29881   1.953   2.469   2.590 -0.4531  0.4885 -0.1645
 6083SOL    HW129882   2.004   2.511   2.521 -0.2799 -0.9583 -0.9292
 6083SOL    HW229883   1.859   2.485   2.582 -0.4295  1.1263  0.9306
 6084SOL     OW29884   3.086   3.984   6.325  0.4233 -0.1414 -0.1143
 6084SOL    HW129885   3.061   4.047   6.258 -1.4927 -1.7475 -0.9229
 6084SOL    HW229886   3.164   3.940   6.292  0.2726 -0.5481  0.0619
 6085SOL     OW29887   1.081   1.494   0.495 -0.1115  0.3698  0.1403
 6085SOL    HW129888   1.169   1.520   0.468  0.2345 -0.4916  0.4633
 6085SOL    HW229889   1.094   1.401   0.513  1.2499  0.4035 -0.7092
 6086SOL     OW29890   1.905   0.076  11.540  0.9322 -0.2508  0.3545
 6086SOL    HW129891   1.848   0.001  11.554 -0.8010  0.6964 -1.5596
 6086SOL    HW229892   1.899   0.086  11.445  1.8880  0.4124  0.3572
 6087SOL     OW29893   1.034   2.608   4.799 -0.2491 -0.2973  0.6340
 6087SOL    HW129894   1.127   2.586   4.811 -0.6820 -1.4373  1.8636
 6087SOL    HW229895   0.989   2.533   4.761  0.8727 -1.2930  1.2812
 6088SOL     OW29896   0.749   4.545   8.239 -0.2613 -0.5874 -0.6296
 6088SOL    HW129897   0.803   4.536   8.160 -3.0321  2.4970 -2.8754
 6088SOL    HW229898   0.787   4.627   8.272  1.1680 -0.8032 -1.7446
 6089SOL     OW29899   3.893   1.822  13.497  0.1626  0.6737 -0.3844
 6089SOL    HW129900   3.975   1.869  13.512  1.6388 -2.7589  2.1790
 6089SOL    HW229901   3.885   1.806  13.402 -0.8914 -0.1511 -0.1602
 6090SOL     OW29902   4.384   1.022   3.095 -0.1574  0.2823  0.2634
 6090SOL    HW129903   4.354   1.086   3.030  0.0220 -2.0736 -2.1266
 6090SOL    HW229904   4.475   1.004   3.072  0.1138  0.4792  1.1768
 6091SOL     OW29905   3.541   2.439   2.057  0.0584 -0.2109  0.1355
 6091SOL    HW129906   3.609   2.418   1.993  0.1088 -0.4008  0.2496
 6091SOL    HW229907   3.563   2.531   2.068 -0.4783  0.4766 -4.6635
 6092SOL     OW29908   3.112   4.557   7.161 -0.0069  0.2844  0.0691
 6092SOL    HW129909   3.144   4.502   7.232  1.9840  1.0708 -0.2189
 6092SOL    HW229910   3.190   4.586   7.113  0.6857 -0.4886  0.7409
 6093SOL     OW29911   0.318   1.539   6.497  0.1225 -0.1875 -0.1034
 6093SOL    HW129912   0.356   1.553   6.583  0.2434 -2.9442  0.3083
 6093SOL    HW229913   0.332   1.626   6.460 -2.6210  0.1508 -0.3903
 6094SOL     OW29914   0.959   3.150   1.844  0.0885  0.0136  0.0331
 6094SOL    HW129915   0.894   3.216   1.820  0.4979 -0.2743 -1.8969
 6094SOL    HW229916   0.904   3.088   1.891 -2.2637  2.8141  0.9420
 6095SOL     OW29917   0.748   3.048   7.395  0.3180 -0.2560  0.2768
 6095SOL    HW129918   0.787   2.993   7.463  0.0660 -1.5546 -0.6268
 6095SOL    HW229919   0.698   2.990   7.337  2.4893 -0.8086 -1.0764
 6096SOL     OW29920   4.274   4.546   7.387 -0.1595 -0.6378 -0.5202
 6096SOL    HW129921   4.185   4.509   7.388  0.0399 -1.1686 -2.5008
 6096SOL    HW229922   4.307   4.508   7.305 -2.2488  0.4522 -1.8477
 6097SOL     OW29923   4.233   3.480  16.707  0.0084  0.3823  0.6406
 6097SOL    HW129924   4.320   3.519  16.706  0.1353  0.0779 -1.7006
 6097SOL    HW229925   4.195   3.481  16.794 -0.9905  0.6206  0.1969
 6098SOL     OW29926   2.145   0.812   7.576 -0.3501 -0.0510 -0.5866
 6098SOL    HW129927   2.053   0.788   7.560 -0.4971  0.8009 -1.0658
 6098SOL    HW229928   2.193   0.749   7.522 -0.3399 -0.4721 -0.0782
 6099SOL     OW29929   3.651   1.896  11.997  0.3285  0.1517  0.0919
 6099SOL    HW129930   3.607   1.813  12.015 -1.0571  0.8289 -0.2242
 6099SOL    HW229931   3.662   1.879  11.903 -1.8691  0.9050 -0.2969
 6100SOL     OW29932   4.737   2.323  13.770 -0.6834 -0.2584  0.1895
 6100SOL    HW129933   4.681   2.277  13.833 -0.6349 -1.2772 -0.5169
 6100SOL    HW229934   4.678   2.327  13.696 -0.6749 -1.1522  0.1354
 6101SOL     OW29935   3.766   4.676  16.667  0.0180 -0.0623 -0.9073
 6101SOL    HW129936   3.786   4.653  16.758 -3.8185 -0.5358 -0.1945
 6101SOL    HW229937   3.688   4.731  16.673 -0.7938 -1.5031  1.4543
 6102SOL     OW29938   2.733   0.698   5.449 -0.3330 -0.1635 -0.3703
 6102SOL    HW129939   2.737   0.763   5.519 -0.3935  0.0860 -0.5990
 6102SOL    HW229940   2.677   0.640   5.500  1.8095 -0.8891  1.1499
 6103SOL     OW29941   3.327   1.886   2.223 -0.3414 -0.2808  0.2152
 6103SOL    HW129942   3.248   1.843   2.191 -0.4958 -1.4960  2.2102
 6103SOL    HW229943   3.369   1.906   2.139  0.2220 -0.2847  0.4951
 6104SOL     OW29944   0.252   1.063   3.784 -0.9321  0.1272 -0.5694
 6104SOL    HW129945   0.183   0.999   3.766 -0.7329 -0.0834 -0.5960
 6104SOL    HW229946   0.240   1.131   3.718  0.3460 -0.8009 -1.7681
 6105SOL     OW29947   3.051   4.017  12.314 -0.3394  0.3432  1.0571
 6105SOL    HW129948   2.975   4.040  12.368 -0.2788  1.2365  0.7554
 6105SOL    HW229949   3.118   4.036  12.380  1.4024  0.1331 -0.6470
 6106SOL     OW29950   1.162   0.545   1.813  0.5171  0.3669 -0.1977
 6106SOL    HW129951   1.199   0.537   1.725 -0.9476  1.2105 -0.8915
 6106SOL    HW229952   1.184   0.463   1.857  0.5464  1.5774  2.0782
 6107SOL     OW29953   3.963   2.894   7.632 -0.2138  0.2109  0.1047
 6107SOL    HW129954   3.867   2.901   7.636 -0.2611 -0.3208 -0.0064
 6107SOL    HW229955   3.987   2.833   7.702  2.6416 -0.1557 -1.2207
 6108SOL     OW29956   3.093   1.759   8.338  0.3769  0.2385  0.4222
 6108SOL    HW129957   3.158   1.826   8.355 -0.3658  0.9747  0.3355
 6108SOL    HW229958   3.031   1.787   8.405 -0.7846  0.8323 -0.8965
 6109SOL     OW29959   0.434   4.180   5.366 -0.4826  0.1135 -0.0686
 6109SOL    HW129960   0.440   4.102   5.312  0.0924 -0.6733  1.1394
 6109SOL    HW229961   0.442   4.145   5.455  1.8131  1.0055  0.0650
 6110SOL     OW29962   1.123   0.313   8.490 -0.0654  1.0258  0.2715
 6110SOL    HW129963   1.059   0.304   8.561 -1.7480  0.5709 -1.3084
 6110SOL    HW229964   1.163   0.229   8.514 -0.0253 -0.0457 -3.5379
 6111SOL     OW29965   3.490   3.418   3.844 -0.5768 -0.4597  0.7678
 6111SOL    HW129966   3.525   3.507   3.848  0.2954 -0.8288  1.3758
 6111SOL    HW229967   3.449   3.404   3.929  1.8238  0.6886  2.1031
 6112SOL     OW29968   1.228   2.392  10.518  0.2004 -0.1349 -0.0540
 6112SOL    HW129969   1.235   2.331  10.591  3.7021  1.0492  0.5889
 6112SOL    HW229970   1.146   2.363  10.479  0.4616 -2.2061  0.9594
 6113SOL     OW29971   1.963   2.013  17.609 -0.2584  0.1015 -0.0098
 6113SOL    HW129972   2.044   1.992  17.563 -0.1601 -0.4788  0.4304
 6113SOL    HW229973   1.904   2.022  17.533  0.4494 -0.1512 -0.5882
 6114SOL     OW29974   2.212   0.636   8.675  0.1714  0.2128  0.1750
 6114SOL    HW129975   2.279   0.705   8.677  0.6403 -0.2342 -0.5066
 6114SOL    HW229976   2.152   0.679   8.614 -1.4193 -0.4499  1.2830
 6115SOL     OW29977   1.223   3.901  13.499  0.5144  0.7303 -0.4604
 6115SOL    HW129978   1.297   3.928  13.444  0.5688  2.2815  0.3843
 6115SOL    HW229979   1.257   3.818  13.533  0.0041 -0.5017 -2.9248
 6116SOL     OW29980   2.997   1.514  16.139  0.3877 -0.1468  0.4583
 6116SOL    HW129981   3.046   1.562  16.072 -0.1718  2.8207  2.1708
 6116SOL    HW229982   3.011   1.557  16.223 -2.2901  0.9961  0.3213
 6117SOL     OW29983   3.378   3.803   6.867 -0.5815 -0.3421  0.0793
 6117SOL    HW129984   3.337   3.829   6.785 -0.1373  3.1893  0.9475
 6117SOL    HW229985   3.330   3.723   6.887  1.7574 -1.9383 -0.7439
 6118SOL     OW29986   3.273   3.281   2.879  0.0256  0.1774  0.2912
 6118SOL    HW129987   3.284   3.240   2.965  0.8338 -2.1182 -0.8882
 6118SOL    HW229988   3.293   3.370   2.904 -1.9308  1.1316 -1.5121
 6119SOL     OW29989   4.710   4.651  17.456 -0.0848 -0.2115 -0.2625
 6119SOL    HW129990   4.697   4.690  17.542 -0.5666 -1.5022  0.2473
 6119SOL    HW229991   4.624   4.614  17.434 -0.2010 -0.7582  1.1078
 6120SOL     OW29992   1.884   2.720   4.007  0.2416 -0.3818 -0.4450
 6120SOL    HW129993   1.850   2.777   4.076  0.1480 -1.1114  0.1198
 6120SOL    HW229994   1.834   2.643   4.034  0.3335 -0.5503 -0.7591
 6121SOL     OW29995   4.622   1.665   7.924  0.3749 -0.5485  0.1041
 6121SOL    HW129996   4.568   1.612   7.983 -0.2495 -0.9544 -0.8263
 6121SOL    HW229997   4.707   1.650   7.964  2.0640  2.6980 -2.2766
 6122SOL     OW29998   2.131   1.660  11.231 -0.1624  0.2924  0.1102
 6122SOL    HW129999   2.066   1.597  11.200  2.0937 -2.7575  1.4787
 6122SOL    HW230000   2.086   1.738  11.264 -0.5772  0.5768 -1.1439
 6123SOL     OW30001   2.836   4.533   3.323  0.4372  0.1431  0.2037
 6123SOL    HW130002   2.898   4.502   3.257  1.6285 -0.0760  1.4349
 6123SOL    HW230003   2.772   4.587   3.275 -0.0505  0.8880  1.6890
 6124SOL     OW30004   1.255   0.288   0.502  0.0900  0.1963 -0.0587
 6124SOL    HW130005   1.292   0.306   0.589 -0.5800 -0.3453  0.3356
 6124SOL    HW230006   1.166   0.283   0.537 -0.4407 -2.2064 -1.8296
 6125SOL     OW30007   0.037   3.546   9.238 -0.6176 -0.0937  0.2089
 6125SOL    HW130008   0.109   3.504   9.286 -0.0914 -0.6727 -1.0959
 6125SOL    HW230009   0.008   3.608   9.305 -0.6028 -0.4838  0.5720
 6126SOL     OW30010   2.216   4.730   8.023  0.6387 -0.2932 -0.6558
 6126SOL    HW130011   2.130   4.709   7.986  0.9348  1.0778 -2.1108
 6126SOL    HW230012   2.220   0.083   8.045  0.0998 -0.6481  0.9255
 6127SOL     OW30013   4.059   2.798  16.794  0.4257  0.0793  0.1125
 6127SOL    HW130014   4.031   2.874  16.744  0.0331  0.7751  1.3781
 6127SOL    HW230015   3.984   2.740  16.786 -0.1833  1.0365 -1.1390
 6128SOL     OW30016   4.676   1.488   3.654 -0.0355  0.3584 -0.2684
 6128SOL    HW130017   4.733   1.539   3.711  1.4932  0.1134 -1.5697
 6128SOL    HW230018   4.638   1.567   3.617  0.0674  0.7597  0.4907
 6129SOL     OW30019   1.128   0.065  12.470  0.2002 -0.0828  0.0127
 6129SOL    HW130020   1.043   0.103  12.445  1.1677  1.0399 -1.5570
 6129SOL    HW230021   1.176   0.138  12.510  0.9219 -0.2711 -0.5211
 6130SOL     OW30022   4.236   2.722   0.392  0.1282 -0.3440 -0.2911
 6130SOL    HW130023   4.214   2.648   0.336 -0.2311  0.0729 -0.7073
 6130SOL    HW230024   4.241   2.802   0.339  0.7942 -1.1054 -1.3882
 6131SOL     OW30025   0.405   0.615   8.032  0.0086  1.1295  0.3047
 6131SOL    HW130026   0.481   0.643   7.982  0.9119  0.6420  1.4158
 6131SOL    HW230027   0.339   0.680   8.007 -0.0704  0.2534 -1.7510
 6132SOL     OW30028   0.647   4.490   6.262 -0.5095  0.7344 -0.1635
 6132SOL    HW130029   0.569   4.545   6.268 -0.9137 -0.0405  1.8532
 6132SOL    HW230030   0.711   4.552   6.227 -0.3713 -0.3787 -1.8541
 6133SOL     OW30031   1.727   0.062   1.379 -0.4409  0.0997  0.0788
 6133SOL    HW130032   1.788   0.002   1.335 -0.3073  0.3442 -0.0716
 6133SOL    HW230033   1.768   0.146   1.359 -0.6958  0.2075  0.0131
 6134SOL     OW30034   0.692   0.150   3.226 -0.0400  0.8379 -0.4288
 6134SOL    HW130035   0.759   0.216   3.210 -1.0208  1.7707 -0.7083
 6134SOL    HW230036   0.657   0.165   3.314  1.4284  1.9963 -0.0395
 6135SOL     OW30037   4.476   3.686   4.807  0.9026  0.1807  0.2186
 6135SOL    HW130038   4.387   3.654   4.792  1.8598 -1.3447 -2.2777
 6135SOL    HW230039   4.529   3.609   4.828 -0.6700 -0.4170  2.0328
 6136SOL     OW30040   1.090   4.222   8.920  0.7957 -0.1403  0.9632
 6136SOL    HW130041   1.144   4.286   8.967 -0.3815 -0.4874  2.7785
 6136SOL    HW230042   1.022   4.277   8.883  3.1365  1.4212 -1.0518
 6137SOL     OW30043   0.091   4.679   2.766 -0.1961 -0.3138  0.0142
 6137SOL    HW130044   0.102   4.584   2.770  0.3285 -0.1581  2.5754
 6137SOL    HW230045   0.137   4.697   2.685  1.6555  1.5736  1.4818
 6138SOL     OW30046   0.593   3.406   3.377  0.1819  0.0133  0.6041
 6138SOL    HW130047   0.602   3.344   3.450  0.7230 -0.5549  0.0492
 6138SOL    HW230048   0.674   3.457   3.382 -0.1279  0.3417  2.4833
 6139SOL     OW30049   4.729   2.029   5.821 -0.0857  0.9453 -0.1434
 6139SOL    HW130050   4.659   2.024   5.756 -0.3948  2.2887  0.0879
 6139SOL    HW230051   0.071   2.030   5.771 -0.1719  0.3499 -0.2944
 6140SOL     OW30052   3.533   3.732   3.314  0.6838  0.4393 -0.4921
 6140SOL    HW130053   3.535   3.686   3.398 -0.5119 -0.1920 -0.8018
 6140SOL    HW230054   3.624   3.718   3.292  0.2421  1.2369 -2.8064
 6141SOL     OW30055   0.644   1.909  11.378  0.7067  0.1310  0.2056
 6141SOL    HW130056   0.675   1.926  11.289 -0.4490 -0.4367 -0.3077
 6141SOL    HW230057   0.731   1.894  11.416  0.3331  3.8003  2.5185
 6142SOL     OW30058   0.614   0.017   1.671 -0.2417 -0.6185 -0.0898
 6142SOL    HW130059   0.609   4.707   1.753  2.3063 -1.8661 -0.7018
 6142SOL    HW230060   0.686   0.074   1.696 -0.7999  0.9584 -2.0688
 6143SOL     OW30061   1.781   2.556   5.974 -0.2178 -0.0665  0.3424
 6143SOL    HW130062   1.850   2.621   5.965  0.6933 -1.1903 -0.7989
 6143SOL    HW230063   1.775   2.526   6.064 -0.2900  4.4416  1.8250
 6144SOL     OW30064   4.274   3.777   3.308 -0.0151 -0.1142  0.1544
 6144SOL    HW130065   4.215   3.750   3.238 -1.0858 -1.6652  1.6393
 6144SOL    HW230066   4.218   3.751   3.381  2.2530 -0.5108  1.7659
 6145SOL     OW30067   2.992   3.431  17.638 -0.0091 -0.2463  0.3697
 6145SOL    HW130068   2.924   3.471  17.585 -0.4855 -0.9801  0.4340
 6145SOL    HW230069   3.068   3.474  17.598 -0.2920 -2.0857 -2.1008
 6146SOL     OW30070   3.798   3.647   4.444 -0.2958  0.3608 -0.0620
 6146SOL    HW130071   3.878   3.594   4.433 -0.4133  0.5472 -1.7755
 6146SOL    HW230072   3.742   3.571   4.428 -1.7228  1.3318  0.3989
 6147SOL     OW30073   2.806   2.619   4.659 -0.1573  0.2045  0.0467
 6147SOL    HW130074   2.809   2.712   4.634  0.1020  0.4866  1.1324
 6147SOL    HW230075   2.889   2.601   4.702 -1.2685 -0.2300  2.0125
 6148SOL     OW30076   1.233   2.396   5.224  0.3454 -0.3229 -0.1482
 6148SOL    HW130077   1.162   2.449   5.189 -0.0727 -0.2739  0.7747
 6148SOL    HW230078   1.262   2.357   5.142  0.9889 -1.7930  0.7684
 6149SOL     OW30079   3.769   3.674   7.634 -0.1205  0.2727 -0.1506
 6149SOL    HW130080   3.779   3.616   7.709  1.1829  1.8575  0.9009
 6149SOL    HW230081   3.756   3.759   7.675 -0.8502 -1.2445  2.7425
 6150SOL     OW30082   4.497   2.295  16.543  0.4151 -0.4519  0.2906
 6150SOL    HW130083   4.555   2.260  16.474  0.7134  0.2004  0.2151
 6150SOL    HW230084   4.462   2.219  16.590  0.2174  1.0307  2.5487
 6151SOL     OW30085   0.400   4.143   1.632  0.4593 -0.0374 -0.0846
 6151SOL    HW130086   0.474   4.082   1.621 -0.9725 -1.6202 -1.0199
 6151SOL    HW230087   0.396   4.155   1.726 -0.1571  0.1759 -0.1417
 6152SOL     OW30088   0.128   3.553   2.021  0.4452 -0.3501  0.3276
 6152SOL    HW130089   0.187   3.594   2.085  0.5625  1.3728 -0.8878
 6152SOL    HW230090   0.119   3.618   1.952  0.5169 -1.1794 -0.4633
 6153SOL     OW30091   2.061   0.952   8.552  0.1666 -0.0087  0.1769
 6153SOL    HW130092   1.972   0.959   8.587  0.1464  1.6303 -0.1893
 6153SOL    HW230093   2.092   1.042   8.564 -0.5961  0.4769 -1.4518
 6154SOL     OW30094   0.146   0.183   8.627 -0.2933 -0.7167 -0.0019
 6154SOL    HW130095   0.199   0.263   8.630 -0.1077 -0.8298 -0.2413
 6154SOL    HW230096   0.102   0.194   8.542  0.9566 -0.6683 -0.6390
 6155SOL     OW30097   4.269   2.802   4.208 -0.2086  0.1727  0.2183
 6155SOL    HW130098   4.358   2.767   4.201 -0.0613  0.4742  0.5476
 6155SOL    HW230099   4.246   2.808   4.115  0.7311 -0.9351 -0.0821
 6156SOL     OW30100   0.318   0.089  12.266 -0.4381  0.5333 -0.2243
 6156SOL    HW130101   0.317   0.116  12.174 -1.4188 -1.9759 -0.9309
 6156SOL    HW230102   0.276   0.166  12.306 -1.1408  0.3589 -0.6410
 6157SOL     OW30103   2.374   3.320   5.317  0.8791 -0.0754  0.3113
 6157SOL    HW130104   2.387   3.326   5.222  0.8491 -1.3971  0.2218
 6157SOL    HW230105   2.466   3.329   5.340  0.6907  2.2704  0.1664
 6158SOL     OW30106   0.927   3.270   6.198  0.0539 -0.0082  0.0933
 6158SOL    HW130107   0.889   3.334   6.258 -0.5293 -0.6403  0.3921
 6158SOL    HW230108   0.992   3.229   6.255 -1.0147 -0.1493  1.2320
 6159SOL     OW30109   4.173   1.770   6.846 -0.3847 -0.5366 -0.3852
 6159SOL    HW130110   4.145   1.779   6.937  0.0255  1.1656 -0.4211
 6159SOL    HW230111   4.187   1.675   6.839 -2.8210 -1.1566  3.0524
 6160SOL     OW30112   0.512   3.982   3.464  0.9600  0.1572 -0.7447
 6160SOL    HW130113   0.493   4.015   3.552  1.9874 -0.2506 -0.3698
 6160SOL    HW230114   0.467   3.899   3.477 -3.7311  2.6473 -1.1300
 6161SOL     OW30115   0.627   1.346   6.570 -0.0269  0.3651 -0.4557
 6161SOL    HW130116   0.678   1.426   6.584  0.7298 -0.2266  0.2178
 6161SOL    HW230117   0.608   1.352   6.476 -0.6970  0.9822 -0.2788
 6162SOL     OW30118   3.687   3.200   2.503  0.0552 -0.9514  0.6173
 6162SOL    HW130119   3.644   3.225   2.585 -0.1053 -1.8290  0.8087
 6162SOL    HW230120   3.623   3.137   2.469 -0.9029 -0.8944  2.3300
 6163SOL     OW30121   2.459   0.869   4.496  0.0425  0.4412 -0.3330
 6163SOL    HW130122   2.529   0.898   4.437  0.9095  0.2181  0.6000
 6163SOL    HW230123   2.441   0.951   4.542 -0.1478 -0.9624  2.0522
 6164SOL     OW30124   3.850   2.155   1.250  0.1032 -0.2083 -0.3281
 6164SOL    HW130125   3.933   2.201   1.238 -0.1329 -0.9736 -4.8556
 6164SOL    HW230126   3.794   2.225   1.283 -0.0557 -0.3781 -0.2346
 6165SOL     OW30127   3.926   2.677  15.172  0.4898  0.2987  0.0696
 6165SOL    HW130128   4.011   2.720  15.183  0.9646 -0.9749  1.4820
 6165SOL    HW230129   3.894   2.687  15.262 -1.2628  2.4854 -0.8270
 6166SOL     OW30130   1.155   4.416   6.768  0.0422  0.1926 -0.1318
 6166SOL    HW130131   1.227   4.451   6.820 -0.2891  0.7474 -0.0383
 6166SOL    HW230132   1.111   4.500   6.750 -1.9753 -1.5566 -3.3536
 6167SOL     OW30133   0.003   0.222   7.788  0.1006  0.6398  0.0751
 6167SOL    HW130134   4.707   0.133   7.785 -0.1845  0.7203  1.3004
 6167SOL    HW230135   0.015   0.251   7.878  0.9209  1.2377 -0.2288
 6168SOL     OW30136   0.820   0.632   0.671 -0.6995  0.6182 -0.7810
 6168SOL    HW130137   0.899   0.672   0.707 -0.2669 -0.1531 -0.8840
 6168SOL    HW230138   0.840   0.539   0.675  0.0345  0.7347 -1.7125
 6169SOL     OW30139   3.094   0.201   9.131 -0.0291 -0.1510  0.2348
 6169SOL    HW130140   3.079   0.117   9.087  1.6014 -1.2664  1.8202
 6169SOL    HW230141   3.012   0.205   9.180 -0.3275  1.6469 -0.4143
 6170SOL     OW30142   1.042   4.521   6.367  0.3672 -0.1326 -0.6328
 6170SOL    HW130143   1.100   4.490   6.436 -2.6599  0.5306  2.2356
 6170SOL    HW230144   0.992   4.578   6.426 -0.9270 -0.0460 -1.8082
 6171SOL     OW30145   3.387   4.605   4.650  0.0793 -0.5305 -0.0283
 6171SOL    HW130146   3.400   4.613   4.555  0.2913  2.5526  0.2492
 6171SOL    HW230147   3.292   4.595   4.646 -0.0787  0.1326  2.0223
 6172SOL     OW30148   2.887   4.477  17.325 -0.1143  0.3351 -0.1497
 6172SOL    HW130149   2.949   4.470  17.397  0.2760  1.6965 -0.3704
 6172SOL    HW230150   2.883   4.389  17.287  2.4571  0.4498 -0.6548
 6173SOL     OW30151   3.895   0.515   5.805 -0.3312 -0.9140 -0.5581
 6173SOL    HW130152   3.877   0.421   5.805  1.7069 -1.3115  0.0545
 6173SOL    HW230153   3.988   0.528   5.823 -0.7823 -0.8547  1.7289
 6174SOL     OW30154   3.166   0.497   4.110 -1.0103 -0.6503 -0.2041
 6174SOL    HW130155   3.200   0.579   4.074 -2.1460  0.0180  0.2302
 6174SOL    HW230156   3.205   0.505   4.197  0.3478 -0.5073 -0.8231
 6175SOL     OW30157   2.739   4.285   5.488  0.1425 -0.2508 -0.0868
 6175SOL    HW130158   2.704   4.339   5.559  2.7361  1.4176 -0.0892
 6175SOL    HW230159   2.691   4.313   5.410 -0.3425 -2.7689 -0.6931
 6176SOL     OW30160   2.446   1.533   7.389  0.0843 -0.2833  0.5307
 6176SOL    HW130161   2.354   1.510   7.390 -0.0424  0.2312  3.6565
 6176SOL    HW230162   2.490   1.448   7.389 -0.6989 -0.6862  1.9674
 6177SOL     OW30163   0.316   1.026   1.198  0.7850  0.1769 -0.4553
 6177SOL    HW130164   0.356   1.111   1.219  1.5255 -0.3461  0.2740
 6177SOL    HW230165   0.390   0.990   1.149  0.4209 -1.5558  0.2995
 6178SOL     OW30166   2.542   0.066   5.241 -0.2101  0.4016  0.1830
 6178SOL    HW130167   2.610   0.009   5.205  0.0951  0.1690  1.1105
 6178SOL    HW230168   2.519   0.008   5.314 -0.5471 -0.4783 -0.6243
 6179SOL     OW30169   0.323   4.526   7.241 -0.4081  0.3588 -0.1652
 6179SOL    HW130170   0.336   4.616   7.271 -0.0975 -0.3659  1.8688
 6179SOL    HW230171   0.251   4.501   7.299 -0.5049  0.0734 -0.4087
 6180SOL     OW30172   1.376   4.730   1.604  0.1594 -0.4589  0.1118
 6180SOL    HW130173   1.324   4.668   1.656  0.9932 -0.3312  1.1114
 6180SOL    HW230174   1.466   4.703   1.625 -0.0460  0.9072  2.7358
 6181SOL     OW30175   4.538   1.299   7.151 -0.1564  0.9553 -0.4754
 6181SOL    HW130176   4.620   1.252   7.141 -0.1644  0.8600 -0.1022
 6181SOL    HW230177   4.562   1.392   7.147  0.4034  0.8938  1.3645
 6182SOL     OW30178   3.775   3.123   6.551  0.2366 -0.0334 -0.2442
 6182SOL    HW130179   3.700   3.071   6.580 -0.6258  2.0360  1.2317
 6182SOL    HW230180   3.847   3.070   6.588 -0.0289  0.3210  0.7841
 6183SOL     OW30181   3.261   1.691   1.466 -0.5332 -0.2779 -0.2239
 6183SOL    HW130182   3.262   1.719   1.374 -0.3955  2.3723  0.5810
 6183SOL    HW230183   3.310   1.609   1.455 -0.3389 -0.2707  0.5963
 6184SOL     OW30184   2.096   0.655  15.689 -0.0355 -0.1627  0.5038
 6184SOL    HW130185   2.021   0.652  15.630  1.2890 -0.8525 -1.1363
 6184SOL    HW230186   2.138   0.725  15.639  0.8401 -0.5692  0.6705
 6185SOL     OW30187   0.469   2.948   7.086 -0.2631  0.3058  0.0335
 6185SOL    HW130188   0.407   2.884   7.049 -0.0714  1.2154 -1.8332
 6185SOL    HW230189   0.468   3.029   7.035 -0.4658 -1.1604 -2.3226
 6186SOL     OW30190   4.430   3.693   4.272  0.6880  0.0329  0.1935
 6186SOL    HW130191   4.384   3.690   4.356 -0.3294 -2.3957 -0.4620
 6186SOL    HW230192   4.524   3.682   4.291  0.4095  2.2519  2.9509
 6187SOL     OW30193   1.204   1.029   4.260  0.6368 -0.1800 -0.8717
 6187SOL    HW130194   1.154   0.947   4.262 -0.6179  0.6342  0.8667
 6187SOL    HW230195   1.289   1.001   4.293 -0.4077 -1.3559  0.8284
 6188SOL     OW30196   0.060   3.137  17.592  0.3857  0.3343  0.4643
 6188SOL    HW130197   0.119   3.061  17.590 -1.1881 -0.8426 -2.0457
 6188SOL    HW230198   0.109   3.188  17.656  1.4085 -1.2670  0.9538
 6189SOL     OW30199   2.981   0.188   2.714 -0.3840  0.1691  0.8573
 6189SOL    HW130200   2.944   0.274   2.698  0.3386  0.3854  0.4104
 6189SOL    HW230201   2.938   0.140   2.643  2.0710 -2.0527  0.8608
 6190SOL     OW30202   0.433   2.651   2.282 -0.4502 -0.3661 -0.0511
 6190SOL    HW130203   0.463   2.560   2.291  1.7056  0.6348  2.9608
 6190SOL    HW230204   0.450   2.654   2.188 -0.0061 -0.4703  0.0233
 6191SOL     OW30205   1.848   3.908  17.101  0.0340 -0.2996 -0.6727
 6191SOL    HW130206   1.776   3.855  17.065 -1.2371 -0.1099  1.5966
 6191SOL    HW230207   1.802   3.943  17.177  1.6410 -1.0641  0.6403
 6192SOL     OW30208   2.883   4.425  12.650  0.1009 -0.4136  0.0753
 6192SOL    HW130209   2.793   4.436  12.618  0.2475  0.1446 -0.1514
 6192SOL    HW230210   2.885   4.506  12.701  0.0615 -1.4451  1.7116
 6193SOL     OW30211   0.095   4.117   7.910  0.4408  0.1617  0.7708
 6193SOL    HW130212   0.184   4.084   7.897  0.8169  1.0816  1.0003
 6193SOL    HW230213   0.058   4.038   7.950  2.1006 -0.1970  1.6297
 6194SOL     OW30214   1.354   3.149  11.688 -0.3200 -0.3579  0.2366
 6194SOL    HW130215   1.417   3.156  11.617 -1.5600 -0.4037 -0.8786
 6194SOL    HW230216   1.308   3.233  11.680 -1.4058 -0.9512  0.2409
 6195SOL     OW30217   2.955   4.155   1.992  0.0051 -0.3789 -0.5643
 6195SOL    HW130218   2.946   4.133   2.085  1.6726  0.8220 -0.1229
 6195SOL    HW230219   2.867   4.132   1.962 -0.1634 -1.0149  0.4090
 6196SOL     OW30220   0.072   0.182   6.216  0.2650  0.1861 -0.4016
 6196SOL    HW130221   0.113   0.265   6.240 -2.0763  0.7436  1.6105
 6196SOL    HW230222   0.034   0.156   6.300 -0.8097 -1.3589 -1.3692
 6197SOL     OW30223   2.743   1.623  15.610 -1.0212  0.0603 -0.1508
 6197SOL    HW130224   2.681   1.664  15.671  1.4800  2.2491  0.9491
 6197SOL    HW230225   2.712   1.533  15.601 -0.7216 -0.1877  1.3273
 6198SOL     OW30226   0.599   0.264   8.423  0.5487 -0.3991  0.2762
 6198SOL    HW130227   0.666   0.226   8.480  0.8990 -2.6173 -1.6291
 6198SOL    HW230228   0.627   0.355   8.414 -3.0376  0.5894 -0.8001
 6199SOL     OW30229   4.687   3.589  11.505 -0.7991  0.6391  0.5079
 6199SOL    HW130230   0.028   3.597  11.454 -0.2566 -1.5170  1.0064
 6199SOL    HW230231   4.677   3.494  11.509 -0.5709  0.4900 -2.1807
 6200SOL     OW30232   1.729   0.662   7.051  0.2194  0.0346 -0.0341
 6200SOL    HW130233   1.752   0.652   6.958 -1.1228  4.2294 -0.8439
 6200SOL    HW230234   1.637   0.638   7.042  0.6167 -1.9093  1.2233
 6201SOL     OW30235   4.250   1.112   6.236  0.0343  0.3355 -0.1153
 6201SOL    HW130236   4.301   1.112   6.317 -0.8627  1.4333  0.4442
 6201SOL    HW230237   4.244   1.018   6.216  2.6944  0.1272  0.0486
 6202SOL     OW30238   1.941   4.419  17.592  0.0112  0.3111  0.5290
 6202SOL    HW130239   1.960   4.500  17.639  0.9551  1.2511 -1.4371
 6202SOL    HW230240   1.929   4.449  17.502  0.9280 -0.1630  0.2463
 6203SOL     OW30241   0.542   1.469   8.997  0.2890 -0.6637  0.3308
 6203SOL    HW130242   0.576   1.544   8.947  0.2360 -1.3491 -0.7418
 6203SOL    HW230243   0.609   1.408   8.968  0.9478  0.5204 -0.6736
 6204SOL     OW30244   3.063   4.535   6.797  0.2920  0.5990 -0.6724
 6204SOL    HW130245   3.091   4.445   6.812 -3.5007 -0.4891  0.0161
 6204SOL    HW230246   3.119   4.564   6.725  0.3857  0.8794 -0.4856
 6205SOL     OW30247   0.444   4.560   8.584  0.0096  0.5899 -0.4404
 6205SOL    HW130248   0.516   4.602   8.536  0.2785  1.1276  0.4324
 6205SOL    HW230249   0.421   4.640   8.631  0.2984 -0.4327  1.4480
 6206SOL     OW30250   3.873   2.334   1.564 -0.5100 -0.4440  0.2377
 6206SOL    HW130251   3.890   2.426   1.580 -1.1828 -0.5209  1.4090
 6206SOL    HW230252   3.797   2.338   1.505 -0.1766 -0.3105 -0.1827
 6207SOL     OW30253   2.844   1.749   5.733  0.1207  0.5022  1.0722
 6207SOL    HW130254   2.885   1.791   5.657 -0.0384 -2.5290 -0.6720
 6207SOL    HW230255   2.917   1.712   5.782 -0.1590 -0.6425  0.6236
 6208SOL     OW30256   2.151   2.233  10.991 -1.1587 -0.3882 -0.2869
 6208SOL    HW130257   2.147   2.314  11.041  2.7894 -0.1300 -0.4339
 6208SOL    HW230258   2.077   2.173  11.007 -0.5505 -1.2680 -0.7786
 6209SOL     OW30259   4.140   0.788  10.263  0.2222  0.1502  0.6490
 6209SOL    HW130260   4.193   0.715  10.232 -2.3646 -0.1757 -3.0110
 6209SOL    HW230261   4.145   0.845  10.186 -1.8453 -0.3735  0.1321
 6210SOL     OW30262   0.176   1.900   2.938  0.0962  0.3443 -0.1520
 6210SOL    HW130263   0.099   1.844   2.928  0.6706 -0.2751 -1.1692
 6210SOL    HW230264   0.230   1.857   3.005  0.9576 -0.3348 -1.2857
 6211SOL     OW30265   1.773   2.968   8.282 -0.5767 -0.1617 -0.5319
 6211SOL    HW130266   1.855   2.967   8.233  0.0988 -1.3797  0.6262
 6211SOL    HW230267   1.790   3.049   8.329 -0.5820 -0.9363  0.8076
 6212SOL     OW30268   3.235   3.551   8.120 -0.3391  0.0705 -0.2812
 6212SOL    HW130269   3.300   3.516   8.181  0.0726 -2.3915 -2.1450
 6212SOL    HW230270   3.155   3.500   8.124 -0.9336  1.0080 -0.1522
 6213SOL     OW30271   2.787   1.138   2.169  0.1070  0.1956  0.2105
 6213SOL    HW130272   2.768   1.221   2.125 -0.2709 -0.0418 -0.0727
 6213SOL    HW230273   2.754   1.075   2.106  0.6013 -0.0466  0.1900
 6214SOL     OW30274   4.653   0.574   6.576  0.1214 -0.0956 -0.0044
 6214SOL    HW130275   4.662   0.494   6.627  0.2657  0.2293  0.4825
 6214SOL    HW230276   4.714   0.550   6.506  0.1262  2.9351 -1.0647
 6215SOL     OW30277   1.213   1.075   6.133 -0.0941  0.1913 -0.0534
 6215SOL    HW130278   1.218   1.145   6.198 -2.3775 -0.0804  0.4123
 6215SOL    HW230279   1.198   1.121   6.051 -0.6983 -0.7970 -0.4938
 6216SOL     OW30280   0.466   3.029   8.054  0.1243  0.4191 -0.3184
 6216SOL    HW130281   0.539   3.058   7.998 -2.1379 -0.5171 -3.7926
 6216SOL    HW230282   0.410   3.107   8.050 -0.6734 -0.1433 -0.0463
 6217SOL     OW30283   2.532   0.039  13.570  0.1277  0.1104 -0.2464
 6217SOL    HW130284   2.505   0.071  13.656 -0.3959  0.0677 -0.3992
 6217SOL    HW230285   2.623   0.012  13.585 -0.2258 -0.5675  0.6040
 6218SOL     OW30286   1.525   1.559  11.300  0.2229 -0.5653  0.1414
 6218SOL    HW130287   1.608   1.607  11.289 -1.2151  2.2793  1.8266
 6218SOL    HW230288   1.547   1.498  11.370 -1.7539 -0.0774  1.1612
 6219SOL     OW30289   0.268   4.121  15.460 -0.4992 -0.1533 -0.0640
 6219SOL    HW130290   0.240   4.094  15.547 -0.4319 -2.2305 -0.6735
 6219SOL    HW230291   0.343   4.063  15.447 -1.2116 -1.4753  1.8384
 6220SOL     OW30292   2.536   4.537   3.244  0.7237  0.2186  0.1219
 6220SOL    HW130293   2.587   4.522   3.164  0.5628  2.5917 -0.4255
 6220SOL    HW230294   2.509   4.627   3.230 -0.7650 -0.2356  0.0024
 6221SOL     OW30295   0.794   4.362   4.213 -0.1853  0.4082 -0.3286
 6221SOL    HW130296   0.878   4.354   4.168  0.9254  1.1842  1.5679
 6221SOL    HW230297   0.787   4.284   4.269  1.8053 -0.6068 -1.4987
 6222SOL     OW30298   4.502   3.583   1.379  0.0910 -0.3521  0.0603
 6222SOL    HW130299   4.413   3.570   1.344 -0.1133  0.9083  0.1021
 6222SOL    HW230300   4.477   3.552   1.466  1.8134 -3.6472 -0.6146
 6223SOL     OW30301   4.036   0.874   4.469 -1.1740 -0.3446  0.2142
 6223SOL    HW130302   4.021   0.800   4.409  0.4808 -0.2915 -0.2704
 6223SOL    HW230303   4.088   0.826   4.534 -2.7097 -2.1052  0.1453
 6224SOL     OW30304   3.896   0.167  14.504 -0.0757  0.3290  0.0647
 6224SOL    HW130305   3.832   0.237  14.517  0.1999  0.5211  0.3748
 6224SOL    HW230306   3.881   0.111  14.580  0.4438 -0.9485 -0.7755
 6225SOL     OW30307   4.547   2.390   6.019  0.5170  0.7089 -0.6480
 6225SOL    HW130308   4.622   2.437   6.056 -0.2528  0.7897  0.7608
 6225SOL    HW230309   4.570   2.297   6.028 -0.7553  0.6159  1.5019
 6226SOL     OW30310   0.826   0.379  14.546  0.4695  0.0490 -0.0007
 6226SOL    HW130311   0.750   0.435  14.529  0.8058  0.3658 -0.4766
 6226SOL    HW230312   0.887   0.426  14.488  0.4886 -0.5662 -0.4784
 6227SOL     OW30313   2.256   0.178   2.910  0.2752  0.0797 -0.4994
 6227SOL    HW130314   2.328   0.116   2.898 -0.6930 -0.8149 -1.7214
 6227SOL    HW230315   2.317   0.251   2.916 -1.9938  1.6965  2.5613
 6228SOL     OW30316   2.224   0.804  11.703  0.3213 -0.2721 -0.2750
 6228SOL    HW130317   2.276   0.788  11.624 -0.4627  0.3222 -0.9029
 6228SOL    HW230318   2.181   0.719  11.708  3.4768 -1.9643 -1.9205
 6229SOL     OW30319   2.657   1.576  10.402 -0.3059 -0.3983  0.0958
 6229SOL    HW130320   2.606   1.611  10.475  0.3619  1.6213 -0.4033
 6229SOL    HW230321   2.673   1.485  10.427  0.8291 -0.1877  0.1347
 6230SOL     OW30322   2.361   0.688   5.350  0.1221  0.2213  0.0524
 6230SOL    HW130323   2.345   0.783   5.350 -0.4361  0.1359  2.5193
 6230SOL    HW230324   2.308   0.667   5.427 -0.5093 -1.7918 -0.9519
 6231SOL     OW30325   3.890   1.114   2.925  0.0942 -0.1788  0.3095
 6231SOL    HW130326   3.972   1.073   2.900  1.2649  1.1488  2.0160
 6231SOL    HW230327   3.853   1.142   2.841 -0.2040 -2.4167 -0.2914
 6232SOL     OW30328   1.153   1.129   3.263 -0.5704  0.3027  0.7068
 6232SOL    HW130329   1.221   1.075   3.304 -1.1959 -0.7054  0.4275
 6232SOL    HW230330   1.088   1.134   3.334 -0.3198  1.0940  0.8817
 6233SOL     OW30331   3.195   1.571   3.275 -0.4931 -0.2316  1.1524
 6233SOL    HW130332   3.197   1.506   3.345 -0.2298  2.2519  3.4619
 6233SOL    HW230333   3.109   1.603   3.303 -0.4837 -0.7738  1.7852
 6234SOL     OW30334   2.695   1.986  13.778  0.2158  0.3076 -0.0082
 6234SOL    HW130335   2.618   2.032  13.744  1.0564  0.7572 -1.3176
 6234SOL    HW230336   2.760   1.998  13.709 -0.2915  1.8273 -0.2143
 6235SOL     OW30337   1.464   3.496  11.064 -0.0965 -0.1943  0.4032
 6235SOL    HW130338   1.428   3.434  11.000  1.4719 -2.1653  1.4076
 6235SOL    HW230339   1.540   3.450  11.100  1.3181  1.0108 -1.0345
 6236SOL     OW30340   1.908   2.804   2.747 -0.4646  0.2814  0.1502
 6236SOL    HW130341   1.855   2.726   2.767  0.0487 -0.3963 -1.1289
 6236SOL    HW230342   1.856   2.859   2.690 -0.2701 -0.0127 -0.3095
 6237SOL     OW30343   2.329   2.179   5.120  0.2076 -0.4439 -0.3756
 6237SOL    HW130344   2.269   2.181   5.045  0.1439  2.1162 -0.2837
 6237SOL    HW230345   2.378   2.100   5.101  1.7444  0.0743  1.5024
 6238SOL     OW30346   0.412   3.935   2.170  0.4253 -0.0777 -0.6937
 6238SOL    HW130347   0.504   3.949   2.149 -0.0090  2.3561 -1.0108
 6238SOL    HW230348   0.377   4.025   2.169  0.9726  0.1206 -1.8443
 6239SOL     OW30349   3.139   1.072  11.271  0.0247  0.4795 -0.2102
 6239SOL    HW130350   3.068   1.134  11.254 -0.6923 -0.4508 -0.5869
 6239SOL    HW230351   3.105   1.041  11.355 -0.2527 -2.6164 -1.4633
 6240SOL     OW30352   0.521   1.722   3.712 -0.1946  0.5638 -0.1712
 6240SOL    HW130353   0.557   1.796   3.760 -2.2566  0.7132  1.1547
 6240SOL    HW230354   0.429   1.750   3.706 -0.8688 -1.6994 -0.2125
 6241SOL     OW30355   0.041   0.348   2.730  0.5423  0.0585 -0.1593
 6241SOL    HW130356   0.055   0.319   2.640  0.5606  1.4989 -0.6260
 6241SOL    HW230357   4.685   0.345   2.736  0.6412 -0.4136  1.2223
 6242SOL     OW30358   4.731   2.550   5.561 -0.0712  0.3176 -0.0841
 6242SOL    HW130359   4.663   2.499   5.516 -0.4604 -0.8221  1.7528
 6242SOL    HW230360   0.009   2.491   5.635  0.8447  0.4881 -0.1651
 6243SOL     OW30361   1.316   1.999   5.026  0.0956 -0.0016 -0.4384
 6243SOL    HW130362   1.252   2.071   5.021  1.2292  1.0987  1.2790
 6243SOL    HW230363   1.294   1.948   4.948 -3.7920  0.2682  0.4840
 6244SOL     OW30364   4.231   1.081  17.655  0.1416  0.1609 -0.0115
 6244SOL    HW130365   4.200   1.085  17.565  2.5540  0.8116 -0.8330
 6244SOL    HW230366   4.156   1.029  17.684 -0.4733  1.6336  1.0175
 6245SOL     OW30367   3.540   4.513   6.545  0.1361  0.0744  0.1888
 6245SOL    HW130368   3.463   4.456   6.549 -0.8234  1.2069 -2.3760
 6245SOL    HW230369   3.555   4.516   6.451 -1.4490 -1.2886 -0.1065
 6246SOL     OW30370   4.666   2.402   2.307 -0.3624 -0.4801  0.9592
 6246SOL    HW130371   4.714   2.467   2.257 -1.2460  0.4059  1.2577
 6246SOL    HW230372   4.675   2.325   2.252 -3.1139  0.3335 -0.6256
 6247SOL     OW30373   4.712   2.442   4.122 -0.0707 -0.0939  0.4868
 6247SOL    HW130374   0.053   2.392   4.113  0.0529 -0.3971  3.2452
 6247SOL    HW230375   4.694   2.422   4.214  0.3561 -1.9132  0.1756
 6248SOL     OW30376   1.041   3.674   4.314  0.0398  0.1851 -0.1846
 6248SOL    HW130377   0.977   3.609   4.342  2.0078 -1.2390  0.9903
 6248SOL    HW230378   1.110   3.614   4.287 -2.1357 -1.5672 -1.8955
 6249SOL     OW30379   3.245   1.144  13.592 -0.0041  0.0698  0.1091
 6249SOL    HW130380   3.220   1.134  13.500 -1.1274 -3.1404  0.7401
 6249SOL    HW230381   3.300   1.222  13.584 -1.1584  0.7333 -1.3599
 6250SOL     OW30382   4.033   0.116   6.018 -0.1277 -0.4151  0.5746
 6250SOL    HW130383   3.969   0.146   5.953 -0.8545  0.3906  1.6742
 6250SOL    HW230384   4.068   0.202   6.042  0.3800 -0.2225 -0.8034
 6251SOL     OW30385   2.926   2.960   2.975  0.4122  0.4097  0.2447
 6251SOL    HW130386   2.917   2.882   3.030 -1.1472 -0.4611 -1.2494
 6251SOL    HW230387   2.934   2.923   2.887  0.8512  2.4564 -0.5797
 6252SOL     OW30388   2.273   1.202   5.206 -0.0705  0.3785 -0.1949
 6252SOL    HW130389   2.363   1.225   5.183 -0.4574 -1.7623 -3.8288
 6252SOL    HW230390   2.261   1.258   5.283 -1.5549  1.1370 -0.9918
 6253SOL     OW30391   4.050   0.094   8.274 -0.1463  0.4606 -0.4129
 6253SOL    HW130392   3.958   0.101   8.297 -0.0577  1.1629 -0.2686
 6253SOL    HW230393   4.041   0.132   8.187 -1.3374 -0.9252 -0.8866
 6254SOL     OW30394   3.541   1.063   8.947 -0.3638  0.2926  0.6816
 6254SOL    HW130395   3.459   1.084   8.991 -0.3349 -1.0289  1.3659
 6254SOL    HW230396   3.584   1.009   9.013  2.5380 -0.0048 -1.4358
 6255SOL     OW30397   1.058   3.040  14.480  0.2636 -0.5895 -0.4241
 6255SOL    HW130398   1.043   3.102  14.408 -0.4402  0.8965  0.9913
 6255SOL    HW230399   1.087   3.102  14.548  0.0212 -0.6109 -0.3009
 6256SOL     OW30400   3.236   2.529   4.780 -0.4542  0.1397  0.0810
 6256SOL    HW130401   3.255   2.532   4.687 -0.6655  1.6121  0.0872
 6256SOL    HW230402   3.224   2.621   4.804  1.2869  0.4965 -0.3954
 6257SOL     OW30403   1.866   3.445   8.398  0.6514 -0.2931  0.2054
 6257SOL    HW130404   1.866   3.521   8.456 -1.0392  0.5153 -0.8518
 6257SOL    HW230405   1.774   3.417   8.390  0.9066 -1.0069 -0.1718
 6258SOL     OW30406   2.720   0.088   3.224  0.5141  0.2647  0.0869
 6258SOL    HW130407   2.740   0.165   3.171  1.0697  0.1171  0.0822
 6258SOL    HW230408   2.642   0.053   3.181  1.0278  0.4391 -0.9902
 6259SOL     OW30409   0.682   0.613   5.091  0.1002  0.0255  0.4553
 6259SOL    HW130410   0.642   0.566   5.019 -1.9556  1.1660  0.8444
 6259SOL    HW230411   0.770   0.618   5.052  0.8782 -0.1552  2.2061
 6260SOL     OW30412   0.763   1.291   1.917 -0.0632  0.0100  0.4167
 6260SOL    HW130413   0.796   1.302   2.006  1.0288 -0.4460  0.0636
 6260SOL    HW230414   0.808   1.365   1.876 -0.3126  0.1178  0.3387
 6261SOL     OW30415   4.634   0.410   8.672  0.6618  0.0668 -0.3744
 6261SOL    HW130416   4.549   0.368   8.662  0.2117  0.4584  1.7436
 6261SOL    HW230417   4.663   0.426   8.583  0.7526  0.2311 -0.3161
 6262SOL     OW30418   1.019   4.470   5.666  0.2305 -0.0803  0.2996
 6262SOL    HW130419   0.940   4.517   5.637  1.4448  1.7582  0.0163
 6262SOL    HW230420   1.057   4.534   5.726  3.2009 -0.3505 -1.3338
 6263SOL     OW30421   3.810   1.921   7.778  0.4789 -0.5100  0.1283
 6263SOL    HW130422   3.826   1.965   7.861 -2.0813 -1.3851  1.0822
 6263SOL    HW230423   3.719   1.931   7.749 -0.3415 -1.3768  2.3729
 6264SOL     OW30424   3.735   0.468   3.368  0.3593 -0.5469  0.2629
 6264SOL    HW130425   3.782   0.476   3.450 -0.8514  0.4400  0.8577
 6264SOL    HW230426   3.644   0.448   3.390  0.0156 -0.5502 -1.1500
 6265SOL     OW30427   3.898   2.681   2.212  0.0706  0.4865 -0.5578
 6265SOL    HW130428   3.976   2.711   2.258  0.3427 -2.9535  1.2271
 6265SOL    HW230429   3.926   2.592   2.188 -1.6252 -0.0882 -0.4049
 6266SOL     OW30430   0.959   1.146   3.475  0.2398 -0.0497  0.1377
 6266SOL    HW130431   0.883   1.202   3.458 -1.9970 -2.7559  1.1726
 6266SOL    HW230432   0.926   1.092   3.548  1.7565  2.1451  2.4442
 6267SOL     OW30433   2.974   0.041   7.408  0.6766 -0.1004 -0.2721
 6267SOL    HW130434   2.961   0.105   7.338 -0.5238  1.1601  1.0814
 6267SOL    HW230435   2.944   4.694   7.382 -0.0105  0.0696 -0.0527
 6268SOL     OW30436   1.408   2.162   2.284 -0.1936 -0.6185  0.2299
 6268SOL    HW130437   1.313   2.153   2.275  0.0770 -1.8580 -1.5243
 6268SOL    HW230438   1.428   2.201   2.199 -0.5755 -1.3911 -0.2107
 6269SOL     OW30439   2.621   2.478   6.191  0.1117  0.1292  0.2617
 6269SOL    HW130440   2.683   2.545   6.221  0.9637 -1.1015  1.2098
 6269SOL    HW230441   2.653   2.396   6.229  1.9126  0.1229 -1.2403
 6270SOL     OW30442   0.228   4.345   1.050 -0.4310  0.4018  0.1829
 6270SOL    HW130443   0.180   4.312   0.974 -3.0961  3.5106  0.4853
 6270SOL    HW230444   0.318   4.314   1.046 -0.5565  0.3415 -2.1279
 6271SOL     OW30445   0.934   2.288   8.913  0.3520 -0.0312  0.4935
 6271SOL    HW130446   1.022   2.282   8.877  0.5244 -0.4020  0.9708
 6271SOL    HW230447   0.937   2.230   8.989  0.8227 -0.6950 -0.0289
 6272SOL     OW30448   3.664   4.385   5.082 -0.0317  0.0949 -0.3505
 6272SOL    HW130449   3.602   4.423   5.019  0.5127 -0.5109 -1.2443
 6272SOL    HW230450   3.690   4.465   5.128 -2.1206  0.0668  0.8875
 6273SOL     OW30451   2.156   4.675   6.685  0.7152  0.3728  0.1695
 6273SOL    HW130452   2.186   0.020   6.719  0.0375  2.0893 -3.5152
 6273SOL    HW230453   2.080   4.698   6.632  0.9373  1.5025  0.3330
 6274SOL     OW30454   3.323   1.573   9.440  0.2535 -0.1519  0.2715
 6274SOL    HW130455   3.345   1.627   9.364  0.7871  1.7540  1.7636
 6274SOL    HW230456   3.366   1.623   9.510 -1.9057 -0.0215  1.4938
 6275SOL     OW30457   2.276   1.400   9.411 -0.4996  0.5121  1.0051
 6275SOL    HW130458   2.263   1.454   9.333 -2.1173  1.6142  2.0245
 6275SOL    HW230459   2.195   1.429   9.453 -1.2525 -0.8547  0.4948
 6276SOL     OW30460   2.212   1.354   1.929  0.4371  0.0695  0.2870
 6276SOL    HW130461   2.203   1.339   1.835  1.4942 -0.7038  0.3251
 6276SOL    HW230462   2.304   1.333   1.943  0.3439 -1.2275 -1.0128
 6277SOL     OW30463   0.253   1.639  15.623 -0.0129  0.3117 -0.2244
 6277SOL    HW130464   0.282   1.628  15.714  0.3295 -0.2610 -0.4048
 6277SOL    HW230465   0.203   1.721  15.629 -0.7295 -0.1241 -0.2666
 6278SOL     OW30466   1.734   3.820  14.604 -0.2002 -0.4780 -0.2274
 6278SOL    HW130467   1.730   3.819  14.699  0.2230  0.6352 -0.1991
 6278SOL    HW230468   1.687   3.901  14.585  0.3946 -0.2687 -0.7973
 6279SOL     OW30469   1.866   3.375   9.259  0.6339 -0.0356  0.1254
 6279SOL    HW130470   1.949   3.371   9.307  1.6444 -0.4736 -1.6418
 6279SOL    HW230471   1.832   3.460   9.289  1.5150  0.2297  0.3954
 6280SOL     OW30472   4.178   0.127   6.777 -0.3600 -0.0565  0.9604
 6280SOL    HW130473   4.128   0.057   6.818 -1.5459  0.6268  0.6762
 6280SOL    HW230474   4.261   0.080   6.769 -0.9892 -0.8271 -1.1132
 6281SOL     OW30475   2.625   2.967   2.709 -0.3301 -0.4992 -0.1337
 6281SOL    HW130476   2.711   2.939   2.737 -1.1750 -0.6941  2.2899
 6281SOL    HW230477   2.621   2.933   2.620 -0.8794 -0.7455 -0.0133
 6282SOL     OW30478   2.178   3.583  17.721  0.4900  0.0181  0.0834
 6282SOL    HW130479   2.172   3.678  17.713  1.3201  0.1703  1.3232
 6282SOL    HW230480   2.253   3.570  17.664 -0.4397  1.2987 -1.4149
 6283SOL     OW30481   1.947   1.173   2.362  0.1967 -0.2094  0.2017
 6283SOL    HW130482   2.022   1.174   2.303  1.2335 -0.6253  1.5303
 6283SOL    HW230483   1.938   1.082   2.391  2.0028 -0.6189 -0.5460
 6284SOL     OW30484   3.428   3.634   8.838 -0.0374  0.3255  0.0756
 6284SOL    HW130485   3.443   3.619   8.745  0.2503 -0.6442  0.2898
 6284SOL    HW230486   3.346   3.593   8.864 -0.4854  0.8256 -0.5540
 6285SOL     OW30487   2.828   3.977  10.561  0.5058 -0.4422  0.2400
 6285SOL    HW130488   2.780   4.059  10.550  0.6680 -0.3831 -0.0120
 6285SOL    HW230489   2.862   3.985  10.650  2.1603  0.2690 -0.4538
 6286SOL     OW30490   0.265   2.665   4.628 -0.6683  0.1771 -0.2960
 6286SOL    HW130491   0.356   2.636   4.636 -0.4871  0.3214 -1.8671
 6286SOL    HW230492   0.216   2.587   4.603  1.5310 -1.2324 -0.1396
 6287SOL     OW30493   1.276   0.061  13.859 -0.1901 -0.2337  0.8478
 6287SOL    HW130494   1.338   0.114  13.808 -0.4473  1.8262  2.6788
 6287SOL    HW230495   1.273   4.726  13.798 -1.6509  2.4058 -2.2824
 6288SOL     OW30496   0.663   1.012  14.174  0.1155  0.1880 -0.2216
 6288SOL    HW130497   0.628   1.065  14.102  0.9501 -2.3811 -2.5625
 6288SOL    HW230498   0.646   0.924  14.139 -0.1444 -0.3713  1.3215
 6289SOL     OW30499   2.587   0.547  11.312 -0.8486 -0.2559 -0.0150
 6289SOL    HW130500   2.652   0.547  11.242 -2.4651 -0.1811 -1.5171
 6289SOL    HW230501   2.502   0.540  11.268 -0.7581  1.1005 -0.3940
 6290SOL     OW30502   0.141   3.198   0.856  0.0138  0.4037  0.7916
 6290SOL    HW130503   0.098   3.160   0.932  1.8397 -0.7739  1.2394
 6290SOL    HW230504   0.074   3.246   0.807  1.2948  3.9196  2.4462
 6291SOL     OW30505   1.998   4.399  15.930 -0.1152 -0.2258  0.5018
 6291SOL    HW130506   2.012   4.470  15.993  0.0131  0.3731 -0.1874
 6291SOL    HW230507   1.989   4.320  15.983 -0.0656 -1.8267 -1.8598
 6292SOL     OW30508   4.505   3.710   2.533 -0.0314 -0.2936  0.0373
 6292SOL    HW130509   4.522   3.685   2.624  2.7116 -1.6638 -0.8681
 6292SOL    HW230510   4.530   3.802   2.531  1.5040 -0.7414 -1.2654
 6293SOL     OW30511   3.276   3.583   1.589 -0.3779 -0.7134 -0.1504
 6293SOL    HW130512   3.353   3.529   1.609  0.0998 -0.6242 -1.7014
 6293SOL    HW230513   3.313   3.625   1.511 -0.5479  0.4063  0.3736
 6294SOL     OW30514   3.294   0.008   3.892  0.3435 -0.0434  0.6290
 6294SOL    HW130515   3.284   0.025   3.986  1.9052 -0.1598  0.8283
 6294SOL    HW230516   3.368   4.687   3.900  0.4453  0.1461  1.1496
 6295SOL     OW30517   2.256   2.366   9.933  0.0037 -0.2145 -0.6083
 6295SOL    HW130518   2.324   2.300   9.923  0.9592  0.2514  2.7113
 6295SOL    HW230519   2.278   2.425   9.861 -0.0264  0.0826 -0.3744
 6296SOL     OW30520   2.411   3.364   5.047  0.1824  0.0584  0.7976
 6296SOL    HW130521   2.499   3.400   5.040  0.5208 -0.8369  0.3812
 6296SOL    HW230522   2.352   3.433   5.016 -0.9548 -0.1435  2.4704
 6297SOL     OW30523   4.228   3.872  12.141 -0.1004 -0.2752  0.4647
 6297SOL    HW130524   4.219   3.816  12.219  2.0907 -0.1042  0.8389
 6297SOL    HW230525   4.322   3.886  12.157 -0.0961  0.3780 -0.1478
 6298SOL     OW30526   2.143   2.403   7.586 -0.1098  0.0312  0.0713
 6298SOL    HW130527   2.157   2.425   7.494  0.5067  1.0903  0.4232
 6298SOL    HW230528   2.231   2.428   7.614 -0.8010  2.5591 -0.0101
 6299SOL     OW30529   0.112   0.011   6.479  0.0525  0.7828 -0.4333
 6299SOL    HW130530   0.200   0.047   6.489  1.0031 -1.3636 -1.0618
 6299SOL    HW230531   0.133   4.659   6.462  1.4867  0.8264  1.1412
 6300SOL     OW30532   3.753   2.854   4.641 -0.2754 -0.4159 -0.2951
 6300SOL    HW130533   3.700   2.858   4.562 -1.5116 -1.9864  0.4513
 6300SOL    HW230534   3.838   2.837   4.599  1.5077  1.0938  2.7531
 6301SOL     OW30535   2.462   2.728   5.599  0.2399 -0.2633  0.0267
 6301SOL    HW130536   2.438   2.733   5.692  1.1400 -0.2643  0.2646
 6301SOL    HW230537   2.418   2.648   5.572  2.6591 -2.3978  2.3197
 6302SOL     OW30538   1.164   2.270   6.275  0.4003  0.0661 -0.0822
 6302SOL    HW130539   1.214   2.349   6.292 -0.5600  0.4137  1.1463
 6302SOL    HW230540   1.186   2.219   6.353  0.3492 -2.1219 -1.4848
 6303SOL     OW30541   0.254   1.992   8.891  0.0396  0.2135 -0.3210
 6303SOL    HW130542   0.343   1.956   8.889  0.5239  1.4271 -0.4744
 6303SOL    HW230543   0.257   2.049   8.814  1.0127 -0.2723 -0.6455
 6304SOL     OW30544   2.308   1.392  16.137  0.5180 -0.4854 -0.1629
 6304SOL    HW130545   2.242   1.401  16.206 -2.1115 -2.1899 -2.3955
 6304SOL    HW230546   2.378   1.353  16.189  1.8726  1.0206 -0.8745
 6305SOL     OW30547   1.835   2.512   3.748 -0.4733 -0.0534 -0.0370
 6305SOL    HW130548   1.806   2.589   3.699  0.8546  0.5258  0.0819
 6305SOL    HW230549   1.771   2.505   3.819  0.4555  0.6328  0.8673
 6306SOL     OW30550   1.917   2.056   4.201 -0.1115  0.1984 -0.2248
 6306SOL    HW130551   1.927   2.062   4.106  1.5932  3.3462  0.1560
 6306SOL    HW230552   1.999   2.009   4.213 -0.8485 -0.7496  1.1974
 6307SOL     OW30553   4.424   4.541   7.625 -0.1924  0.4839  0.6050
 6307SOL    HW130554   4.359   4.493   7.677 -1.0331  1.9729  0.9093
 6307SOL    HW230555   4.371   4.557   7.547 -0.7044 -1.2767  0.5943
 6308SOL     OW30556   4.099   0.461   4.576  0.3302  0.4251  0.3247
 6308SOL    HW130557   4.157   0.513   4.632 -1.0314  1.2746  0.9560
 6308SOL    HW230558   4.138   0.492   4.494 -1.5911 -1.8295 -1.4156
 6309SOL     OW30559   1.803   1.928   4.949 -0.0146 -0.1667  0.2321
 6309SOL    HW130560   1.712   1.928   4.978 -0.2314 -0.3525 -0.4571
 6309SOL    HW230561   1.796   1.993   4.879  2.5750  2.9782  2.8725
 6310SOL     OW30562   2.151   3.058  11.114  0.2921 -0.1087 -0.0710
 6310SOL    HW130563   2.197   3.041  11.032 -0.6745  1.8284 -1.0020
 6310SOL    HW230564   2.194   3.141  11.136 -1.6966  0.9118 -0.0157
 6311SOL     OW30565   0.396   2.360   8.223 -0.1600 -0.0341 -0.5688
 6311SOL    HW130566   0.371   2.345   8.132 -2.5087 -1.0371  0.2370
 6311SOL    HW230567   0.413   2.454   8.221  1.0720 -0.2732 -1.0607
 6312SOL     OW30568   3.514   1.649   4.974  0.4291  0.0831  0.2562
 6312SOL    HW130569   3.424   1.673   4.955  0.0453  0.1310  2.1219
 6312SOL    HW230570   3.495   1.583   5.041 -0.7209 -0.6984 -0.8536
 6313SOL     OW30571   3.829   1.489   5.110  0.1108  0.5068 -0.0004
 6313SOL    HW130572   3.753   1.477   5.167 -0.0519 -1.6206 -0.6630
 6313SOL    HW230573   3.802   1.439   5.033  1.0416  2.1994 -1.4194
 6314SOL     OW30574   4.626   0.239  13.342  0.5231 -0.3836  0.1302
 6314SOL    HW130575   4.589   0.220  13.428 -1.9224 -1.6242 -1.1823
 6314SOL    HW230576   4.661   0.326  13.361 -0.4178 -0.1124  0.6617
 6315SOL     OW30577   0.247   0.362   5.549  0.3480 -0.3308 -0.1567
 6315SOL    HW130578   0.257   0.318   5.465 -0.4699  2.9099 -1.9531
 6315SOL    HW230579   0.233   0.292   5.613  0.1373 -1.7841 -1.7968
 6316SOL     OW30580   2.840   0.107   6.555  0.1016  0.5942 -0.0133
 6316SOL    HW130581   2.808   0.022   6.584  0.5713  1.2478  2.3826
 6316SOL    HW230582   2.766   0.168   6.568  1.6105  2.1417  1.2825
 6317SOL     OW30583   4.547   0.613   4.907  0.6888 -0.0314  0.0027
 6317SOL    HW130584   4.596   0.655   4.978  2.4804  0.8534 -1.7400
 6317SOL    HW230585   4.614   0.598   4.840  1.5311  0.4094  0.7510
 6318SOL     OW30586   3.379   0.065   2.337 -0.0059  0.1922 -0.4091
 6318SOL    HW130587   3.465   0.093   2.306  1.2080 -0.1473  2.6814
 6318SOL    HW230588   3.379   0.111   2.420 -0.2606  0.7818 -0.7368
 6319SOL     OW30589   2.146   1.891   3.660 -0.5848  0.4185  0.2288
 6319SOL    HW130590   2.163   1.797   3.665  1.2585  0.6212 -2.1989
 6319SOL    HW230591   2.052   1.897   3.641 -0.6627  1.9449  1.1220
 6320SOL     OW30592   1.955   3.951   4.666  0.5388  0.1731  0.4401
 6320SOL    HW130593   1.945   3.917   4.755  1.5463 -0.4183  0.3338
 6320SOL    HW230594   1.868   3.944   4.626  0.6909 -0.3995  0.2066
 6321SOL     OW30595   2.918   1.736   9.534 -0.4091 -0.1103 -0.5973
 6321SOL    HW130596   2.961   1.750   9.619 -0.5415  0.1621 -0.5759
 6321SOL    HW230597   2.833   1.776   9.552  1.5063  3.4013  0.5631
 6322SOL     OW30598   2.564   1.570   5.905  0.1981  0.4920 -0.1657
 6322SOL    HW130599   2.587   1.532   5.820 -0.9818  1.2391 -0.8217
 6322SOL    HW230600   2.577   1.660   5.875  2.7678  0.3027  0.3435
 6323SOL     OW30601   3.338   0.551   8.177 -0.1996  0.5520  0.2336
 6323SOL    HW130602   3.315   0.635   8.138  0.8375  1.2415  1.1101
 6323SOL    HW230603   3.282   0.498   8.120  1.3757 -2.0446  1.0603
 6324SOL     OW30604   4.029   1.053   4.830  0.4454  0.0021  0.4736
 6324SOL    HW130605   3.982   1.060   4.913  1.4238  0.9519  0.9448
 6324SOL    HW230606   4.123   1.050   4.844  0.2262 -3.3504  1.2029
 6325SOL     OW30607   0.365   2.535   5.710  0.1951  0.7754  0.7632
 6325SOL    HW130608   0.339   2.467   5.648  1.0353  1.1403  0.0119
 6325SOL    HW230609   0.450   2.560   5.675  0.9059 -0.2634  1.7512
 6326SOL     OW30610   1.953   2.663   3.088  0.0037  0.7018 -0.4748
 6326SOL    HW130611   1.984   2.574   3.067 -1.3513 -0.0831  0.9112
 6326SOL    HW230612   1.862   2.650   3.062 -0.2698  0.0983  0.8238
 6327SOL     OW30613   1.116   0.247  17.496  0.5122  0.4081  0.5488
 6327SOL    HW130614   1.154   0.236  17.583  2.8711  1.6301 -0.3381
 6327SOL    HW230615   1.093   0.339  17.491  0.7160  0.4209 -0.1110
 6328SOL     OW30616   2.707   3.718   3.647  0.2739 -0.3189  0.3057
 6328SOL    HW130617   2.622   3.678   3.664 -0.3144  1.3310  1.3348
 6328SOL    HW230618   2.681   3.810   3.640  1.8562  0.0064 -1.2021
 6329SOL     OW30619   3.691   1.616   7.876 -0.2719 -0.5120  0.8025
 6329SOL    HW130620   3.698   1.665   7.794 -1.3352  0.1368  1.1032
 6329SOL    HW230621   3.665   1.677   7.945  2.5404  3.2885 -1.4498
 6330SOL     OW30622   4.482   1.217  11.041 -0.5317  0.3424 -0.2263
 6330SOL    HW130623   4.462   1.161  10.967 -0.5699 -0.6271  0.5104
 6330SOL    HW230624   4.559   1.263  11.007 -1.3260  0.6270 -1.6103
 6331SOL     OW30625   3.163   2.065  14.361  0.6704 -0.1406  0.0285
 6331SOL    HW130626   3.143   2.092  14.271 -0.0891 -0.7933  0.0033
 6331SOL    HW230627   3.116   1.982  14.369 -0.6808  0.5211 -0.8730
 6332SOL     OW30628   0.325   3.129  15.496  0.4693  0.3969 -0.2581
 6332SOL    HW130629   0.368   3.148  15.413 -0.0505  2.4469 -0.0537
 6332SOL    HW230630   0.393   3.098  15.555  0.0220  1.2974  0.7364
 6333SOL     OW30631   4.311   4.072   9.413 -0.4858 -0.0679  0.5695
 6333SOL    HW130632   4.273   4.091   9.499 -2.1249 -0.7911  0.0007
 6333SOL    HW230633   4.336   4.161   9.388  0.2196  0.0829  1.8276
 6334SOL     OW30634   2.050   4.400   9.059  0.1651 -0.6131  0.7513
 6334SOL    HW130635   1.998   4.414   8.980  0.3290 -0.8033  0.6082
 6334SOL    HW230636   2.061   4.489   9.093 -1.2314 -0.0910 -0.1990
 6335SOL     OW30637   1.472   2.881   3.091 -0.1662 -0.2870  0.7355
 6335SOL    HW130638   1.501   2.886   3.000  0.7159  1.5949  1.1213
 6335SOL    HW230639   1.378   2.892   3.075 -0.1882 -1.4633 -0.0062
 6336SOL     OW30640   1.181   3.987  15.787  0.2557 -0.2883  0.3168
 6336SOL    HW130641   1.276   4.002  15.788  0.3073 -0.5846  0.0429
 6336SOL    HW230642   1.161   4.024  15.701  2.9087  1.8645  0.6187
 6337SOL     OW30643   0.615   1.740   0.192 -0.0268 -0.1662  0.4511
 6337SOL    HW130644   0.520   1.727   0.198 -0.1200  0.4812  0.3913
 6337SOL    HW230645   0.627   1.705   0.104 -0.6194  0.2963  0.1804
 6338SOL     OW30646   1.139   3.455  11.053 -0.3271 -0.2860  0.1284
 6338SOL    HW130647   1.187   3.386  11.007  3.5721  1.4787  1.5032
 6338SOL    HW230648   1.196   3.528  11.029  1.1363 -1.8907 -1.2612
 6339SOL     OW30649   2.161   0.146   5.932 -0.0873  0.6914  0.3682
 6339SOL    HW130650   2.183   0.099   5.851  0.0315  0.7540  0.3646
 6339SOL    HW230651   2.245   0.129   5.975 -0.2058 -1.0585 -0.0974
 6340SOL     OW30652   4.438   3.055  12.107 -0.6339  0.0044 -0.4833
 6340SOL    HW130653   4.453   2.981  12.048 -0.2709  1.1043 -1.7606
 6340SOL    HW230654   4.467   3.019  12.191  1.8393  0.8567 -0.9587
 6341SOL     OW30655   1.673   2.339   4.215  0.2944  0.3641  0.5694
 6341SOL    HW130656   1.632   2.409   4.165  1.0834  0.0588 -0.5029
 6341SOL    HW230657   1.632   2.256   4.194  1.0785 -0.1753  1.1814
 6342SOL     OW30658   3.670   0.519   7.256  0.3383  0.2727 -0.0693
 6342SOL    HW130659   3.623   0.527   7.173  0.2377 -0.2706 -0.0629
 6342SOL    HW230660   3.599   0.498   7.317 -1.0403 -0.8885 -2.0946
 6343SOL     OW30661   2.514   3.031  11.246 -0.4828 -0.2468 -0.0070
 6343SOL    HW130662   2.602   3.024  11.280 -0.2502  2.3204 -0.0357
 6343SOL    HW230663   2.477   2.994  11.326  3.4912  0.8963  2.3041
 6344SOL     OW30664   3.959   0.993   8.975 -0.3666  0.0115 -0.1580
 6344SOL    HW130665   3.876   1.029   8.943 -1.0887 -0.2555  1.4346
 6344SOL    HW230666   3.995   1.080   8.987 -0.4738 -0.0606  0.6604
 6345SOL     OW30667   0.576   1.223   6.035 -0.5882 -0.8137  1.2193
 6345SOL    HW130668   0.518   1.193   6.104 -1.4570 -0.2303  0.7500
 6345SOL    HW230669   0.611   1.140   6.003  1.1090  0.1604  0.5532
 6346SOL     OW30670   2.925   2.897   3.461 -0.6639 -0.0928 -0.0429
 6346SOL    HW130671   2.912   2.819   3.409 -0.3262 -0.0122 -0.2461
 6346SOL    HW230672   3.021   2.900   3.456 -0.8719  1.6522 -2.5496
 6347SOL     OW30673   1.519   1.714   9.584 -0.4512 -0.3559 -0.5667
 6347SOL    HW130674   1.583   1.644   9.573  1.9683  1.5790  0.9500
 6347SOL    HW230675   1.452   1.693   9.519 -0.4615 -0.0517 -0.6549
 6348SOL     OW30676   3.962   1.135   6.222  0.1785 -0.0343 -0.4641
 6348SOL    HW130677   3.979   1.042   6.208 -0.2700  0.1123 -1.9237
 6348SOL    HW230678   4.053   1.156   6.246  0.1059 -0.3040  0.0602
 6349SOL     OW30679   3.468   2.163   4.522  0.0482  0.2632  0.1426
 6349SOL    HW130680   3.537   2.204   4.469 -1.2606  2.4519  0.1362
 6349SOL    HW230681   3.442   2.092   4.463  2.6686  0.4543 -1.2552
 6350SOL     OW30682   4.261   0.068   4.215 -0.0309 -0.4764  0.4747
 6350SOL    HW130683   4.276   0.045   4.306 -1.8205 -1.6394  0.4901
 6350SOL    HW230684   4.324   0.140   4.210 -1.3982  0.5726 -1.8706
 6351SOL     OW30685   1.526   1.763   4.300 -0.2028  0.2150 -0.2994
 6351SOL    HW130686   1.504   1.848   4.337 -0.0773  0.3780 -0.5988
 6351SOL    HW230687   1.547   1.781   4.209 -1.5410  1.2415 -0.3959
 6352SOL     OW30688   0.084   3.886   4.278 -0.0228 -0.4323 -0.1761
 6352SOL    HW130689   0.081   3.917   4.368  4.2662 -0.3620 -0.0625
 6352SOL    HW230690   0.028   3.809   4.280 -0.1304 -0.3752 -0.8821
 6353SOL     OW30691   3.352   4.585   7.518 -0.4029 -0.4124  1.0087
 6353SOL    HW130692   3.308   4.517   7.468 -0.2368 -0.2632  0.6588
 6353SOL    HW230693   3.421   4.612   7.458 -1.5343 -0.5577 -0.3520
 6354SOL     OW30694   3.561   4.387   5.998  0.3257  0.1761  0.3203
 6354SOL    HW130695   3.590   4.311   5.948  0.0413  0.5501 -0.4038
 6354SOL    HW230696   3.536   4.342   6.079 -0.0630  0.0102  0.1132
 6355SOL     OW30697   1.023   4.738   7.552  0.1651  0.0880 -0.5869
 6355SOL    HW130698   1.064   0.085   7.544 -2.0985  1.0430 -1.7199
 6355SOL    HW230699   0.951   4.739   7.489 -2.2666  3.6343  2.1874
 6356SOL     OW30700   0.873   0.029   8.358  0.3088  0.1932  0.1162
 6356SOL    HW130701   0.939   4.734   8.418  0.3523  0.0501 -0.0172
 6356SOL    HW230702   0.912   0.115   8.342 -0.6012  0.8068  1.1514
 6357SOL     OW30703   1.077   2.144   1.478 -0.1584 -0.4589  0.2961
 6357SOL    HW130704   1.102   2.176   1.391  3.0151  1.1615  1.8088
 6357SOL    HW230705   1.108   2.054   1.482  0.6299 -0.1522  1.0110
 6358SOL     OW30706   0.176   3.883  15.198  0.1053  0.1093  0.8822
 6358SOL    HW130707   0.152   3.851  15.284  0.0350  1.4803  1.3594
 6358SOL    HW230708   0.254   3.834  15.170  0.2216  1.0766 -0.4819
 6359SOL     OW30709   1.292   2.544   4.031  0.2566 -0.9263 -0.0503
 6359SOL    HW130710   1.266   2.487   3.959  0.2926  1.4606 -1.9497
 6359SOL    HW230711   1.305   2.474   4.096  2.5000 -1.5293 -1.1251
 6360SOL     OW30712   2.180   3.273   2.429  0.3092  0.2356  0.0212
 6360SOL    HW130713   2.241   3.201   2.444  1.2033  1.1363  0.7530
 6360SOL    HW230714   2.146   3.247   2.344 -2.9370  1.1894  1.0421
 6361SOL     OW30715   1.897   0.271   3.076  0.0458  0.0547  0.0258
 6361SOL    HW130716   1.822   0.230   3.119  2.0348 -3.7742 -0.0599
 6361SOL    HW230717   1.932   0.199   3.023 -2.5799 -0.5775 -0.8407
 6362SOL     OW30718   0.138   3.871   6.579 -0.0530  0.4386 -0.0796
 6362SOL    HW130719   0.166   3.961   6.562 -0.7477  0.4680 -1.0779
 6362SOL    HW230720   0.055   3.860   6.532  0.3288 -0.1935 -0.5911
 6363SOL     OW30721   1.694   1.387   8.960  0.5047 -0.7072  0.0705
 6363SOL    HW130722   1.661   1.352   8.877  1.9397  0.9578 -1.2377
 6363SOL    HW230723   1.664   1.313   9.012  3.7428 -0.9259  1.6122
 6364SOL     OW30724   2.256   4.163   2.407  0.9024  0.0076 -0.2103
 6364SOL    HW130725   2.255   4.255   2.431 -0.0070 -0.0583  0.0087
 6364SOL    HW230726   2.350   4.155   2.424  0.7875  1.7001  1.2503
 6365SOL     OW30727   2.056   0.176  16.366  0.1745  0.4518  0.4591
 6365SOL    HW130728   2.070   0.250  16.306  0.7373  0.2371  0.3232
 6365SOL    HW230729   2.149   0.152  16.371 -0.4727 -2.3290 -1.0167
 6366SOL     OW30730   3.055   4.621  16.580 -0.4978 -0.0251 -0.2292
 6366SOL    HW130731   2.969   4.580  16.594 -0.2167 -0.1782  1.0009
 6366SOL    HW230732   3.039   4.716  16.576 -0.8377 -0.0200  1.4608
 6367SOL     OW30733   0.295   3.036  13.346 -0.3407  0.2946  0.3916
 6367SOL    HW130734   0.217   3.007  13.298 -0.0160  1.3766 -0.7846
 6367SOL    HW230735   0.300   2.957  13.400 -1.5712  1.7887  2.6417
 6368SOL     OW30736   2.293   1.324  14.796  0.2884  0.4142  0.0909
 6368SOL    HW130737   2.214   1.306  14.745 -0.5461 -1.6118  2.0928
 6368SOL    HW230738   2.276   1.269  14.872  2.0666 -1.3933 -0.8441
 6369SOL     OW30739   3.345   1.786   2.491 -0.3023  0.1430  0.3728
 6369SOL    HW130740   3.342   1.781   2.395  1.4934 -0.0907  0.3302
 6369SOL    HW230741   3.386   1.870   2.512 -1.4802  0.4540  1.4648
 6370SOL     OW30742   0.638   3.078   8.740 -0.8690  0.1803 -0.3809
 6370SOL    HW130743   0.621   3.033   8.657  0.5185 -2.0386  0.5234
 6370SOL    HW230744   0.592   3.161   8.728 -2.7993 -0.9014 -0.4899
 6371SOL     OW30745   2.811   3.906   8.585  0.2211 -0.2537  0.3259
 6371SOL    HW130746   2.906   3.917   8.588  0.3293 -1.1045 -0.3756
 6371SOL    HW230747   2.787   3.893   8.677  2.4544 -0.4577  0.8827
 6372SOL     OW30748   1.937   0.591   1.743 -0.0788 -0.1800 -0.2447
 6372SOL    HW130749   1.880   0.557   1.812 -1.0015 -2.3208 -2.0894
 6372SOL    HW230750   1.995   0.638   1.803  0.6083 -0.5595 -0.6123
 6373SOL     OW30751   3.613   2.292  11.967 -0.1350  1.0218 -0.1713
 6373SOL    HW130752   3.551   2.317  11.899 -0.9340  0.2139  0.2627
 6373SOL    HW230753   3.701   2.319  11.940  0.0919  0.1670 -0.2921
 6374SOL     OW30754   2.918   0.857   7.210 -0.3377  0.4137  0.5516
 6374SOL    HW130755   2.870   0.926   7.164 -0.9912  0.4749  1.3221
 6374SOL    HW230756   2.983   0.839   7.143 -1.5171 -1.7711  0.0080
 6375SOL     OW30757   0.232   2.645   5.464 -0.3508 -0.1602  0.1760
 6375SOL    HW130758   0.146   2.604   5.473 -0.6299  0.5998  0.8831
 6375SOL    HW230759   0.259   2.666   5.553 -1.9916  0.8382  0.4321
 6376SOL     OW30760   2.267   3.597   9.059 -0.3143 -0.0998  0.2413
 6376SOL    HW130761   2.300   3.521   9.012 -1.5386  0.4378 -1.4889
 6376SOL    HW230762   2.267   3.562   9.148 -1.0928 -0.2500  0.1846
 6377SOL     OW30763   1.953   3.417  16.903 -0.4772  0.0583 -0.1769
 6377SOL    HW130764   1.871   3.383  16.940 -0.8095 -0.8208 -1.7401
 6377SOL    HW230765   1.950   3.356  16.830 -2.2725 -0.2704  0.1593
 6378SOL     OW30766   3.384   3.556   8.575 -0.0819  0.5548  0.1973
 6378SOL    HW130767   3.315   3.559   8.508  0.2463  1.2330 -0.1151
 6378SOL    HW230768   3.423   3.469   8.571  1.8210  1.4110  0.0959
 6379SOL     OW30769   2.243   1.935  12.625  0.2425 -0.0208 -0.3628
 6379SOL    HW130770   2.251   2.026  12.595  2.4088  0.3973  1.4772
 6379SOL    HW230771   2.192   1.939  12.706  1.5420 -1.5088  0.5148
 6380SOL     OW30772   4.167   3.627   9.074 -0.0877  0.1623  0.1202
 6380SOL    HW130773   4.239   3.663   9.021  0.8260 -1.7557  0.0406
 6380SOL    HW230774   4.090   3.661   9.029 -0.2989 -0.9181 -0.3351
 6381SOL     OW30775   0.335   4.487  11.315 -0.4175  0.0594  0.0544
 6381SOL    HW130776   0.420   4.485  11.360  0.2117  0.8808 -1.0856
 6381SOL    HW230777   0.309   4.398  11.292  0.3251  0.3024 -1.7462
 6382SOL     OW30778   0.456   0.747  12.465  0.6537  0.3115 -0.1095
 6382SOL    HW130779   0.390   0.810  12.436 -0.2991 -1.4361 -1.7198
 6382SOL    HW230780   0.528   0.802  12.435  1.1307 -0.3989 -0.2486
 6383SOL     OW30781   1.738   3.394   1.968 -0.1487  0.3153  0.4794
 6383SOL    HW130782   1.645   3.377   1.985  0.0267 -1.7089 -0.4936
 6383SOL    HW230783   1.779   3.370   2.051  1.5415 -1.4326 -0.8659
 6384SOL     OW30784   2.511   0.767   2.873 -0.7900  0.0074  0.0780
 6384SOL    HW130785   2.568   0.843   2.871  0.0304 -0.6214 -0.4469
 6384SOL    HW230786   2.557   0.701   2.821  1.9538  1.2524  0.9451
 6385SOL     OW30787   2.281   3.838   8.966  0.2113  0.4928  0.1596
 6385SOL    HW130788   2.252   3.890   9.042  0.0100 -0.0011  0.4236
 6385SOL    HW230789   2.278   3.751   9.005  0.6367  1.1806  1.7645
 6386SOL     OW30790   4.617   1.014   6.908 -0.3210 -0.3799  0.5452
 6386SOL    HW130791   4.679   1.073   6.950  1.7548 -1.2959 -1.2732
 6386SOL    HW230792   4.608   0.940   6.968  1.0904 -1.1380 -0.1910
 6387SOL     OW30793   2.862   4.216  15.517  0.1287  0.3556 -0.2044
 6387SOL    HW130794   2.940   4.219  15.461  0.3485  0.9060  0.1336
 6387SOL    HW230795   2.879   4.134  15.564 -2.0831 -0.4759 -0.8598
 6388SOL     OW30796   4.329   2.499   3.865 -0.4401 -0.2325  0.2257
 6388SOL    HW130797   4.249   2.451   3.888 -1.5322  0.0206 -3.0622
 6388SOL    HW230798   4.381   2.494   3.946 -0.4103  1.7631  0.3375
 6389SOL     OW30799   0.150   4.523   5.580 -0.2366  0.0562 -0.5857
 6389SOL    HW130800   0.214   4.532   5.651 -0.8107 -2.8791  0.2847
 6389SOL    HW230801   0.141   4.428   5.581  1.7046 -0.1356 -1.8400
 6390SOL     OW30802   0.161   4.463  16.290  0.0420 -0.1224 -0.5729
 6390SOL    HW130803   0.115   4.383  16.266 -2.0177  0.5544  1.0332
 6390SOL    HW230804   0.204   4.478  16.206  1.1864 -2.8034 -0.4667
 6391SOL     OW30805   0.677   0.441   8.170 -0.2434 -0.0863 -0.1751
 6391SOL    HW130806   0.591   0.403   8.185 -1.5722  3.2389  0.5487
 6391SOL    HW230807   0.690   0.450   8.075 -2.3180  2.6114 -0.1891
 6392SOL     OW30808   4.098   3.511   1.540 -0.3738  0.2102  0.5082
 6392SOL    HW130809   4.191   3.496   1.525 -1.1061 -1.8418 -2.2196
 6392SOL    HW230810   4.094   3.599   1.577  1.2447  0.4019  0.2233
 6393SOL     OW30811   1.684   1.015   3.661  0.5617 -0.0214  0.5109
 6393SOL    HW130812   1.680   0.920   3.654  0.4252  0.2033 -2.3309
 6393SOL    HW230813   1.605   1.021   3.716  1.5443  0.3248  1.8972
 6394SOL     OW30814   2.626   3.310   5.631 -0.0060 -0.1996 -1.1085
 6394SOL    HW130815   2.705   3.289   5.682 -0.8387  1.5731  0.8746
 6394SOL    HW230816   2.554   3.264   5.673 -0.7918  1.3470 -0.7926
 6395SOL     OW30817   0.992   4.379   9.171 -0.0973  0.1273 -0.2777
 6395SOL    HW130818   0.933   4.311   9.203 -0.2813 -0.4927 -1.9361
 6395SOL    HW230819   0.935   4.442   9.127  2.7984  3.5046  0.7855
 6396SOL     OW30820   2.077   3.528   8.674 -0.2368 -0.4267  0.4388
 6396SOL    HW130821   2.116   3.611   8.643  1.6986 -1.0852  1.1107
 6396SOL    HW230822   2.154   3.497   8.721 -0.2049  0.7614  1.1664
 6397SOL     OW30823   3.024   1.877  12.669 -0.0763 -0.8337  0.2684
 6397SOL    HW130824   3.044   1.968  12.647  2.2467 -1.8877 -2.0486
 6397SOL    HW230825   2.943   1.864  12.620 -0.8307  1.9066  0.7796
 6398SOL     OW30826   1.793   0.979   5.409 -0.3765  0.0309 -0.2803
 6398SOL    HW130827   1.866   1.001   5.351 -0.2054 -2.6964 -1.0991
 6398SOL    HW230828   1.836   0.952   5.490  0.0976  2.2269  0.2073
 6399SOL     OW30829   1.872   2.691   9.250 -0.0777  0.2738  0.3624
 6399SOL    HW130830   1.952   2.671   9.202 -0.5903 -0.2230 -0.2940
 6399SOL    HW230831   1.813   2.714   9.178  0.0871  3.3840  1.2245
 6400SOL     OW30832   2.672   2.900   2.449 -0.3794 -0.2611 -0.2695
 6400SOL    HW130833   2.674   2.831   2.383 -4.6176  0.0584 -0.7621
 6400SOL    HW230834   2.760   2.928   2.426 -0.2396  0.1453  0.7578
 6401SOL     OW30835   1.394   4.440  11.672 -0.2686 -0.4489 -0.0169
 6401SOL    HW130836   1.300   4.457  11.685  0.2218  1.5055  0.9268
 6401SOL    HW230837   1.391   4.387  11.592  1.1373 -1.3403  0.5225
 6402SOL     OW30838   2.443   4.021   7.699  0.0417 -0.1352 -0.2256
 6402SOL    HW130839   2.391   3.959   7.750 -0.2716 -2.4080 -3.3778
 6402SOL    HW230840   2.529   3.982   7.713 -0.6311 -2.1293 -1.6175
 6403SOL     OW30841   4.079   3.774   6.135  0.0630 -0.0754 -0.0662
 6403SOL    HW130842   4.036   3.860   6.141 -0.8980 -0.5592 -0.0116
 6403SOL    HW230843   4.074   3.748   6.043  0.9517  1.6383 -0.6096
 6404SOL     OW30844   2.520   2.365  11.633 -0.0281  0.1011 -0.0681
 6404SOL    HW130845   2.531   2.345  11.726  3.6707 -1.6942 -0.8695
 6404SOL    HW230846   2.578   2.303  11.589  1.8692  1.5773  0.3222
 6405SOL     OW30847   0.795   4.689   2.128  0.3157  0.1804 -0.2591
 6405SOL    HW130848   0.775   0.030   2.176  0.4136 -0.1656  0.3580
 6405SOL    HW230849   0.768   4.629   2.197  0.9914 -2.2589 -2.1433
 6406SOL     OW30850   1.573   1.655   7.907  0.0953  0.0625 -0.3200
 6406SOL    HW130851   1.576   1.586   7.974 -0.3319  1.0256  0.6982
 6406SOL    HW230852   1.544   1.610   7.828 -0.4204 -2.9247  1.5746
 6407SOL     OW30853   1.062   3.440  14.579  0.1890 -0.1105 -0.2547
 6407SOL    HW130854   1.063   3.529  14.615  0.1637 -0.7357  1.2533
 6407SOL    HW230855   1.137   3.395  14.617  2.2223  2.0310 -1.6795
 6408SOL     OW30856   0.511   3.272   1.151  1.0785 -0.0386 -0.5843
 6408SOL    HW130857   0.513   3.344   1.214  1.7368 -2.2509  1.9330
 6408SOL    HW230858   0.590   3.227   1.184  0.9888 -2.4184 -3.5896
 6409SOL     OW30859   0.758   4.286   7.525  0.0467  0.4866 -0.3688
 6409SOL    HW130860   0.713   4.351   7.471  2.3437  2.1663 -0.2804
 6409SOL    HW230861   0.829   4.342   7.557  1.1595  0.6814 -3.1783
 6410SOL     OW30862   4.363   2.745   9.715  0.4852  0.1995 -0.1845
 6410SOL    HW130863   4.342   2.823   9.663 -1.3800  0.0663  0.3825
 6410SOL    HW230864   4.368   2.681   9.644  2.6701 -0.0760  0.2219
 6411SOL     OW30865   3.571   1.791   4.059 -0.3658  1.0912 -0.0571
 6411SOL    HW130866   3.556   1.697   4.051 -1.9300  1.4087 -0.9369
 6411SOL    HW230867   3.626   1.813   3.984  0.4862 -1.9702 -0.3242
 6412SOL     OW30868   4.168   3.815   6.658 -0.0177 -0.3525  0.3447
 6412SOL    HW130869   4.239   3.756   6.632 -0.7525 -0.5598 -1.1980
 6412SOL    HW230870   4.219   3.863   6.723  0.3292  1.1425 -1.0176
 6413SOL     OW30871   3.549   2.898   3.658 -0.4579 -0.3561 -0.3058
 6413SOL    HW130872   3.564   2.962   3.727 -0.7236  0.5361 -1.0753
 6413SOL    HW230873   3.547   2.819   3.713 -0.7850  1.2979  2.0412
 6414SOL     OW30874   2.817   1.519   7.566  0.6265  0.1657 -0.0755
 6414SOL    HW130875   2.857   1.471   7.493  3.7190 -0.7646  2.1980
 6414SOL    HW230876   2.859   1.478   7.642 -0.3845 -0.5197  0.1112
 6415SOL     OW30877   2.610   0.474   0.789 -0.0293 -0.0358  0.1258
 6415SOL    HW130878   2.668   0.420   0.736 -1.2072  0.7895 -1.9874
 6415SOL    HW230879   2.594   0.543   0.726  0.4450  1.2907  1.4540
 6416SOL     OW30880   2.117   0.803  17.238  0.7491 -0.4180  0.9845
 6416SOL    HW130881   2.141   0.739  17.172  2.5938  0.1221  1.1333
 6416SOL    HW230882   2.204   0.842  17.234 -0.5286  2.1647 -1.9067
 6417SOL     OW30883   1.002   2.829  12.197  0.5700 -0.0812 -0.3098
 6417SOL    HW130884   1.015   2.908  12.144 -1.0982 -0.4022 -1.1988
 6417SOL    HW230885   0.941   2.784  12.138 -1.5452 -0.5189  2.1919
 6418SOL     OW30886   3.282   2.457   1.243  0.8439 -0.1793  0.7134
 6418SOL    HW130887   3.325   2.411   1.315 -0.8131 -0.2893  1.6527
 6418SOL    HW230888   3.268   2.376   1.193  0.5477  1.7901 -2.3882
 6419SOL     OW30889   3.939   3.823   5.670 -0.2046  0.1847 -0.5224
 6419SOL    HW130890   3.985   3.902   5.640 -0.1503  0.8705  1.3127
 6419SOL    HW230891   3.856   3.830   5.623  0.7263 -1.2941 -2.3591
 6420SOL     OW30892   0.236   2.955   4.981  0.0705  0.3237  0.5209
 6420SOL    HW130893   0.189   2.956   5.065  1.0251  0.2222  1.0569
 6420SOL    HW230894   0.287   3.035   4.991  1.1926  0.1934 -4.3102
 6421SOL     OW30895   0.748   1.922   4.248  0.6617  0.7246  0.3384
 6421SOL    HW130896   0.801   1.897   4.323 -1.8355 -2.2266  1.0969
 6421SOL    HW230897   0.656   1.898   4.264  0.9589 -0.2687  0.5459
 6422SOL     OW30898   1.553   3.185   8.664  0.3596 -0.0349  0.2428
 6422SOL    HW130899   1.628   3.126   8.664  0.6207  0.2963 -0.3636
 6422SOL    HW230900   1.561   3.219   8.575  0.7504  2.2966  1.1630
 6423SOL     OW30901   3.076   1.721  11.082  0.0201  0.5790 -1.0049
 6423SOL    HW130902   3.095   1.643  11.030 -0.7640  1.7062 -2.9751
 6423SOL    HW230903   3.098   1.691  11.170  1.0521 -2.4147 -2.2821
 6424SOL     OW30904   0.230   1.535   7.051  0.9019 -0.6068 -0.6281
 6424SOL    HW130905   0.308   1.585   7.074  0.0280  0.6345 -0.3501
 6424SOL    HW230906   0.226   1.568   6.961  0.4147  0.0537 -0.3648
 6425SOL     OW30907   0.808   0.552   9.658  0.1850  0.0124  0.2344
 6425SOL    HW130908   0.762   0.578   9.738  0.9837  0.9945  0.3754
 6425SOL    HW230909   0.881   0.509   9.702  2.4720  1.2391 -2.4120
 6426SOL     OW30910   1.493   2.441   9.168  0.1652  0.3062 -0.5981
 6426SOL    HW130911   1.519   2.465   9.079  0.6928  1.6597 -0.0759
 6426SOL    HW230912   1.535   2.355   9.170 -1.0688 -0.2966 -0.1331
 6427SOL     OW30913   1.065   1.946   8.884 -0.1191  0.2187  0.3771
 6427SOL    HW130914   1.002   1.935   8.954 -0.7014  1.2697  0.0135
 6427SOL    HW230915   1.073   1.863   8.837  1.4567  1.2401 -1.1442
 6428SOL     OW30916   0.827   2.197  11.414 -0.0810 -0.0177 -0.2684
 6428SOL    HW130917   0.798   2.226  11.500 -0.6827  0.7195 -0.7104
 6428SOL    HW230918   0.805   2.105  11.424 -0.6681  0.0312 -1.0765
 6429SOL     OW30919   3.692   3.105   8.538  0.3398  0.1660  0.4282
 6429SOL    HW130920   3.730   3.038   8.482  1.5195  1.9682 -0.9220
 6429SOL    HW230921   3.716   3.087   8.629 -0.6439  2.7241  1.1920
 6430SOL     OW30922   2.042   4.310   6.502  0.6065  0.2120 -0.4364
 6430SOL    HW130923   2.012   4.225   6.533 -2.7423  1.1262 -1.1962
 6430SOL    HW230924   2.136   4.289   6.504  0.4112 -0.6202 -0.1912
 6431SOL     OW30925   0.862   2.009   5.854 -0.6147  0.7867  0.2105
 6431SOL    HW130926   0.927   2.078   5.864 -1.7965  1.7729  1.0338
 6431SOL    HW230927   0.908   1.930   5.882 -2.9723 -1.0752 -1.2333
 6432SOL     OW30928   2.820   2.212   9.030 -0.1559  0.1292  0.3817
 6432SOL    HW130929   2.815   2.193   8.936  0.6311 -0.8938  0.5483
 6432SOL    HW230930   2.882   2.285   9.024  1.4415 -1.3490 -0.9366
 6433SOL     OW30931   0.813   0.806   3.541 -0.2298  0.0195  0.0560
 6433SOL    HW130932   0.823   0.881   3.600  1.9815 -0.2348 -0.0179
 6433SOL    HW230933   0.895   0.760   3.558  0.8752  2.0609  0.2691
 6434SOL     OW30934   2.423   3.820  17.459 -0.1593  0.1541  0.2871
 6434SOL    HW130935   2.364   3.803  17.386 -1.3921 -0.0094  1.3270
 6434SOL    HW230936   2.425   3.915  17.471  0.9363 -0.1770  2.7357
 6435SOL     OW30937   1.334   0.718   6.659 -1.1288 -0.0470  0.1840
 6435SOL    HW130938   1.336   0.787   6.725 -1.0739  0.1923 -0.0688
 6435SOL    HW230939   1.247   0.740   6.626 -0.9562  0.7138  0.2343
 6436SOL     OW30940   3.177   0.499   1.684  0.0647 -0.8078  0.1838
 6436SOL    HW130941   3.236   0.558   1.732 -0.1134 -1.5609  1.3338
 6436SOL    HW230942   3.094   0.507   1.730  1.0420 -0.2670  1.8881
 6437SOL     OW30943   3.640   4.729   1.738 -0.3707 -0.1545  0.3977
 6437SOL    HW130944   3.603   0.075   1.759 -0.8369 -0.6046  1.4302
 6437SOL    HW230945   3.640   4.686   1.824 -2.9672  0.9144  0.9480
 6438SOL     OW30946   0.027   1.104   4.559 -0.0088 -0.4788 -0.1955
 6438SOL    HW130947   0.091   1.126   4.490 -1.4410  0.5917 -1.1798
 6438SOL    HW230948   0.048   1.012   4.573  0.6598 -0.0811  1.5033
 6439SOL     OW30949   1.950   1.163  11.685 -0.3214 -0.2510 -0.1409
 6439SOL    HW130950   1.971   1.090  11.743 -0.7363 -0.3713 -0.1408
 6439SOL    HW230951   1.879   1.123  11.636 -0.3471  0.7591 -0.9348
 6440SOL     OW30952   2.789   0.598   2.879 -0.1701  0.2990  0.2195
 6440SOL    HW130953   2.796   0.554   2.964 -0.9680 -1.5139 -0.6607
 6440SOL    HW230954   2.816   0.684   2.913 -2.5245  0.9231  0.4834
 6441SOL     OW30955   0.201   1.767   8.275  0.3898  0.1624  0.3067
 6441SOL    HW130956   0.218   1.834   8.341  0.4471  2.2231 -1.8293
 6441SOL    HW230957   0.290   1.732   8.263  0.3191 -0.3003  1.1235
 6442SOL     OW30958   2.279   2.208   7.097  0.3595  0.2360 -0.6740
 6442SOL    HW130959   2.215   2.173   7.159  1.5565 -2.3444 -0.9089
 6442SOL    HW230960   2.361   2.198   7.146 -1.0788  0.1579  1.7111
 6443SOL     OW30961   3.906   0.460   8.207 -0.0520  0.4249 -0.4178
 6443SOL    HW130962   3.858   0.464   8.289  0.7870  1.6352  0.0247
 6443SOL    HW230963   3.851   0.512   8.147  1.1189  1.4727 -0.5930
 6444SOL     OW30964   0.218   0.177   1.819  0.2977  0.3593 -0.4373
 6444SOL    HW130965   0.220   0.272   1.832 -4.1396  0.4166 -0.1978
 6444SOL    HW230966   0.257   0.175   1.731  1.0736 -2.9764 -0.0090
 6445SOL     OW30967   3.838   2.964   1.749  0.4702  0.1191  0.1802
 6445SOL    HW130968   3.914   3.009   1.713 -0.7229  0.9454 -1.3015
 6445SOL    HW230969   3.824   3.035   1.812  0.0936  0.0429  0.1840
 6446SOL     OW30970   1.248   2.882   2.223 -0.2432 -0.5509  0.0390
 6446SOL    HW130971   1.272   2.796   2.188  0.0869  0.3164 -1.8794
 6446SOL    HW230972   1.178   2.917   2.167  1.7645  2.0806 -0.8056
 6447SOL     OW30973   3.363   3.915  10.670 -0.8706 -0.0546  0.1795
 6447SOL    HW130974   3.453   3.937  10.693 -0.3254 -2.9324  0.7963
 6447SOL    HW230975   3.384   3.829  10.632  1.6503  0.9239 -0.6449
 6448SOL     OW30976   0.582   3.989   3.178  0.4361  0.0820 -0.0633
 6448SOL    HW130977   0.584   3.982   3.274  0.4022 -1.9667 -0.2113
 6448SOL    HW230978   0.495   3.950   3.167  0.8017 -0.8213  0.2568
 6449SOL     OW30979   2.212   1.108   4.970 -0.7642  0.7112 -0.7700
 6449SOL    HW130980   2.240   1.138   5.056 -1.4206  0.0619 -0.3297
 6449SOL    HW230981   2.162   1.027   4.984 -1.1211  1.1668  0.5158
 6450SOL     OW30982   1.501   1.904   3.286 -0.2987  0.8258  0.1583
 6450SOL    HW130983   1.462   1.847   3.353 -0.4262 -2.2067 -2.4841
 6450SOL    HW230984   1.572   1.950   3.331 -0.0018  0.6459 -0.1271
 6451SOL     OW30985   3.500   0.780   3.861  0.2171 -0.0082 -0.3480
 6451SOL    HW130986   3.405   0.775   3.853 -0.0178  1.4359  1.5754
 6451SOL    HW230987   3.501   0.769   3.956 -1.9486  0.9941 -0.2089
 6452SOL     OW30988   0.612   0.781   1.355  0.0188 -0.0180  0.1755
 6452SOL    HW130989   0.702   0.783   1.322 -0.4744  2.3469 -0.9912
 6452SOL    HW230990   0.559   0.817   1.283  1.2871  4.1238  1.3057
 6453SOL     OW30991   3.841   0.937   7.105 -0.2076  0.3635  0.0268
 6453SOL    HW130992   3.856   1.026   7.135  1.5180  0.5621 -1.4038
 6453SOL    HW230993   3.756   0.910   7.140 -0.3415  0.2211 -0.4000
 6454SOL     OW30994   4.584   3.986   6.588 -0.0663 -0.3739  0.0097
 6454SOL    HW130995   4.671   4.012   6.620 -0.2508  0.4036 -0.1169
 6454SOL    HW230996   4.530   4.059   6.618  0.5887 -0.9537  2.5957
 6455SOL     OW30997   2.997   0.976   5.124  0.5548  0.0446  0.0692
 6455SOL    HW130998   2.967   0.974   5.215  0.3511 -1.8613 -0.0413
 6455SOL    HW230999   2.914   0.959   5.079  1.8424 -2.7658 -1.2933
 6456SOL     OW31000   2.917   4.049   2.247  0.0724 -0.0642  0.9220
 6456SOL    HW131001   2.975   4.092   2.310 -0.1080 -0.9984  1.7108
 6456SOL    HW231002   2.896   3.964   2.284  2.6044 -1.0319  0.1071
 6457SOL     OW31003   2.703   4.534   3.030 -0.6406  0.3466 -0.0908
 6457SOL    HW131004   2.787   4.497   3.002  0.3717  1.9347  0.8372
 6457SOL    HW231005   2.704   4.618   2.984 -0.6641  0.3375 -0.1078
 6458SOL     OW31006   0.145   3.394   1.752  0.1505  0.7799 -0.2278
 6458SOL    HW131007   0.088   3.467   1.726 -1.1619 -1.2639 -3.0883
 6458SOL    HW231008   0.136   3.417   1.844  1.7159 -0.1282  0.1611
 6459SOL     OW31009   3.255   2.187   8.984  0.2544  0.1809  0.0563
 6459SOL    HW131010   3.302   2.211   9.064 -1.0208  0.8236  0.6096
 6459SOL    HW231011   3.214   2.104   9.011  2.3786 -0.4346  1.3825
 6460SOL     OW31012   1.411   3.628   8.283  0.0677  0.0262 -0.1186
 6460SOL    HW131013   1.507   3.632   8.287  0.0175  1.9698 -0.9119
 6460SOL    HW231014   1.396   3.565   8.213 -0.6283  2.1874 -1.9019
 6461SOL     OW31015   0.998   1.537   3.603  0.1277 -0.3083 -0.1062
 6461SOL    HW131016   0.967   1.625   3.623  0.0377 -0.0829 -1.2060
 6461SOL    HW231017   1.092   1.542   3.586  0.2423  1.0151  0.9534
 6462SOL     OW31018   3.774   3.802   9.268 -0.1446  0.3567  0.2921
 6462SOL    HW131019   3.741   3.884   9.229 -1.1909 -0.5738 -0.7956
 6462SOL    HW231020   3.865   3.824   9.287 -0.2530  0.4727  0.6712
 6463SOL     OW31021   2.402   1.106   8.466  0.1060 -0.0156 -0.2628
 6463SOL    HW131022   2.369   1.172   8.404  0.9546 -0.1700 -0.8792
 6463SOL    HW231023   2.478   1.069   8.422 -0.5353 -1.3221 -0.2814
 6464SOL     OW31024   3.409   2.535   7.491 -0.0032 -0.5919  0.2899
 6464SOL    HW131025   3.402   2.446   7.526  0.1679 -1.2163 -1.2612
 6464SOL    HW231026   3.488   2.526   7.438 -0.8189 -1.4361 -0.7866
 6465SOL     OW31027   0.410   3.584  17.051 -0.0604 -0.3258  0.0227
 6465SOL    HW131028   0.322   3.589  17.088  0.0547 -0.3754  0.3059
 6465SOL    HW231029   0.395   3.600  16.958  1.0234  0.6847  0.0191
 6466SOL     OW31030   1.336   2.042   9.813 -0.0947  0.1935  0.2976
 6466SOL    HW131031   1.329   2.058   9.907 -1.0625 -2.1462  0.6151
 6466SOL    HW231032   1.333   2.133   9.785  0.3682  0.3841  0.8793
 6467SOL     OW31033   1.941   2.190  12.611  0.1624  0.6477  0.4959
 6467SOL    HW131034   1.862   2.138  12.599 -0.0159  1.0746 -0.1961
 6467SOL    HW231035   1.951   2.191  12.706 -0.2561 -0.3888  0.5460
 6468SOL     OW31036   0.745   0.694   6.797  0.2488  0.1628  0.4274
 6468SOL    HW131037   0.654   0.722   6.797  0.3620  0.5352 -0.7424
 6468SOL    HW231038   0.776   0.731   6.880  1.5023  0.1999 -0.0550
 6469SOL     OW31039   0.783   1.856   2.199  0.1581 -0.5340  0.4736
 6469SOL    HW131040   0.842   1.795   2.243  0.9794 -1.5880 -2.0831
 6469SOL    HW231041   0.802   1.846   2.106 -0.1788  1.4338  0.1942
 6470SOL     OW31042   3.658   3.028   6.104 -0.4265 -0.1519  0.5516
 6470SOL    HW131043   3.616   3.071   6.179  0.5218 -0.0877  1.0451
 6470SOL    HW231044   3.748   3.005   6.129 -1.6263 -1.9013  3.2297
 6471SOL     OW31045   1.468   0.503  14.623 -0.3143 -0.3136  0.5544
 6471SOL    HW131046   1.538   0.555  14.665  0.3089 -0.2123 -0.6203
 6471SOL    HW231047   1.515   0.427  14.590  0.1562 -0.6587  2.0195
 6472SOL     OW31048   0.262   0.442   5.244 -0.2559  0.1727 -0.0006
 6472SOL    HW131049   0.247   0.347   5.248 -2.3923  0.6234  2.1229
 6472SOL    HW231050   0.280   0.439   5.150  1.0052  2.1238  0.1669
 6473SOL     OW31051   4.560   0.329   5.788 -0.7278 -0.3888  0.4542
 6473SOL    HW131052   4.595   0.256   5.736  0.5073  1.4789 -1.3383
 6473SOL    HW231053   4.596   0.319   5.876  0.5731 -0.2751 -0.0473
 6474SOL     OW31054   4.475   1.276  11.876 -0.2193  0.2318 -0.0478
 6474SOL    HW131055   4.564   1.243  11.862 -1.4623 -2.8507 -0.6890
 6474SOL    HW231056   4.459   1.243  11.964 -0.6110  1.0903  0.2007
 6475SOL     OW31057   2.506   1.190   2.891 -0.2136 -0.0210  0.2640
 6475SOL    HW131058   2.447   1.260   2.865  0.1844  0.2156  0.0101
 6475SOL    HW231059   2.444   1.123   2.922 -0.6886 -0.5997 -1.9655
 6476SOL     OW31060   2.315   4.274   6.525 -1.1064  0.4835  0.2099
 6476SOL    HW131061   2.402   4.236   6.536 -0.6167  1.7210  0.7207
 6476SOL    HW231062   2.324   4.370   6.528  3.4782  0.0832  0.6848
 6477SOL     OW31063   0.105   2.764  16.859 -0.1049 -0.4576  0.5904
 6477SOL    HW131064   0.174   2.829  16.871 -1.3597  0.7048  1.5595
 6477SOL    HW231065   0.108   2.703  16.934  0.4626  1.3137  2.0044
 6478SOL     OW31066   2.557   2.054   4.954 -0.1651  0.2280 -0.0207
 6478SOL    HW131067   2.547   1.960   4.974  0.4121 -0.2538 -1.9523
 6478SOL    HW231068   2.649   2.057   4.928 -0.6385  1.6030 -1.5465
 6479SOL     OW31069   1.837   4.657   5.134  0.0485 -0.0915  0.0940
 6479SOL    HW131070   1.746   4.628   5.137  0.1293 -0.2617  1.0963
 6479SOL    HW231071   1.860   4.622   5.048 -0.4392 -0.0245 -0.0604
 6480SOL     OW31072   3.996   0.252   3.022 -0.1004  0.1650 -0.4010
 6480SOL    HW131073   3.935   0.319   3.053 -0.7690 -1.4042  1.6613
 6480SOL    HW231074   4.071   0.306   2.997  0.3810 -0.2354  0.1880
 6481SOL     OW31075   0.328   4.126   6.210 -0.0734 -0.0086  0.3320
 6481SOL    HW131076   0.286   4.051   6.168  1.6767 -1.0367  0.4494
 6481SOL    HW231077   0.370   4.167   6.135 -0.4949 -1.2491 -0.5878
 6482SOL     OW31078   3.027   2.982   8.694  0.2326  0.3947  0.0079
 6482SOL    HW131079   3.042   3.046   8.764  1.3957 -0.5964  0.6583
 6482SOL    HW231080   3.012   2.904   8.748  2.8718 -1.0346 -1.3853
 6483SOL     OW31081   2.560   1.594   6.275  0.1342 -0.4576 -0.4321
 6483SOL    HW131082   2.479   1.601   6.224  0.8604 -0.5784 -1.6111
 6483SOL    HW231083   2.533   1.544   6.352 -1.2205 -0.8285 -1.1486
 6484SOL     OW31084   0.199   4.143   1.457  0.1905  0.2282  0.1967
 6484SOL    HW131085   0.261   4.131   1.530 -1.6331 -1.0490  1.5472
 6484SOL    HW231086   0.228   4.073   1.399 -3.9814 -0.2877 -1.2705
 6485SOL     OW31087   0.863   2.603  12.586  0.1977  0.2674  0.8705
 6485SOL    HW131088   0.827   2.618  12.673 -0.2292 -0.3994  0.8007
 6485SOL    HW231089   0.906   2.517  12.586 -1.1885 -0.4194  0.6898
 6486SOL     OW31090   2.447   1.845  14.951 -0.3501 -0.8209  0.5332
 6486SOL    HW131091   2.477   1.921  14.902  0.3887 -3.0777 -2.5623
 6486SOL    HW231092   2.411   1.796  14.877  0.6113  1.6965 -1.6156
 6487SOL     OW31093   4.193   2.365   6.410  0.1750  0.1198 -0.4164
 6487SOL    HW131094   4.196   2.433   6.477 -0.6282 -0.6897  0.4315
 6487SOL    HW231095   4.261   2.394   6.350  0.0959  1.3040  0.0574
 6488SOL     OW31096   1.091   3.996   3.160 -0.1102  0.9098 -0.5293
 6488SOL    HW131097   1.137   4.074   3.190  2.7111 -0.9210 -0.1572
 6488SOL    HW231098   1.137   3.929   3.211 -1.3041  1.0446  0.7488
 6489SOL     OW31099   0.752   4.718   7.414 -0.0526 -0.8522  0.4620
 6489SOL    HW131100   0.718   4.639   7.373  2.5156 -1.5595 -0.3563
 6489SOL    HW231101   0.687   0.007   7.478 -0.9831  2.5840 -1.9937
 6490SOL     OW31102   4.680   2.442   3.849  0.9865  0.3496 -0.2472
 6490SOL    HW131103   4.691   2.469   3.940 -4.5094  0.4453  0.4206
 6490SOL    HW231104   0.023   2.402   3.823  0.4266 -2.4934  2.2422
 6491SOL     OW31105   0.914   2.581  10.823  0.2907  0.6012  0.5537
 6491SOL    HW131106   0.881   2.582  10.912 -1.1298  1.4216  0.0066
 6491SOL    HW231107   1.001   2.545  10.839  1.3633  2.5527 -0.8453
 6492SOL     OW31108   0.090   2.821   5.211 -0.0948  0.2797 -0.3981
 6492SOL    HW131109   0.080   2.727   5.202  0.2445  0.0335  1.7507
 6492SOL    HW231110   0.174   2.829   5.255 -1.3805 -0.1346  2.1075
 6493SOL     OW31111   4.303   1.029   2.130  0.3181 -0.0045  0.2589
 6493SOL    HW131112   4.381   1.069   2.091  1.2788 -1.0611  1.0971
 6493SOL    HW231113   4.292   0.950   2.076  0.5227  0.0527  0.1347
 6494SOL     OW31114   2.908   3.918  14.558 -0.1928 -0.0458 -0.3408
 6494SOL    HW131115   2.881   4.010  14.550 -2.0044 -0.5818 -0.5408
 6494SOL    HW231116   2.819   3.889  14.538  0.5805 -3.0928  0.5266
 6495SOL     OW31117   0.396   4.157  17.498 -0.5930  0.0024 -0.1239
 6495SOL    HW131118   0.383   4.104  17.577  1.0028 -0.3246 -0.0645
 6495SOL    HW231119   0.353   4.237  17.526  1.1946  0.2877  1.8178
 6496SOL     OW31120   2.618   0.856   7.382 -0.3031 -0.5085 -0.0430
 6496SOL    HW131121   2.680   0.897   7.322  1.3496 -0.8286  1.4351
 6496SOL    HW231122   2.538   0.852   7.329 -0.8681  1.0812  0.6833
 6497SOL     OW31123   3.902   3.808  13.934  0.6369 -0.8635 -0.0374
 6497SOL    HW131124   3.808   3.796  13.926  0.5598  0.1590 -0.6086
 6497SOL    HW231125   3.907   3.904  13.943 -0.4838 -0.7629 -0.5482
 6498SOL     OW31126   2.796   1.274   8.045 -0.0908 -0.3093 -0.3034
 6498SOL    HW131127   2.796   1.231   7.959  0.0695 -1.2365  0.1546
 6498SOL    HW231128   2.724   1.335   8.057 -0.1235  0.3001 -3.6003
 6499SOL     OW31129   0.424   4.405   9.352 -0.1016 -0.5066  0.0606
 6499SOL    HW131130   0.501   4.351   9.335  0.0236  0.7205 -3.2765
 6499SOL    HW231131   0.396   4.430   9.264  0.0160  1.6720  0.6365
 6500SOL     OW31132   4.442   2.207   2.878 -0.9674 -0.2726 -0.4538
 6500SOL    HW131133   4.442   2.117   2.844 -2.1677 -0.2248 -0.6125
 6500SOL    HW231134   4.404   2.197   2.965  1.3955  2.5169  0.9090
 6501SOL     OW31135   4.363   1.000   6.660  0.0962  0.0962 -0.2821
 6501SOL    HW131136   4.289   0.952   6.623 -0.2029 -0.4553  1.0451
 6501SOL    HW231137   4.422   0.925   6.654 -0.2837 -0.1614 -0.7457
 6502SOL     OW31138   1.375   1.861   8.404 -0.3517 -0.3694  0.4052
 6502SOL    HW131139   1.356   1.786   8.348 -1.4379  0.1950  0.0374
 6502SOL    HW231140   1.313   1.922   8.365  0.5423 -0.5910 -1.3299
 6503SOL     OW31141   3.789   2.919   7.867 -0.2019  0.3588 -0.2921
 6503SOL    HW131142   3.836   3.001   7.877  1.0038 -0.2506 -1.0241
 6503SOL    HW231143   3.824   2.866   7.938  0.0733  2.7302  1.3247
 6504SOL     OW31144   2.833   0.318   2.446  0.7133 -0.3623  0.7740
 6504SOL    HW131145   2.862   0.369   2.521  2.5952 -0.6519  0.2264
 6504SOL    HW231146   2.784   0.244   2.483 -1.3621 -0.6312 -2.4763
 6505SOL     OW31147   2.780   3.863   8.311  0.1529 -0.1216  0.0655
 6505SOL    HW131148   2.773   3.846   8.405  0.6714 -0.5669  0.0210
 6505SOL    HW231149   2.864   3.907   8.319 -0.7392  1.3396  1.3044
 6506SOL     OW31150   1.901   3.878   7.448  0.4672  0.0223 -0.0992
 6506SOL    HW131151   1.898   3.818   7.522 -0.2488  0.7879  0.4931
 6506SOL    HW231152   1.970   3.936   7.479 -0.1261  1.1726 -0.9317
 6507SOL     OW31153   0.402   1.221   7.613 -0.3175  0.2726  0.3789
 6507SOL    HW131154   0.355   1.143   7.584  0.1060 -0.6280  2.1415
 6507SOL    HW231155   0.327   1.275   7.638 -2.3980 -2.8578  0.8305
 6508SOL     OW31156   2.415   2.988  16.602  0.2968 -0.5014 -0.0431
 6508SOL    HW131157   2.396   2.992  16.696 -0.5319  2.8008 -0.3455
 6508SOL    HW231158   2.324   2.985  16.570  0.6039  4.5312 -1.3936
 6509SOL     OW31159   3.032   2.548  14.676 -0.1579  0.8075 -0.5504
 6509SOL    HW131160   3.043   2.545  14.771 -2.0138 -0.5634 -0.3750
 6509SOL    HW231161   3.112   2.507  14.643 -0.7172 -0.8198  0.1538
 6510SOL     OW31162   2.784   2.073   5.836 -0.0601  0.2567  0.1731
 6510SOL    HW131163   2.773   2.167   5.848  1.5941  0.5140 -0.2991
 6510SOL    HW231164   2.822   2.089   5.750 -0.5331 -1.2997 -0.3214
 6511SOL     OW31165   2.572   2.714   4.790  0.0086 -0.1467  0.1299
 6511SOL    HW131166   2.651   2.676   4.751  0.3102 -0.3915  0.9833
 6511SOL    HW231167   2.574   2.678   4.878  1.2365 -1.1363 -0.3068
 6512SOL     OW31168   1.275   0.248   9.182  0.2062  0.5375 -0.1455
 6512SOL    HW131169   1.284   0.179   9.117 -0.1003  0.4900 -0.1396
 6512SOL    HW231170   1.236   0.202   9.257 -1.2549  0.3359 -1.0209
 6513SOL     OW31171   2.217   3.852  16.961 -0.1207  0.3455  0.0814
 6513SOL    HW131172   2.125   3.875  16.950 -0.1346  1.0681  1.6990
 6513SOL    HW231173   2.261   3.920  16.910  0.8755 -0.6942 -0.4431
 6514SOL     OW31174   3.275   4.100  15.521  0.0147 -0.1352 -0.1871
 6514SOL    HW131175   3.262   4.013  15.483 -1.1048 -0.7108  1.5279
 6514SOL    HW231176   3.247   4.150  15.444 -0.0298 -0.4929 -0.4044
 6515SOL     OW31177   1.540   2.156   3.866 -0.4173 -0.3844  0.0263
 6515SOL    HW131178   1.572   2.068   3.888  2.1250  0.4090 -0.4994
 6515SOL    HW231179   1.460   2.137   3.817 -0.3767 -1.5534  0.3972
 6516SOL     OW31180   3.468   2.842   4.062 -0.6452 -0.6842 -0.0040
 6516SOL    HW131181   3.402   2.785   4.023 -2.3404  0.7607  0.7787
 6516SOL    HW231182   3.500   2.772   4.119  0.6920 -1.3428 -1.5653
 6517SOL     OW31183   4.031   1.976   5.877 -0.0591 -0.2653  0.0117
 6517SOL    HW131184   3.951   2.027   5.891  0.4970  0.1390  1.8118
 6517SOL    HW231185   4.013   1.897   5.927  0.3429 -0.8999 -0.8640
 6518SOL     OW31186   2.484   2.549   2.539 -0.3748  0.0653 -0.0760
 6518SOL    HW131187   2.579   2.546   2.554 -0.6731 -1.3388  1.4751
 6518SOL    HW231188   2.458   2.619   2.599  0.2108  0.4488 -0.2660
 6519SOL     OW31189   2.145   3.773   9.344  0.3404 -0.1284 -0.1829
 6519SOL    HW131190   2.157   3.862   9.311 -1.3169 -0.5326 -1.8410
 6519SOL    HW231191   2.226   3.731   9.313 -1.0386 -3.0219  0.1568
 6520SOL     OW31192   2.514   0.366   6.915 -0.3200  0.6368  0.3694
 6520SOL    HW131193   2.492   0.459   6.922 -1.2508  0.1763  3.7045
 6520SOL    HW231194   2.607   0.374   6.935 -0.0625 -0.9657 -0.2020
 6521SOL     OW31195   0.503   3.969  17.351  0.1753  0.2411  0.5850
 6521SOL    HW131196   0.596   3.967  17.372  0.0351  4.3999  1.6075
 6521SOL    HW231197   0.469   4.046  17.398 -0.3085  2.0654 -2.8045
 6522SOL     OW31198   0.701   3.819   0.091  0.4933  0.2807  0.2602
 6522SOL    HW131199   0.702   3.779   0.004 -2.4974  0.8841 -0.0369
 6522SOL    HW231200   0.755   3.760   0.145 -0.5377 -2.4460 -1.6711
 6523SOL     OW31201   1.786   2.609   6.640 -0.3942  0.2091 -0.1147
 6523SOL    HW131202   1.833   2.540   6.593 -1.6958  0.9271 -2.4474
 6523SOL    HW231203   1.833   2.626   6.722 -0.9824  0.3557  0.1912
 6524SOL     OW31204   3.566   0.564   3.659 -0.0835 -0.2775 -0.3858
 6524SOL    HW131205   3.654   0.542   3.629  0.2574 -0.9054  1.0834
 6524SOL    HW231206   3.567   0.642   3.715 -0.1637 -2.1367  2.2310
 6525SOL     OW31207   4.569   2.929   2.482 -0.4045 -0.6162  0.4008
 6525SOL    HW131208   4.576   2.891   2.569 -0.6227  3.3028  2.0947
 6525SOL    HW231209   4.560   2.846   2.435 -0.0167 -0.3051 -0.2245
 6526SOL     OW31210   3.840   4.652   2.370 -0.0767 -0.1227  0.1145
 6526SOL    HW131211   3.760   4.677   2.323 -1.5494 -3.1167  1.0318
 6526SOL    HW231212   3.891   4.630   2.292 -0.5255 -2.0722  0.3670
 6527SOL     OW31213   0.818   3.623  15.986  0.1125  0.0984 -0.1308
 6527SOL    HW131214   0.743   3.616  16.044  0.3915 -2.2626 -0.0454
 6527SOL    HW231215   0.822   3.719  15.982  0.0105  0.0893 -0.5046
 6528SOL     OW31216   0.557   2.078   2.556 -0.1016 -0.9546 -0.0023
 6528SOL    HW131217   0.463   2.096   2.551 -0.1757 -1.5456 -0.6775
 6528SOL    HW231218   0.569   2.049   2.647 -0.8659 -1.3563 -0.0299
 6529SOL     OW31219   2.569   2.527   9.837  0.3207  0.6773 -0.5562
 6529SOL    HW131220   2.662   2.521   9.814  0.3962  0.3329 -0.1458
 6529SOL    HW231221   2.534   2.615   9.819 -1.4140  0.0657 -0.1608
 6530SOL     OW31222   2.909   1.705   0.203 -0.5889 -1.1863  0.1967
 6530SOL    HW131223   2.872   1.727   0.289  0.7761 -0.1253  0.5272
 6530SOL    HW231224   2.979   1.645   0.228 -0.0289  0.1256  1.8391
 6531SOL     OW31225   1.075   1.260   8.294 -0.1922 -0.4634 -0.2396
 6531SOL    HW131226   1.167   1.234   8.288 -0.0556  0.0582 -0.4592
 6531SOL    HW231227   1.047   1.172   8.268 -2.0455  0.4098 -1.1782
 6532SOL     OW31228   2.694   0.606  13.184 -0.2482  0.1222 -0.0447
 6532SOL    HW131229   2.758   0.623  13.115  0.0633  0.3987  0.3140
 6532SOL    HW231230   2.709   0.677  13.246  1.4536 -0.8647  0.6699
 6533SOL     OW31231   3.208   2.383   1.871  0.4179 -0.2520 -0.0045
 6533SOL    HW131232   3.283   2.440   1.855  1.1049 -1.6640 -1.8503
 6533SOL    HW231233   3.154   2.456   1.901 -1.3061 -0.4045 -2.6687
 6534SOL     OW31234   0.666   2.870  12.560 -0.1748  0.1910 -0.1870
 6534SOL    HW131235   0.713   2.807  12.613  0.6866  0.2321 -0.8966
 6534SOL    HW231236   0.726   2.945  12.562 -2.4929  1.9944  1.3197
 6535SOL     OW31237   2.189   4.528  13.573  0.0428  0.1426 -0.0886
 6535SOL    HW131238   2.101   4.532  13.536  0.0980 -0.3842 -0.2726
 6535SOL    HW231239   2.173   4.594  13.640  0.0001  0.0394  0.0019
 6536SOL     OW31240   2.524   0.930  11.732  0.0381  0.7194 -0.3425
 6536SOL    HW131241   2.466   1.000  11.764  1.0048  1.5371 -0.3612
 6536SOL    HW231242   2.519   0.944  11.637 -1.8216 -0.0391 -0.3651
 6537SOL     OW31243   1.837   3.975   3.573  0.1737  0.2430  0.2925
 6537SOL    HW131244   1.910   3.917   3.555  0.4084  0.6012  0.0838
 6537SOL    HW231245   1.775   3.910   3.607 -1.3652  1.4235 -0.2630
 6538SOL     OW31246   0.624   4.614  11.896  0.1715 -0.1945 -0.2815
 6538SOL    HW131247   0.702   4.579  11.853 -0.5609  0.1798 -1.8817
 6538SOL    HW231248   0.665   4.692  11.935 -0.2097 -0.7288  1.2165
 6539SOL     OW31249   4.653   3.488  13.925  0.5871  0.7296 -0.9088
 6539SOL    HW131250   4.629   3.444  13.843 -1.3577 -0.3311  0.2318
 6539SOL    HW231251   0.007   3.506  13.914  0.9109  0.9118  2.1799
 6540SOL     OW31252   3.699   4.243  11.438 -0.7232  0.0451  0.3737
 6540SOL    HW131253   3.738   4.231  11.351 -1.3529  1.8021 -0.1361
 6540SOL    HW231254   3.625   4.301  11.420  0.2705  0.9902 -0.6700
 6541SOL     OW31255   0.649   2.233   8.261 -0.1877 -0.5029  0.5637
 6541SOL    HW131256   0.646   2.312   8.314  0.5795 -0.0863 -0.0106
 6541SOL    HW231257   0.560   2.229   8.226 -1.6066  1.2223  4.0386
 6542SOL     OW31258   1.922   0.155  11.279  0.1384 -0.4607  0.0720
 6542SOL    HW131259   1.833   0.188  11.281  0.1444 -0.4515  0.1622
 6542SOL    HW231260   1.971   0.236  11.270 -0.4044  0.0342  1.7608
 6543SOL     OW31261   0.300   1.805   3.167  0.1926 -0.0733 -0.3493
 6543SOL    HW131262   0.330   1.719   3.198  0.6601  0.6700  1.2914
 6543SOL    HW231263   0.264   1.846   3.246  0.2754  0.1471 -0.4243
 6544SOL     OW31264   3.447   0.857   6.764 -0.2929 -0.8498  0.4656
 6544SOL    HW131265   3.515   0.828   6.703  0.1153  0.0537  0.5024
 6544SOL    HW231266   3.450   0.774   6.812  2.7033 -1.1797 -0.3023
 6545SOL     OW31267   0.819   3.420   8.851 -0.1032 -0.3991  0.7135
 6545SOL    HW131268   0.868   3.432   8.932  1.1434  2.8660 -0.5092
 6545SOL    HW231269   0.860   3.491   8.801  1.4029 -0.2635  2.1615
 6546SOL     OW31270   4.428   3.404   7.697  0.4135 -0.0142 -0.1737
 6546SOL    HW131271   4.519   3.375   7.687 -0.0124 -0.9469 -1.3554
 6546SOL    HW231272   4.387   3.321   7.672  1.0661 -0.5567  0.5498
 6547SOL     OW31273   3.041   1.163   9.373 -1.1384  0.1176 -0.1498
 6547SOL    HW131274   2.977   1.211   9.427  0.4379  0.9529  0.9667
 6547SOL    HW231275   3.050   1.086   9.428  1.2788  0.2755 -0.3247
 6548SOL     OW31276   0.427   0.635  17.471  0.0202 -0.2265 -1.1715
 6548SOL    HW131277   0.445   0.648  17.378  1.2647  0.3433 -0.8465
 6548SOL    HW231278   0.513   0.664  17.501 -0.8045  2.4808 -1.4232
 6549SOL     OW31279   1.703   0.150   3.198  0.0843 -0.9512 -0.1245
 6549SOL    HW131280   1.610   0.127   3.203 -0.3710  1.1660  1.0611
 6549SOL    HW231281   1.741   0.069   3.234 -1.4749 -1.7597 -0.2868
 6550SOL     OW31282   2.689   0.691  13.935  0.1213 -1.1005  0.3702
 6550SOL    HW131283   2.638   0.736  13.868  1.1326 -0.8263 -0.2078
 6550SOL    HW231284   2.677   0.600  13.905 -0.8712 -1.0660  0.6479
 6551SOL     OW31285   4.624   0.124   3.335 -0.7758  0.5580  0.1990
 6551SOL    HW131286   4.644   0.142   3.243 -0.3902 -1.5468 -0.1229
 6551SOL    HW231287   4.676   0.198   3.367 -1.3875  0.9935  0.1919
 6552SOL     OW31288   2.582   3.438   8.925  0.6536 -0.3167 -0.1348
 6552SOL    HW131289   2.590   3.441   9.020 -0.2078 -1.0847 -0.0289
 6552SOL    HW231290   2.625   3.521   8.905  0.0772  0.5985  2.4267
 6553SOL     OW31291   2.715   4.459  12.222 -0.0401  0.1691 -0.3314
 6553SOL    HW131292   2.698   4.376  12.177 -0.3736  0.3256 -0.4951
 6553SOL    HW231293   2.682   4.444  12.311  0.1353  0.9941 -0.1237
 6554SOL     OW31294   1.237   2.028   7.554 -0.0550 -0.0985  0.1990
 6554SOL    HW131295   1.192   2.064   7.478 -1.7292 -1.2808  0.6299
 6554SOL    HW231296   1.257   2.109   7.602  0.6251  0.3942 -0.9095
 6555SOL     OW31297   3.295   3.013  12.429  0.0739 -0.6267  0.0461
 6555SOL    HW131298   3.346   2.972  12.499 -1.0787 -2.4486 -0.1658
 6555SOL    HW231299   3.227   3.056  12.481  1.0581  2.5618 -1.3235
 6556SOL     OW31300   2.951   1.153  14.853  0.2658  0.2224 -0.6241
 6556SOL    HW131301   3.020   1.163  14.788 -0.7976  3.4035 -1.2868
 6556SOL    HW231302   2.992   1.183  14.933 -1.6256  2.7602 -0.6093
 6557SOL     OW31303   3.692   3.990   5.287 -0.2169  0.0590  0.1884
 6557SOL    HW131304   3.669   3.911   5.336  2.2802 -0.9256 -0.2058
 6557SOL    HW231305   3.643   3.982   5.205  0.5964 -0.2548 -0.2611
 6558SOL     OW31306   2.267   0.386  17.221  0.3105  0.2669 -0.1124
 6558SOL    HW131307   2.211   0.406  17.296 -0.9079 -0.2924 -0.8627
 6558SOL    HW231308   2.231   0.306  17.182  0.0959 -0.9874  2.6999
 6559SOL     OW31309   0.262   2.989   6.788 -0.1521  0.2273 -0.3481
 6559SOL    HW131310   0.333   3.051   6.802  0.0896  0.1154 -1.1033
 6559SOL    HW231311   0.208   3.042   6.729  2.1903  0.9125 -1.8654
 6560SOL     OW31312   3.938   1.992   2.077  0.5131  0.3826 -0.1304
 6560SOL    HW131313   3.957   1.926   2.144 -1.1618 -0.2852 -0.3190
 6560SOL    HW231314   3.858   2.034   2.108 -0.0404 -1.7863  1.4252
 6561SOL     OW31315   1.279   3.690  11.032 -0.1909  0.5004 -0.6322
 6561SOL    HW131316   1.345   3.628  11.062 -0.8258  0.3268  0.3885
 6561SOL    HW231317   1.294   3.764  11.092 -1.5411  1.2516 -1.2180
 6562SOL     OW31318   3.418   0.289   2.023  0.2150 -0.4108 -0.3736
 6562SOL    HW131319   3.378   0.338   2.095 -0.0686 -1.8564  0.4650
 6562SOL    HW231320   3.507   0.274   2.052 -0.0363  2.5634  1.8955
 6563SOL     OW31321   3.233   3.420  14.293  0.1675 -0.3782  0.3450
 6563SOL    HW131322   3.320   3.433  14.331  0.4423  0.8177 -0.7188
 6563SOL    HW231323   3.215   3.511  14.270  1.1058 -0.4754 -0.7542
 6564SOL     OW31324   1.739   2.979  15.401 -0.0905 -0.3998  0.7794
 6564SOL    HW131325   1.782   2.914  15.346  2.3890  0.2184  1.9813
 6564SOL    HW231326   1.693   3.041  15.345 -2.6941 -3.7785 -0.8366
 6565SOL     OW31327   0.492   1.909   6.633 -0.1008  0.0026 -0.0075
 6565SOL    HW131328   0.521   1.928   6.543  0.9135  0.4692  0.4259
 6565SOL    HW231329   0.405   1.945   6.614  0.7391  1.9549 -0.1286
 6566SOL     OW31330   4.713   2.586   6.112 -0.3422 -0.2934  0.6685
 6566SOL    HW131331   0.007   2.672   6.137  0.1003 -0.0898 -0.6580
 6566SOL    HW231332   0.036   2.547   6.051 -1.4250 -1.3361  0.2178
 6567SOL     OW31333   0.771   1.162   0.325  0.3471  0.7369 -0.2759
 6567SOL    HW131334   0.793   1.235   0.267 -0.1170  0.2769 -1.0317
 6567SOL    HW231335   0.794   1.078   0.286 -3.9175 -0.5371 -0.0393
 6568SOL     OW31336   2.773   0.874  11.831  0.1152  0.1234  0.0904
 6568SOL    HW131337   2.680   0.892  11.814 -0.3889 -0.2630  2.4765
 6568SOL    HW231338   2.795   0.817  11.757 -0.3209 -0.3857  0.3461
 6569SOL     OW31339   0.613   0.200   4.679 -0.3807  0.1811  0.6870
 6569SOL    HW131340   0.708   0.200   4.669 -0.4353 -0.8676  0.1949
 6569SOL    HW231341   0.596   0.112   4.645  0.9351  0.4163 -0.5684
 6570SOL     OW31342   1.956   3.323   9.780 -0.3613  0.0758  0.1445
 6570SOL    HW131343   1.886   3.288   9.725  1.0092 -2.7388  0.2053
 6570SOL    HW231344   2.004   3.244   9.804  1.7323  1.1909 -0.4329
 6571SOL     OW31345   3.745   1.310   3.823 -0.5886 -0.2054 -0.5067
 6571SOL    HW131346   3.836   1.297   3.851 -0.8511 -1.7066 -0.3451
 6571SOL    HW231347   3.707   1.230   3.860 -1.0320 -0.0873 -0.7086
 6572SOL     OW31348   4.145   2.024   5.150  0.4873 -0.0556  0.2980
 6572SOL    HW131349   4.059   1.993   5.179  0.0400 -0.5541 -1.5518
 6572SOL    HW231350   4.179   1.939   5.122  0.5412 -1.0195  3.3046
 6573SOL     OW31351   2.646   1.821   9.577  0.0520 -0.1560  0.0381
 6573SOL    HW131352   2.586   1.762   9.532  0.8884 -0.7431 -0.3170
 6573SOL    HW231353   2.644   1.895   9.517  1.1755 -3.1050 -3.6403
 6574SOL     OW31354   3.862   4.648  16.417  0.3784 -0.1055 -0.2051
 6574SOL    HW131355   3.813   4.651  16.499 -0.5576 -0.1468 -0.7602
 6574SOL    HW231356   3.945   4.678  16.454 -0.0056 -1.4957  1.7993
 6575SOL     OW31357   1.023   0.401  12.558 -0.1353  0.0451  0.2024
 6575SOL    HW131358   1.066   0.355  12.629 -2.8989  0.8056  2.3789
 6575SOL    HW231359   0.969   0.334  12.516  0.1274  0.1841 -0.3568
 6576SOL     OW31360   0.833   4.029   2.013  0.0685 -0.2828  0.2210
 6576SOL    HW131361   0.869   3.941   2.022  1.3380  0.4103  1.8544
 6576SOL    HW231362   0.900   4.093   2.038 -0.6662  0.7605 -0.5135
 6577SOL     OW31363   0.313   2.882  17.059  0.7856  0.6271  0.3494
 6577SOL    HW131364   0.305   2.935  17.138  2.6686  1.5417 -0.0843
 6577SOL    HW231365   0.305   2.792  17.091  4.1646  1.1910  2.7719
 6578SOL     OW31366   0.111   0.551   4.954  0.3075 -0.4257  0.1463
 6578SOL    HW131367   0.191   0.501   4.969 -0.2909 -1.2504  0.6204
 6578SOL    HW231368   0.118   0.592   4.867  1.1142 -0.1351  0.3453
 6579SOL     OW31369   3.110   4.558  14.914 -0.0923  0.1350  0.4175
 6579SOL    HW131370   3.016   4.565  14.898 -0.0378  0.8286  0.4067
 6579SOL    HW231371   3.115   4.479  14.861  1.0656 -1.6861  3.1983
 6580SOL     OW31372   1.480   2.512  14.332  0.4647 -0.2319 -0.3856
 6580SOL    HW131373   1.410   2.449  14.345 -1.8435  2.4855  0.3322
 6580SOL    HW231374   1.440   2.588  14.289  1.2755  0.4473  0.0431
 6581SOL     OW31375   3.526   0.024   5.317 -0.3047 -0.4116  0.1203
 6581SOL    HW131376   3.542   0.082   5.391  1.4071 -1.6550  0.7261
 6581SOL    HW231377   3.442   0.049   5.280  0.0608  0.3451 -0.2077
 6582SOL     OW31378   1.447   2.638   2.935 -0.0072 -0.0702 -0.5221
 6582SOL    HW131379   1.374   2.688   2.973 -1.0390 -1.1218 -1.1367
 6582SOL    HW231380   1.423   2.611   2.847  0.8609  1.6121 -1.2729
 6583SOL     OW31381   3.666   3.671   6.636 -0.0963 -0.0858 -0.1027
 6583SOL    HW131382   3.704   3.637   6.555  0.5511 -0.5533  0.3929
 6583SOL    HW231383   3.696   3.602   6.696  0.8019  2.7052  2.6348
 6584SOL     OW31384   2.264   0.580   3.673 -0.5575  0.0741 -0.5194
 6584SOL    HW131385   2.209   0.554   3.599 -0.0646 -1.7891 -0.2415
 6584SOL    HW231386   2.189   0.585   3.732 -0.0993 -0.0918  0.0695
 6585SOL     OW31387   0.628   2.248   4.856  0.1883 -0.2386 -0.4134
 6585SOL    HW131388   0.570   2.173   4.840  0.6377 -0.7076  0.1418
 6585SOL    HW231389   0.586   2.302   4.923 -0.6748 -2.6640  1.0223
 6586SOL     OW31390   4.292   1.829   2.273  0.6477 -0.1943 -0.0235
 6586SOL    HW131391   4.293   1.888   2.349  1.9233  3.3444 -2.8023
 6586SOL    HW231392   4.206   1.785   2.271  0.2845  0.4975  0.4414
 6587SOL     OW31393   4.364   3.209  17.481 -0.0895 -0.2246 -0.5647
 6587SOL    HW131394   4.310   3.234  17.556  1.8333  1.0685  0.4029
 6587SOL    HW231395   4.403   3.127  17.509 -1.6286 -0.5920  0.4802
 6588SOL     OW31396   1.835   3.517   2.948  0.4764  0.1561  0.0927
 6588SOL    HW131397   1.918   3.552   2.979  0.8717  0.0527 -0.8538
 6588SOL    HW231398   1.815   3.440   3.001  0.2917  0.2407  0.1443
 6589SOL     OW31399   1.848   0.963  14.272  0.6076 -0.1254 -0.1279
 6589SOL    HW131400   1.801   0.879  14.278  0.9962 -0.2886  0.5252
 6589SOL    HW231401   1.785   1.004  14.212  0.3625  0.5668  0.6051
 6590SOL     OW31402   3.170   2.292   3.448 -0.0399  0.0800  0.3536
 6590SOL    HW131403   3.222   2.236   3.390  2.6388 -0.0255  2.8773
 6590SOL    HW231404   3.241   2.329   3.500  0.1116  0.9331 -0.4561
 6591SOL     OW31405   2.999   4.168  14.589  0.1990  0.6677 -0.5567
 6591SOL    HW131406   2.947   4.230  14.537  0.1508 -0.0119 -1.3271
 6591SOL    HW231407   3.071   4.228  14.611 -0.0450  0.7065  0.1248
 6592SOL     OW31408   0.668   0.832  12.777 -0.5309 -0.1951  0.2305
 6592SOL    HW131409   0.654   0.768  12.708 -1.9682 -0.1347  0.4701
 6592SOL    HW231410   0.760   0.857  12.764 -0.3866 -0.9818 -0.2372
 6593SOL     OW31411   3.939   4.629   8.576 -0.2363 -0.6087 -0.0617
 6593SOL    HW131412   3.987   4.662   8.651 -1.4050 -1.3160  0.9889
 6593SOL    HW231413   3.898   4.706   8.536 -1.8500 -1.4932 -0.1078
 6594SOL     OW31414   4.121   1.647   7.850  0.1131  0.4465  0.5998
 6594SOL    HW131415   4.157   1.592   7.920  0.0264  1.3412  1.3410
 6594SOL    HW231416   4.106   1.722   7.908 -1.0789  1.1920 -0.6884
 6595SOL     OW31417   4.618   0.017   2.625 -0.2786 -0.3951  0.5389
 6595SOL    HW131418   4.569   4.686   2.582 -0.7638  0.3193 -0.1099
 6595SOL    HW231419   4.674   4.722   2.693 -0.0903 -1.4691 -0.1629
 6596SOL     OW31420   0.152   2.794   3.590 -0.2967 -0.4776 -0.2188
 6596SOL    HW131421   0.203   2.859   3.543 -0.0308 -0.4878  0.0498
 6596SOL    HW231422   0.115   2.851   3.657  0.2474 -3.5216  2.6819
 6597SOL     OW31423   2.588   0.457  13.862  0.2431  0.3504  0.4738
 6597SOL    HW131424   2.606   0.369  13.829 -0.6330  1.7073 -3.6392
 6597SOL    HW231425   2.495   0.452  13.881  0.2787  0.3410  0.6400
 6598SOL     OW31426   2.878   4.722   8.644 -0.2819  0.4033  0.6978
 6598SOL    HW131427   2.943   0.053   8.638  0.3723 -0.0658  2.2269
 6598SOL    HW231428   2.854   4.712   8.736 -0.1944  2.1313  0.8901
 6599SOL     OW31429   0.438   2.566  14.788 -0.5901  0.4980 -0.6397
 6599SOL    HW131430   0.402   2.505  14.723 -0.4386  0.2816 -0.5202
 6599SOL    HW231431   0.428   2.515  14.868 -1.9956  2.5624  0.4902
 6600SOL     OW31432   3.985   3.101   8.216  0.5357 -0.2159 -0.6252
 6600SOL    HW131433   3.951   3.124   8.130 -0.1888  0.8703 -0.0543
 6600SOL    HW231434   4.067   3.056   8.198  0.5836 -1.2068  2.0809
 6601SOL     OW31435   2.099   4.558  15.471 -0.3035  0.0693  0.1122
 6601SOL    HW131436   2.126   4.590  15.557 -0.9283 -2.8943  1.4104
 6601SOL    HW231437   2.149   4.476  15.474  1.2833  1.0982  1.9787
 6602SOL     OW31438   2.691   2.397   5.651 -0.0010 -0.1322  0.3498
 6602SOL    HW131439   2.729   2.484   5.659  0.5339 -0.2761 -0.7159
 6602SOL    HW231440   2.596   2.409   5.655  0.1457  0.6189  1.4204
 6603SOL     OW31441   1.649   3.607   1.794 -0.1626  0.3003 -0.7250
 6603SOL    HW131442   1.681   3.537   1.851  0.8391  2.2486  1.1087
 6603SOL    HW231443   1.643   3.684   1.849 -0.8518  2.3036 -3.5990
 6604SOL     OW31444   4.137   4.718   3.350  0.2985 -0.0865  0.3714
 6604SOL    HW131445   4.201   4.705   3.420  0.7587  0.3618  0.0329
 6604SOL    HW231446   4.136   0.074   3.344 -1.3129 -0.0691  0.7726
 6605SOL     OW31447   3.616   4.348   4.450 -0.0614  0.1114 -0.1587
 6605SOL    HW131448   3.670   4.369   4.526 -2.3220  1.6727  1.0492
 6605SOL    HW231449   3.564   4.427   4.432 -1.7070 -0.8681  0.3090
 6606SOL     OW31450   3.734   0.178   6.382  0.6353 -0.2148  0.5354
 6606SOL    HW131451   3.824   0.212   6.385  0.6053  0.3652 -3.9753
 6606SOL    HW231452   3.760   0.124   6.307  0.5629  0.6695 -0.1249
 6607SOL     OW31453   1.251   1.053   1.482 -0.1321  0.5471  0.1546
 6607SOL    HW131454   1.253   1.013   1.569  0.5144 -0.8921 -0.5234
 6607SOL    HW231455   1.314   0.996   1.437 -0.7668 -2.1357  2.6822
 6608SOL     OW31456   2.932   1.881   3.700 -0.3763 -0.0537 -0.1631
 6608SOL    HW131457   2.947   1.954   3.640  1.4816 -0.5667 -0.3419
 6608SOL    HW231458   2.892   1.819   3.639  0.2262 -0.6854  0.0848
 6609SOL     OW31459   2.217   0.845   4.249  0.0221  0.1166  0.3092
 6609SOL    HW131460   2.226   0.779   4.318 -0.1895  1.3119  1.4853
 6609SOL    HW231461   2.308   0.850   4.218 -0.2946 -0.4405 -0.6995
 6610SOL     OW31462   2.575   3.170  14.438 -0.1804  1.1244 -0.1184
 6610SOL    HW131463   2.561   3.263  14.420  1.1091  1.4763  0.6694
 6610SOL    HW231464   2.566   3.138  14.348  0.9112  1.2557 -0.2734
 6611SOL     OW31465   3.517   3.772  15.646  0.3545 -0.5970 -0.0514
 6611SOL    HW131466   3.524   3.867  15.646 -0.7414 -0.5192  0.8044
 6611SOL    HW231467   3.459   3.753  15.572  0.0748  1.2905 -0.3151
 6612SOL     OW31468   4.416   4.410   3.420  0.0446 -0.0312  0.2663
 6612SOL    HW131469   4.385   4.341   3.362 -0.3015 -0.2064  0.6607
 6612SOL    HW231470   4.446   4.479   3.361  1.6845  1.3743  2.7215
 6613SOL     OW31471   0.365   2.325   5.532 -0.4173 -0.6624 -0.6403
 6613SOL    HW131472   0.346   2.293   5.444 -3.1235 -0.3796 -0.1502
 6613SOL    HW231473   0.452   2.289   5.548 -0.4444  0.9165  3.0867
 6614SOL     OW31474   3.266   3.043   6.367 -0.1142 -0.1773 -0.2863
 6614SOL    HW131475   3.262   3.138   6.373 -1.8319 -0.1049 -2.4987
 6614SOL    HW231476   3.356   3.023   6.390 -0.7213  0.5810  2.8194
 6615SOL     OW31477   0.520   0.159   8.877 -0.2701 -0.2996 -0.1643
 6615SOL    HW131478   0.469   0.120   8.806  1.5196 -1.8616 -0.6064
 6615SOL    HW231479   0.457   0.196   8.938 -1.6439 -2.3358 -0.3636
 6616SOL     OW31480   1.208   1.373   6.178  0.0653  0.7372 -0.5441
 6616SOL    HW131481   1.150   1.380   6.102  0.9424  3.2177 -0.9973
 6616SOL    HW231482   1.160   1.405   6.254 -2.5054 -0.5620 -1.6568
 6617SOL     OW31483   4.688   3.846  11.986  0.4793 -0.0517 -0.5234
 6617SOL    HW131484   4.593   3.836  11.979  0.1267  2.1626  0.9203
 6617SOL    HW231485   4.695   3.932  12.027 -0.7148 -0.3998  0.4187
 6618SOL     OW31486   2.608   4.323   2.080  0.0265  0.7712  0.2834
 6618SOL    HW131487   2.551   4.390   2.118 -2.1013 -1.0135  0.2428
 6618SOL    HW231488   2.686   4.366   2.046  0.8888 -0.2771  0.9166
 6619SOL     OW31489   2.081   3.870   3.573 -0.5101 -0.1301  0.1592
 6619SOL    HW131490   2.081   3.874   3.669 -0.0712  1.2415  0.0974
 6619SOL    HW231491   2.153   3.812   3.548  0.7062  1.2115  0.5266
 6620SOL     OW31492   1.614   4.193   2.583  0.0851  0.1726  0.3477
 6620SOL    HW131493   1.534   4.230   2.620 -0.8575 -1.9512  0.4472
 6620SOL    HW231494   1.599   4.099   2.573  0.0144 -0.0084  2.0586
 6621SOL     OW31495   2.071   1.080   4.231 -0.0350 -0.5187  0.1777
 6621SOL    HW131496   2.099   0.994   4.261 -0.2388 -0.0057  1.8695
 6621SOL    HW231497   1.991   1.091   4.282  1.3564  0.4531  2.1521
 6622SOL     OW31498   4.380   0.886   5.911 -0.4467  0.3490  0.7240
 6622SOL    HW131499   4.423   0.886   5.997  0.5161 -0.1285  0.2379
 6622SOL    HW231500   4.443   0.940   5.864  0.0759 -0.1406  0.8675
 6623SOL     OW31501   0.858   3.637   6.676  0.3813 -0.0290  0.5146
 6623SOL    HW131502   0.831   3.701   6.610 -0.3426 -1.5523 -0.6807
 6623SOL    HW231503   0.867   3.687   6.757 -4.6405 -1.8004  2.2162
 6624SOL     OW31504   4.687   3.653   0.641  0.3087  0.5396 -0.4897
 6624SOL    HW131505   4.597   3.672   0.612 -0.9332 -2.3154  1.4590
 6624SOL    HW231506   4.717   3.617   0.558 -0.0584 -0.8803 -0.0183
 6625SOL     OW31507   3.743   3.970   4.643  0.0992  0.6168  0.0908
 6625SOL    HW131508   3.824   4.007   4.678  1.1111 -2.8180  1.3558
 6625SOL    HW231509   3.687   4.039   4.678 -0.5193  0.5459 -0.7411
 6626SOL     OW31510   1.378   3.441   1.337  0.1581  0.3193 -0.0123
 6626SOL    HW131511   1.435   3.436   1.415 -0.4973 -1.3147  0.3648
 6626SOL    HW231512   1.423   3.507   1.285 -2.1836  1.6208 -0.3936
 6627SOL     OW31513   4.487   3.409   1.837 -0.2466  0.2963  0.2302
 6627SOL    HW131514   4.525   3.442   1.918  2.2462 -0.9868 -0.4305
 6627SOL    HW231515   4.522   3.320   1.840  0.5504  0.5615 -1.2098
 6628SOL     OW31516   4.557   3.855   7.333  0.2753  0.4343 -0.4386
 6628SOL    HW131517   4.591   3.937   7.369  0.2766 -0.4383  1.5411
 6628SOL    HW231518   4.506   3.811   7.401  0.6045 -1.0511 -1.1648
 6629SOL     OW31519   2.245   2.237   3.620  0.3323  0.2828 -0.1630
 6629SOL    HW131520   2.188   2.302   3.662 -2.5600 -2.0929 -0.4241
 6629SOL    HW231521   2.183   2.197   3.559 -1.5430  1.2858  1.0923
 6630SOL     OW31522   3.709   0.006   1.225  0.0895 -0.0782 -0.4018
 6630SOL    HW131523   3.709   4.707   1.312 -0.3681  4.7389  1.7205
 6630SOL    HW231524   3.614   0.017   1.218  0.2652  1.6352  0.1185
 6631SOL     OW31525   0.654   3.135   7.882  0.1473 -0.1584 -0.2760
 6631SOL    HW131526   0.653   3.170   7.793 -1.3126 -1.1637 -0.6579
 6631SOL    HW231527   0.734   3.083   7.875  0.8728  1.0103 -0.6167
 6632SOL     OW31528   4.527   1.669   6.178  0.1279  0.2138  0.1785
 6632SOL    HW131529   4.563   1.734   6.238 -1.8895  1.3204  0.1716
 6632SOL    HW231530   4.564   1.587   6.211  3.1257  2.0379  1.3442
 6633SOL     OW31531   3.011   4.319  17.059  0.4576  0.0126 -0.1611
 6633SOL    HW131532   3.039   4.410  17.068  1.4191 -0.3843  0.8330
 6633SOL    HW231533   2.976   4.304  17.147 -0.9946 -1.0176 -0.9177
 6634SOL     OW31534   1.560   0.323   1.883 -0.2622  0.1665  0.1400
 6634SOL    HW131535   1.485   0.305   1.826 -1.3909  1.9010  1.0736
 6634SOL    HW231536   1.517   0.305   1.966 -2.7845 -0.4930 -1.3048
 6635SOL     OW31537   2.476   3.979   0.161  0.3822  0.0041  0.3021
 6635SOL    HW131538   2.402   3.922   0.185  0.7407 -0.1979  0.9241
 6635SOL    HW231539   2.428   4.047   0.113  0.6363 -0.7403 -1.0220
 6636SOL     OW31540   0.501   2.974   1.414  0.2331 -0.3703  0.3111
 6636SOL    HW131541   0.410   2.956   1.435 -0.1615  0.8936 -0.3703
 6636SOL    HW231542   0.516   3.050   1.470 -1.7158  0.6819 -0.6241
 6637SOL     OW31543   0.997   0.926   0.346 -0.1457  0.6318 -0.0896
 6637SOL    HW131544   0.930   0.869   0.308 -1.2887  0.0504  2.8707
 6637SOL    HW231545   1.039   0.954   0.264  0.1809 -0.6278 -0.3498
 6638SOL     OW31546   2.998   3.479   6.575 -0.2467 -0.1560  0.7538
 6638SOL    HW131547   2.935   3.442   6.514  0.2963  1.4771 -0.8134
 6638SOL    HW231548   3.033   3.403   6.621 -0.9618  0.6759  2.6605
 6639SOL     OW31549   3.321   1.079   8.224 -0.0826  0.1471 -0.6980
 6639SOL    HW131550   3.239   1.112   8.262  0.2067  1.3515 -1.1073
 6639SOL    HW231551   3.323   1.141   8.151 -0.9779  0.7166 -0.2481
 6640SOL     OW31552   1.171   0.554  17.405  0.0897 -0.0867  0.0407
 6640SOL    HW131553   1.113   0.625  17.376 -1.3786 -1.8156 -1.2172
 6640SOL    HW231554   1.223   0.512  17.337  2.1842  1.8148  0.4477
 6641SOL     OW31555   2.695   3.200   8.087 -0.1875  0.2358 -0.3430
 6641SOL    HW131556   2.613   3.195   8.038 -1.5437 -0.2407  2.0052
 6641SOL    HW231557   2.676   3.166   8.174  1.3229  0.4036  0.0506
 6642SOL     OW31558   1.627   1.299   4.438 -0.7792  0.2541 -0.2134
 6642SOL    HW131559   1.705   1.282   4.491 -0.5010  3.3076  0.3362
 6642SOL    HW231560   1.641   1.393   4.429 -2.0552  0.4065 -0.6493
 6643SOL     OW31561   1.279   4.438   4.781 -0.1117  0.0808 -0.6054
 6643SOL    HW131562   1.229   4.363   4.750 -0.4255 -0.8301  2.0692
 6643SOL    HW231563   1.261   4.493   4.705 -0.2440  0.8758 -0.0027
 6644SOL     OW31564   1.868   1.044   1.485  0.2721 -0.3569 -0.1298
 6644SOL    HW131565   1.911   0.979   1.541  0.1826 -0.9639 -0.7616
 6644SOL    HW231566   1.780   1.056   1.520  0.2805  1.0232 -0.5865
 6645SOL     OW31567   2.234   2.553   1.122  0.0135 -0.0954 -0.2430
 6645SOL    HW131568   2.285   2.627   1.088  0.4494 -0.5695 -0.6138
 6645SOL    HW231569   2.147   2.592   1.123  0.0028 -0.0698 -2.1930
 6646SOL     OW31570   3.972   2.224  12.069 -0.2231 -0.2103  0.4073
 6646SOL    HW131571   4.066   2.228  12.056 -0.4627 -1.4328 -1.7639
 6646SOL    HW231572   3.953   2.178  11.987  2.1154  0.3348 -0.4290
 6647SOL     OW31573   2.721   2.516  17.162 -0.2671 -0.1548 -0.2847
 6647SOL    HW131574   2.784   2.548  17.227 -0.7269  2.2461 -1.0371
 6647SOL    HW231575   2.740   2.559  17.079  0.4447  0.3196  0.1200
 6648SOL     OW31576   0.033   3.591   8.837 -0.5566  0.2946 -0.2928
 6648SOL    HW131577   4.721   3.514   8.811  1.6384 -0.9247 -0.9628
 6648SOL    HW231578   0.091   3.607   8.763  0.7931 -2.4801  0.1705
 6649SOL     OW31579   0.488   0.977   7.829  0.6330  0.5872 -0.3898
 6649SOL    HW131580   0.403   0.966   7.786  0.4255 -0.7936  0.4010
 6649SOL    HW231581   0.523   0.889   7.840  0.4780  0.5567 -0.1277
 6650SOL     OW31582   2.250   2.504   6.831  0.2099 -0.1425  0.2530
 6650SOL    HW131583   2.315   2.487   6.762 -0.9482 -4.0878  0.1193
 6650SOL    HW231584   2.201   2.422   6.838 -1.2588  0.8314  1.3830
 6651SOL     OW31585   3.294   4.093   9.896 -0.4062  0.5991  0.0068
 6651SOL    HW131586   3.240   4.161   9.936 -0.8923 -0.7667  1.6399
 6651SOL    HW231587   3.233   4.020   9.887 -0.6958  0.5904  2.0284
 6652SOL     OW31588   3.476   0.278  17.632  0.3085 -0.0149 -0.5853
 6652SOL    HW131589   3.419   0.341  17.676  2.0886  0.4305  1.0869
 6652SOL    HW231590   3.449   0.197  17.674  0.6151  0.3273  0.2686
 6653SOL     OW31591   1.754   3.274   4.408  0.1369 -0.0134  0.0197
 6653SOL    HW131592   1.701   3.197   4.433 -0.2152  1.1637  2.9772
 6653SOL    HW231593   1.819   3.264   4.478 -0.7164  0.3730  0.8747
 6654SOL     OW31594   3.130   3.078  13.594 -0.6666  0.4348  0.6775
 6654SOL    HW131595   3.164   3.138  13.528 -0.2827 -0.9415 -0.3742
 6654SOL    HW231596   3.181   3.002  13.568 -2.0080 -0.6307  1.1069
 6655SOL     OW31597   1.432   1.599  12.401  0.0820 -0.6355 -0.4529
 6655SOL    HW131598   1.359   1.615  12.342 -1.0580  0.3668  1.2595
 6655SOL    HW231599   1.502   1.586  12.337  1.0681 -1.1040  0.6997
 6656SOL     OW31600   2.717   2.727  13.728 -0.7069  0.4596 -0.0611
 6656SOL    HW131601   2.783   2.789  13.698  0.2245  0.0016  1.0443
 6656SOL    HW231602   2.704   2.764  13.816 -0.5942 -0.1999  0.2268
 6657SOL     OW31603   4.451   1.030   5.145 -0.7035 -0.1454 -0.2982
 6657SOL    HW131604   4.387   1.085   5.189 -0.0568 -1.5380  2.4053
 6657SOL    HW231605   4.432   1.050   5.053  0.8435 -1.3705 -0.9054
 6658SOL     OW31606   2.266   1.161   9.001 -0.0926 -0.3190 -0.2425
 6658SOL    HW131607   2.303   1.167   8.913  1.9132 -1.7297  0.4923
 6658SOL    HW231608   2.329   1.204   9.059 -0.7052  1.1927 -0.6830
 6659SOL     OW31609   2.270   4.723   2.315  0.0296 -0.0503 -0.0761
 6659SOL    HW131610   2.211   4.704   2.388 -1.7461 -1.6969 -1.8943
 6659SOL    HW231611   2.342   0.025   2.361  0.1778  1.3028 -1.5316
 6660SOL     OW31612   2.219   0.372   1.661 -0.6347 -0.0437 -0.4020
 6660SOL    HW131613   2.255   0.436   1.600  1.2976  0.6069  1.4404
 6660SOL    HW231614   2.132   0.347   1.630 -1.0206  0.6534  0.1533
 6661SOL     OW31615   3.976   0.668  12.630  0.0737  0.3416 -0.0728
 6661SOL    HW131616   4.029   0.590  12.615 -2.4775 -1.2848 -0.7602
 6661SOL    HW231617   3.916   0.657  12.556  0.8203 -0.4489 -0.5630
 6662SOL     OW31618   1.423   2.168   3.366  0.0440 -0.0468  0.3026
 6662SOL    HW131619   1.406   2.090   3.313  1.1317 -0.8247  1.0923
 6662SOL    HW231620   1.507   2.185   3.323  0.3986  0.5768  1.2406
 6663SOL     OW31621   3.656   1.606   9.441 -0.2582  0.3570  0.0102
 6663SOL    HW131622   3.744   1.599   9.402 -1.0817  3.1572 -2.4064
 6663SOL    HW231623   3.682   1.567   9.524  1.6016 -0.6233 -1.0232
 6664SOL     OW31624   1.187   1.397   1.675  0.6261 -0.2737 -0.2343
 6664SOL    HW131625   1.125   1.324   1.671  0.1320  0.0753  1.0797
 6664SOL    HW231626   1.264   1.356   1.635 -0.8049 -1.3210 -1.8961
 6665SOL     OW31627   0.753   1.274   8.966 -0.6741  0.0728  0.4751
 6665SOL    HW131628   0.840   1.261   9.006 -1.6288  1.8389  3.0951
 6665SOL    HW231629   0.721   1.184   8.975  0.1740 -0.3608 -0.8665
 6666SOL     OW31630   0.992   3.355  10.147 -0.1044  0.3395 -0.3336
 6666SOL    HW131631   0.987   3.289  10.077 -0.8882  0.1572 -0.1062
 6666SOL    HW231632   0.974   3.297  10.220 -0.4014  0.3084 -0.4328
 6667SOL     OW31633   0.707   2.701  11.577 -0.2207  0.5204 -0.0706
 6667SOL    HW131634   0.755   2.774  11.616 -2.2933  1.1215  1.3525
 6667SOL    HW231635   0.726   2.626  11.633 -1.7906 -0.0154 -0.2502
 6668SOL     OW31636   0.842   3.540   8.269  0.4720 -0.4677 -0.1028
 6668SOL    HW131637   0.871   3.477   8.336 -1.7482 -1.2368  0.1449
 6668SOL    HW231638   0.924   3.539   8.221  1.3089  1.6206  1.2939
 6669SOL     OW31639   0.868   3.753   2.054 -0.1765 -0.4722  0.5644
 6669SOL    HW131640   0.902   3.723   2.138  2.0782 -2.2641 -1.0094
 6669SOL    HW231641   0.919   3.687   2.009  1.0453  1.1993 -0.4622
 6670SOL     OW31642   2.596   4.067  11.140  0.1887  0.2530  0.1791
 6670SOL    HW131643   2.519   4.117  11.168 -1.1864 -2.5525  1.4192
 6670SOL    HW231644   2.556   3.980  11.146 -1.3374  0.8711 -0.9619
 6671SOL     OW31645   2.490   1.725   3.391  0.4482 -0.5497 -0.2057
 6671SOL    HW131646   2.438   1.721   3.311  0.9946 -2.6280 -0.4372
 6671SOL    HW231647   2.471   1.812   3.428  1.1915 -0.5655  0.2102
 6672SOL     OW31648   2.328   1.418   0.165  0.2109  0.0418  0.2662
 6672SOL    HW131649   2.408   1.365   0.169 -0.8777 -1.4105  2.3430
 6672SOL    HW231650   2.346   1.490   0.224 -0.0295 -0.5573  1.0731
 6673SOL     OW31651   2.304   3.922   5.130  0.2922  0.0494  0.1109
 6673SOL    HW131652   2.298   3.960   5.043 -0.9674 -1.8731 -0.6389
 6673SOL    HW231653   2.284   3.994   5.189 -1.8552  0.0551 -0.6454
 6674SOL     OW31654   3.016   0.049   1.229 -0.1924 -0.1523  0.3337
 6674SOL    HW131655   3.001   0.080   1.318  2.3402  0.9173  0.3967
 6674SOL    HW231656   3.017   0.130   1.178  1.3953 -0.4087 -0.0532
 6675SOL     OW31657   1.970   0.396  17.149 -0.6435 -0.4282 -0.3418
 6675SOL    HW131658   1.896   0.384  17.209  0.5367 -0.0433  1.1976
 6675SOL    HW231659   1.965   0.318  17.094  0.8783  0.1664 -1.3113
 6676SOL     OW31660   4.151   3.084  13.503 -0.3754 -0.1132 -0.2930
 6676SOL    HW131661   4.229   3.120  13.459 -1.5541 -0.9006 -3.0528
 6676SOL    HW231662   4.080   3.146  13.491  0.1472  0.4043 -0.7344
 6677SOL     OW31663   2.150   3.658   2.989  0.2242  0.0777 -0.0849
 6677SOL    HW131664   2.198   3.739   3.007  0.0700 -0.2313  1.7261
 6677SOL    HW231665   2.183   3.596   3.055  1.3598  0.0137 -0.7023
 6678SOL     OW31666   0.640   1.990   7.497  0.2130 -0.2327 -0.2680
 6678SOL    HW131667   0.703   2.061   7.511 -2.2927  1.8779  0.1909
 6678SOL    HW231668   0.677   1.921   7.552 -0.0611  2.3678  3.2605
 6679SOL     OW31669   4.627   3.377   8.750  0.4162 -0.0316 -0.2043
 6679SOL    HW131670   4.549   3.360   8.697 -0.9969  1.1470  1.4999
 6679SOL    HW231671   4.621   3.327   8.831 -0.9000  0.3022 -0.0937
 6680SOL     OW31672   0.158   3.081   1.705  0.6982 -0.0519 -0.5459
 6680SOL    HW131673   0.063   3.091   1.703  0.6452  0.2451  2.4169
 6680SOL    HW231674   0.171   3.026   1.628 -0.0246  0.7759 -1.2620
 6681SOL     OW31675   2.387   0.192   1.775  0.1562  0.5503  0.1706
 6681SOL    HW131676   2.355   0.263   1.720  0.5045  1.5016  1.2073
 6681SOL    HW231677   2.324   0.121   1.760  0.9389  0.3507 -2.2328
 6682SOL     OW31678   1.656   4.142   9.518  0.2561  0.0004  0.0037
 6682SOL    HW131679   1.749   4.139   9.495  0.0504  0.6411 -0.9177
 6682SOL    HW231680   1.664   4.127   9.612 -2.3647  1.6928  0.4959
 6683SOL     OW31681   1.818   2.462  11.995 -0.2489 -0.0588 -0.1465
 6683SOL    HW131682   1.838   2.530  12.060  0.5430 -0.4573  0.0263
 6683SOL    HW231683   1.898   2.411  12.005  0.0217  0.2515 -0.7696
 6684SOL     OW31684   3.180   3.065  12.666 -0.0787  0.1898 -0.2273
 6684SOL    HW131685   3.130   3.115  12.601 -0.3385  1.5253  1.0080
 6684SOL    HW231686   3.170   3.110  12.749  0.5710 -2.0260  1.0596
 6685SOL     OW31687   1.473   1.634  16.776 -0.2334  0.3058  0.3770
 6685SOL    HW131688   1.477   1.678  16.861 -1.7861 -1.1009  1.1887
 6685SOL    HW231689   1.400   1.676  16.731 -1.3912 -1.8756  0.1819
 6686SOL     OW31690   4.088   3.065   4.534  0.3398 -0.4106  0.5608
 6686SOL    HW131691   4.168   3.074   4.586  1.0165  0.8480 -0.6777
 6686SOL    HW231692   4.074   2.971   4.531 -0.4377 -0.2607 -0.5941
 6687SOL     OW31693   1.259   4.364   1.962  0.0600 -0.0634 -0.5579
 6687SOL    HW131694   1.338   4.365   2.016  1.2606  2.2943 -2.3430
 6687SOL    HW231695   1.201   4.300   2.003  0.2512  0.0507 -0.1165
 6688SOL     OW31696   1.906   1.005  15.922  0.0204 -0.2218 -0.3263
 6688SOL    HW131697   1.945   1.058  15.853  0.0444 -0.0286 -0.1638
 6688SOL    HW231698   1.984   1.001  15.976 -1.0592  0.5949  1.2986
 6689SOL     OW31699   3.968   1.246   0.600  0.5270 -0.3429 -0.2012
 6689SOL    HW131700   3.956   1.174   0.537 -3.0946  0.6042 -0.5960
 6689SOL    HW231701   4.040   1.285   0.551  0.4947  0.3889  0.3457
 6690SOL     OW31702   3.840   3.194   5.052  0.4701 -0.1182 -0.3805
 6690SOL    HW131703   3.796   3.114   5.022  1.4477 -1.2832  1.2399
 6690SOL    HW231704   3.784   3.264   5.018 -0.3953 -0.4937  0.2480
 6691SOL     OW31705   3.846   0.215  13.081 -0.2008 -0.0541 -0.1238
 6691SOL    HW131706   3.762   0.207  13.127 -0.1034 -1.0124 -0.1217
 6691SOL    HW231707   3.833   0.142  13.020  0.0988 -0.9627  0.8911
 6692SOL     OW31708   0.009   0.350  10.522  0.3967  0.1741  0.0825
 6692SOL    HW131709   4.721   0.399  10.445  1.5948  0.1730 -0.3425
 6692SOL    HW231710   0.034   0.420  10.583  0.2534 -0.4359  0.8451
 6693SOL     OW31711   4.520   0.437   9.703  0.4760 -0.1581 -0.0097
 6693SOL    HW131712   4.580   0.397   9.640  0.5565  2.4071 -1.5690
 6693SOL    HW231713   4.447   0.424   9.643  0.2138  1.1527  0.0120
 6694SOL     OW31714   2.903   0.941   5.958 -0.0994 -0.2593  0.0622
 6694SOL    HW131715   2.884   1.029   5.924 -2.6914  0.8430  4.4471
 6694SOL    HW231716   2.916   0.956   6.051  1.4967  0.3895 -0.2702
 6695SOL     OW31717   3.692   1.206   5.818 -0.6723 -0.0825 -0.2722
 6695SOL    HW131718   3.665   1.116   5.802  1.7643 -0.8772  0.1665
 6695SOL    HW231719   3.774   1.187   5.863 -1.5402 -2.3335  0.3488
 6696SOL     OW31720   0.054   1.477  11.977  0.3070  0.4567 -0.2371
 6696SOL    HW131721   4.729   1.448  12.042  1.3861 -0.7797  0.2816
 6696SOL    HW231722   0.090   1.395  11.943 -0.6832 -0.4890  1.0048
 6697SOL     OW31723   0.189   3.973   8.422 -0.0824 -0.2483 -0.1490
 6697SOL    HW131724   0.254   3.932   8.365 -0.5453 -0.7832 -0.2905
 6697SOL    HW231725   0.167   4.054   8.375 -1.4281 -1.2632 -1.2429
 6698SOL     OW31726   0.419   4.636   3.853 -0.5781  0.0429 -0.1851
 6698SOL    HW131727   0.356   4.665   3.919  1.6911 -0.8515  2.3680
 6698SOL    HW231728   0.396   4.703   3.788 -0.5006 -0.1921 -0.4573
 6699SOL     OW31729   3.665   4.434   9.709  0.3370 -0.0455  0.4978
 6699SOL    HW131730   3.662   4.413   9.615  1.7595  1.2906  0.1675
 6699SOL    HW231731   3.748   4.397   9.737  0.5756  0.6709  0.7277
 6700SOL     OW31732   2.165   3.552   7.371  0.3832 -0.0019 -0.0537
 6700SOL    HW131733   2.194   3.469   7.334  0.3271 -0.2001  0.3525
 6700SOL    HW231734   2.095   3.518   7.426  1.3839 -0.0287  1.1912
 6701SOL     OW31735   0.573   3.291  11.216  0.4698  0.0900  0.1281
 6701SOL    HW131736   0.638   3.229  11.181  0.0497 -0.8418  1.0088
 6701SOL    HW231737   0.515   3.285  11.140 -0.0184 -1.0665  0.5958
 6702SOL     OW31738   2.122   1.061   3.006 -0.0449 -0.1116 -0.2136
 6702SOL    HW131739   2.185   0.991   2.989 -1.0962 -1.0724 -0.0921
 6702SOL    HW231740   2.122   1.060   3.102 -1.1566  1.4940 -0.1983
 6703SOL     OW31741   2.465   4.133   2.779  0.6326 -0.3001 -0.5241
 6703SOL    HW131742   2.465   4.062   2.843 -2.3894  0.1372 -0.0385
 6703SOL    HW231743   2.370   4.142   2.787  0.9894  2.1340  1.1369
 6704SOL     OW31744   1.096   2.952   3.615  0.3553 -0.3386  0.6335
 6704SOL    HW131745   1.029   2.917   3.674 -0.8921 -0.5173 -0.9032
 6704SOL    HW231746   1.102   2.884   3.548  0.9375  0.0870  0.2531
 6705SOL     OW31747   4.072   2.108   6.445  0.3975 -0.0448 -0.1440
 6705SOL    HW131748   4.101   2.117   6.536  1.8072  3.5578 -0.9398
 6705SOL    HW231749   4.098   2.196   6.417  0.2826  0.0637  0.0848
 6706SOL     OW31750   1.484   3.476   2.680 -0.0814 -0.3615 -0.4004
 6706SOL    HW131751   1.493   3.392   2.726 -0.4670  1.0015  2.1626
 6706SOL    HW231752   1.448   3.442   2.598  0.0013  1.8914 -1.3662
 6707SOL     OW31753   3.181   1.191   6.175  0.2914  0.7410 -0.1853
 6707SOL    HW131754   3.202   1.216   6.085 -0.8378 -2.7227 -1.4066
 6707SOL    HW231755   3.145   1.103   6.166  1.2358  0.3798 -0.3502
 6708SOL     OW31756   3.187   4.466   0.000 -0.1550 -0.2056 -0.1476
 6708SOL    HW131757   3.125   4.459  17.683 -0.2639 -3.5780  0.2962
 6708SOL    HW231758   3.172   4.385   0.048  2.7692 -1.8958 -2.0971
 6709SOL     OW31759   1.121   0.952   5.371 -0.0784 -0.4508 -0.2986
 6709SOL    HW131760   1.051   0.921   5.429 -1.3808  0.2323 -1.4928
 6709SOL    HW231761   1.127   0.880   5.309 -2.0744 -1.0668  0.2165
 6710SOL     OW31762   1.295   2.861   8.831 -0.2101  0.4275 -0.0136
 6710SOL    HW131763   1.366   2.814   8.786 -0.7195  1.2768 -1.7016
 6710SOL    HW231764   1.306   2.815   8.915  0.2259 -1.1014 -0.9004
 6711SOL     OW31765   0.264   3.450  11.818  0.5259 -0.3324 -0.2508
 6711SOL    HW131766   0.204   3.377  11.806 -0.2447 -0.0622  1.9542
 6711SOL    HW231767   0.207   3.528  11.822  2.3806  1.0988 -2.2145
 6712SOL     OW31768   0.654   0.818   4.228 -0.3500 -0.7803 -0.3068
 6712SOL    HW131769   0.663   0.912   4.209 -0.9338 -0.6870 -0.1187
 6712SOL    HW231770   0.561   0.799   4.215 -0.0434 -2.4482 -0.0196
 6713SOL     OW31771   1.194   0.745   5.194  0.1187 -0.1222  0.1921
 6713SOL    HW131772   1.111   0.697   5.201 -0.8339  1.2284 -1.7093
 6713SOL    HW231773   1.246   0.686   5.247  1.3421  0.7509 -0.0410
 6714SOL     OW31774   1.808   0.871   8.353 -0.2079  0.2458 -0.5823
 6714SOL    HW131775   1.850   0.815   8.288  0.2634 -0.7476  0.5729
 6714SOL    HW231776   1.858   0.952   8.359 -0.8291  0.5887  0.0197
 6715SOL     OW31777   2.801   1.478   8.729 -0.1921 -0.4054 -0.6647
 6715SOL    HW131778   2.897   1.477   8.726 -0.2211  0.2026 -1.7320
 6715SOL    HW231779   2.786   1.516   8.816  1.2629 -1.1221 -0.0888
 6716SOL     OW31780   3.423   4.460   8.347  0.2719 -0.1831  0.3734
 6716SOL    HW131781   3.495   4.522   8.332 -0.2347 -0.1165 -1.7910
 6716SOL    HW231782   3.374   4.487   8.269 -1.7464 -2.0830  0.9852
 6717SOL     OW31783   2.012   3.156   5.941 -0.0182  0.2902  0.4284
 6717SOL    HW131784   2.049   3.228   5.890 -3.8454 -0.2290 -3.0955
 6717SOL    HW231785   1.947   3.202   5.994 -0.2567  1.9130 -1.2659
 6718SOL     OW31786   1.982   0.751   4.743 -0.7801 -0.4397 -0.2564
 6718SOL    HW131787   1.988   0.659   4.716  0.9087 -1.5828  3.9744
 6718SOL    HW231788   1.947   0.790   4.663  1.3566  0.8962 -0.5296
 6719SOL     OW31789   2.880   3.551   5.448  0.7448 -0.4644  0.4703
 6719SOL    HW131790   2.959   3.518   5.404  1.3088 -1.1352  2.0112
 6719SOL    HW231791   2.870   3.642   5.420  0.5797 -0.5979  0.0915
 6720SOL     OW31792   3.752   2.002   0.517  0.1211  0.5690  0.0926
 6720SOL    HW131793   3.670   1.972   0.558 -1.0853  3.5193 -0.1214
 6720SOL    HW231794   3.810   1.942   0.564 -0.2209  0.2964  0.1687
 6721SOL     OW31795   0.425   3.614   5.639 -0.3944  0.3085  0.2236
 6721SOL    HW131796   0.493   3.612   5.572 -1.3007  0.6609 -0.7025
 6721SOL    HW231797   0.468   3.681   5.693  1.3268 -1.3680  0.9267
 6722SOL     OW31798   3.937   4.081   1.858 -0.4233  0.3846 -0.3844
 6722SOL    HW131799   3.920   4.079   1.953  2.7457 -2.1201  0.1148
 6722SOL    HW231800   3.877   4.012   1.831 -1.0097  0.1696  1.4336
 6723SOL     OW31801   3.373   3.995   8.558 -0.5510  0.3519  0.9359
 6723SOL    HW131802   3.335   4.055   8.493 -1.9234 -0.1374  1.2868
 6723SOL    HW231803   3.361   4.039   8.642 -0.3864  0.3632  0.9523
 6724SOL     OW31804   2.706   0.917   2.009  0.6951  0.5075  0.0000
 6724SOL    HW131805   2.655   0.880   1.937  0.1113 -1.7972  1.5889
 6724SOL    HW231806   2.764   0.843   2.026  1.4159  1.0367 -0.1441
 6725SOL     OW31807   0.196   4.081   5.038 -0.2518  0.3357  0.9117
 6725SOL    HW131808   0.250   4.160   5.049 -0.8935  0.3908  3.7071
 6725SOL    HW231809   0.224   4.032   5.115  2.9575 -0.3022 -0.6386
 6726SOL     OW31810   3.497   2.176  15.056 -0.3973  0.1170  0.4938
 6726SOL    HW131811   3.501   2.207  14.966  1.2516  0.2843  0.6233
 6726SOL    HW231812   3.421   2.120  15.045 -1.8421  1.7524  2.1408
 6727SOL     OW31813   2.170   1.530  10.819  0.1686 -0.6274  0.0173
 6727SOL    HW131814   2.166   1.441  10.855  3.1290 -0.0434  1.8120
 6727SOL    HW231815   2.226   1.507  10.745  1.1578  0.3474  0.4715
 6728SOL     OW31816   1.251   4.002   1.403 -0.4728  0.1536  0.6424
 6728SOL    HW131817   1.180   3.941   1.424 -1.3476  0.9029 -0.1497
 6728SOL    HW231818   1.246   4.060   1.478  2.5568  1.2956 -0.0532
 6729SOL     OW31819   2.614   2.251   9.239  0.2201 -0.0028  0.6215
 6729SOL    HW131820   2.540   2.265   9.180  1.5687 -0.9420 -1.3137
 6729SOL    HW231821   2.683   2.229   9.176 -1.2857  0.7126 -1.2686
 6730SOL     OW31822   2.713   4.060   1.847  0.3693 -0.5160 -0.0854
 6730SOL    HW131823   2.714   3.990   1.783 -0.8030  1.2026 -1.9819
 6730SOL    HW231824   2.668   4.019   1.921 -2.7744  0.8200 -1.2416
 6731SOL     OW31825   1.418   3.278   6.668 -0.5211 -0.5197  0.3244
 6731SOL    HW131826   1.347   3.317   6.719  0.5943  2.1066 -0.1567
 6731SOL    HW231827   1.475   3.354   6.683  0.0616 -1.3449  2.2952
 6732SOL     OW31828   1.700   2.598   3.038  0.3748 -0.0229 -0.0426
 6732SOL    HW131829   1.707   2.558   2.951  0.1900 -3.3793  1.5279
 6732SOL    HW231830   1.618   2.644   3.022 -0.1245 -0.4154  1.4727
 6733SOL     OW31831   1.797   2.112   8.657  0.2220  0.6650 -0.1670
 6733SOL    HW131832   1.750   2.126   8.575  1.0280 -0.9152 -0.8977
 6733SOL    HW231833   1.811   2.019   8.642  1.0108  1.1890 -2.7059
 6734SOL     OW31834   4.403   2.783   6.347  0.3227 -0.0267  0.0802
 6734SOL    HW131835   4.450   2.814   6.270  0.7863  1.1951  0.8446
 6734SOL    HW231836   4.353   2.707   6.317 -0.1775  0.8823 -1.3912
 6735SOL     OW31837   3.607   3.860  15.916  0.6161  0.2754 -0.5109
 6735SOL    HW131838   3.555   3.855  15.836 -0.9888 -0.0760  0.5443
 6735SOL    HW231839   3.572   3.940  15.958  0.7115  0.3149 -0.5063
 6736SOL     OW31840   4.466   1.750   7.205 -0.0396 -0.3378  0.0061
 6736SOL    HW131841   4.456   1.845   7.209  0.1404 -0.3111 -0.1684
 6736SOL    HW231842   4.501   1.738   7.293  1.2408  2.4415 -0.1561
 6737SOL     OW31843   4.503   3.317   9.511  0.4773 -0.0637  0.9642
 6737SOL    HW131844   4.532   3.394   9.561 -0.9190  1.3681 -0.4330
 6737SOL    HW231845   4.480   3.245   9.569  0.5587  0.8045  2.0856
 6738SOL     OW31846   1.383   0.583   0.128 -0.0220 -0.0117 -0.5050
 6738SOL    HW131847   1.363   0.565   0.036  1.7695  1.4117 -1.1717
 6738SOL    HW231848   1.389   0.500   0.176  1.6165 -1.5724 -3.4029
 6739SOL     OW31849   3.098   2.508   4.230 -0.2187  0.1263 -0.2127
 6739SOL    HW131850   3.015   2.466   4.206 -0.1330  1.7564 -3.4668
 6739SOL    HW231851   3.138   2.440   4.284 -0.9247  0.7405  1.0934
 6740SOL     OW31852   3.578   4.494   5.437  0.2234  0.0279 -0.0130
 6740SOL    HW131853   3.596   4.407   5.402 -0.2878  0.5388 -1.5620
 6740SOL    HW231854   3.593   4.553   5.363 -2.1455 -1.4136 -1.6186
 6741SOL     OW31855   3.982   3.462   1.795 -0.0224  0.7165 -0.0710
 6741SOL    HW131856   4.045   3.424   1.734  0.0286  2.8422 -1.3125
 6741SOL    HW231857   3.932   3.519   1.736 -0.7360 -0.3287 -0.4744
 6742SOL     OW31858   3.887   1.069  10.166 -0.1169 -0.4254  0.4600
 6742SOL    HW131859   3.880   1.031  10.253  0.9353  0.0088  0.7287
 6742SOL    HW231860   3.959   1.016  10.132  3.2734  3.0987  2.2504
 6743SOL     OW31861   4.554   4.289   6.645  0.1370  0.4249  0.0481
 6743SOL    HW131862   4.564   4.378   6.612  1.8081  0.5702  0.9280
 6743SOL    HW231863   4.504   4.252   6.572 -0.3263  0.5293  0.3089
 6744SOL     OW31864   2.283   3.618   7.721 -0.0192  0.7009 -0.0453
 6744SOL    HW131865   2.293   3.556   7.793  1.8149  0.4358 -0.5476
 6744SOL    HW231866   2.211   3.575   7.674  1.2749 -1.0322 -0.4622
 6745SOL     OW31867   2.755   1.029  12.353  0.3430  0.1139  0.1031
 6745SOL    HW131868   2.733   1.035  12.260 -0.9948  1.5452  0.4917
 6745SOL    HW231869   2.848   1.007  12.357  0.9244  2.9430  2.6886
 6746SOL     OW31870   2.898   3.571   3.527 -0.3413  0.0295  0.2664
 6746SOL    HW131871   2.848   3.626   3.588  1.3718  4.5964 -2.4764
 6746SOL    HW231872   2.914   3.499   3.588  0.4282 -1.0288 -1.1777
 6747SOL     OW31873   1.369   0.639  12.029  0.3082 -0.3724 -0.1956
 6747SOL    HW131874   1.415   0.558  12.049 -0.2426 -0.6773 -0.1737
 6747SOL    HW231875   1.278   0.610  12.034 -0.0684  0.6768 -1.0014
 6748SOL     OW31876   2.125   0.901  17.590  0.5375 -0.0132 -0.5066
 6748SOL    HW131877   2.169   0.881  17.673 -2.4565 -1.1530  0.8031
 6748SOL    HW231878   2.052   0.953  17.626 -1.0179 -1.0675 -2.1341
 6749SOL     OW31879   2.642   0.551   3.613 -0.2481 -0.7359 -0.1695
 6749SOL    HW131880   2.656   0.646   3.613 -0.0002 -0.7708 -1.3804
 6749SOL    HW231881   2.644   0.534   3.519 -1.3430  1.0905 -0.5276
 6750SOL     OW31882   0.891   3.703   8.714 -0.1611 -0.1760 -0.7162
 6750SOL    HW131883   0.884   3.757   8.792 -0.0887 -0.4201 -0.5384
 6750SOL    HW231884   0.802   3.703   8.680 -1.1693  4.4126  1.9250
 6751SOL     OW31885   0.468   2.011   4.811  0.0961 -0.4673  0.1333
 6751SOL    HW131886   0.470   1.916   4.818  0.3397 -0.5657 -1.2958
 6751SOL    HW231887   0.381   2.029   4.774 -0.7642 -2.8147  1.0156
 6752SOL     OW31888   1.472   0.772   2.802  0.2013  0.5717 -0.4484
 6752SOL    HW131889   1.410   0.772   2.874 -0.3321 -0.6170 -0.9098
 6752SOL    HW231890   1.453   0.685   2.768  2.0420  0.6933 -1.8128
 6753SOL     OW31891   4.523   3.271  15.973 -0.3109 -0.3501  0.7974
 6753SOL    HW131892   4.554   3.342  16.030 -0.6805 -2.1988  3.2686
 6753SOL    HW231893   4.431   3.288  15.988 -0.5554 -1.7954  0.9385
 6754SOL     OW31894   3.806   3.183  11.849  0.1424  0.1768 -0.4171
 6754SOL    HW131895   3.720   3.150  11.826  0.1260 -0.3964  0.4511
 6754SOL    HW231896   3.798   3.276  11.827  0.2348  0.6275  1.4581
 6755SOL     OW31897   1.426   0.239   2.620  0.5783 -0.1505  0.3378
 6755SOL    HW131898   1.491   0.229   2.690 -0.8055 -1.2071  1.4637
 6755SOL    HW231899   1.387   0.152   2.611  0.2722 -0.1276  1.4075
 6756SOL     OW31900   4.572   0.650   9.225  0.0795  0.1774  0.0374
 6756SOL    HW131901   4.481   0.677   9.212 -0.4419 -0.3029  2.5368
 6756SOL    HW231902   4.585   0.570   9.175  0.1678  2.3975 -3.4751
 6757SOL     OW31903   3.569   1.685   5.373 -0.1402 -0.1111 -0.1308
 6757SOL    HW131904   3.630   1.744   5.417 -1.2496  1.5903 -0.8689
 6757SOL    HW231905   3.535   1.740   5.302 -1.1223 -1.7138 -0.8837
 6758SOL     OW31906   2.507   1.719  15.781  0.1360  0.2647 -0.0838
 6758SOL    HW131907   2.451   1.758  15.714  1.5261  2.2769 -0.0521
 6758SOL    HW231908   2.445   1.667  15.832  0.9092  1.1645  1.7426
 6759SOL     OW31909   2.681   2.804   8.698 -0.0510  0.0048 -0.2932
 6759SOL    HW131910   2.668   2.770   8.786  0.7826  0.5455  0.0435
 6759SOL    HW231911   2.760   2.755   8.674  0.7892  1.7307 -1.0150
 6760SOL     OW31912   2.745   2.517   2.676 -0.2881  0.2723  0.4573
 6760SOL    HW131913   2.781   2.429   2.685 -1.4604 -0.5098 -2.5052
 6760SOL    HW231914   2.813   2.556   2.621 -0.8884 -1.3573 -1.4639
 6761SOL     OW31915   0.303   3.273   2.305 -0.2251  0.0387 -0.0527
 6761SOL    HW131916   0.366   3.343   2.290 -1.1524  1.4040  2.5186
 6761SOL    HW231917   0.328   3.244   2.393  0.6282  2.2636  0.4338
 6762SOL     OW31918   1.719   1.014  11.575  0.3525  0.4417 -0.1171
 6762SOL    HW131919   1.702   0.994  11.483  1.8119  1.5671 -0.6166
 6762SOL    HW231920   1.725   0.925  11.612 -0.8145  0.4910  0.2121
 6763SOL     OW31921   4.613   1.148   6.391 -0.6488  0.2452  0.3613
 6763SOL    HW131922   4.628   1.125   6.299 -0.2138  2.2155 -0.0657
 6763SOL    HW231923   4.702   1.129   6.421 -0.1979  1.3122 -0.2949
 6764SOL     OW31924   1.626   3.668   7.671  0.4790  0.1616 -0.0009
 6764SOL    HW131925   1.606   3.749   7.718 -0.2755  0.3152 -0.5687
 6764SOL    HW231926   1.567   3.686   7.597 -1.5509 -1.8402  1.1108
 6765SOL     OW31927   0.094   4.098  17.252 -0.2443  0.6290 -0.6871
 6765SOL    HW131928   0.074   4.159  17.324  1.2411  0.8733 -0.4728
 6765SOL    HW231929   0.083   4.152  17.174  1.0853 -0.5911 -1.7148
 6766SOL     OW31930   3.188   1.439   5.911 -0.2099  0.3199 -0.5839
 6766SOL    HW131931   3.220   1.349   5.906  0.0063  0.3233  0.8710
 6766SOL    HW231932   3.202   1.460   6.003  1.7989 -2.6205 -0.2449
 6767SOL     OW31933   1.690   2.674  15.872  0.0323  0.0772  0.5431
 6767SOL    HW131934   1.713   2.750  15.925  0.2810  0.0535  0.4679
 6767SOL    HW231935   1.772   2.653  15.827 -0.3459 -0.1932 -0.0293
 6768SOL     OW31936   3.739   4.640   5.191  0.3139 -0.2337 -0.0335
 6768SOL    HW131937   3.680   4.710   5.216  1.8256  1.2425 -0.6450
 6768SOL    HW231938   3.803   4.677   5.131  1.2817  1.7434  2.2532
 6769SOL     OW31939   1.651   2.297   4.641 -0.3353 -0.5166 -0.2015
 6769SOL    HW131940   1.675   2.335   4.556 -0.1654 -0.9993 -0.3696
 6769SOL    HW231941   1.561   2.328   4.638 -0.4196 -0.7511 -0.0338
 6770SOL     OW31942   1.041   3.613   6.307  0.1150  0.1251  0.4126
 6770SOL    HW131943   1.100   3.555   6.355  0.1205  1.5189  2.0694
 6770SOL    HW231944   0.956   3.574   6.330  0.8158 -0.9219  1.2608
 6771SOL     OW31945   0.774   2.968   4.965 -0.2703 -0.2851 -0.6893
 6771SOL    HW131946   0.786   3.044   4.907  0.8487 -0.1014 -0.2186
 6771SOL    HW231947   0.830   2.910   4.913  0.0286 -2.4508  2.0885
 6772SOL     OW31948   3.670   1.784   8.662  0.5189 -0.1968 -0.1649
 6772SOL    HW131949   3.576   1.769   8.667  0.8344 -1.8375  0.8229
 6772SOL    HW231950   3.681   1.833   8.744  0.3364  0.5491 -0.5813
 6773SOL     OW31951   1.648   1.948  10.527  0.1019 -0.1188  0.4519
 6773SOL    HW131952   1.653   2.044  10.535 -4.8093  0.1788  0.0992
 6773SOL    HW231953   1.740   1.921  10.520  1.2038  3.4432  0.6767
 6774SOL     OW31954   3.755   0.255  11.356 -0.5699 -0.3091  0.1805
 6774SOL    HW131955   3.663   0.277  11.342 -0.8031 -0.5810  1.2770
 6774SOL    HW231956   3.792   0.343  11.350 -1.4506  0.0267 -0.2120
 6775SOL     OW31957   1.750   0.314   7.468  0.1395  0.2602 -0.3753
 6775SOL    HW131958   1.708   0.379   7.412 -0.6435  0.2024  0.1450
 6775SOL    HW231959   1.760   0.365   7.549 -1.2020  0.7255 -0.5017
 6776SOL     OW31960   3.907   2.341   8.891 -0.5347 -0.0107 -0.2893
 6776SOL    HW131961   3.977   2.318   8.951  1.5929  0.6982 -2.4980
 6776SOL    HW231962   3.883   2.428   8.925  0.6949  0.5988 -0.9883
 6777SOL     OW31963   3.685   2.896  12.803  0.3183  0.1095 -0.2904
 6777SOL    HW131964   3.735   2.951  12.863 -0.0111  0.7244 -0.5852
 6777SOL    HW231965   3.710   2.815  12.848 -0.6643 -0.8205 -1.4142
 6778SOL     OW31966   0.317   3.810   1.642 -0.0331  0.3030  0.1182
 6778SOL    HW131967   0.356   3.729   1.610  0.9633  1.1590 -0.8166
 6778SOL    HW231968   0.391   3.870   1.635  0.6639 -0.8855 -2.5054
 6779SOL     OW31969   1.686   0.741   5.294  0.0723  0.0973 -0.4557
 6779SOL    HW131970   1.596   0.715   5.312 -0.7262  4.3769  1.7200
 6779SOL    HW231971   1.701   0.829   5.328 -1.4686 -0.3205  1.3409
 6780SOL     OW31972   1.058   2.206   5.824  0.1603 -1.1915  0.5730
 6780SOL    HW131973   1.079   2.272   5.890 -1.3558 -1.6935  1.5530
 6780SOL    HW231974   1.147   2.172   5.815  0.3648 -0.5634  0.2491
 6781SOL     OW31975   2.571   2.659  16.212 -0.1196  0.7461 -0.7090
 6781SOL    HW131976   2.656   2.643  16.253  0.2787  1.7197 -1.1475
 6781SOL    HW231977   2.514   2.686  16.283 -0.0408 -2.6691  0.6748
 6782SOL     OW31978   2.720   4.066   6.243  0.0964 -0.5721 -0.7390
 6782SOL    HW131979   2.773   4.120   6.301  0.7440 -0.5084 -1.3897
 6782SOL    HW231980   2.767   3.984   6.249  0.0839 -0.5354 -0.0929
 6783SOL     OW31981   0.472   2.482   1.311 -0.1602 -0.5397  0.2355
 6783SOL    HW131982   0.514   2.488   1.397  1.2996 -0.4119 -0.4864
 6783SOL    HW231983   0.427   2.398   1.314 -0.7275 -0.2493 -0.1689
 6784SOL     OW31984   3.687   1.502   3.999  0.4081  0.5533  0.0862
 6784SOL    HW131985   3.713   1.424   3.948 -0.5343 -0.6569  1.4626
 6784SOL    HW231986   3.618   1.534   3.941  0.4070 -1.2098 -0.9022
 6785SOL     OW31987   2.924   0.271   7.253  0.2315  0.3086 -0.2457
 6785SOL    HW131988   2.977   0.278   7.174 -1.6549 -1.5854 -1.6918
 6785SOL    HW231989   2.849   0.325   7.226 -1.5985 -1.8533  0.4969
 6786SOL     OW31990   3.353   1.154  14.586 -0.4145 -0.1640  0.4301
 6786SOL    HW131991   3.347   1.234  14.639 -2.1245 -0.7426  1.1366
 6786SOL    HW231992   3.387   1.089  14.648  1.3680 -1.3390 -1.7866
 6787SOL     OW31993   4.405   2.147  15.417  0.4495 -0.1953  0.1015
 6787SOL    HW131994   4.421   2.115  15.506 -0.0851 -0.3901  0.1289
 6787SOL    HW231995   4.372   2.235  15.438  1.4889  0.4925 -1.2265
 6788SOL     OW31996   2.098   2.742   3.526  0.5902  0.2698  0.1053
 6788SOL    HW131997   2.145   2.767   3.447  1.0582 -1.7033 -0.2463
 6788SOL    HW231998   2.115   2.825   3.571  1.0747 -0.2948  0.9770
 6789SOL     OW31999   2.520   1.185   7.174 -0.6269  0.1014  0.5391
 6789SOL    HW132000   2.427   1.164   7.189 -1.3201  3.2083  0.5665
 6789SOL    HW232001   2.544   1.226   7.257  0.5209 -0.6349  0.5709
 6790SOL     OW32002   1.116   2.804   0.678  0.4166 -0.0108  0.0710
 6790SOL    HW132003   1.176   2.877   0.658 -0.2028  0.6171  0.5315
 6790SOL    HW232004   1.130   2.745   0.604  1.2180 -1.3337  1.2793
 6791SOL     OW32005   0.601   4.343   4.965  0.5786 -0.0462 -0.6668
 6791SOL    HW132006   0.539   4.313   5.031  0.5565 -0.7917 -1.0243
 6791SOL    HW232007   0.575   4.435   4.968 -0.6956 -0.2933 -3.3939
 6792SOL     OW32008   2.509   3.609  14.135  0.1896  0.3044  0.3075
 6792SOL    HW132009   2.489   3.661  14.056 -0.4253 -0.4545 -0.0275
 6792SOL    HW232010   2.585   3.570  14.091  0.2468  0.5140  0.2198
 6793SOL     OW32011   4.472   0.976  12.421 -0.7178 -0.5805  0.0579
 6793SOL    HW132012   4.443   1.061  12.455  2.0645 -0.1935  1.4045
 6793SOL    HW232013   4.560   1.006  12.399 -0.4484 -1.7405 -0.4183
 6794SOL     OW32014   4.466   4.650   1.069 -0.1487 -0.1822 -0.4186
 6794SOL    HW132015   4.545   4.611   1.030  0.3825  0.3325  0.1471
 6794SOL    HW232016   4.414   4.570   1.077 -1.8479  1.0614  0.9784
 6795SOL     OW32017   4.233   0.891   4.166 -0.3279 -0.8808 -0.5447
 6795SOL    HW132018   4.229   0.923   4.076 -0.8737  1.7921  0.4424
 6795SOL    HW232019   4.155   0.835   4.172 -0.3650 -0.7213  0.4777
 6796SOL     OW32020   3.794   0.141   8.322 -0.2730  0.3991 -0.6277
 6796SOL    HW132021   3.745   0.129   8.240 -0.4632  0.8243 -0.5754
 6796SOL    HW232022   3.735   0.200   8.368  0.7993  1.5979 -0.8158
 6797SOL     OW32023   1.650   3.193   3.442  0.2055  0.4496  0.1549
 6797SOL    HW132024   1.659   3.098   3.447 -0.7608  0.2834 -1.2563
 6797SOL    HW232025   1.743   3.206   3.425  0.4267 -1.1921  0.1755
 6798SOL     OW32026   3.672   1.075   8.388 -0.4160 -0.7873  0.0768
 6798SOL    HW132027   3.690   1.052   8.479 -1.3171 -0.4094  0.3527
 6798SOL    HW232028   3.755   1.079   8.341 -0.6027 -0.2947 -0.2052
 6799SOL     OW32029   1.264   2.553   6.301 -0.1854  0.0868  0.5344
 6799SOL    HW132030   1.187   2.550   6.358 -0.3526 -1.9576  0.1888
 6799SOL    HW232031   1.243   2.622   6.237 -0.6960  0.2609  0.8881
 6800SOL     OW32032   1.766   0.845  17.275  0.0113 -0.5799  0.0393
 6800SOL    HW132033   1.830   0.802  17.331  0.1834  1.3505  1.3515
 6800SOL    HW232034   1.684   0.819  17.316 -1.4606  1.0264 -1.8622
 6801SOL     OW32035   1.621   3.508   9.626 -0.3423 -0.2470  0.0609
 6801SOL    HW132036   1.681   3.434   9.617  1.3333  0.9440  1.5463
 6801SOL    HW232037   1.635   3.545   9.713 -1.7977  2.6389 -0.9344
 6802SOL     OW32038   2.691   4.648   7.153 -0.4830 -0.1320  0.2931
 6802SOL    HW132039   2.738   4.566   7.137  1.4852  0.9902  0.2632
 6802SOL    HW232040   2.712   4.695   7.072 -0.7723 -1.8185 -0.7617
 6803SOL     OW32041   1.163   4.570  11.764  0.4282 -0.0793 -0.0922
 6803SOL    HW132042   1.120   4.640  11.814 -0.3319 -0.5300 -0.1087
 6803SOL    HW232043   1.208   4.520  11.833  0.0858  0.6234  0.6510
 6804SOL     OW32044   1.466   4.225   9.958 -0.0481 -0.2750  0.0003
 6804SOL    HW132045   1.388   4.170   9.956 -1.5094  1.6695  2.3825
 6804SOL    HW232046   1.439   4.305  10.003  0.8061  0.3706 -0.6217
 6805SOL     OW32047   3.967   4.459   1.366  0.0523  0.0578  0.3172
 6805SOL    HW132048   3.972   4.520   1.440 -0.5633 -1.6383  1.7475
 6805SOL    HW232049   3.921   4.388   1.411 -0.2086  1.3070  2.0317
 6806SOL     OW32050   3.871   3.013  12.630  0.2474 -0.2253  0.5444
 6806SOL    HW132051   3.823   3.036  12.550  1.1149 -2.4114 -0.5992
 6806SOL    HW232052   3.802   2.967  12.678 -0.0375 -1.2410 -0.8182
 6807SOL     OW32053   1.868   4.131   0.040 -0.1886 -0.0743  0.1075
 6807SOL    HW132054   1.900   4.165  17.712  1.1890  1.5422  1.2882
 6807SOL    HW232055   1.791   4.084   0.010 -0.9767 -0.8716  3.4049
 6808SOL     OW32056   4.077   3.172   0.519  0.3581 -0.4178  0.0267
 6808SOL    HW132057   4.059   3.208   0.606  1.3315  0.1569 -0.0115
 6808SOL    HW232058   3.989   3.178   0.482  1.5954 -2.9179 -3.3394
 6809SOL     OW32059   0.776   4.153  14.248  0.3740 -0.0849 -0.2138
 6809SOL    HW132060   0.724   4.233  14.257 -1.9815 -1.4470 -1.9352
 6809SOL    HW232061   0.727   4.114  14.176  1.1086 -0.1133 -0.7089
 6810SOL     OW32062   0.350   3.670   2.110  0.9319  0.0252  0.2315
 6810SOL    HW132063   0.372   3.656   2.018 -0.9459  2.0402 -0.5218
 6810SOL    HW232064   0.368   3.763   2.126 -2.3137  0.4945  1.1673
 6811SOL     OW32065   0.482   1.225   1.306  0.8083  0.7989 -0.6808
 6811SOL    HW132066   0.572   1.242   1.276  1.1751  0.4691  0.2402
 6811SOL    HW232067   0.493   1.186   1.392  1.2360 -1.0655 -1.5783
 6812SOL     OW32068   0.078   2.820   6.218  0.0592  0.2999  0.4556
 6812SOL    HW132069   0.026   2.780   6.288 -1.7004 -1.6211 -1.9419
 6812SOL    HW232070   0.166   2.837   6.251  0.1996  0.7641 -0.1560
 6813SOL     OW32071   3.727   0.428   2.406 -0.0077 -0.2242  0.5273
 6813SOL    HW132072   3.754   0.347   2.448 -1.3180 -0.9233  0.0372
 6813SOL    HW232073   3.634   0.422   2.430  0.3224 -0.1048  1.8430
 6814SOL     OW32074   3.609   4.394   1.324  0.2534 -0.0094 -0.2047
 6814SOL    HW132075   3.518   4.409   1.351  0.3303 -1.5805  0.9662
 6814SOL    HW232076   3.650   4.471   1.363  2.3493 -0.7213 -1.0485
 6815SOL     OW32077   4.679   4.416   7.616 -0.1754  0.4795  0.2278
 6815SOL    HW132078   4.671   4.321   7.606 -1.7141  0.5905  0.4606
 6815SOL    HW232079   4.587   4.444   7.618 -0.4077 -0.3330  0.9452
 6816SOL     OW32080   0.792   3.647   1.429  0.3497 -0.3967 -0.6070
 6816SOL    HW132081   0.792   3.564   1.477  1.9833 -1.1538 -1.9085
 6816SOL    HW232082   0.784   3.708   1.502 -0.6879 -2.4638  1.0290
 6817SOL     OW32083   0.523   4.580   1.893 -0.0359  0.6448  0.1051
 6817SOL    HW132084   0.565   4.557   1.976  2.2182  0.3629 -1.1317
 6817SOL    HW232085   0.505   4.493   1.856 -0.2926  0.5765  0.3895
 6818SOL     OW32086   4.611   3.657   6.988 -0.4789  0.2333  0.3298
 6818SOL    HW132087   4.664   3.586   7.025 -1.2569  0.6366  2.2397
 6818SOL    HW232088   4.691   3.698   6.956 -0.7152 -0.3580 -0.9906
 6819SOL     OW32089   0.588   3.940   1.534 -0.4973 -0.0108 -0.1254
 6819SOL    HW132090   0.671   3.906   1.568 -1.2816 -3.6280 -1.7872
 6819SOL    HW232091   0.613   3.956   1.443  1.9511 -2.2662  0.1362
 6820SOL     OW32092   2.935   0.469   7.932  0.2615 -0.3262 -0.1595
 6820SOL    HW132093   2.912   0.542   7.990 -2.7181 -2.9917  2.0590
 6820SOL    HW232094   2.914   0.507   7.847  1.5831 -1.5457 -1.0283
 6821SOL     OW32095   2.005   1.771   9.534 -0.6897  0.0211  0.0071
 6821SOL    HW132096   1.977   1.726   9.454  0.0073  0.1113 -0.2786
 6821SOL    HW232097   2.002   1.862   9.506  0.5602  0.0647  0.0219
 6822SOL     OW32098   3.997   1.120   5.533 -0.2969  0.4764  0.0272
 6822SOL    HW132099   4.084   1.140   5.498 -0.4845 -0.1214 -0.7945
 6822SOL    HW232100   3.961   1.206   5.553  1.7825  1.5140 -0.6712
 6823SOL     OW32101   2.488   4.323   1.431  0.3534 -0.1104 -0.2023
 6823SOL    HW132102   2.454   4.325   1.342 -0.8847  0.5945  0.2826
 6823SOL    HW232103   2.582   4.311   1.413  1.0418  2.2358  1.9049
 6824SOL     OW32104   3.865   0.984   0.495  0.1635 -0.6460 -0.2141
 6824SOL    HW132105   3.812   1.021   0.566 -2.2125 -0.1986 -2.2038
 6824SOL    HW232106   3.874   0.899   0.538 -1.2357 -1.1805 -0.9815
 6825SOL     OW32107   0.064   1.188   7.028 -0.6243 -0.5852 -0.4001
 6825SOL    HW132108   0.043   1.271   6.984  0.9446  0.7517  1.4080
 6825SOL    HW232109   0.158   1.200   7.042 -1.4798  3.0995  2.2374
 6826SOL     OW32110   4.738   0.332   4.849  0.4028 -0.2972 -0.6006
 6826SOL    HW132111   0.028   0.409   4.897 -1.3271  0.1219 -0.2130
 6826SOL    HW232112   4.679   0.298   4.916  0.9955  3.0731  1.6140
 6827SOL     OW32113   3.679   1.774  11.729 -0.3288  0.7840 -0.0834
 6827SOL    HW132114   3.744   1.704  11.736 -1.9641 -0.5118  2.1790
 6827SOL    HW232115   3.628   1.738  11.656 -1.1485  0.0474  0.8608
 6828SOL     OW32116   3.370   1.960  14.043 -0.1531 -0.1294  0.0817
 6828SOL    HW132117   3.411   1.929  14.124 -0.4390 -0.8865 -0.0656
 6828SOL    HW232118   3.447   1.993  13.997 -0.3756  0.5868  0.2269
 6829SOL     OW32119   3.580   1.549   9.060 -0.1796  0.2101 -0.3295
 6829SOL    HW132120   3.665   1.586   9.084 -0.8500  1.1443  0.6128
 6829SOL    HW232121   3.554   1.513   9.145  1.2872 -0.4511 -0.1665
 6830SOL     OW32122   0.484   4.408   4.200  0.4130 -0.3473  0.0138
 6830SOL    HW132123   0.578   4.410   4.216  0.4433  0.5246 -0.2756
 6830SOL    HW232124   0.482   4.420   4.105 -0.8388 -0.2231  0.0558
 6831SOL     OW32125   3.005   3.977   8.355 -0.0831 -0.2689  0.4694
 6831SOL    HW132126   3.057   3.900   8.331  2.0936  1.1418  0.6294
 6831SOL    HW232127   3.066   4.041   8.318 -1.4347  0.3072 -0.6975
 6832SOL     OW32128   1.453   1.088   7.696 -0.0445  0.1226  0.0060
 6832SOL    HW132129   1.415   1.164   7.741 -0.2945  0.8936 -1.4973
 6832SOL    HW232130   1.379   1.061   7.641 -0.2253  1.2517 -0.3098
 6833SOL     OW32131   1.355   1.390   8.307 -0.1077  0.5058  0.6785
 6833SOL    HW132132   1.260   1.398   8.313 -0.0153  1.0441  1.3765
 6833SOL    HW232133   1.399   1.465   8.348  2.4215 -0.9356  0.6253
 6834SOL     OW32134   3.803   2.935   5.722 -0.3184  0.0376  0.1076
 6834SOL    HW132135   3.716   2.953   5.757 -1.2882 -2.2160 -1.0846
 6834SOL    HW232136   3.796   2.997   5.649 -0.6937 -0.2967 -0.1479
 6835SOL     OW32137   1.342   2.750   9.274 -0.2651  0.0395 -0.2415
 6835SOL    HW132138   1.277   2.819   9.288  1.2034  1.6411 -1.4572
 6835SOL    HW232139   1.392   2.793   9.205  0.2509  1.3516  0.9367
 6836SOL     OW32140   3.872   0.836   8.437  0.0635 -0.1571  0.4592
 6836SOL    HW132141   3.951   0.883   8.410 -0.2429  1.6076  2.6864
 6836SOL    HW232142   3.859   0.880   8.521 -2.5280  3.1595 -1.7163
 6837SOL     OW32143   1.194   3.028   0.548  0.1458 -0.0898  0.2431
 6837SOL    HW132144   1.118   3.063   0.502  0.2267 -0.7975 -0.4245
 6837SOL    HW232145   1.210   2.952   0.491  0.9710 -0.1757  0.5830
 6838SOL     OW32146   2.183   1.239   5.499  0.1154 -0.0080 -0.3179
 6838SOL    HW132147   2.264   1.217   5.545  1.0433  0.8868 -1.5245
 6838SOL    HW232148   2.194   1.325   5.459  1.5339  0.7919  1.8282
 6839SOL     OW32149   4.477   2.624  13.634  0.3657 -0.3633 -0.0161
 6839SOL    HW132150   4.465   2.665  13.720 -0.0147 -2.2558  0.8379
 6839SOL    HW232151   4.515   2.699  13.589 -2.0507  1.1809  0.5230
 6840SOL     OW32152   0.785   2.848  12.035  0.2272 -0.2423 -0.6980
 6840SOL    HW132153   0.707   2.866  12.087  1.6414  4.3550 -0.2451
 6840SOL    HW232154   0.792   2.934  11.994 -0.5392 -0.0033 -0.3215
 6841SOL     OW32155   2.008   1.231   5.999  0.2265 -0.3415  0.0617
 6841SOL    HW132156   1.961   1.299   5.951  3.2323  1.7603  0.1109
 6841SOL    HW232157   2.098   1.246   5.971  0.3070 -1.5815 -0.3589
 6842SOL     OW32158   3.651   3.534   7.307 -0.1255  0.5375  0.4143
 6842SOL    HW132159   3.670   3.535   7.213  0.2399 -1.2797  0.4653
 6842SOL    HW232160   3.725   3.579   7.348  1.4916 -2.8640  1.2319
 6843SOL     OW32161   3.277   0.996   2.503 -0.2746 -0.0843 -0.4746
 6843SOL    HW132162   3.320   0.934   2.563  1.8752  0.0726 -1.8441
 6843SOL    HW232163   3.329   0.985   2.423  1.6745  2.1609  0.4976
 6844SOL     OW32164   3.032   1.175  10.895  0.1853 -0.2674 -0.2613
 6844SOL    HW132165   3.061   1.210  10.979  2.6394  0.8449 -1.5693
 6844SOL    HW232166   2.956   1.124  10.922 -0.4926  1.2548  0.6904
 6845SOL     OW32167   3.975   2.144  15.670 -0.3067 -0.4383  0.4308
 6845SOL    HW132168   3.913   2.131  15.597  0.7184 -2.8574 -0.0192
 6845SOL    HW232169   3.924   2.116  15.746 -0.3015  0.1268  0.6447
 6846SOL     OW32170   0.943   2.853   2.367 -0.1965 -0.2360  0.3491
 6846SOL    HW132171   0.868   2.811   2.325 -0.9882  0.0033  1.5393
 6846SOL    HW232172   0.904   2.926   2.414 -1.2424  0.7023 -1.9378
 6847SOL     OW32173   3.598   0.843   7.261 -0.2493 -0.4714 -0.2420
 6847SOL    HW132174   3.534   0.797   7.206  1.0289 -1.0546 -1.2483
 6847SOL    HW232175   3.588   0.796   7.344 -1.5703 -0.4908 -0.4120
 6848SOL     OW32176   3.258   0.701   3.364  0.3780  0.2891  0.7817
 6848SOL    HW132177   3.260   0.616   3.408  1.4405  0.9135  1.9330
 6848SOL    HW232178   3.336   0.744   3.400  0.4567  3.4603 -3.1639
 6849SOL     OW32179   2.872   1.463   2.355 -0.7568 -0.0139  0.2333
 6849SOL    HW132180   2.912   1.422   2.278  0.6430  3.0375 -0.6557
 6849SOL    HW232181   2.905   1.551   2.340  1.5884 -0.8147  0.6599
 6850SOL     OW32182   0.515   2.118   1.005  0.4971  0.0666 -0.5750
 6850SOL    HW132183   0.463   2.158   0.934  0.2619  0.3453 -0.2473
 6850SOL    HW232184   0.526   2.035   0.960  1.0568  1.2933 -2.7280
 6851SOL     OW32185   4.423   0.847   8.770 -0.5544 -0.2799 -0.2833
 6851SOL    HW132186   4.509   0.809   8.754  0.1537  0.8082  0.8873
 6851SOL    HW232187   4.367   0.773   8.794  0.2721 -0.2116  1.8806
 6852SOL     OW32188   0.891   2.110   9.289  1.1631 -0.0137 -0.1899
 6852SOL    HW132189   0.900   2.201   9.318 -3.3082  0.8846 -1.6950
 6852SOL    HW232190   0.960   2.064   9.337  0.6047 -1.7081 -1.0327
 6853SOL     OW32191   0.755   1.413   4.307 -0.0277  0.5123  0.0455
 6853SOL    HW132192   0.762   1.317   4.314 -1.4250  0.4373  0.3836
 6853SOL    HW232193   0.780   1.437   4.218  0.8883  0.4153  0.2756
 6854SOL     OW32194   3.128   1.562   4.999  0.4942 -0.3309  0.3229
 6854SOL    HW132195   3.096   1.651   5.016  1.1248 -0.3239  1.4728
 6854SOL    HW232196   3.174   1.574   4.917  0.6723  3.2497  0.9387
 6855SOL     OW32197   0.761   0.833   6.199 -0.2375 -0.2740  0.7208
 6855SOL    HW132198   0.746   0.911   6.146  0.5874 -0.3139  0.4270
 6855SOL    HW232199   0.797   0.879   6.275 -0.7948  0.2657  0.6565
 6856SOL     OW32200   2.418   3.011   4.977 -0.4157 -0.5285 -0.7480
 6856SOL    HW132201   2.438   3.007   4.883 -0.8900 -3.0381 -0.7448
 6856SOL    HW232202   2.482   3.075   5.008 -0.8733 -0.1569 -0.5736
 6857SOL     OW32203   0.117   0.732  14.105 -0.1948  0.0752  0.7829
 6857SOL    HW132204   0.204   0.765  14.083 -0.7634 -0.1673 -1.8339
 6857SOL    HW232205   0.082   0.696  14.024  2.6901 -1.3241  0.1615
 6858SOL     OW32206   4.006   3.494   3.896 -0.5192  0.0524 -0.3355
 6858SOL    HW132207   3.958   3.558   3.843  1.9026  3.9705  2.1654
 6858SOL    HW232208   4.015   3.417   3.840 -1.1904 -1.8283  2.1494
 6859SOL     OW32209   2.855   3.880   7.905  0.4084 -0.5829 -0.1148
 6859SOL    HW132210   2.941   3.856   7.871  0.5517 -0.3406  0.0756
 6859SOL    HW232211   2.882   3.894   7.996 -0.3618  3.0300 -0.4747
 6860SOL     OW32212   0.864   0.298   2.022  0.7820  0.4479  0.0137
 6860SOL    HW132213   0.952   0.269   2.046  0.6088  0.1315  0.2887
 6860SOL    HW232214   0.880   0.386   1.991  1.0535  0.3555 -0.1074
 6861SOL     OW32215   3.886   3.291   8.386  0.1040  0.1632  0.5749
 6861SOL    HW132216   3.925   3.231   8.322 -1.5377 -0.2608 -0.0210
 6861SOL    HW232217   3.836   3.234   8.445  0.9631  0.1618  1.3001
 6862SOL     OW32218   4.446   3.676  11.959 -0.3266 -0.7190  0.3375
 6862SOL    HW132219   4.351   3.672  11.970 -0.4324 -0.5436 -0.4942
 6862SOL    HW232220   4.448   3.611  11.888 -0.6302 -0.9811  0.5680
 6863SOL     OW32221   0.532   1.693   1.207  0.3216  0.0429 -0.0584
 6863SOL    HW132222   0.474   1.625   1.173  0.9921  0.8677 -2.8030
 6863SOL    HW232223   0.519   1.754   1.135 -0.7087 -0.6920 -0.4929
 6864SOL     OW32224   3.059   3.843   3.930  0.4135 -0.1386  0.2815
 6864SOL    HW132225   3.010   3.762   3.944 -0.2520  0.0739 -0.7878
 6864SOL    HW232226   2.989   3.906   3.909  1.6586  0.6562 -1.5534
 6865SOL     OW32227   2.196   4.003   9.241  0.0819  0.1111  0.0644
 6865SOL    HW132228   2.268   4.063   9.221  0.9191 -0.7796  0.4302
 6865SOL    HW232229   2.127   4.068   9.256  1.2588  1.4436 -0.3085
 6866SOL     OW32230   1.865   1.176   2.713  0.0214  0.0312  0.6488
 6866SOL    HW132231   1.777   1.143   2.697  0.1818 -0.4297  0.6931
 6866SOL    HW232232   1.920   1.101   2.690 -1.4518 -0.9361  0.2969
 6867SOL     OW32233   2.003   4.044   6.573  0.6197 -0.1749 -1.1328
 6867SOL    HW132234   1.974   3.999   6.493  3.6393 -1.2702 -1.6315
 6867SOL    HW232235   2.051   3.972   6.615 -1.6927 -0.2637  1.3157
 6868SOL     OW32236   1.380   1.642   8.156  0.3339 -0.5271  0.0652
 6868SOL    HW132237   1.298   1.594   8.145 -0.1773  0.4346 -0.3056
 6868SOL    HW232238   1.445   1.581   8.121 -0.7237 -0.5706 -1.7991
 6869SOL     OW32239   2.165   2.827   9.682  0.2265 -0.1802 -0.4340
 6869SOL    HW132240   2.215   2.781   9.749 -1.2900 -0.8455  0.2306
 6869SOL    HW232241   2.095   2.762   9.676  1.7556 -1.7764 -1.1941
 6870SOL     OW32242   2.892   4.451   0.456  0.3823  0.8750 -0.0927
 6870SOL    HW132243   2.842   4.440   0.375 -0.0527  1.4641  0.0911
 6870SOL    HW232244   2.878   4.367   0.499 -0.9585  0.6613 -0.9594
 6871SOL     OW32245   2.139   3.211   5.312 -0.2511 -0.0813  0.1487
 6871SOL    HW132246   2.231   3.237   5.319  0.1213 -0.7578 -2.2167
 6871SOL    HW232247   2.108   3.283   5.258 -0.3647 -1.2841 -1.4002
 6872SOL     OW32248   4.650   3.039   4.375  0.8582  0.0817  0.3508
 6872SOL    HW132249   4.638   2.975   4.306 -1.5231 -1.3716  2.1113
 6872SOL    HW232250   4.606   2.998   4.450  1.7153 -0.5360  0.5140
 6873SOL     OW32251   3.617   4.303   2.437  0.1032 -0.1669 -0.3561
 6873SOL    HW132252   3.640   4.222   2.392  1.4851 -0.3800  0.7229
 6873SOL    HW232253   3.553   4.264   2.497  1.3758  1.1474  1.8413
 6874SOL     OW32254   1.293   0.776  17.090 -0.4928 -0.0623  0.2191
 6874SOL    HW132255   1.273   0.786  16.997  2.8812 -0.9287 -0.5891
 6874SOL    HW232256   1.364   0.713  17.077  2.9531  4.1113 -1.2543
 6875SOL     OW32257   2.700   4.320   2.574 -0.1821  0.5279  0.1147
 6875SOL    HW132258   2.774   4.341   2.518  1.9323  0.3139  2.8023
 6875SOL    HW232259   2.747   4.314   2.657  3.0615 -0.8527 -1.8335
 6876SOL     OW32260   3.359   3.354  12.637 -0.1381 -0.0708 -0.0286
 6876SOL    HW132261   3.289   3.387  12.581  0.4825 -0.4359 -1.0119
 6876SOL    HW232262   3.325   3.266  12.653 -1.4917 -0.0624 -2.8902
 6877SOL     OW32263   0.264   0.047   3.695  0.4263 -0.8627  0.0258
 6877SOL    HW132264   0.172   0.024   3.704 -0.4571  1.9883 -1.9034
 6877SOL    HW232265   0.261   0.143   3.691 -0.6355 -1.0167 -2.7169
 6878SOL     OW32266   3.948   1.052   3.715  0.1197 -0.0029  0.2364
 6878SOL    HW132267   3.857   1.055   3.684  0.7315 -0.2223 -1.5789
 6878SOL    HW232268   4.000   1.098   3.649 -1.2373 -0.0125 -0.8506
 6879SOL     OW32269   1.864   3.414   1.733  0.0094 -0.4973  0.3971
 6879SOL    HW132270   1.826   3.412   1.821 -1.6295 -4.3151 -0.3800
 6879SOL    HW232271   1.852   3.323   1.705  2.4470 -1.1906  1.6140
 6880SOL     OW32272   0.077   1.890   7.129 -0.2179 -0.3211 -0.1628
 6880SOL    HW132273   0.164   1.921   7.155 -0.1713 -2.1702  1.8589
 6880SOL    HW232274   0.032   1.975   7.126  1.8137  0.7286 -1.1365
 6881SOL     OW32275   0.074   1.271   1.247  0.0807 -0.1173 -0.0294
 6881SOL    HW132276   0.147   1.314   1.291  0.2830  0.4427 -0.8983
 6881SOL    HW232277   0.002   1.328   1.275  0.2924 -1.1280  2.5900
 6882SOL     OW32278   4.137   1.679   5.519  0.6787  0.3667 -0.1017
 6882SOL    HW132279   4.185   1.664   5.601  1.0409 -1.7631 -0.6904
 6882SOL    HW232280   4.088   1.758   5.539 -1.7272 -0.0651 -4.3912
 6883SOL     OW32281   4.510   2.973   5.370 -0.0218 -0.3784 -0.5182
 6883SOL    HW132282   4.474   2.885   5.377 -1.1613 -0.0961 -2.8287
 6883SOL    HW232283   4.574   2.974   5.441 -0.5547 -2.9850 -0.0317
 6884SOL     OW32284   0.174   3.605  13.136 -0.3398 -0.3222  0.6989
 6884SOL    HW132285   0.134   3.520  13.119 -0.1795  0.1537 -2.0397
 6884SOL    HW232286   0.202   3.612  13.045  0.0776 -0.2466  0.8300
 6885SOL     OW32287   3.598   0.217   0.612 -0.3101 -0.3711  0.1365
 6885SOL    HW132288   3.672   0.173   0.654 -0.9115 -1.1653  0.3515
 6885SOL    HW232289   3.539   0.144   0.592 -0.9686  0.6000 -1.5129
 6886SOL     OW32290   4.481   4.711   7.037  0.1577  0.1222 -0.0625
 6886SOL    HW132291   4.572   4.737   7.049 -0.0735  0.5868  0.7302
 6886SOL    HW232292   4.468   4.633   7.092  1.4336  0.6591  0.9945
 6887SOL     OW32293   0.568   2.668   6.816 -0.3016 -0.1264 -0.0835
 6887SOL    HW132294   0.612   2.728   6.755  0.0239  0.4344  0.7012
 6887SOL    HW232295   0.620   2.588   6.818 -0.1494 -0.0615 -1.2651
 6888SOL     OW32296   3.344   1.676   9.192  0.0149 -0.0547 -0.1791
 6888SOL    HW132297   3.349   1.705   9.101  0.5031  0.9774  0.1725
 6888SOL    HW232298   3.395   1.741   9.240  1.4984 -1.2705 -0.1125
 6889SOL     OW32299   4.361   3.763   7.503 -0.0324  0.0663  0.7328
 6889SOL    HW132300   4.381   3.713   7.582  2.4030  0.3899  0.3287
 6889SOL    HW232301   4.267   3.767   7.518  0.0297  0.3926  1.0173
 6890SOL     OW32302   0.529   1.635   3.020 -0.9396  0.5560 -0.4785
 6890SOL    HW132303   0.512   1.588   3.102 -1.5303 -0.0342 -0.9339
 6890SOL    HW232304   0.533   1.565   2.955  2.1291  1.0017 -0.7528
 6891SOL     OW32305   2.384   1.648   4.158 -0.2260 -0.1722  0.2717
 6891SOL    HW132306   2.434   1.710   4.211 -2.3988  1.3742  0.5545
 6891SOL    HW232307   2.373   1.578   4.222  0.9573  0.0915  0.7530
 6892SOL     OW32308   3.349   3.971   7.717 -0.2537 -0.4887 -0.3890
 6892SOL    HW132309   3.406   3.987   7.792 -1.5952 -2.9163  1.1388
 6892SOL    HW232310   3.342   3.876   7.713 -1.5267 -0.4309  0.2942
 6893SOL     OW32311   0.291   1.596   5.857 -0.3763  0.1746  0.0750
 6893SOL    HW132312   0.203   1.622   5.831 -0.6935 -1.7857 -0.8376
 6893SOL    HW232313   0.330   1.681   5.875  1.9787 -0.5516 -1.5460
 6894SOL     OW32314   1.668   3.285   5.338  0.5652 -0.6515 -0.2594
 6894SOL    HW132315   1.626   3.209   5.297 -1.8805  1.1320 -1.0520
 6894SOL    HW232316   1.617   3.309   5.415 -0.9762 -1.9024 -0.8917
 6895SOL     OW32317   1.849   3.751   5.930 -0.1603  1.0186 -0.3378
 6895SOL    HW132318   1.875   3.839   5.902  0.0140  1.4551  1.2014
 6895SOL    HW232319   1.790   3.727   5.859 -1.5703  1.0487  0.8145
 6896SOL     OW32320   2.801   1.191   5.878 -0.0798  0.2887 -0.3429
 6896SOL    HW132321   2.729   1.151   5.830 -0.7958  1.6731 -0.4331
 6896SOL    HW232322   2.842   1.240   5.807 -1.2827  1.9006  0.0603
 6897SOL     OW32323   2.514   3.814   8.839  0.7905 -0.3421  0.8384
 6897SOL    HW132324   2.443   3.812   8.904 -2.0852  1.9391 -2.2406
 6897SOL    HW232325   2.570   3.882   8.878  1.3596  1.2057 -2.7344
 6898SOL     OW32326   1.679   0.398  13.094  0.1008  0.7362 -0.2486
 6898SOL    HW132327   1.684   0.442  13.179  1.6174 -1.1848  0.6634
 6898SOL    HW232328   1.694   0.471  13.034 -1.2486  2.0064  0.9518
 6899SOL     OW32329   1.393   3.101   6.470  0.2725  0.0650  0.6785
 6899SOL    HW132330   1.400   3.170   6.536  0.5737 -0.1243  0.8450
 6899SOL    HW232331   1.471   3.120   6.418  0.9936 -2.8934  0.6688
 6900SOL     OW32332   0.173   0.801   8.564  0.1562 -0.4030 -0.2900
 6900SOL    HW132333   0.251   0.846   8.597  0.4497  0.1835 -1.7669
 6900SOL    HW232334   0.221   0.730   8.523 -0.8765 -0.6592 -1.0525
 6901SOL     OW32335   3.744   4.156   6.389  0.0619 -0.0726  0.3977
 6901SOL    HW132336   3.758   4.208   6.469  1.7557 -1.0888  0.7599
 6901SOL    HW232337   3.714   4.074   6.429  0.0522  0.1732  0.9044
 6902SOL     OW32338   0.317   2.501   6.168 -0.6718 -0.3178  0.2912
 6902SOL    HW132339   0.246   2.494   6.104 -0.7225 -0.3582  0.3516
 6902SOL    HW232340   0.377   2.539   6.104 -0.7000  0.9431  1.0190
 6903SOL     OW32341   0.943   0.954   1.702  0.4844 -0.7163  0.1933
 6903SOL    HW132342   1.009   0.886   1.717 -1.3305 -2.3079  0.9010
 6903SOL    HW232343   0.874   0.937   1.765 -0.5649 -0.3482 -0.8573
 6904SOL     OW32344   3.023   0.307  15.318 -0.2602  0.5848 -0.4508
 6904SOL    HW132345   3.008   0.279  15.228  0.4120 -1.3911  0.0378
 6904SOL    HW232346   2.936   0.311  15.358 -0.2124 -2.6708  0.0093
 6905SOL     OW32347   2.653   0.058   4.382  0.2162 -0.3696  0.0893
 6905SOL    HW132348   2.611   0.107   4.453  1.0501  1.8128 -0.9417
 6905SOL    HW232349   2.612   0.104   4.308  1.6943 -1.4930 -1.4195
 6906SOL     OW32350   3.701   4.371  10.973 -0.6815 -0.3803 -0.0961
 6906SOL    HW132351   3.786   4.332  10.952 -0.4827  0.1172 -0.2123
 6906SOL    HW232352   3.653   4.290  10.957 -0.1290 -1.4266  3.4715
 6907SOL     OW32353   1.068   0.468  16.654 -0.0879 -0.3692  0.3881
 6907SOL    HW132354   1.113   0.458  16.570 -1.1280  0.1258 -0.2212
 6907SOL    HW232355   0.993   0.410  16.649 -0.8825  0.3851  3.3756
 6908SOL     OW32356   3.833   4.428   2.536 -0.1090 -0.0483 -0.3194
 6908SOL    HW132357   3.828   4.495   2.468  0.3760  0.3535  0.0393
 6908SOL    HW232358   3.756   4.379   2.509  0.6064 -1.3261 -0.0178
 6909SOL     OW32359   1.574   1.696   8.644  0.3790  0.1227 -0.2758
 6909SOL    HW132360   1.516   1.760   8.685 -0.5011 -0.5166 -0.5104
 6909SOL    HW232361   1.641   1.755   8.610 -0.1986 -0.8873 -3.2318
 6910SOL     OW32362   4.241   3.938  11.862 -0.0952 -0.0367  0.2441
 6910SOL    HW132363   4.151   3.967  11.845 -0.5186 -1.6236 -0.2477
 6910SOL    HW232364   4.234   3.921  11.956 -0.1750 -0.8287  0.0966
 6911SOL     OW32365   4.097   0.711   2.529  0.3035 -0.5306 -0.4847
 6911SOL    HW132366   4.180   0.738   2.491 -0.0263 -2.8718 -2.8014
 6911SOL    HW232367   4.084   0.794   2.576  0.6065  0.1396 -1.5700
 6912SOL     OW32368   3.448   0.334  16.761 -0.2158  0.1335 -0.2060
 6912SOL    HW132369   3.422   0.398  16.827  1.3197  1.6421 -1.0781
 6912SOL    HW232370   3.443   0.384  16.680  1.6723 -0.0768 -0.4461
 6913SOL     OW32371   3.296   1.686   5.581  0.5044  0.0308  0.8861
 6913SOL    HW132372   3.331   1.638   5.656 -0.1091  1.6336  2.2015
 6913SOL    HW232373   3.375   1.689   5.527 -0.7207 -1.5286 -0.9679
 6914SOL     OW32374   2.414   1.959   3.563 -0.0290 -0.4366  0.3835
 6914SOL    HW132375   2.383   2.049   3.572 -0.8193 -0.5705 -1.0229
 6914SOL    HW232376   2.349   1.907   3.609 -0.2983  1.4432  2.1251
 6915SOL     OW32377   1.017   1.478   8.459  0.4393 -0.1364 -0.2606
 6915SOL    HW132378   1.018   1.398   8.406 -1.4852 -0.6823  0.5568
 6915SOL    HW232379   1.001   1.540   8.387  0.4790 -0.3141 -0.4244
 6916SOL     OW32380   1.555   2.472   2.280  0.5914  0.1085  0.7564
 6916SOL    HW132381   1.559   2.382   2.248  0.5123  0.5937 -0.6085
 6916SOL    HW232382   1.461   2.490   2.277  1.1431  2.9595  1.1716
 6917SOL     OW32383   4.477   3.217   6.704  0.0319  0.1203 -0.3549
 6917SOL    HW132384   4.436   3.135   6.675  0.9775  0.2810 -2.1644
 6917SOL    HW232385   4.511   3.197   6.791 -0.8337  0.8943  0.1551
 6918SOL     OW32386   1.964   3.836   0.275  0.1400  0.8580 -0.4848
 6918SOL    HW132387   1.929   3.776   0.209  1.2083 -0.6131  0.2880
 6918SOL    HW232388   1.904   3.909   0.260 -0.1148  1.3103  2.8893
 6919SOL     OW32389   3.106   1.469   1.873 -0.6220 -0.4204 -0.0894
 6919SOL    HW132390   3.099   1.467   1.777  0.4500 -1.0947 -0.1559
 6919SOL    HW232391   3.200   1.453   1.880 -0.9154 -1.1617  2.1390
 6920SOL     OW32392   1.058   2.203   2.565 -0.5795 -0.1107 -0.0142
 6920SOL    HW132393   0.988   2.267   2.575  0.7467  1.4866 -0.8593
 6920SOL    HW232394   1.037   2.134   2.628  1.1687 -1.5363 -1.0115
 6921SOL     OW32395   0.804   3.112   3.375 -0.3972 -0.4391  0.1128
 6921SOL    HW132396   0.744   3.142   3.306 -2.1421  1.3263  2.4090
 6921SOL    HW232397   0.873   3.177   3.371 -0.9255 -0.0565 -2.7241
 6922SOL     OW32398   1.225   0.879   3.051  0.0720  0.2755 -0.0796
 6922SOL    HW132399   1.233   0.889   3.146 -0.7615 -1.5766  0.1787
 6922SOL    HW232400   1.296   0.937   3.022  0.9873 -0.9780 -0.3654
 6923SOL     OW32401   1.790   3.633   8.088  0.0742 -0.0651  0.1106
 6923SOL    HW132402   1.874   3.601   8.119 -0.3161 -2.7041 -1.6500
 6923SOL    HW232403   1.814   3.701   8.025 -1.7483  0.8916  0.4424
 6924SOL     OW32404   1.811   0.091  16.799 -0.4037 -0.4785  0.7732
 6924SOL    HW132405   1.731   0.137  16.774  0.1897 -0.2247 -0.6775
 6924SOL    HW232406   1.855   0.110  16.716 -3.3014 -2.3212 -1.1942
 6925SOL     OW32407   1.162   0.445  16.928  0.1644  0.2133  0.2770
 6925SOL    HW132408   1.156   0.350  16.918  1.1607  0.0717  1.0602
 6925SOL    HW232409   1.136   0.471  16.839  0.5365 -2.7187 -0.6866
 6926SOL     OW32410   3.444   4.544   4.374 -0.3064 -0.6503  0.5043
 6926SOL    HW132411   3.350   4.547   4.355  0.3213 -0.1239 -2.4876
 6926SOL    HW232412   3.475   4.586   4.294  0.1178  0.7652  1.4093
 6927SOL     OW32413   1.051   0.589  10.877  0.4911 -0.0612 -0.2511
 6927SOL    HW132414   1.047   0.613  10.969 -0.0013  0.4044 -0.3950
 6927SOL    HW232415   1.141   0.616  10.864  0.2155  0.5688 -0.8003
 6928SOL     OW32416   0.800   0.782   6.559  0.4820 -0.0639 -0.0908
 6928SOL    HW132417   0.773   0.873   6.573  0.4232  0.1906 -1.7843
 6928SOL    HW232418   0.779   0.741   6.643 -1.5306  0.1084 -0.5046
 6929SOL     OW32419   3.648   0.380   9.644 -0.4254  0.4267 -0.2079
 6929SOL    HW132420   3.716   0.441   9.616  1.3222 -1.4713 -0.0657
 6929SOL    HW232421   3.699   0.335   9.712  0.4737  0.2455 -1.0075
 6930SOL     OW32422   0.082   3.019   2.474  0.5813  0.8851 -0.5549
 6930SOL    HW132423   0.070   3.114   2.469 -0.5405  0.8420  1.4575
 6930SOL    HW232424   4.732   2.986   2.467  0.8223 -0.2721  1.8874
 6931SOL     OW32425   0.768   1.573   6.537 -0.1764 -0.1834  0.1484
 6931SOL    HW132426   0.711   1.635   6.492  0.2341  0.0165 -0.0985
 6931SOL    HW232427   0.847   1.627   6.529  0.2828 -1.1057 -1.4759
 6932SOL     OW32428   3.359   3.717  10.927 -0.4862 -0.0097 -0.5699
 6932SOL    HW132429   3.279   3.669  10.945  1.0682 -2.6114 -0.6127
 6932SOL    HW232430   3.328   3.807  10.933 -0.0981 -0.0400  2.1603
 6933SOL     OW32431   1.743   3.811   4.557  0.0225  0.2193  0.0154
 6933SOL    HW132432   1.668   3.761   4.525  1.8012 -1.7666 -1.0758
 6933SOL    HW232433   1.743   3.809   4.653 -1.1306 -0.0891  0.0048
 6934SOL     OW32434   3.945   1.355  15.630  0.2372 -0.0596  0.3915
 6934SOL    HW132435   4.013   1.391  15.688  0.8117 -0.8560  0.2210
 6934SOL    HW232436   3.988   1.352  15.544 -0.1461  1.6409  0.1599
 6935SOL     OW32437   2.564   3.220   2.511  0.4101  0.1415  0.5648
 6935SOL    HW132438   2.563   3.135   2.467  0.6262  0.1631  0.5201
 6935SOL    HW232439   2.644   3.213   2.563  0.0939 -1.0634  0.8988
 6936SOL     OW32440   1.530   1.259   7.292 -0.1322  0.1470  0.2826
 6936SOL    HW132441   1.610   1.210   7.272 -0.6535 -0.8689  0.6512
 6936SOL    HW232442   1.466   1.209   7.241  1.6201 -0.3562 -1.4118
 6937SOL     OW32443   0.646   4.055   7.454 -0.6126  0.2425  0.5629
 6937SOL    HW132444   0.728   4.010   7.476 -0.1097  1.0588  0.3793
 6937SOL    HW232445   0.663   4.143   7.489 -1.5519  0.3420  0.7664
 6938SOL     OW32446   3.803   2.883   6.795 -0.0986 -0.4944  0.1187
 6938SOL    HW132447   3.866   2.928   6.738 -0.7887 -0.6867 -0.7856
 6938SOL    HW232448   3.829   2.795   6.769  1.8160  0.1053 -0.0171
 6939SOL     OW32449   2.751   0.084   6.032  0.2610 -0.2773 -0.5746
 6939SOL    HW132450   2.779   0.106   5.943 -0.8808  0.0069 -0.8668
 6939SOL    HW232451   2.757   0.168   6.078 -0.4335 -0.6636  0.2357
 6940SOL     OW32452   3.608   2.167   5.629 -0.2423  0.0671 -0.3663
 6940SOL    HW132453   3.658   2.095   5.591  0.2623 -0.2735  0.9467
 6940SOL    HW232454   3.626   2.234   5.563  0.0247  0.4106  0.0576
 6941SOL     OW32455   4.496   1.681   2.187 -0.2509  0.1236 -0.4047
 6941SOL    HW132456   4.553   1.684   2.264 -0.9695 -0.1406  0.1366
 6941SOL    HW232457   4.416   1.721   2.221  0.2049  0.8051 -0.1379
 6942SOL     OW32458   2.080   4.373   5.948 -0.2008  0.4449  0.3895
 6942SOL    HW132459   2.038   4.344   6.029 -0.2053 -0.1536  0.1722
 6942SOL    HW232460   2.017   4.442   5.925 -0.0383  0.4313 -0.1045
 6943SOL     OW32461   1.475   2.959   6.743  1.1185  0.1285  0.1904
 6943SOL    HW132462   1.483   3.051   6.719  1.0556 -0.1100 -0.7251
 6943SOL    HW232463   1.554   2.918   6.708 -0.0222 -0.7979 -1.2764
 6944SOL     OW32464   0.140   2.404   0.407 -0.1064  0.3092  0.4347
 6944SOL    HW132465   0.155   2.348   0.331 -2.3461  0.3381 -0.0372
 6944SOL    HW232466   0.159   2.331   0.466 -1.0372  0.8076  1.3388
 6945SOL     OW32467   1.456   3.860   6.337 -0.2069 -0.0197  0.8345
 6945SOL    HW132468   1.502   3.881   6.418  4.7774  0.7600 -2.2019
 6945SOL    HW232469   1.532   3.842   6.282  0.5900  2.2973  1.1683
 6946SOL     OW32470   3.717   3.018   7.010  0.7891  0.4055  0.6501
 6946SOL    HW132471   3.622   3.021   6.996  0.7645 -2.2445  0.2410
 6946SOL    HW232472   3.744   2.985   6.925 -0.7300  0.4641  0.1583
 6947SOL     OW32473   0.935   1.501   5.372 -0.2332  0.3687 -0.7191
 6947SOL    HW132474   0.933   1.579   5.427 -1.9507 -1.5551  1.9201
 6947SOL    HW232475   1.030   1.487   5.377 -0.2527  0.3018 -0.5652
 6948SOL     OW32476   1.690   0.777   7.298  0.5264 -0.6930  0.1770
 6948SOL    HW132477   1.608   0.732   7.315  1.2557 -2.0332  0.1301
 6948SOL    HW232478   1.711   0.728   7.218  1.1635  2.1316 -1.3978
 6949SOL     OW32479   2.728   2.348   8.102 -0.5069  0.1851  0.3284
 6949SOL    HW132480   2.668   2.420   8.120 -0.9986 -0.1155 -0.1571
 6949SOL    HW232481   2.798   2.376   8.162  0.8532 -0.7665 -0.8090
 6950SOL     OW32482   3.959   2.020   8.870 -0.5711 -0.2251  0.4586
 6950SOL    HW132483   3.963   2.052   8.780  0.6261 -0.0206  0.5798
 6950SOL    HW232484   3.994   2.095   8.918  1.5692 -3.2075  3.5535
 6951SOL     OW32485   1.988   2.227   4.539  0.4836  0.3474  0.2889
 6951SOL    HW132486   2.024   2.310   4.507  0.0925  0.5213  0.3011
 6951SOL    HW232487   2.001   2.251   4.631  1.1161 -1.2747  0.6169
 6952SOL     OW32488   0.009   1.733   7.334  0.2882 -0.1370 -0.4055
 6952SOL    HW132489   0.084   1.749   7.392  0.7526  0.0348 -1.0577
 6952SOL    HW232490   0.007   1.801   7.267  0.4576 -0.2433 -0.5182
 6953SOL     OW32491   3.611   0.289   3.745  0.0903  0.2618  0.4819
 6953SOL    HW132492   3.524   0.304   3.707  0.4015 -2.2098 -1.2165
 6953SOL    HW232493   3.675   0.312   3.678 -1.5798  0.7926 -0.9221
 6954SOL     OW32494   0.122   3.791   1.055  0.4897  0.3046 -0.0423
 6954SOL    HW132495   0.081   3.875   1.076  0.2916 -0.0591  1.0258
 6954SOL    HW232496   0.152   3.820   0.969 -0.0193 -1.6537 -0.8917
 6955SOL     OW32497   4.318   1.813  16.990 -0.1254  0.1724 -0.2470
 6955SOL    HW132498   4.364   1.763  16.924 -2.7698 -2.1686 -0.3476
 6955SOL    HW232499   4.227   1.783  16.987 -0.0016 -0.1269 -0.9602
 6956SOL     OW32500   0.774   2.916   1.474  0.0632  0.2555 -0.5071
 6956SOL    HW132501   0.729   2.888   1.395  0.0539  1.7176 -1.0018
 6956SOL    HW232502   0.702   2.965   1.512 -0.3368 -1.1161  0.5319
 6957SOL     OW32503   3.919   3.698   8.959 -0.1122 -0.7724 -0.2336
 6957SOL    HW132504   3.824   3.714   8.963  0.2967  1.7668 -0.9334
 6957SOL    HW232505   3.953   3.740   8.881 -1.8867 -2.3318 -1.8596
 6958SOL     OW32506   1.781   3.028  10.522 -0.7584 -0.2311  0.7040
 6958SOL    HW132507   1.864   2.993  10.491 -1.4057 -1.4029  0.2872
 6958SOL    HW232508   1.798   3.036  10.616 -0.2676  1.3050  0.4688
 6959SOL     OW32509   1.747   4.104  16.246 -0.1332  0.2494 -0.3202
 6959SOL    HW132510   1.663   4.066  16.272 -0.0906  0.5303  0.2344
 6959SOL    HW232511   1.814   4.060  16.300 -0.4525 -1.6801 -1.4815
 6960SOL     OW32512   3.903   0.392   1.971  0.3899 -0.5317  0.0079
 6960SOL    HW132513   3.946   0.426   1.893  2.5616 -0.9733  1.0002
 6960SOL    HW232514   3.982   0.351   2.009  0.3229 -1.4895 -0.8762
 6961SOL     OW32515   2.677   2.625   2.909 -0.8339  0.2123 -0.0740
 6961SOL    HW132516   2.694   2.587   2.823 -0.4409 -1.7353  0.8617
 6961SOL    HW232517   2.765   2.621   2.947 -0.4402 -1.6955 -1.2316
 6962SOL     OW32518   2.136   1.638  10.362 -0.0150  0.2259 -0.3098
 6962SOL    HW132519   2.225   1.632  10.326 -0.0192 -0.7122 -0.1602
 6962SOL    HW232520   2.122   1.731  10.383  0.1501 -0.3047  2.0672
 6963SOL     OW32521   2.643   1.148   1.720  0.5380  0.0606  0.3775
 6963SOL    HW132522   2.738   1.157   1.712  0.6574 -0.9228  0.6904
 6963SOL    HW232523   2.636   1.052   1.714 -1.5305  0.2040  0.7110
 6964SOL     OW32524   4.553   1.608   5.423  0.6362 -0.5168 -0.0371
 6964SOL    HW132525   4.580   1.523   5.458 -0.0179 -0.6168  0.2424
 6964SOL    HW232526   4.472   1.580   5.379  0.1742 -1.6743  1.5463
 6965SOL     OW32527   2.358   0.418   5.334 -0.2230 -0.0936 -0.4615
 6965SOL    HW132528   2.384   0.510   5.322 -0.3623  0.0302  0.1768
 6965SOL    HW232529   2.263   0.432   5.339 -0.3843 -0.8733 -1.3175
 6966SOL     OW32530   4.174   3.486   7.658  0.1876  0.0803 -0.2331
 6966SOL    HW132531   4.262   3.475   7.694  0.5507 -2.4169 -1.8226
 6966SOL    HW232532   4.189   3.435   7.578  2.6137  0.3380  0.0440
 6967SOL     OW32533   3.233   2.413  14.091 -0.4615  0.0751  0.3608
 6967SOL    HW132534   3.158   2.360  14.118  0.5075 -0.5683  1.8545
 6967SOL    HW232535   3.248   2.477  14.161  1.6928  1.6932 -1.5878
 6968SOL     OW32536   4.225   3.640  16.069  0.5423 -0.3618 -0.9449
 6968SOL    HW132537   4.217   3.681  16.156  2.2343 -1.3016 -0.3451
 6968SOL    HW232538   4.136   3.620  16.040  0.2273  0.1213 -0.3102
 6969SOL     OW32539   0.991   1.854   4.701 -0.5011 -0.0737 -0.0877
 6969SOL    HW132540   0.913   1.910   4.697 -0.5141 -0.1704 -1.0289
 6969SOL    HW232541   0.998   1.854   4.797  0.5620  0.1736 -0.1650
 6970SOL     OW32542   4.237   2.259  12.051  0.5219  0.2451 -0.1746
 6970SOL    HW132543   4.256   2.170  12.080 -1.6027  0.5369  2.1021
 6970SOL    HW232544   4.269   2.252  11.961  0.6976  1.3609 -0.2009
 6971SOL     OW32545   3.801   2.973  13.378  0.0831  0.1129  0.2458
 6971SOL    HW132546   3.715   2.943  13.406  0.5119 -0.3685  1.0660
 6971SOL    HW232547   3.800   3.065  13.407 -0.7857  0.0491  0.4058
 6972SOL     OW32548   3.733   2.404   6.629 -0.0651  0.6022 -0.0605
 6972SOL    HW132549   3.767   2.359   6.551 -1.1984  0.4858 -0.4944
 6972SOL    HW232550   3.642   2.374   6.630 -0.3948  1.5499 -1.1445
 6973SOL     OW32551   1.493   2.691   5.806 -0.1311 -0.0257 -0.2814
 6973SOL    HW132552   1.472   2.764   5.748  2.4114 -2.9769 -4.9389
 6973SOL    HW232553   1.494   2.613   5.751  1.3813  0.0730 -0.4070
 6974SOL     OW32554   0.103   4.231   9.194 -0.1465 -0.1016 -0.1061
 6974SOL    HW132555   0.044   4.157   9.177 -0.7764  0.0909  1.2318
 6974SOL    HW232556   0.135   4.205   9.280  2.1952  1.7184 -0.4446
 6975SOL     OW32557   2.262   4.720   3.440 -0.0281 -0.1308 -0.5844
 6975SOL    HW132558   2.262   4.637   3.390 -0.1256 -0.2268 -0.4241
 6975SOL    HW232559   2.252   4.703   3.533 -1.0757 -1.0320 -0.8563
 6976SOL     OW32560   3.711   3.916   1.914  0.5357 -0.5630  0.6034
 6976SOL    HW132561   3.646   3.850   1.936  0.1337  0.1583  1.5743
 6976SOL    HW232562   3.755   3.913   1.999  1.2994 -0.9148  0.1948
 6977SOL     OW32563   2.959   1.947   7.057  0.3293  0.0494  0.2800
 6977SOL    HW132564   2.961   1.867   7.004  0.7665 -1.5990  2.7889
 6977SOL    HW232565   2.874   1.990   7.044  0.6968  0.6447 -0.1392
 6978SOL     OW32566   1.589   2.500   6.512 -0.1629  0.0534 -0.0349
 6978SOL    HW132567   1.601   2.414   6.553 -2.3795 -0.8715 -1.3248
 6978SOL    HW232568   1.646   2.557   6.564 -0.3824  2.2447 -2.1986
 6979SOL     OW32569   3.602   2.258   8.854  0.5013 -0.4116  0.2640
 6979SOL    HW132570   3.658   2.205   8.797 -0.3196 -1.2375  0.2139
 6979SOL    HW232571   3.668   2.283   8.918  0.3612  0.1255  0.1986
 6980SOL     OW32572   1.596   1.448   2.019  0.2045  0.2119 -0.3648
 6980SOL    HW132573   1.670   1.388   2.024  0.6506  0.6242 -2.1852
 6980SOL    HW232574   1.629   1.508   1.952 -0.3968  1.7101  0.6883
 6981SOL     OW32575   0.720   0.321  17.423 -0.6454  0.1388  0.0632
 6981SOL    HW132576   0.771   0.386  17.472 -0.9032  0.5015 -0.1478
 6981SOL    HW232577   0.741   0.240  17.471  0.1874 -0.2170 -0.9118
 6982SOL     OW32578   2.619   3.849   3.224 -0.2778  0.0359  0.5345
 6982SOL    HW132579   2.694   3.908   3.229 -0.3397  0.2758 -1.2744
 6982SOL    HW232580   2.641   3.815   3.137 -2.0161  0.8836 -0.2539
 6983SOL     OW32581   0.913   0.725   4.982  0.1712  0.0247 -0.1302
 6983SOL    HW132582   0.963   0.797   5.019 -0.5941  1.8265 -2.6199
 6983SOL    HW232583   0.951   0.720   4.894  2.0086  0.1598  0.6542
 6984SOL     OW32584   4.518   1.766  10.863 -0.7399  0.0645 -0.0581
 6984SOL    HW132585   4.482   1.833  10.922 -1.5250 -1.1814  0.8796
 6984SOL    HW232586   4.495   1.811  10.782 -1.3545 -0.2281 -0.0469
 6985SOL     OW32587   2.952   1.698   2.839  0.1902  0.2062  0.4384
 6985SOL    HW132588   2.969   1.608   2.868 -0.0885  0.3721  1.1084
 6985SOL    HW232589   3.021   1.725   2.778 -2.2091 -1.7449 -3.1508
 6986SOL     OW32590   4.450   0.117   1.762 -0.1242  0.2332  0.2628
 6986SOL    HW132591   4.545   0.111   1.773 -0.2053 -0.3121  0.6514
 6986SOL    HW232592   4.409   0.115   1.848 -1.3221 -1.7608 -0.3772
 6987SOL     OW32593   1.447   3.650  17.728 -0.1344 -0.5400  0.3305
 6987SOL    HW132594   1.535   3.647   0.008  0.4937  0.2093 -1.1579
 6987SOL    HW232595   1.393   3.619   0.045  0.5114  0.0827  1.0776
 6988SOL     OW32596   1.037   4.109   8.015  0.4216  0.2990  0.1442
 6988SOL    HW132597   1.099   4.086   7.946  0.0841 -2.6285  0.8298
 6988SOL    HW232598   1.101   4.152   8.072  0.2794 -0.0318  0.5504
 6989SOL     OW32599   1.300   2.495  16.870  0.2257  0.0752  0.1264
 6989SOL    HW132600   1.252   2.412  16.871  3.3336 -1.7113  0.4112
 6989SOL    HW232601   1.262   2.543  16.797  0.2697  0.6371  0.4755
 6990SOL     OW32602   4.010   2.488   4.759  0.2685 -0.0772 -0.0333
 6990SOL    HW132603   4.054   2.413   4.799 -1.4869 -0.9162  0.3172
 6990SOL    HW232604   4.009   2.544   4.837 -0.9532  0.4087 -0.3997
 6991SOL     OW32605   2.059   3.267   9.452  0.2289  0.2875 -0.2866
 6991SOL    HW132606   2.153   3.252   9.441 -0.0386 -0.6241 -1.2896
 6991SOL    HW232607   2.028   3.178   9.439  1.3791 -0.0869 -0.4426
 6992SOL     OW32608   3.481   3.355   4.120 -0.1976 -0.2414 -0.1674
 6992SOL    HW132609   3.452   3.399   4.200  1.7339  0.1077  0.3544
 6992SOL    HW232610   3.571   3.335   4.147 -0.8066 -1.9111  0.6031
 6993SOL     OW32611   1.503   4.007  16.269 -0.2129 -0.5116  0.0039
 6993SOL    HW132612   1.496   3.924  16.221 -1.2874 -0.5787  0.2818
 6993SOL    HW232613   1.480   3.976  16.356 -1.3574  0.3431  0.0012
 6994SOL     OW32614   4.192   2.968   0.265 -1.0798  0.0813 -0.2536
 6994SOL    HW132615   4.229   3.040   0.214 -0.6448  0.9468  1.3091
 6994SOL    HW232616   4.102   2.999   0.274 -0.2929  1.8329  1.4875
 6995SOL     OW32617   1.978   2.305   5.781  0.1439 -0.1628 -0.1677
 6995SOL    HW132618   2.059   2.255   5.776 -0.1764 -0.4937 -2.3756
 6995SOL    HW232619   1.985   2.375   5.846  1.2617  1.5872 -2.1470
 6996SOL     OW32620   3.484   1.046   3.179  0.3336  0.1463  0.1157
 6996SOL    HW132621   3.405   0.991   3.185 -0.0087  0.8584  2.3922
 6996SOL    HW232622   3.511   1.034   3.270 -3.2774  0.1812  1.2076
 6997SOL     OW32623   3.386   0.269   1.407  0.2577  0.0607 -0.1699
 6997SOL    HW132624   3.339   0.252   1.488 -1.9646  0.5564 -1.3770
 6997SOL    HW232625   3.427   0.353   1.427  3.2616 -1.9340  2.0621
 6998SOL     OW32626   2.942   1.867   4.166  0.2511 -0.1017 -0.4113
 6998SOL    HW132627   2.961   1.953   4.203  3.8622 -0.8333 -0.5144
 6998SOL    HW232628   2.992   1.806   4.220 -0.9252 -1.3054 -0.6845
 6999SOL     OW32629   2.218   0.250   8.122  0.3819 -0.3074  0.4766
 6999SOL    HW132630   2.296   0.306   8.117  2.2373 -2.8465  1.1525
 6999SOL    HW232631   2.195   0.247   8.215 -2.4432  0.4611 -0.1860
 7000SOL     OW32632   4.132   0.886   8.400  0.1240 -0.2003  0.1848
 7000SOL    HW132633   4.182   0.937   8.335 -0.5509 -0.5541 -0.6090
 7000SOL    HW232634   4.198   0.821   8.423  0.0933  0.3683  1.9055
 7001SOL     OW32635   4.103   0.250   8.542 -0.0616  0.3886 -0.2488
 7001SOL    HW132636   4.108   0.159   8.513  0.2042  0.9234 -1.8774
 7001SOL    HW232637   4.036   0.244   8.609  1.1729 -0.0439  0.9432
 7002SOL     OW32638   2.152   2.705   4.361  0.1032 -0.2771  0.0089
 7002SOL    HW132639   2.138   2.611   4.373 -1.2370 -0.1659 -0.7273
 7002SOL    HW232640   2.134   2.746   4.445  1.6308  2.0149 -0.7779
 7003SOL     OW32641   4.527   3.939   4.643 -0.4345  0.1921  0.6254
 7003SOL    HW132642   4.524   3.854   4.687 -2.1668  0.0120  0.1290
 7003SOL    HW232643   4.502   3.993   4.718 -3.0617  1.2810 -1.0654
 7004SOL     OW32644   1.761   0.503   3.042  0.2807 -0.2290 -0.0464
 7004SOL    HW132645   1.810   0.575   3.001 -1.3405  0.1490 -1.3021
 7004SOL    HW232646   1.830   0.440   3.064  1.0618  0.4816 -0.4283
 7005SOL     OW32647   3.751   0.044  14.004  0.1821 -0.3706 -0.2659
 7005SOL    HW132648   3.842   0.014  14.009  1.1934  2.6212 -0.9313
 7005SOL    HW232649   3.708   4.704  14.036 -1.6704  1.2187  1.1230
 7006SOL     OW32650   2.910   3.463   0.720 -0.1022 -0.1213  0.5096
 7006SOL    HW132651   2.897   3.389   0.780 -0.5642  0.4398  1.1095
 7006SOL    HW232652   2.819   3.475   0.691 -0.5512 -0.3641  1.7919
 7007SOL     OW32653   3.679   4.544   1.961 -0.5124 -0.0465 -0.2063
 7007SOL    HW132654   3.720   4.575   2.041 -0.7410  1.7536 -0.7990
 7007SOL    HW232655   3.626   4.477   2.005 -1.3844  0.6110 -0.2460
 7008SOL     OW32656   2.287   1.671   8.643  0.1647 -0.2955  0.6379
 7008SOL    HW132657   2.328   1.585   8.637  0.2129 -0.1612 -1.1187
 7008SOL    HW232658   2.331   1.720   8.574 -2.0534 -0.4076 -0.8617
 7009SOL     OW32659   0.215   4.612   1.031 -0.3566  0.2361  0.0800
 7009SOL    HW132660   0.210   4.516   1.021  0.1475  0.3782 -1.6719
 7009SOL    HW232661   0.300   4.609   1.074 -0.9895 -1.1474  1.2194
 7010SOL     OW32662   2.774   0.708   8.697 -0.3970  0.6163  0.3728
 7010SOL    HW132663   2.747   0.617   8.683 -0.3644  0.6913 -0.1806
 7010SOL    HW232664   2.718   0.753   8.635 -2.4694 -0.5893  1.3886
 7011SOL     OW32665   1.156   1.485   7.568 -1.0003  0.1952 -0.5760
 7011SOL    HW132666   1.217   1.422   7.530 -0.8615  1.1092 -1.8491
 7011SOL    HW232667   1.155   1.556   7.504  0.5226  1.8732  1.2477
 7012SOL     OW32668   2.413   1.071   5.550  0.0415  0.7250 -0.1951
 7012SOL    HW132669   2.455   1.037   5.471 -0.2438 -0.2975  0.0828
 7012SOL    HW232670   2.391   0.989   5.594  3.1062 -0.2056 -0.4325
 7013SOL     OW32671   3.890   2.753   7.264 -0.2037  0.1477  0.1988
 7013SOL    HW132672   3.830   2.730   7.193 -0.8079 -1.4498  1.2118
 7013SOL    HW232673   3.856   2.839   7.288  3.0983  1.5202 -0.0432
 7014SOL     OW32674   0.889   0.307   3.154 -0.0168 -0.1322 -0.2267
 7014SOL    HW132675   0.861   0.289   3.064  1.5814 -0.8772 -0.5776
 7014SOL    HW232676   0.894   0.401   3.172 -2.5541 -0.0508  0.0607
 7015SOL     OW32677   2.845   1.924   9.141  0.0551 -0.8088  0.0959
 7015SOL    HW132678   2.858   2.015   9.113 -0.5797 -0.6399  0.3476
 7015SOL    HW232679   2.926   1.907   9.189 -0.5519 -0.3133  1.3062
 7016SOL     OW32680   0.602   3.616   6.209 -0.4411  0.3505 -0.0452
 7016SOL    HW132681   0.553   3.696   6.227  1.7397  1.2875  1.6606
 7016SOL    HW232682   0.560   3.599   6.125 -0.8051  0.3586  0.1339
 7017SOL     OW32683   0.357   4.656  14.510  0.3069  0.6936 -0.4370
 7017SOL    HW132684   0.447   4.653  14.544 -1.2736 -0.5004  3.6254
 7017SOL    HW232685   0.362   4.735  14.457  0.8504  1.9195  1.4634
 7018SOL     OW32686   3.752   0.180   5.046  0.3791  0.5165 -0.1584
 7018SOL    HW132687   3.674   0.158   4.995 -1.0737  3.2754  0.8916
 7018SOL    HW232688   3.803   0.221   4.976  1.3632 -2.4286 -1.1364
 7019SOL     OW32689   1.063   4.554   1.512  0.0851 -0.5860 -0.4671
 7019SOL    HW132690   1.082   4.503   1.433  2.2152 -1.5479  0.6752
 7019SOL    HW232691   1.121   4.518   1.579 -0.2725  0.1650  0.2444
 7020SOL     OW32692   0.878   3.091   4.623  0.3618  0.0140 -0.5690
 7020SOL    HW132693   0.973   3.103   4.623  0.5883 -1.8149 -0.5029
 7020SOL    HW232694   0.881   3.009   4.671 -1.5926 -0.8973 -2.0150
 7021SOL     OW32695   1.142   1.075   1.895 -0.3767  0.1177 -0.7139
 7021SOL    HW132696   1.067   1.101   1.842 -0.8592 -2.5063 -1.3264
 7021SOL    HW232697   1.172   1.001   1.842 -1.0025  0.3772 -1.4259
 7022SOL     OW32698   2.797   4.157   7.606 -0.2976  0.0417 -0.1141
 7022SOL    HW132699   2.858   4.119   7.544 -0.8484  0.9961 -1.2408
 7022SOL    HW232700   2.772   4.241   7.565  1.5837 -0.4333 -2.2239
 7023SOL     OW32701   1.516   3.703   9.455  0.6476  0.1211  0.7340
 7023SOL    HW132702   1.600   3.707   9.410  0.0128 -0.6666 -0.5029
 7023SOL    HW232703   1.543   3.635   9.517 -0.2096 -0.3416  0.5862
 7024SOL     OW32704   3.283   1.218   9.283  0.0022  0.6052 -0.7010
 7024SOL    HW132705   3.256   1.175   9.202 -0.7799 -2.9534  1.4610
 7024SOL    HW232706   3.197   1.222   9.326  0.9786 -0.9363  1.3540
 7025SOL     OW32707   2.128   4.218   1.649 -0.0157  0.3012 -0.1773
 7025SOL    HW132708   2.174   4.299   1.629 -0.9509  0.7975 -0.2811
 7025SOL    HW232709   2.103   4.232   1.740  2.5525 -0.3230  0.6325
 7026SOL     OW32710   3.808   2.250   8.652 -0.4335  0.4654  0.1482
 7026SOL    HW132711   3.871   2.187   8.616  1.9077  2.3844  0.8092
 7026SOL    HW232712   3.864   2.299   8.712 -0.8824 -0.0906  1.0170
 7027SOL     OW32713   2.084   2.646   8.233 -0.4499 -0.1302 -0.7474
 7027SOL    HW132714   2.092   2.728   8.282 -1.6296 -1.5463  1.8235
 7027SOL    HW232715   2.005   2.644   8.180  0.0124  1.1781 -1.4769
 7028SOL     OW32716   0.906   4.484   1.993  0.1339 -0.1375  0.7718
 7028SOL    HW132717   0.846   4.544   2.038  0.9478  2.9266 -2.2160
 7028SOL    HW232718   0.887   4.500   1.900 -0.8402  0.3621  1.0520
 7029SOL     OW32719   0.133   0.715   4.291  0.2817 -1.0637 -0.9624
 7029SOL    HW132720   0.052   0.742   4.246  0.1228 -0.8284 -0.5315
 7029SOL    HW232721   0.133   0.620   4.286 -0.1886 -1.0435 -1.4277
 7030SOL     OW32722   0.199   0.407   0.604  0.4217  0.2849  1.0612
 7030SOL    HW132723   0.142   0.344   0.559  0.7262 -0.4010  1.6487
 7030SOL    HW232724   0.150   0.426   0.684  0.4157  2.2654  0.5851
 7031SOL     OW32725   1.012   0.583   5.985  0.0198 -0.3693  0.6912
 7031SOL    HW132726   1.092   0.531   5.989 -0.0826 -0.4126  2.2588
 7031SOL    HW232727   1.006   0.631   6.068 -0.8511  0.6854  0.0191
 7032SOL     OW32728   3.164   4.040   4.548 -0.2645 -0.0447  0.8313
 7032SOL    HW132729   3.128   4.127   4.535  0.0379  0.3466  2.6912
 7032SOL    HW232730   3.208   4.020   4.465  0.2613  0.9099  0.8927
 7033SOL     OW32731   1.718   3.742   2.472  0.7423 -0.0879 -0.3381
 7033SOL    HW132732   1.779   3.707   2.407  0.7585  0.7358 -0.7650
 7033SOL    HW232733   1.764   3.728   2.555 -1.7272 -0.4410  0.9566
 7034SOL     OW32734   4.238   1.347   7.270  0.0848 -0.0950  0.1279
 7034SOL    HW132735   4.151   1.386   7.258  0.0358  0.1002  1.1163
 7034SOL    HW232736   4.273   1.380   7.187 -0.2197 -2.5014 -0.9398
 7035SOL     OW32737   1.324   2.853   6.377 -0.7037  0.0765 -0.2016
 7035SOL    HW132738   1.344   2.941   6.409 -0.4614 -0.2841  0.6575
 7035SOL    HW232739   1.260   2.835   6.445  0.3858 -1.6969  0.3683
 7036SOL     OW32740   0.269   4.178   8.620  0.3449 -0.2692  0.1164
 7036SOL    HW132741   0.260   4.180   8.715 -2.1081 -1.5011 -0.1130
 7036SOL    HW232742   0.242   4.088   8.604  0.8291 -0.2406 -0.9048
 7037SOL     OW32743   3.168   3.144   9.200 -0.7330  0.4059 -0.4198
 7037SOL    HW132744   3.191   3.066   9.251  0.1515  0.4204 -0.7932
 7037SOL    HW232745   3.246   3.200   9.202  0.4297 -1.1938 -0.9923
 7038SOL     OW32746   1.951   4.187   4.458  0.4772  0.2593 -0.1917
 7038SOL    HW132747   2.042   4.212   4.438  0.8601 -1.0343 -0.0900
 7038SOL    HW232748   1.968   4.093   4.454  1.1059  0.4385 -1.7024
 7039SOL     OW32749   3.532   1.325   6.726  0.0262 -0.5758  0.0381
 7039SOL    HW132750   3.477   1.326   6.804 -0.1443  1.0194 -0.0935
 7039SOL    HW232751   3.614   1.295   6.765 -1.5321 -3.3804  1.1775
 7040SOL     OW32752   0.401   3.552   1.830  0.1239 -0.3104  0.6904
 7040SOL    HW132753   0.431   3.597   1.751 -0.6968 -0.6387  0.1932
 7040SOL    HW232754   0.338   3.483   1.808 -0.7995  1.2659 -1.5787
 7041SOL     OW32755   2.330   0.316   9.513  0.5409 -0.7265  0.1569
 7041SOL    HW132756   2.353   0.259   9.586  1.7923  1.6723  1.6391
 7041SOL    HW232757   2.344   0.405   9.545  0.0671  0.1435 -2.0462
 7042SOL     OW32758   0.419   2.299   6.725  0.7200 -0.0364  0.1715
 7042SOL    HW132759   0.395   2.269   6.812  0.2574 -0.7173 -0.1887
 7042SOL    HW232760   0.514   2.290   6.716  0.9358 -0.7601  3.3488
 7043SOL     OW32761   1.635   3.617   5.457  0.0737  0.3860  0.3361
 7043SOL    HW132762   1.714   3.564   5.458 -0.3367 -0.2334 -0.5974
 7043SOL    HW232763   1.673   3.705   5.454 -1.3295  1.0902  2.7373
 7044SOL     OW32764   2.554   0.680   3.264  0.1750 -0.8269  0.4366
 7044SOL    HW132765   2.505   0.662   3.345  1.2357 -2.5160  0.7036
 7044SOL    HW232766   2.566   0.775   3.268 -0.5658 -0.7544  1.0592
 7045SOL     OW32767   3.544   2.172  10.635  0.1193 -0.3916  0.7752
 7045SOL    HW132768   3.454   2.197  10.614 -0.2559 -0.3773  2.3785
 7045SOL    HW232769   3.526   2.094  10.687  1.3864 -0.6821  0.7548
 7046SOL     OW32770   1.529   3.651   4.573 -0.1765  0.0938 -0.5731
 7046SOL    HW132771   1.498   3.581   4.517 -0.4068 -0.7326  0.5888
 7046SOL    HW232772   1.530   3.598   4.653  0.7999  1.0940  0.0843
 7047SOL     OW32773   2.604   3.059   1.400  0.1888  0.0270  0.4718
 7047SOL    HW132774   2.515   3.091   1.384  0.5060  0.9860  0.6436
 7047SOL    HW232775   2.582   2.974   1.438  1.3221 -1.3206 -1.9210
 7048SOL     OW32776   1.770   0.111   3.537  0.4897 -0.3785  0.0209
 7048SOL    HW132777   1.800   0.054   3.607 -0.3149  0.6128  1.1970
 7048SOL    HW232778   1.760   0.047   3.467  0.4770  0.4363 -0.7254
 7049SOL     OW32779   4.209   1.698   1.877 -0.3229 -0.0732 -0.0186
 7049SOL    HW132780   4.214   1.793   1.871 -0.2114 -0.0547  0.3334
 7049SOL    HW232781   4.160   1.681   1.797  0.1668 -0.9322 -0.1384
 7050SOL     OW32782   4.142   1.750  10.693  0.2915  0.2835 -0.1892
 7050SOL    HW132783   4.175   1.664  10.716  0.3588 -0.0970 -1.7101
 7050SOL    HW232784   4.058   1.715  10.663 -0.2302  1.0294  0.3727
 7051SOL     OW32785   3.429   1.626   7.641 -0.3698  0.1960  0.3765
 7051SOL    HW132786   3.465   1.688   7.704 -1.3694 -1.0229  2.1567
 7051SOL    HW232787   3.372   1.682   7.589  0.5930 -0.4276 -1.3239
 7052SOL     OW32788   3.345   0.158   3.666  0.2226 -0.3240 -0.1751
 7052SOL    HW132789   3.324   0.118   3.751  0.9890  1.2845  0.7825
 7052SOL    HW232790   3.262   0.146   3.620 -0.3328 -0.2765  0.8141
 7053SOL     OW32791   2.507   4.117  16.402 -0.1717  0.4213 -0.2793
 7053SOL    HW132792   2.471   4.174  16.470  0.3550  0.7925 -0.3083
 7053SOL    HW232793   2.602   4.127  16.414 -0.0016 -2.2042  0.5986
 7054SOL     OW32794   1.789   3.606   9.401 -0.2335  0.3765 -0.3517
 7054SOL    HW132795   1.853   3.672   9.429 -0.1791 -0.3839  1.3323
 7054SOL    HW232796   1.752   3.570   9.482 -0.9127  3.1599  0.5805
 7055SOL     OW32797   2.668   1.279   2.374  0.2024  0.3549 -0.1929
 7055SOL    HW132798   2.707   1.226   2.304 -0.1857 -1.0863  0.6679
 7055SOL    HW232799   2.743   1.337   2.387  0.8324 -0.5692  0.3690
 7056SOL     OW32800   1.820   4.513   0.413  0.0931  0.3770  0.4698
 7056SOL    HW132801   1.881   4.469   0.354  0.7399  1.3494  0.4107
 7056SOL    HW232802   1.810   4.596   0.365  0.2115 -0.2371 -0.6233
 7057SOL     OW32803   0.040   2.548   5.163 -0.0050 -0.3153 -0.0253
 7057SOL    HW132804   0.046   2.452   5.160 -0.4538 -0.3348 -0.1611
 7057SOL    HW232805   4.687   2.555   5.140  0.4400  0.0852 -1.7194
 7058SOL     OW32806   4.267   1.027  11.830  0.3201 -0.0525  0.2353
 7058SOL    HW132807   4.178   1.063  11.838  1.5575  2.9342  0.1894
 7058SOL    HW232808   4.311   1.108  11.807 -0.2542 -0.4672 -2.3583
 7059SOL     OW32809   1.626   4.245   7.069  0.3115  0.1755 -0.5251
 7059SOL    HW132810   1.598   4.213   6.983  0.9558 -1.3922 -0.1375
 7059SOL    HW232811   1.545   4.231   7.117  1.8981  0.4361  2.1825
 7060SOL     OW32812   4.075   0.594   6.513  0.3049  0.1323 -0.1403
 7060SOL    HW132813   4.131   0.669   6.535  1.2676 -1.0720  1.5192
 7060SOL    HW232814   4.126   0.524   6.553  0.6341  0.0130 -0.7757
 7061SOL     OW32815   3.253   1.218   5.626  0.2619  0.2869 -0.0609
 7061SOL    HW132816   3.305   1.296   5.607  1.2681 -0.5763 -0.7938
 7061SOL    HW232817   3.293   1.158   5.563 -0.5676  0.6397 -0.9227
 7062SOL     OW32818   3.156   0.994   8.614  0.0183 -0.3260 -0.1166
 7062SOL    HW132819   3.238   1.016   8.660 -0.1133  2.1153 -1.0325
 7062SOL    HW232820   3.099   1.070   8.625  0.2906  0.1616 -2.1491
 7063SOL     OW32821   3.038   3.717   3.128  0.2328  0.1547  0.6152
 7063SOL    HW132822   3.134   3.721   3.122  0.1011  2.1539  0.0004
 7063SOL    HW232823   3.024   3.627   3.096 -0.6404  0.9100 -1.1158
 7064SOL     OW32824   1.376   2.579   1.744 -0.1608  0.2099  0.4003
 7064SOL    HW132825   1.317   2.517   1.700  0.8796  1.7567 -3.1463
 7064SOL    HW232826   1.318   2.629   1.802 -1.2282 -2.3331  1.5096
 7065SOL     OW32827   3.896   2.433  15.376  0.5984 -0.1199 -0.3830
 7065SOL    HW132828   3.842   2.372  15.326  0.9491 -0.2009 -0.6584
 7065SOL    HW232829   3.970   2.441  15.316  3.1946 -1.9039  2.5221
 7066SOL     OW32830   2.812   1.645  14.077 -0.4016  0.5497 -0.6062
 7066SOL    HW132831   2.853   1.558  14.075 -0.0804  0.6886 -0.1100
 7066SOL    HW232832   2.768   1.648  13.992 -1.3169  1.1111 -0.1075
 7067SOL     OW32833   1.853   1.170   7.725  0.3340 -0.3610  0.0804
 7067SOL    HW132834   1.794   1.095   7.731  1.9164 -1.6945 -1.0388
 7067SOL    HW232835   1.884   1.162   7.635  1.4133  0.6129  0.3699
 7068SOL     OW32836   1.901   1.616  16.353 -0.3486 -0.4144  0.9296
 7068SOL    HW132837   1.974   1.586  16.298 -1.1332 -0.9236  0.1601
 7068SOL    HW232838   1.936   1.700  16.383 -0.4421  0.5460 -1.6915
 7069SOL     OW32839   3.193   2.218   2.222 -0.6720  0.2134  0.1170
 7069SOL    HW132840   3.286   2.211   2.201 -0.9889 -1.5136 -0.7420
 7069SOL    HW232841   3.166   2.144   2.167  1.0141 -1.9895  2.2710
 7070SOL     OW32842   2.619   1.831   9.260  0.0773  0.4767 -0.1363
 7070SOL    HW132843   2.636   1.894   9.330 -2.7509  1.0321  0.0130
 7070SOL    HW232844   2.702   1.844   9.213 -2.2304  1.1576 -3.9733
 7071SOL     OW32845   0.888   2.011   5.218  0.4691 -0.4724  0.1830
 7071SOL    HW132846   0.896   2.100   5.184  0.8166  0.3067  2.3066
 7071SOL    HW232847   0.951   2.003   5.290  0.8950 -0.3467 -0.1735
 7072SOL     OW32848   2.323   2.805  11.180 -0.4232  0.7317 -0.2114
 7072SOL    HW132849   2.383   2.856  11.126 -0.2165  1.5316  0.7921
 7072SOL    HW232850   2.372   2.820  11.261 -0.2180  2.2765 -0.6221
 7073SOL     OW32851   2.166   3.832   2.404  0.3488  0.8235  0.3651
 7073SOL    HW132852   2.108   3.767   2.365 -0.7489  0.3980  2.7630
 7073SOL    HW232853   2.221   3.860   2.331  0.2974  1.5871  0.6129
 7074SOL     OW32854   1.925   2.417   5.283 -0.4522 -0.0578 -0.3928
 7074SOL    HW132855   2.016   2.393   5.298 -0.1434  1.0462 -0.4980
 7074SOL    HW232856   1.888   2.344   5.332 -0.0348 -0.6360 -0.9473
 7075SOL     OW32857   1.733   0.534   2.509  0.1864 -0.6357 -0.1203
 7075SOL    HW132858   1.734   0.477   2.586 -3.1060 -1.3084 -0.5524
 7075SOL    HW232859   1.793   0.487   2.451  0.3187  1.2284 -1.4942
 7076SOL     OW32860   3.550   3.302   7.423 -0.4058  0.0399  0.7211
 7076SOL    HW132861   3.599   3.300   7.505  0.9213  0.1838 -0.0613
 7076SOL    HW232862   3.600   3.371   7.378 -1.9491  0.9697  0.4441
 7077SOL     OW32863   2.425   1.806  15.236  0.2790 -0.3313  0.0382
 7077SOL    HW132864   2.519   1.791  15.245  0.6109  0.3967 -2.1716
 7077SOL    HW232865   2.421   1.799  15.140  2.0929 -0.5612 -0.0188
 7078SOL     OW32866   2.400   4.121   6.293  0.2980 -0.0548  0.4582
 7078SOL    HW132867   2.486   4.160   6.275  0.3729 -0.8768 -0.9219
 7078SOL    HW232868   2.359   4.166   6.366 -3.2592 -0.4724 -1.2853
 7079SOL     OW32869   3.981   1.929  12.963  0.0987  0.9214  0.4529
 7079SOL    HW132870   3.895   1.888  12.948 -0.3135  1.7206  0.6507
 7079SOL    HW232871   4.028   1.903  12.884 -0.7877  0.8722 -0.0693
 7080SOL     OW32872   1.305   1.269  16.028  0.0286 -0.3724 -0.2273
 7080SOL    HW132873   1.362   1.345  16.028  0.9493 -1.0570 -0.4909
 7080SOL    HW232874   1.372   1.200  16.030 -2.1590 -2.4819  0.7574
 7081SOL     OW32875   4.495   1.166   2.345  0.0336  0.0666 -0.1487
 7081SOL    HW132876   4.547   1.087   2.336 -1.5774 -0.5880 -3.5762
 7081SOL    HW232877   4.455   1.170   2.258  0.0568 -2.4206 -0.2550
 7082SOL     OW32878   4.438   1.766   6.734  0.0785 -0.0328 -0.7584
 7082SOL    HW132879   4.506   1.789   6.797  0.2207  1.2624 -1.3903
 7082SOL    HW232880   4.354   1.783   6.778 -0.3971 -3.5873 -0.2778
 7083SOL     OW32881   0.544   0.274  17.196  0.7584  0.2109  0.8923
 7083SOL    HW132882   0.605   0.290  17.267  2.4175  1.6245 -0.8571
 7083SOL    HW232883   0.612   0.257  17.130  1.3407  2.0500  1.0260
 7084SOL     OW32884   1.903   3.496   5.419 -0.3058  0.3830  0.1564
 7084SOL    HW132885   1.938   3.468   5.335 -2.0373  0.4824 -0.5911
 7084SOL    HW232886   1.980   3.503   5.476  0.4431  1.0836 -0.9537
 7085SOL     OW32887   1.428   3.893   1.705 -0.0832 -0.2162  0.0319
 7085SOL    HW132888   1.499   3.873   1.767  1.1884  3.4377 -0.2859
 7085SOL    HW232889   1.478   3.901   1.624 -0.2477 -3.0471 -0.3557
 7086SOL     OW32890   1.899   3.142   7.272  0.1904 -0.5431 -0.0428
 7086SOL    HW132891   1.932   3.232   7.275  1.2966 -0.9302 -0.8982
 7086SOL    HW232892   1.837   3.140   7.345 -0.1092 -1.0968 -0.3095
 7087SOL     OW32893   3.772   3.438  11.763 -0.0853 -0.1220  0.0589
 7087SOL    HW132894   3.842   3.490  11.724 -0.0543 -0.1637  0.0585
 7087SOL    HW232895   3.739   3.500  11.828  3.6860  3.5693 -1.5252
 7088SOL     OW32896   0.181   3.014   5.525 -0.0518  0.1221  0.0995
 7088SOL    HW132897   0.124   3.049   5.593 -0.8751  1.4908 -1.3130
 7088SOL    HW232898   0.250   2.973   5.577 -0.7126 -1.2788 -0.1240
 7089SOL     OW32899   0.822   1.341   8.163  0.3704 -0.2208 -0.2174
 7089SOL    HW132900   0.851   1.251   8.175 -1.0386 -0.6353  0.0110
 7089SOL    HW232901   0.908   1.383   8.171  0.8533 -1.1822 -0.4293
 7090SOL     OW32902   1.781   0.534  13.321 -0.0790  0.1574  0.5687
 7090SOL    HW132903   1.875   0.553  13.330  0.5677 -2.2905 -1.1116
 7090SOL    HW232904   1.775   0.472  13.393  0.2036  0.6127  0.9901
 7091SOL     OW32905   0.453   1.782   5.551 -1.5635 -0.5981 -0.8348
 7091SOL    HW132906   0.381   1.837   5.581 -0.1249  0.7203  0.2291
 7091SOL    HW232907   0.417   1.756   5.466 -1.0750  0.9223 -1.5110
 7092SOL     OW32908   3.037   3.145   4.566 -0.0187  0.3647 -0.2781
 7092SOL    HW132909   3.101   3.170   4.500 -1.0438 -0.9183 -1.7741
 7092SOL    HW232910   2.999   3.233   4.570  0.7199  0.6895 -0.4346
 7093SOL     OW32911   3.534   3.331  14.870  0.1019 -0.0694 -0.4907
 7093SOL    HW132912   3.470   3.305  14.803 -3.1693  4.0229  1.0072
 7093SOL    HW232913   3.610   3.328  14.812  0.6898 -0.2074  0.2902
 7094SOL     OW32914   4.388   1.507  13.676  0.0796 -0.0301  0.0190
 7094SOL    HW132915   4.312   1.508  13.735  0.8765 -0.5910  1.0615
 7094SOL    HW232916   4.423   1.419  13.694  1.3265  0.9486  2.4928
 7095SOL     OW32917   4.660   2.662   1.113 -0.8282 -0.2059  0.3256
 7095SOL    HW132918   4.637   2.622   1.029 -1.1101  0.4499  0.0861
 7095SOL    HW232919   4.644   2.754   1.090 -0.1843 -0.6702 -2.0485
 7096SOL     OW32920   0.686   2.468   8.459  0.2048  0.1535 -0.5676
 7096SOL    HW132921   0.625   2.512   8.400  0.7345 -0.8085 -1.8278
 7096SOL    HW232922   0.756   2.533   8.462  1.2627 -0.9904 -0.5967
 7097SOL     OW32923   0.373   0.749   5.634  0.6623  0.1568  0.5429
 7097SOL    HW132924   0.342   0.689   5.702 -0.0172 -0.1542 -0.0350
 7097SOL    HW232925   0.287   0.784   5.611  1.7472  1.0458 -2.0948
 7098SOL     OW32926   0.204   2.991   4.046  0.0651 -0.0536  0.4019
 7098SOL    HW132927   0.277   2.975   4.106 -0.4924  0.3816  1.2117
 7098SOL    HW232928   0.219   2.932   3.973 -2.4509 -0.9004  0.5490
 7099SOL     OW32929   2.202   4.038   6.145 -0.3189 -0.0488  0.2307
 7099SOL    HW132930   2.227   3.981   6.072  1.3392 -0.5599  1.1827
 7099SOL    HW232931   2.288   4.069   6.175 -0.4588 -0.4381  1.0255
 7100SOL     OW32932   0.691   4.217   3.053 -0.2072 -1.2522  0.1444
 7100SOL    HW132933   0.616   4.213   2.994 -0.4897  1.8420  0.3037
 7100SOL    HW232934   0.691   4.133   3.099  1.3768 -1.1362  0.3525
 7101SOL     OW32935   1.401   1.255  13.691  0.7598 -0.5541  0.0552
 7101SOL    HW132936   1.417   1.339  13.649 -2.6467  0.2971  0.5036
 7101SOL    HW232937   1.357   1.214  13.616  0.9722  1.0923 -0.9690
 7102SOL     OW32938   4.320   1.468   1.825 -0.1560 -0.2576 -0.1190
 7102SOL    HW132939   4.370   1.432   1.898 -0.4092  1.5303  0.9115
 7102SOL    HW232940   4.292   1.557   1.847 -0.1089 -0.4060  0.5207
 7103SOL     OW32941   4.699   2.993   6.481 -0.1788 -0.1629 -0.1541
 7103SOL    HW132942   4.692   2.897   6.481  0.4938 -0.2192  0.6808
 7103SOL    HW232943   4.643   3.022   6.409  1.1337 -0.1255 -1.1675
 7104SOL     OW32944   0.736   3.173   1.296  0.1661  0.2884 -0.1014
 7104SOL    HW132945   0.800   3.208   1.234  1.6612 -0.4475  1.0076
 7104SOL    HW232946   0.739   3.080   1.275  2.6521  0.4177 -0.3808
 7105SOL     OW32947   1.970   0.295  10.896 -0.0711  0.1631  0.2345
 7105SOL    HW132948   1.914   0.252  10.831 -0.8970 -1.0789  1.7625
 7105SOL    HW232949   1.982   0.378  10.851 -0.6648  0.7937  1.2376
 7106SOL     OW32950   4.659   4.675   1.567  0.1788  0.0050  0.0201
 7106SOL    HW132951   4.685   4.618   1.495  1.3891  0.0998  0.3888
 7106SOL    HW232952   4.705   0.010   1.530  1.3536  0.4966  2.4918
 7107SOL     OW32953   1.858   1.259   4.548 -0.6229  0.7352 -0.0534
 7107SOL    HW132954   1.877   1.339   4.597 -0.5438  0.1091  0.9526
 7107SOL    HW232955   1.856   1.194   4.619 -1.7193  1.1632  0.3200
 7108SOL     OW32956   2.883   0.460   4.242 -0.0850 -0.0072  0.2495
 7108SOL    HW132957   2.910   0.550   4.224 -1.7398  0.0344 -2.0461
 7108SOL    HW232958   2.938   0.417   4.178 -0.1671 -0.5220  0.5280
 7109SOL     OW32959   1.159   4.165   6.347 -0.6699 -0.4308  0.2863
 7109SOL    HW132960   1.191   4.208   6.267 -2.1751  1.0349  0.4705
 7109SOL    HW232961   1.160   4.074   6.320 -2.2963 -0.8107  1.5734
 7110SOL     OW32962   3.478   1.320   6.438  0.2079 -0.6622 -0.1269
 7110SOL    HW132963   3.464   1.294   6.529 -0.3401 -0.6648 -0.2093
 7110SOL    HW232964   3.562   1.366   6.442 -1.1422  1.9297 -1.7422
 7111SOL     OW32965   1.839   4.692  12.417 -0.4760  0.2892  0.4558
 7111SOL    HW132966   1.772   4.632  12.449 -0.6652  0.5107  0.4698
 7111SOL    HW232967   1.920   4.641  12.413 -0.5002  0.2880 -0.1110
 7112SOL     OW32968   3.571   2.379   5.009  0.0963  0.3006  0.7236
 7112SOL    HW132969   3.503   2.440   5.036 -0.7949 -0.2451 -0.2823
 7112SOL    HW232970   3.597   2.410   4.922 -0.5918 -0.4722  0.2368
 7113SOL     OW32971   4.496   1.513   6.582 -0.1241 -0.0110 -0.0345
 7113SOL    HW132972   4.505   1.599   6.622  0.8348  0.3603 -1.0284
 7113SOL    HW232973   4.587   1.485   6.591  0.0069  0.6555  0.6892
 7114SOL     OW32974   1.561   2.221  16.652  0.3259  0.2303  0.0986
 7114SOL    HW132975   1.655   2.202  16.659  0.2081  0.8734  3.6361
 7114SOL    HW232976   1.513   2.139  16.663 -1.1538  1.1770  0.6346
 7115SOL     OW32977   2.403   0.539   8.431 -0.0338 -0.4593 -0.2508
 7115SOL    HW132978   2.394   0.520   8.338 -2.0319  1.9470 -0.5508
 7115SOL    HW232979   2.315   0.575   8.449  0.4864  0.5640  0.2486
 7116SOL     OW32980   0.322   4.401  17.611  0.5571 -0.1591 -0.5278
 7116SOL    HW132981   0.281   4.474  17.564  2.2222  1.4308  0.5046
 7116SOL    HW232982   0.413   4.419  17.589  0.8416 -0.2433  0.5968
 7117SOL     OW32983   1.340   3.068   3.552 -0.4541 -0.0976 -0.2808
 7117SOL    HW132984   1.361   3.013   3.477 -1.7263 -1.1654  0.1509
 7117SOL    HW232985   1.260   3.022   3.580  0.8568 -2.6847 -0.8208
 7118SOL     OW32986   1.823   2.889   4.825  0.0740 -0.1274  0.0750
 7118SOL    HW132987   1.768   2.886   4.904  1.7665  4.0758  1.4108
 7118SOL    HW232988   1.766   2.835   4.770  0.1068  0.2797 -0.3533
 7119SOL     OW32989   0.046   1.340   2.170  0.0044  0.0703 -0.7305
 7119SOL    HW132990   0.124   1.355   2.223 -0.7792 -0.5057  0.5751
 7119SOL    HW232991   0.041   1.246   2.152 -3.1772 -0.1172  1.2723
 7120SOL     OW32992   0.811   0.467   1.655  0.1679  0.0470  0.0388
 7120SOL    HW132993   0.855   0.419   1.585  0.8066 -0.5992  0.8780
 7120SOL    HW232994   0.746   0.519   1.607  2.3023  3.0786  0.4181
 7121SOL     OW32995   2.870   1.572   6.015  0.5637 -0.0049  0.2356
 7121SOL    HW132996   2.926   1.636   5.972 -0.3564  0.6757  0.0362
 7121SOL    HW232997   2.799   1.562   5.951  2.6958 -0.4409 -2.0380
 7122SOL     OW32998   1.030   2.942   3.304  0.5248 -0.2897  0.2874
 7122SOL    HW132999   1.049   3.033   3.327 -0.1478 -0.1737  0.3798
 7122SOL    HW233000   0.946   2.926   3.348 -0.1180  0.0503 -0.8129
 7123SOL     OW33001   4.401   1.385   7.700 -0.2547 -0.0358 -0.0187
 7123SOL    HW133002   4.416   1.411   7.609  1.9555  1.6132  0.8181
 7123SOL    HW233003   4.306   1.393   7.709 -0.4104 -1.6126 -0.3432
 7124SOL     OW33004   0.281   0.661   3.728 -0.3413  0.3060  0.0962
 7124SOL    HW133005   0.321   0.617   3.653 -2.6748 -1.9539  0.1975
 7124SOL    HW233006   0.220   0.726   3.693 -0.2598  1.0435  1.3055
 7125SOL     OW33007   0.568   0.141   6.139 -0.3563  0.7563 -0.2440
 7125SOL    HW133008   0.507   0.122   6.211 -0.8935 -0.6615 -1.0836
 7125SOL    HW233009   0.653   0.130   6.182  0.3012 -0.6653 -1.9120
 7126SOL     OW33010   3.220   3.696  13.940  0.3667 -0.2055  0.2426
 7126SOL    HW133011   3.269   3.752  13.879 -1.6520  1.7030  0.3769
 7126SOL    HW233012   3.219   3.746  14.021  2.1083  1.6044 -0.8435
 7127SOL     OW33013   4.086   3.978   3.170  0.5361 -0.1188 -0.2502
 7127SOL    HW133014   4.080   3.885   3.148  2.5281 -0.2607 -0.1983
 7127SOL    HW233015   4.175   3.988   3.136  1.2268  1.4893  2.0345
 7128SOL     OW33016   0.517   3.926   8.556 -0.1191 -0.4439  0.5762
 7128SOL    HW133017   0.527   4.021   8.550 -1.6834 -0.2052  1.8826
 7128SOL    HW233018   0.604   3.897   8.526 -0.7506  0.1005 -1.7008
 7129SOL     OW33019   1.198   4.392  11.995  0.3680  0.0961  0.4470
 7129SOL    HW133020   1.183   4.298  12.005 -1.3453  0.5239  2.0589
 7129SOL    HW233021   1.116   4.434  12.024  0.3486  1.3366 -1.4263
 7130SOL     OW33022   2.476   0.011   2.863 -0.0397 -0.1630 -0.6745
 7130SOL    HW133023   2.474   4.672   2.808 -1.1026 -0.4282 -0.2683
 7130SOL    HW233024   2.568   0.027   2.883 -0.0743  0.2012 -0.8048
 7131SOL     OW33025   3.232   0.958   3.237  0.5047 -0.3205 -0.7122
 7131SOL    HW133026   3.200   0.994   3.320 -0.0675 -3.1538  0.3110
 7131SOL    HW233027   3.217   0.867   3.265 -1.3748  0.5498  1.1136
 7132SOL     OW33028   4.338   0.539   3.896  0.1264 -0.2555 -0.1538
 7132SOL    HW133029   4.383   0.489   3.828  1.2302  0.0117  0.3968
 7132SOL    HW233030   4.284   0.588   3.834  1.7490  1.9609  0.1845
 7133SOL     OW33031   1.234   2.126  14.939 -0.6917 -0.9034  1.0118
 7133SOL    HW133032   1.251   2.190  14.870 -0.0601 -0.6702  1.3902
 7133SOL    HW233033   1.271   2.044  14.905  0.0779  0.2942 -1.0693
 7134SOL     OW33034   2.310   2.522   3.053  0.0458 -0.6724  0.0477
 7134SOL    HW133035   2.224   2.556   3.028  0.2905  0.8592  1.3031
 7134SOL    HW233036   2.339   2.489   2.968 -0.7236 -1.0481 -0.0749
 7135SOL     OW33037   4.272   3.863   4.110  0.1446  0.4700  0.5216
 7135SOL    HW133038   4.194   3.815   4.135 -1.0937  1.3452 -1.6551
 7135SOL    HW233039   4.345   3.811   4.143  0.4394 -0.9230 -2.3880
 7136SOL     OW33040   1.352   1.143   7.126 -0.2875 -0.3835  0.5163
 7136SOL    HW133041   1.359   1.189   7.042 -1.5884  0.3763  0.8281
 7136SOL    HW233042   1.367   1.053   7.097  6.0635  1.3998 -1.8125
 7137SOL     OW33043   0.737   1.894   6.736  0.0383  0.2765 -0.3527
 7137SOL    HW133044   0.785   1.816   6.708  0.6141 -0.5542  3.0075
 7137SOL    HW233045   0.656   1.901   6.685  0.8219  0.7699 -1.5359
 7138SOL     OW33046   2.287   1.910   5.227 -0.2048 -0.8233  0.3125
 7138SOL    HW133047   2.227   1.836   5.232 -1.2712  0.0790  0.7484
 7138SOL    HW233048   2.225   1.980   5.246  1.4327  0.3889  1.1692
 7139SOL     OW33049   2.923   4.206  10.218 -0.2090  0.5644  0.1490
 7139SOL    HW133050   2.914   4.266  10.292 -0.7466  2.1819 -1.2469
 7139SOL    HW233051   2.831   4.187  10.202  0.6438 -1.2250 -2.6694
 7140SOL     OW33052   3.242   0.506   3.124  0.2984  0.5274 -0.2903
 7140SOL    HW133053   3.300   0.443   3.082  1.1592 -0.5017  2.4732
 7140SOL    HW233054   3.289   0.589   3.126  1.7003 -0.2880 -0.1034
 7141SOL     OW33055   1.681   2.774   3.686 -0.2068  0.1444 -0.3269
 7141SOL    HW133056   1.607   2.790   3.744 -1.3326  0.5104 -1.8767
 7141SOL    HW233057   1.754   2.809   3.736 -2.2125  0.3218  2.4610
 7142SOL     OW33058   2.949   2.106   3.527  0.0765  0.2486  0.0120
 7142SOL    HW133059   2.943   2.131   3.619  0.8185  1.6020 -0.3119
 7142SOL    HW233060   3.019   2.167   3.502  0.3710  0.5192  1.4903
 7143SOL     OW33061   2.278   4.302   8.232 -0.2469 -0.3806 -0.4097
 7143SOL    HW133062   2.340   4.234   8.205 -0.4950 -0.2338 -1.3502
 7143SOL    HW233063   2.274   4.359   8.155 -2.5833  1.1596  0.8545
 7144SOL     OW33064   4.225   4.690   3.100  0.1152 -0.0622 -0.1563
 7144SOL    HW133065   4.166   0.025   3.086 -1.3434 -1.2506 -0.2871
 7144SOL    HW233066   4.195   4.674   3.189 -2.7031 -0.1492 -1.1265
 7145SOL     OW33067   1.769   4.652   3.335  0.2073 -0.2487  0.0363
 7145SOL    HW133068   1.840   4.601   3.374 -1.3052  0.3413  3.4714
 7145SOL    HW233069   1.707   4.580   3.318  0.0834 -0.0974 -0.1567
 7146SOL     OW33070   0.013   1.246   8.455 -0.1089 -0.3870 -0.2077
 7146SOL    HW133071   4.715   1.160   8.438  1.6160 -1.2064  0.1676
 7146SOL    HW233072   0.087   1.210   8.505 -0.0026 -0.7813 -0.6567
 7147SOL     OW33073   1.912   2.765   2.423 -0.2831  0.1906 -0.5728
 7147SOL    HW133074   1.993   2.715   2.430 -0.5116 -0.0681  0.2774
 7147SOL    HW233075   1.862   2.694   2.383 -0.7311  1.3447 -2.0536
 7148SOL     OW33076   1.860   3.054  10.778  0.2630 -0.8602  0.1718
 7148SOL    HW133077   1.772   3.047  10.817 -0.5600  1.3686 -1.2977
 7148SOL    HW233078   1.924   3.057  10.850 -0.9576  1.7353  1.1553
 7149SOL     OW33079   4.154   1.361   7.815  0.6251  0.4833 -0.1913
 7149SOL    HW133080   4.131   1.366   7.907  0.0840 -1.8194 -0.1915
 7149SOL    HW233081   4.080   1.405   7.773 -1.0316 -0.4492  1.7878
 7150SOL     OW33082   2.746   1.143   5.325  0.4075 -0.0739 -0.9121
 7150SOL    HW133083   2.673   1.084   5.307  0.1417 -0.2246  0.6481
 7150SOL    HW233084   2.821   1.085   5.335  1.2645  1.0897 -0.4933
 7151SOL     OW33085   1.348   4.543   3.811 -0.2776 -0.0873 -0.1265
 7151SOL    HW133086   1.285   4.553   3.740  1.4124 -1.2291 -1.7902
 7151SOL    HW233087   1.374   4.631   3.838 -1.0126 -0.2974  1.2705
 7152SOL     OW33088   1.806   0.495  16.507 -0.1281  0.0858 -0.1916
 7152SOL    HW133089   1.734   0.480  16.446 -1.7105 -1.0708  1.9532
 7152SOL    HW233090   1.768   0.554  16.573 -0.0436  0.0866 -0.1439
 7153SOL     OW33091   1.149   3.225   2.251 -0.1833  0.0286  0.5974
 7153SOL    HW133092   1.217   3.259   2.309 -0.0608 -0.4718  0.7493
 7153SOL    HW233093   1.204   3.186   2.183 -0.0252 -0.3364  0.9353
 7154SOL     OW33094   1.105   3.382  10.646  0.2431  0.1480  0.1363
 7154SOL    HW133095   1.058   3.319  10.592  2.7110 -1.8727  0.3659
 7154SOL    HW233096   1.025   3.412  10.690 -0.4232  1.6502 -2.0630
 7155SOL     OW33097   0.941   3.894   9.267  0.4262  0.0157 -0.4309
 7155SOL    HW133098   0.906   3.842   9.339 -1.2360  2.4612  0.5483
 7155SOL    HW233099   1.034   3.900   9.286  1.0987 -2.3678 -3.0772
 7156SOL     OW33100   3.164   2.597   7.738 -0.1483 -0.5474  0.1646
 7156SOL    HW133101   3.207   2.667   7.689  0.2383 -1.1954 -0.4181
 7156SOL    HW233102   3.227   2.594   7.810 -0.3108  1.4893  0.3970
 7157SOL     OW33103   2.901   4.562   3.572  0.6798 -0.0687 -0.3914
 7157SOL    HW133104   2.872   4.541   3.483 -1.0174  2.3061 -0.4020
 7157SOL    HW233105   2.939   4.649   3.554 -0.6764  0.6775  0.3500
 7158SOL     OW33106   3.749   0.019   7.754 -0.3828  0.1443  0.5891
 7158SOL    HW133107   3.821   4.728   7.810 -0.7394  0.2064  1.0781
 7158SOL    HW233108   3.705   4.676   7.735  1.4051 -0.6637 -0.0801
 7159SOL     OW33109   4.647   1.279   3.814 -0.5351  0.2650 -0.1798
 7159SOL    HW133110   4.652   1.360   3.763 -0.1343  0.3599  0.0114
 7159SOL    HW233111   4.724   1.283   3.870 -0.3209  0.9249 -0.5213
 7160SOL     OW33112   0.456   0.098   5.702 -0.5180  0.0800  0.1032
 7160SOL    HW133113   0.484   0.023   5.754 -0.0635  0.9980  1.2043
 7160SOL    HW233114   0.497   0.177   5.738 -2.5299  0.8228  0.7855
 7161SOL     OW33115   2.755   0.033   2.901 -0.3985 -0.3517  0.0113
 7161SOL    HW133116   2.742   0.062   2.811  1.4161  0.7665  0.0965
 7161SOL    HW233117   2.779   0.116   2.943 -0.4614 -0.7662  0.8598
 7162SOL     OW33118   4.001   0.748   3.713  0.6617 -0.2309 -0.4312
 7162SOL    HW133119   3.987   0.823   3.770 -1.2085  0.5512 -1.8997
 7162SOL    HW233120   4.000   0.681   3.781  1.4131  1.5565  1.3182
 7163SOL     OW33121   4.164   1.380   3.122  0.1407  0.5089 -0.2016
 7163SOL    HW133122   4.161   1.352   3.213  1.4318 -0.4782 -0.4814
 7163SOL    HW233123   4.090   1.441   3.110  0.6657  1.2827  0.5050
 7164SOL     OW33124   3.378   3.545   7.135 -0.3737  0.4518  0.3639
 7164SOL    HW133125   3.413   3.547   7.224  2.0292 -2.8671 -0.4973
 7164SOL    HW233126   3.451   3.580   7.085 -1.6870  0.1676 -1.7535
 7165SOL     OW33127   3.217   4.470   1.887  0.4458 -0.1905  0.2055
 7165SOL    HW133128   3.288   4.407   1.881 -0.2773 -0.9994  0.0634
 7165SOL    HW233129   3.237   4.504   1.974 -0.0595  0.3744  0.1117
 7166SOL     OW33130   0.740   1.569  17.194 -0.0060 -0.3435  0.2095
 7166SOL    HW133131   0.763   1.575  17.102 -0.2855 -1.7527  0.0449
 7166SOL    HW233132   0.796   1.498  17.228  0.8506  0.5743  0.7412
 7167SOL     OW33133   3.479   4.262   9.237  0.3433  0.0856  0.1954
 7167SOL    HW133134   3.465   4.340   9.184  1.5285  0.1304 -0.0458
 7167SOL    HW233135   3.405   4.206   9.214 -0.0773  0.9686 -0.6078
 7168SOL     OW33136   0.206   2.994  11.742 -0.5257  0.1585  0.4554
 7168SOL    HW133137   0.271   2.994  11.813 -0.5268 -0.1813  0.4561
 7168SOL    HW233138   0.127   2.962  11.784 -0.9185 -1.3087 -1.3756
 7169SOL     OW33139   3.153   2.640   5.508  0.1074 -0.0912  0.1606
 7169SOL    HW133140   3.175   2.732   5.491 -2.5358  0.1613 -1.9810
 7169SOL    HW233141   3.058   2.641   5.516 -0.1322 -1.0005 -2.7857
 7170SOL     OW33142   0.893   3.236   8.664  0.1506  0.2541  0.0538
 7170SOL    HW133143   0.881   3.292   8.742 -0.9362 -0.7102  0.5694
 7170SOL    HW233144   0.809   3.247   8.620 -0.4577 -0.2195  1.0992
 7171SOL     OW33145   1.111   2.147   2.295 -0.3131  0.0058  0.3336
 7171SOL    HW133146   1.108   2.122   2.388  2.2364 -1.1143  0.1207
 7171SOL    HW233147   1.032   2.200   2.286 -1.4037 -1.2337  2.5773
 7172SOL     OW33148   4.325   4.513  14.979  0.0646 -0.3759  0.0784
 7172SOL    HW133149   4.299   4.422  14.988  1.1315 -0.6339  0.5540
 7172SOL    HW233150   4.419   4.507  14.997 -0.1271 -0.9967  0.8357
 7173SOL     OW33151   1.816   0.387  16.165  0.2700  0.2664 -0.2606
 7173SOL    HW133152   1.860   0.366  16.083 -0.0748  1.0170 -0.6356
 7173SOL    HW233153   1.887   0.430  16.212 -0.4432  1.9247 -0.6784
 7174SOL     OW33154   0.756   2.347   2.664  0.2292  0.3883  0.2301
 7174SOL    HW133155   0.818   2.401   2.713  0.6652  0.8598 -0.8461
 7174SOL    HW233156   0.718   2.304   2.741  1.7253  0.0605  0.7941
 7175SOL     OW33157   1.646   1.279   4.005 -0.0753  0.3763 -0.1609
 7175SOL    HW133158   1.702   1.214   4.047  0.2063  0.7399  0.0274
 7175SOL    HW233159   1.709   1.321   3.946  1.3688 -0.0791  1.0579
 7176SOL     OW33160   1.229   1.276   2.925 -0.1138 -0.3242 -0.7773
 7176SOL    HW133161   1.307   1.323   2.897 -0.1313  0.6235  0.7509
 7176SOL    HW233162   1.268   1.189   2.925  0.3763 -0.1034 -0.0020
 7177SOL     OW33163   1.314   4.506   7.499 -0.1709  0.0275 -0.6578
 7177SOL    HW133164   1.309   4.589   7.452  1.3669  0.4584 -0.0825
 7177SOL    HW233165   1.405   4.482   7.479  0.0863 -1.5301  2.4080
 7178SOL     OW33166   1.555   1.575   2.647  0.0473  0.1682  0.1937
 7178SOL    HW133167   1.645   1.605   2.654 -0.0054  0.2304  0.6231
 7178SOL    HW233168   1.517   1.614   2.569 -0.4877 -2.5320 -0.9181
 7179SOL     OW33169   1.219   0.389   6.879 -0.3446  0.2335 -0.1361
 7179SOL    HW133170   1.160   0.460   6.904  0.7402  0.8906  0.5655
 7179SOL    HW233171   1.167   0.309   6.885  1.2759 -0.6851  1.4580
 7180SOL     OW33172   4.142   4.619   7.981 -0.6159 -0.4373  0.3831
 7180SOL    HW133173   4.054   4.655   7.973 -0.4031  0.3553  1.5900
 7180SOL    HW233174   4.196   4.693   7.953 -2.5411 -0.9128 -4.5668
 7181SOL     OW33175   2.213   4.093   8.723  0.7636  0.0348  0.0813
 7181SOL    HW133176   2.180   4.180   8.700 -0.1407 -0.1993  0.5231
 7181SOL    HW233177   2.263   4.114   8.802  0.2429 -1.4956  0.7984
 7182SOL     OW33178   2.445   0.647   6.785  0.0125 -0.0576 -0.2479
 7182SOL    HW133179   2.473   0.735   6.809 -1.8580  0.4162  0.1561
 7182SOL    HW233180   2.360   0.671   6.750  0.8111  3.5575  0.3551
 7183SOL     OW33181   1.026   3.140   5.767 -0.0760 -0.0008 -0.1581
 7183SOL    HW133182   0.947   3.194   5.759 -0.7698 -1.0095 -0.0230
 7183SOL    HW233183   1.048   3.156   5.858  2.2247  0.8798 -0.8530
 7184SOL     OW33184   4.026   0.545   9.553 -0.3839  0.5816  0.4137
 7184SOL    HW133185   4.026   0.627   9.503 -2.8195 -0.2156 -0.9258
 7184SOL    HW233186   3.995   0.574   9.639 -2.7755  3.1994 -1.2882
 7185SOL     OW33187   1.646   0.982   2.742  0.0382 -0.3225  0.7251
 7185SOL    HW133188   1.598   0.904   2.768  1.5341 -2.2074 -2.1621
 7185SOL    HW233189   1.703   0.947   2.673 -0.2998  2.5878 -1.0123
 7186SOL     OW33190   1.935   4.052   2.357 -0.2461 -0.1684 -0.0886
 7186SOL    HW133191   1.895   3.992   2.293 -1.4423  0.1927  0.3268
 7186SOL    HW233192   2.006   4.000   2.395  0.7893  0.1101 -1.6440
 7187SOL     OW33193   3.211   3.662   9.198  0.6232  0.4108  0.3278
 7187SOL    HW133194   3.248   3.731   9.142  0.5223 -0.8873 -1.3124
 7187SOL    HW233195   3.235   3.583   9.150  2.2897  0.9390  0.3152
 7188SOL     OW33196   3.915   4.566   9.328  0.8143 -0.0603 -0.1821
 7188SOL    HW133197   3.992   4.536   9.280  0.7035  1.6403 -1.4236
 7188SOL    HW233198   3.918   4.519   9.411  1.3265  0.2323 -0.0401
 7189SOL     OW33199   0.007   0.603   4.687 -0.0666 -0.0488  0.0637
 7189SOL    HW133200   0.034   0.678   4.634  1.6677 -1.0942 -0.5557
 7189SOL    HW233201   0.023   0.534   4.623  1.0219  0.0030  0.2840
 7190SOL     OW33202   3.208   3.633   9.476  0.8381 -0.4893  0.3578
 7190SOL    HW133203   3.206   3.683   9.394  1.9203  0.9463  1.2051
 7190SOL    HW233204   3.218   3.547   9.436 -1.4677 -0.3462 -0.5711
 7191SOL     OW33205   1.453   4.315  11.891  0.0793  0.9169  0.3986
 7191SOL    HW133206   1.445   4.343  11.799 -1.8749  0.9424  0.5778
 7191SOL    HW233207   1.372   4.346  11.930 -0.5057  1.5683 -1.3066
 7192SOL     OW33208   1.430   2.515  13.882 -0.0868  0.4110  0.5127
 7192SOL    HW133209   1.370   2.516  13.808 -1.6097 -0.4229  1.7383
 7192SOL    HW233210   1.397   2.444  13.938 -0.1979  0.6150  0.7094
 7193SOL     OW33211   1.507   0.701   3.834 -0.0137  0.0433 -0.8037
 7193SOL    HW133212   1.425   0.684   3.787 -0.4539 -0.0451 -0.0028
 7193SOL    HW233213   1.559   0.714   3.755  0.1646  3.7640 -0.0467
 7194SOL     OW33214   1.223   1.535   5.223 -0.6043 -0.0626 -0.3390
 7194SOL    HW133215   1.248   1.523   5.132 -0.2948 -0.3413 -0.2194
 7194SOL    HW233216   1.208   1.447   5.257  2.1432 -0.3711  0.1262
 7195SOL     OW33217   3.227   0.611   8.451  0.7428 -0.4832  0.5081
 7195SOL    HW133218   3.193   0.694   8.419 -0.8963 -1.5989 -0.6518
 7195SOL    HW233219   3.319   0.614   8.425  0.7342 -1.6459  0.3507
 7196SOL     OW33220   2.910   2.106   2.869 -0.1074  0.1226  0.0819
 7196SOL    HW133221   2.944   2.089   2.957 -3.1132  0.3216  1.2776
 7196SOL    HW233222   2.825   2.143   2.891 -1.2510 -1.6621 -1.3015
 7197SOL     OW33223   1.242   1.862   6.404  0.2413 -0.5340  0.0334
 7197SOL    HW133224   1.323   1.822   6.435 -0.3826 -2.0237 -0.2474
 7197SOL    HW233225   1.256   1.953   6.430 -1.1780 -0.5620  0.8733
 7198SOL     OW33226   0.795   4.563   5.565  0.4837 -0.0856  0.0434
 7198SOL    HW133227   0.797   4.604   5.479  1.2011 -0.4795 -0.1247
 7198SOL    HW233228   0.715   4.512   5.550 -0.2614  0.9015  0.5834
 7199SOL     OW33229   2.546   2.806  12.170 -0.0484 -0.5872 -0.0199
 7199SOL    HW133230   2.471   2.864  12.162 -0.1876 -0.7160  0.3497
 7199SOL    HW233231   2.530   2.767  12.084 -1.4760  1.4923 -0.6898
 7200SOL     OW33232   3.321   1.936   0.555  0.2678  0.2309 -0.0819
 7200SOL    HW133233   3.313   1.893   0.470 -2.3590  0.7380 -0.0910
 7200SOL    HW233234   3.416   1.927   0.564 -0.1353 -3.2533  0.4597
 7201SOL     OW33235   2.643   3.131   5.094 -0.6812  0.4009 -0.1058
 7201SOL    HW133236   2.648   3.154   5.187  0.7966 -1.6609  0.3130
 7201SOL    HW233237   2.726   3.172   5.071  1.3183 -1.9119  3.1034
 7202SOL     OW33238   0.022   1.159   4.118  0.2421 -0.1233  0.0545
 7202SOL    HW133239   0.057   1.184   4.203  1.0799 -1.2626  0.0439
 7202SOL    HW233240   0.087   1.093   4.093 -0.2089 -1.0422  1.2759
 7203SOL     OW33241   0.654   3.331   8.560  0.7077  0.2512  0.9850
 7203SOL    HW133242   0.563   3.304   8.574  0.4717  0.9201  0.7510
 7203SOL    HW233243   0.647   3.416   8.604 -1.1813  0.3745  0.4580
 7204SOL     OW33244   2.027   1.392   6.246 -0.1791  0.4736  0.9779
 7204SOL    HW133245   2.061   1.461   6.189 -0.3312 -0.7827 -0.6097
 7204SOL    HW233246   1.979   1.336   6.185  1.3900 -2.3229  2.3257
 7205SOL     OW33247   4.149   1.387  11.412  0.1736 -0.8484  0.1489
 7205SOL    HW133248   4.227   1.423  11.454 -0.1013 -0.7875  0.6034
 7205SOL    HW233249   4.184   1.311  11.366  0.9028 -0.0423 -0.6332
 7206SOL     OW33250   1.323   3.861   5.560  1.0508  0.2532 -0.3386
 7206SOL    HW133251   1.329   3.766   5.571  0.0136  0.0795 -1.3206
 7206SOL    HW233252   1.375   3.868   5.480  0.3516 -0.7999 -0.8701
 7207SOL     OW33253   0.546   1.539  14.866 -0.6933  0.3785 -0.7938
 7207SOL    HW133254   0.467   1.592  14.855 -0.7109  0.6783  0.7513
 7207SOL    HW233255   0.600   1.611  14.901 -1.4203  0.4004  0.2736
 7208SOL     OW33256   2.477   1.400   2.541 -0.0590  0.2706 -0.3504
 7208SOL    HW133257   2.514   1.392   2.630 -1.6239  1.1508  0.3729
 7208SOL    HW233258   2.551   1.363   2.492 -1.4384 -0.4351 -1.8772
 7209SOL     OW33259   2.534   2.950   8.200  0.6690  0.3563  0.1539
 7209SOL    HW133260   2.603   2.907   8.150 -0.0224 -1.6711  0.9172
 7209SOL    HW233261   2.520   2.900   8.281 -2.6760 -0.9105 -1.1766
 7210SOL     OW33262   3.690   2.716   7.043  0.3867 -0.0950  0.2277
 7210SOL    HW133263   3.714   2.798   6.999 -3.6143  1.6819  1.3459
 7210SOL    HW233264   3.598   2.741   7.044  0.9711  2.0473  1.3650
 7211SOL     OW33265   2.133   2.922   4.183 -0.1984  0.5817 -0.5872
 7211SOL    HW133266   2.139   2.881   4.097  0.4529  0.1990 -0.3670
 7211SOL    HW233267   2.162   2.863   4.253 -2.1222 -0.8383 -1.0152
 7212SOL     OW33268   1.438   2.232   2.562 -0.1740  0.0468  0.8067
 7212SOL    HW133269   1.384   2.166   2.605 -2.1817  1.5210  0.5516
 7212SOL    HW233270   1.415   2.218   2.470  1.1681 -0.0974  0.4794
 7213SOL     OW33271   4.485   1.514  10.952 -0.0402 -0.0445 -0.0359
 7213SOL    HW133272   4.486   1.600  10.910  1.0434  0.6377  1.3857
 7213SOL    HW233273   4.394   1.501  10.978 -0.4012  0.1239 -1.2143
 7214SOL     OW33274   2.237   0.038   1.356  0.5523  0.4868 -0.5276
 7214SOL    HW133275   2.197   4.700   1.318  1.6204  0.5789 -1.8309
 7214SOL    HW233276   2.242   0.015   1.449 -1.0716 -1.9755 -1.0729
 7215SOL     OW33277   0.639   2.132  13.021  0.0958  0.5985  0.3916
 7215SOL    HW133278   0.631   2.163  13.111 -1.4235 -1.1002  0.8255
 7215SOL    HW233279   0.565   2.176  12.980  0.3211 -0.4856 -1.1960
 7216SOL     OW33280   3.265   0.653   4.628  0.2888 -0.5234  0.4501
 7216SOL    HW133281   3.338   0.646   4.690 -1.1375  1.3500  2.3461
 7216SOL    HW233282   3.205   0.676   4.699  1.5351  1.1755  0.9579
 7217SOL     OW33283   2.797   2.660   5.599  0.1434 -0.7654  0.5404
 7217SOL    HW133284   2.838   2.745   5.614 -0.4157 -0.4933  0.5324
 7217SOL    HW233285   2.753   2.688   5.519 -0.0704 -0.2004  0.8528
 7218SOL     OW33286   1.075   2.134   8.698  0.1331 -0.6824 -0.1282
 7218SOL    HW133287   1.077   2.076   8.775  0.6499  1.1167  1.2218
 7218SOL    HW233288   1.168   2.157   8.698  0.4694 -2.0375 -0.0866
 7219SOL     OW33289   0.545   0.777   9.925  0.5204 -0.1391  0.0953
 7219SOL    HW133290   0.623   0.723   9.915 -0.0067 -0.7519 -0.6349
 7219SOL    HW233291   0.553   0.803  10.017 -0.7853  1.1873 -0.1566
 7220SOL     OW33292   2.660   2.826  17.484 -0.7049 -0.7161  0.2443
 7220SOL    HW133293   2.706   2.834  17.568  0.0639 -2.1666 -0.0411
 7220SOL    HW233294   2.734   2.832  17.423  0.1906 -0.6784  1.3170
 7221SOL     OW33295   1.809   4.230  17.264  0.5652 -0.1733  0.0287
 7221SOL    HW133296   1.745   4.220  17.335 -1.0000  0.3793 -1.3189
 7221SOL    HW233297   1.878   4.170  17.292 -0.1748  0.3472  2.9406
 7222SOL     OW33298   2.855   0.690  12.970  0.5368  0.1940  0.5238
 7222SOL    HW133299   2.812   0.752  12.911  1.7256  1.1856  0.6871
 7222SOL    HW233300   2.931   0.665  12.917 -0.4236 -1.1986 -0.1933
 7223SOL     OW33301   0.020   2.904   7.810 -0.0211  0.0458  0.5724
 7223SOL    HW133302   0.114   2.894   7.799  0.1367 -0.1031  2.0036
 7223SOL    HW233303   4.733   2.814   7.793  1.1838 -0.0597 -0.6761
 7224SOL     OW33304   0.618   2.247   9.459 -0.0667  0.6669 -0.1855
 7224SOL    HW133305   0.696   2.292   9.425 -0.5344  1.0618 -0.7351
 7224SOL    HW233306   0.561   2.319   9.484 -0.5502 -0.0191  0.6859
 7225SOL     OW33307   1.402   0.329   4.808 -0.4799 -0.1933 -0.0884
 7225SOL    HW133308   1.441   0.384   4.740  0.3217  0.6943  1.1170
 7225SOL    HW233309   1.460   0.253   4.812 -0.9950 -0.6546 -1.0724
 7226SOL     OW33310   0.115   3.490   3.936 -0.2373 -0.4070 -0.3763
 7226SOL    HW133311   0.151   3.476   3.848 -0.3966  1.0562 -0.6706
 7226SOL    HW233312   0.110   3.586   3.941  1.5860 -0.3212  0.0737
 7227SOL     OW33313   4.379   1.106   1.717  0.1334 -0.1740  0.1122
 7227SOL    HW133314   4.462   1.083   1.760 -1.2718  1.4059  3.6486
 7227SOL    HW233315   4.413   1.109   1.628 -2.1286 -2.2755 -0.7879
 7228SOL     OW33316   3.921   4.270   9.198  0.1097 -0.3554 -0.6448
 7228SOL    HW133317   3.878   4.320   9.129  0.2450 -0.4296 -0.7828
 7228SOL    HW233318   3.991   4.328   9.228  1.3708 -1.9223 -0.5428
 7229SOL     OW33319   1.889   0.192  14.407  0.0683  0.1886 -0.3124
 7229SOL    HW133320   1.823   0.123  14.419  0.3047 -0.0349 -0.2865
 7229SOL    HW233321   1.938   0.169  14.328 -0.1867  0.4787 -0.5525
 7230SOL     OW33322   4.385   1.045   9.892  0.1814 -0.2859 -0.3043
 7230SOL    HW133323   4.358   1.031   9.801  0.2197  0.6067 -0.4536
 7230SOL    HW233324   4.437   0.966   9.904  1.2024  0.3038 -0.8340
 7231SOL     OW33325   3.744   2.756   2.452 -0.2856  0.4373 -0.7688
 7231SOL    HW133326   3.652   2.748   2.428 -0.7078 -0.5995  1.1619
 7231SOL    HW233327   3.794   2.724   2.377  0.4575  2.3100 -1.0714
 7232SOL     OW33328   1.078   1.154  16.185  0.1723  0.5464 -0.3849
 7232SOL    HW133329   1.140   1.198  16.126 -0.0592  2.1861  0.5880
 7232SOL    HW233330   0.999   1.155  16.130  1.2224 -2.6586 -1.9897
 7233SOL     OW33331   4.293   1.583   5.306  0.2702  0.0402  0.0560
 7233SOL    HW133332   4.244   1.616   5.382 -0.6744  2.2180 -1.4922
 7233SOL    HW233333   4.256   1.495   5.298  0.2513  0.1731 -1.2911
 7234SOL     OW33334   0.342   2.684   7.000 -0.4791 -0.8790 -0.3723
 7234SOL    HW133335   0.429   2.702   6.963  0.6012 -0.3678  2.4209
 7234SOL    HW233336   0.331   2.593   6.974  2.2619 -1.4001  0.2880
 7235SOL     OW33337   3.252   4.061   2.039  0.3193 -0.1720  0.5364
 7235SOL    HW133338   3.312   4.134   2.022 -0.4065  0.2843 -0.0530
 7235SOL    HW233339   3.168   4.105   2.049  0.2360 -0.6035  1.7758
 7236SOL     OW33340   1.011   0.433  11.779 -0.1434 -0.4499 -0.0411
 7236SOL    HW133341   0.957   0.448  11.702 -2.3091  1.1001  1.7831
 7236SOL    HW233342   1.018   0.514  11.830 -0.0892 -1.4930  1.6306
 7237SOL     OW33343   3.824   2.754  16.601 -0.5373  0.1797 -0.2873
 7237SOL    HW133344   3.753   2.691  16.588  0.6263 -1.2426  0.1519
 7237SOL    HW233345   3.776   2.835  16.585  0.0971  0.5235 -0.4552
 7238SOL     OW33346   4.549   4.405   9.022 -0.2299  0.7376  0.5948
 7238SOL    HW133347   4.622   4.357   8.983 -0.4075  0.1583  0.9848
 7238SOL    HW233348   4.490   4.419   8.948  1.8105  1.4329 -0.9142
 7239SOL     OW33349   2.638   3.566  15.586 -1.0353 -0.3557  0.0527
 7239SOL    HW133350   2.606   3.496  15.530 -0.4303  1.1448 -2.1323
 7239SOL    HW233351   2.552   3.607  15.585 -0.9062 -0.0721  0.4882
 7240SOL     OW33352   2.234   2.880   9.267  0.1101 -0.0331  0.2321
 7240SOL    HW133353   2.241   2.860   9.361 -0.1703 -0.1657  0.2277
 7240SOL    HW233354   2.322   2.914   9.251  0.2053 -0.3823  0.0102
 7241SOL     OW33355   0.644   3.673  13.829  0.5145  0.0328  0.1656
 7241SOL    HW133356   0.738   3.689  13.818  0.1595  1.1455 -1.2651
 7241SOL    HW233357   0.624   3.670  13.736  0.9604 -0.0482  0.0761
 7242SOL     OW33358   0.238   1.782   3.724 -0.6422 -0.2086  0.0939
 7242SOL    HW133359   0.241   1.857   3.784 -3.5774  1.6126 -2.0887
 7242SOL    HW233360   0.186   1.722   3.778 -0.5346 -0.4709 -0.0934
 7243SOL     OW33361   1.729   0.489   6.037 -0.2072  0.1828 -0.0764
 7243SOL    HW133362   1.672   0.465   6.110  0.3693  0.9768  0.6342
 7243SOL    HW233363   1.817   0.490   6.076  0.6125 -4.3761 -1.8257
 7244SOL     OW33364   1.974   4.013  15.231  0.2800 -0.5689 -0.2495
 7244SOL    HW133365   2.014   4.070  15.165 -1.7740  1.4403  0.2401
 7244SOL    HW233366   2.001   4.056  15.313 -1.1953 -2.4158  1.2094
 7245SOL     OW33367   2.182   4.268   0.287 -0.0348  0.4269  0.1869
 7245SOL    HW133368   2.090   4.250   0.267  0.7508  0.6308 -3.5578
 7245SOL    HW233369   2.198   4.351   0.243  2.4716  0.3068  0.8343
 7246SOL     OW33370   4.021   4.369   8.560  0.0862 -0.2532 -0.0270
 7246SOL    HW133371   3.982   4.457   8.556  0.8220  0.1384  1.2778
 7246SOL    HW233372   3.950   4.323   8.604  0.1969 -2.6664 -2.4469
 7247SOL     OW33373   1.674   4.313   0.517 -0.2823  0.7216 -0.1420
 7247SOL    HW133374   1.631   4.288   0.436 -0.1559  0.8316 -0.2424
 7247SOL    HW233375   1.733   4.385   0.497  0.7640 -0.0313  0.2107
 7248SOL     OW33376   1.276   4.335   3.981  0.1286 -0.3171 -0.0503
 7248SOL    HW133377   1.284   4.393   3.905  3.3632 -0.2578  0.3309
 7248SOL    HW233378   1.343   4.274   3.950 -0.2882  0.6219 -2.7925
 7249SOL     OW33379   0.044   0.485   2.044 -0.1613  0.0599  0.2703
 7249SOL    HW133380   0.064   0.467   2.136  0.3764  0.5693  0.2558
 7249SOL    HW233381   0.080   0.573   2.032 -0.8890  0.0040 -2.4031
 7250SOL     OW33382   3.891   1.912   3.596  0.1920  0.0161 -0.2695
 7250SOL    HW133383   3.940   1.992   3.575  2.6217 -0.5620  3.2903
 7250SOL    HW233384   3.815   1.917   3.537  0.0989  1.3971 -0.0281
 7251SOL     OW33385   0.727   2.490   1.148 -0.1958 -0.1228  0.2860
 7251SOL    HW133386   0.652   2.497   1.207  0.8623 -1.4929  1.7829
 7251SOL    HW233387   0.785   2.433   1.197 -0.2995  0.5322  1.1592
 7252SOL     OW33388   2.477   1.718   8.250 -0.1180  0.0164  0.3132
 7252SOL    HW133389   2.463   1.803   8.210  0.6156  0.3592  0.8046
 7252SOL    HW233390   2.411   1.661   8.209 -2.0427  1.1739  1.8055
 7253SOL     OW33391   1.061   3.431   8.985  0.3256  0.3792  0.2283
 7253SOL    HW133392   1.064   3.336   8.974 -2.5644  0.4087 -0.7283
 7253SOL    HW233393   1.150   3.467   8.993  0.5637 -0.1999  0.1966
 7254SOL     OW33394   2.005   1.173   5.668 -0.2196  0.0716  0.6139
 7254SOL    HW133395   2.001   1.078   5.656 -0.4528  0.7587 -4.5691
 7254SOL    HW233396   2.083   1.191   5.614 -0.0829  1.1187  1.1543
 7255SOL     OW33397   1.371   4.272   4.542  0.0592  0.2004  0.1118
 7255SOL    HW133398   1.419   4.219   4.478  3.3680  3.1132  0.1662
 7255SOL    HW233399   1.440   4.277   4.608 -1.1199 -2.1478  1.5320
 7256SOL     OW33400   3.476   2.268  17.572 -0.1192  0.2363 -0.0127
 7256SOL    HW133401   3.552   2.325  17.583 -0.9302  1.2171  0.4954
 7256SOL    HW233402   3.407   2.317  17.528 -0.1099  0.9922  0.8254
 7257SOL     OW33403   0.062   0.446  17.442 -0.0460  0.3876  0.2968
 7257SOL    HW133404   0.044   0.426  17.533  0.1246 -0.4886  0.1308
 7257SOL    HW233405   0.080   0.364  17.397 -2.2054  0.2733 -0.3232
 7258SOL     OW33406   3.160   1.511  13.696 -0.2429  0.6343 -0.1974
 7258SOL    HW133407   3.113   1.428  13.691  1.6254 -0.5057  1.5997
 7258SOL    HW233408   3.157   1.554  13.782  0.4975 -0.2769  0.2689
 7259SOL     OW33409   1.025   1.937  10.045 -0.4558 -0.0507  0.8455
 7259SOL    HW133410   1.003   1.891  10.126  1.2501 -1.1610  0.6862
 7259SOL    HW233411   1.116   1.963  10.061 -0.3457  0.2726 -0.2600
 7260SOL     OW33412   0.929   1.616   2.621  0.1518 -0.3335  0.1301
 7260SOL    HW133413   0.961   1.527   2.612 -2.1117 -1.3027  1.7454
 7260SOL    HW233414   0.868   1.619   2.547 -0.3749  0.1683  0.5761
 7261SOL     OW33415   0.368   3.454   3.238  0.1956  0.7882  0.1523
 7261SOL    HW133416   0.339   3.363   3.239 -0.6548  1.0481 -0.6253
 7261SOL    HW233417   0.461   3.441   3.258  0.7244  2.3922 -1.2202
 7262SOL     OW33418   3.100   4.607   7.861  0.4026 -0.4168  0.0963
 7262SOL    HW133419   3.110   4.648   7.775  0.6104  1.4129  0.9977
 7262SOL    HW233420   3.026   4.548   7.846  0.4255  0.1288 -2.1849
 7263SOL     OW33421   0.418   3.807   6.778  0.0197 -0.2086  0.1521
 7263SOL    HW133422   0.414   3.712   6.786 -1.5463 -0.1385  0.1286
 7263SOL    HW233423   0.445   3.833   6.866 -0.3230 -0.4747  0.3381
 7264SOL     OW33424   3.953   1.209   9.316 -0.5095  0.8168 -1.0599
 7264SOL    HW133425   3.965   1.304   9.314  0.1997  0.7221 -1.6363
 7264SOL    HW233426   3.859   1.211   9.300 -0.5108 -1.2964 -1.2685
 7265SOL     OW33427   1.559   1.124  16.020  0.2625  0.3434 -0.1709
 7265SOL    HW133428   1.594   1.036  16.039  1.3385  1.0436  1.0720
 7265SOL    HW233429   1.591   1.134  15.930 -2.1676  1.0875 -0.9464
 7266SOL     OW33430   1.007   2.142   6.927  0.1689 -0.1117 -0.2986
 7266SOL    HW133431   0.983   2.177   7.013  0.0098  0.3329 -0.5230
 7266SOL    HW233432   1.088   2.093   6.946 -0.2608 -0.4428  0.7126
 7267SOL     OW33433   4.394   1.911   3.384  0.5958  0.0578  0.2078
 7267SOL    HW133434   4.409   1.943   3.295  0.4347 -0.1515  0.1063
 7267SOL    HW233435   4.366   1.990   3.430 -0.7614 -1.0419  1.2863
 7268SOL     OW33436   0.290   2.008   7.218  0.9718 -0.3974 -0.4046
 7268SOL    HW133437   0.367   1.951   7.223  0.9292 -0.5228 -1.2137
 7268SOL    HW233438   0.312   2.049   7.302  1.5817 -0.3354 -0.5913
 7269SOL     OW33439   2.888   2.428   7.539 -0.3273 -0.0296  0.5089
 7269SOL    HW133440   2.894   2.470   7.624 -1.4164  1.2075 -0.0212
 7269SOL    HW233441   2.971   2.447   7.495 -0.1919  0.3560  0.9354
 7270SOL     OW33442   3.063   1.801   9.265  0.3359 -0.0478  0.3416
 7270SOL    HW133443   3.019   1.751   9.333  0.9302 -1.3314 -0.2128
 7270SOL    HW233444   3.128   1.735   9.238 -0.4250 -0.4248 -0.5599
 7271SOL     OW33445   0.084   4.295   6.659 -0.4160 -0.2517 -0.5093
 7271SOL    HW133446   0.115   4.219   6.610  1.9181  1.5186 -1.8180
 7271SOL    HW233447   4.733   4.269   6.674  0.3810 -1.0855  2.8649
 7272SOL     OW33448   1.577   0.384   3.357  0.0174  0.2822  0.2036
 7272SOL    HW133449   1.634   0.362   3.284 -0.9938 -1.0046 -0.2086
 7272SOL    HW233450   1.531   0.301   3.373  2.9981 -0.9133  2.6569
 7273SOL     OW33451   2.763   2.311   6.583 -0.6687 -0.1473 -0.1898
 7273SOL    HW133452   2.742   2.355   6.665  0.8809 -1.2630  0.7940
 7273SOL    HW233453   2.839   2.256   6.599 -1.8902 -2.0979 -1.0936
 7274SOL     OW33454   4.050   2.888  10.990  0.0544  0.2437 -0.8269
 7274SOL    HW133455   3.987   2.897  11.061 -1.1447  1.9081 -2.1102
 7274SOL    HW233456   4.068   2.975  10.953  1.2729  0.2235 -0.2827
 7275SOL     OW33457   2.181   2.130   8.927  0.3445 -0.6132 -0.1904
 7275SOL    HW133458   2.249   2.196   8.943 -0.7962  0.5515 -0.1740
 7275SOL    HW233459   2.104   2.178   8.956 -0.4351 -1.0032 -1.5866
 7276SOL     OW33460   2.526   3.969   9.513  0.3493  0.3869 -0.1420
 7276SOL    HW133461   2.504   4.059   9.490  0.3684  0.9518  2.1250
 7276SOL    HW233462   2.621   3.969   9.498  0.3024 -1.6943 -0.5085
 7277SOL     OW33463   2.256   1.923   4.142 -0.1849  0.5391 -0.0097
 7277SOL    HW133464   2.340   1.878   4.151 -0.3128  0.2274 -0.3660
 7277SOL    HW233465   2.262   1.961   4.054 -0.6217  0.8879  0.1093
 7278SOL     OW33466   1.520   3.096   8.180 -0.0950  0.1926 -0.1017
 7278SOL    HW133467   1.446   3.076   8.238  1.8882 -3.0499  1.2780
 7278SOL    HW233468   1.590   3.031   8.190 -0.2411  0.0697  0.1224
 7279SOL     OW33469   1.904   0.589  15.900  0.5527  0.1603 -0.0074
 7279SOL    HW133470   1.969   0.617  15.836  0.8013 -0.2551  0.0623
 7279SOL    HW233471   1.952   0.558  15.977 -0.6210  0.1197  0.7045
 7280SOL     OW33472   0.881   0.269   1.114 -0.4466 -0.1016  0.0137
 7280SOL    HW133473   0.852   0.305   1.030 -1.4491  2.0094  1.2440
 7280SOL    HW233474   0.964   0.317   1.116 -0.1049 -0.6821 -0.3787
 7281SOL     OW33475   1.839   1.076   2.973 -0.0333 -0.0320 -0.2467
 7281SOL    HW133476   1.847   1.082   2.878 -0.8834 -1.4805 -0.4120
 7281SOL    HW233477   1.932   1.078   2.996 -0.0226 -0.7333 -0.2528
 7282SOL     OW33478   1.491   0.432  12.341  0.1912  0.1920  0.3116
 7282SOL    HW133479   1.397   0.417  12.336  0.5808 -1.2169 -2.5154
 7282SOL    HW233480   1.514   0.428  12.248  1.6217 -0.7092  0.7102
 7283SOL     OW33481   1.316   0.730   8.534 -0.0976  0.4856 -0.2103
 7283SOL    HW133482   1.354   0.689   8.456  0.3156  0.9244 -0.2384
 7283SOL    HW233483   1.354   0.667   8.596  0.0310  1.2702  0.5034
 7284SOL     OW33484   2.647   2.126   3.701  0.0875 -0.1335  0.2629
 7284SOL    HW133485   2.648   2.052   3.639 -0.4569  0.7099 -0.7493
 7284SOL    HW233486   2.611   2.201   3.653  0.5007 -0.8859 -1.2354
 7285SOL     OW33487   3.862   2.136  11.840  0.1586 -0.3062 -0.1278
 7285SOL    HW133488   3.792   2.114  11.778  1.0441  1.0496 -1.5995
 7285SOL    HW233489   3.929   2.071  11.817  0.1518 -0.1915 -0.4820
 7286SOL     OW33490   2.026   2.514   9.411  0.2721 -0.0053 -0.1505
 7286SOL    HW133491   1.952   2.534   9.467 -0.6738 -1.1727 -1.0029
 7286SOL    HW233492   1.997   2.557   9.330 -0.1188  0.2826  0.1411
 7287SOL     OW33493   1.991   1.945   8.364 -0.4728 -0.6400 -0.2227
 7287SOL    HW133494   2.014   1.998   8.288  1.8881 -0.2372  0.7869
 7287SOL    HW233495   2.072   1.897   8.373 -0.7885 -0.8439  1.4898
 7288SOL     OW33496   0.178   3.773   5.605  0.2603  0.1001  0.3457
 7288SOL    HW133497   0.238   3.699   5.596 -0.5845 -0.4776 -0.6023
 7288SOL    HW233498   0.095   3.738   5.573 -0.5370  0.3208  2.2013
 7289SOL     OW33499   0.163   2.830  13.224  0.1449  0.0528  0.0868
 7289SOL    HW133500   0.239   2.772  13.225 -0.2090 -0.3843  2.1724
 7289SOL    HW233501   0.090   2.774  13.250  0.4618 -0.4609 -0.1312
 7290SOL     OW33502   1.153   0.423   2.079 -0.1407  0.5407 -0.1899
 7290SOL    HW133503   1.116   0.506   2.051 -3.2206 -0.5057  0.7720
 7290SOL    HW233504   1.237   0.444   2.120  1.4120 -2.4524 -1.8480
 7291SOL     OW33505   2.768   2.626   4.338 -0.5899  0.2196  0.4373
 7291SOL    HW133506   2.781   2.632   4.433  0.1121  0.9586  0.3000
 7291SOL    HW233507   2.749   2.717   4.313  0.8473  0.5016  0.3483
 7292SOL     OW33508   4.184   3.058   3.021  0.3240 -0.1905 -1.1386
 7292SOL    HW133509   4.194   3.047   2.927  0.3170  2.0123 -1.3881
 7292SOL    HW233510   4.213   2.971   3.049 -0.7433  0.8009  3.0204
 7293SOL     OW33511   1.665   3.931  17.747 -0.0002 -0.4901 -0.5635
 7293SOL    HW133512   1.751   3.915  17.708  0.4174 -0.7700  0.4716
 7293SOL    HW233513   1.673   3.869   0.064 -1.6298 -1.2152 -0.9899
 7294SOL     OW33514   4.034   1.158   2.256  0.0414 -0.1448 -0.1402
 7294SOL    HW133515   4.128   1.170   2.248 -0.4556  3.1028 -1.1392
 7294SOL    HW233516   4.023   1.097   2.184  2.1925  0.3962 -0.9156
 7295SOL     OW33517   0.123   4.337  10.457 -0.8426  0.0000  0.1679
 7295SOL    HW133518   0.064   4.410  10.472 -0.2977  0.3930  0.3879
 7295SOL    HW233519   0.079   4.280  10.521 -2.1085  2.9006  1.8671
 7296SOL     OW33520   0.820   0.131   3.870 -0.4766  0.2111 -0.9344
 7296SOL    HW133521   0.838   0.225   3.869 -0.0815  0.1342 -1.0193
 7296SOL    HW233522   0.906   0.102   3.899 -0.4692  0.4543 -0.7079
 7297SOL     OW33523   1.591   0.276  14.498 -0.2552 -0.0689  0.2707
 7297SOL    HW133524   1.674   0.248  14.459  0.8557  1.6225  1.4520
 7297SOL    HW233525   1.520   0.227  14.455  1.6098 -2.0060 -0.5677
 7298SOL     OW33526   3.289   0.571   4.337 -0.3033  0.2025 -1.2138
 7298SOL    HW133527   3.378   0.607   4.339  0.1909 -1.2408  3.1103
 7298SOL    HW233528   3.269   0.573   4.431 -0.6099 -0.2743 -1.2706
 7299SOL     OW33529   1.317   1.217   6.435 -0.3113  0.4796  0.1416
 7299SOL    HW133530   1.385   1.271   6.394  0.9073 -1.1575 -0.0153
 7299SOL    HW233531   1.371   1.183   6.506 -1.2547  1.0317  1.1126
 7300SOL     OW33532   0.467   4.122   0.974  0.2970 -0.1169 -0.3036
 7300SOL    HW133533   0.436   4.052   0.917 -2.5770  1.6753 -0.9200
 7300SOL    HW233534   0.540   4.154   0.922  0.5845 -2.7418 -1.5399
 7301SOL     OW33535   4.422   3.351   4.514  0.1215 -0.6385 -0.0375
 7301SOL    HW133536   4.510   3.335   4.478  0.7385  0.8417  0.8175
 7301SOL    HW233537   4.401   3.274   4.567 -1.1166 -0.0366  0.3366
 7302SOL     OW33538   3.251   0.477   7.756  0.0793 -0.3310 -0.8336
 7302SOL    HW133539   3.229   0.409   7.819  0.2544 -0.8701 -1.3523
 7302SOL    HW233540   3.167   0.500   7.717 -0.5667 -1.0953  0.0966
 7303SOL     OW33541   3.448   2.269   6.612 -0.1203 -0.4244 -0.3033
 7303SOL    HW133542   3.461   2.266   6.517 -0.8687  0.7455 -0.4482
 7303SOL    HW233543   3.423   2.178   6.630 -0.6983 -0.2575 -0.2498
 7304SOL     OW33544   3.384   2.545   5.444  0.6618 -0.1342  0.4537
 7304SOL    HW133545   3.415   2.633   5.422 -1.0555  0.2856 -0.2572
 7304SOL    HW233546   3.292   2.566   5.460  0.4009 -0.8782 -0.1038
 7305SOL     OW33547   2.670   3.447   7.040  0.7748 -0.3444 -0.1692
 7305SOL    HW133548   2.625   3.531   7.030 -0.1153 -0.6826  1.0058
 7305SOL    HW233549   2.723   3.459   7.119  0.3587  0.6747 -0.0486
 7306SOL     OW33550   1.339   2.397   3.511  0.4369  0.1077 -0.0793
 7306SOL    HW133551   1.365   2.310   3.482  1.6132  0.6636 -0.6714
 7306SOL    HW233552   1.413   2.445   3.475  0.6020  0.6111  0.9241
 7307SOL     OW33553   0.451   1.640   6.750 -0.2379 -0.1735  0.6465
 7307SOL    HW133554   0.511   1.710   6.726 -0.7582  0.6315  1.6479
 7307SOL    HW233555   0.391   1.693   6.803  0.2472 -0.2128  1.2378
 7308SOL     OW33556   3.038   1.938   6.388  0.1304  0.3527  0.0767
 7308SOL    HW133557   3.103   1.900   6.448  1.0904 -0.6799 -1.6045
 7308SOL    HW233558   3.090   2.016   6.369 -0.8088  1.4022  1.8810
 7309SOL     OW33559   2.277   3.395   6.280  0.4904  0.2556 -0.3313
 7309SOL    HW133560   2.233   3.405   6.196 -1.3886 -0.4859  0.5474
 7309SOL    HW233561   2.244   3.310   6.308  2.6434 -0.4520  0.0032
 7310SOL     OW33562   1.019   2.894   6.471 -0.5786 -0.3356  0.2403
 7310SOL    HW133563   0.948   2.957   6.483  0.1045  0.2634  1.1588
 7310SOL    HW233564   0.966   2.818   6.448 -1.9601  1.7312 -3.2610
 7311SOL     OW33565   1.667   0.996   4.586 -0.3355 -0.2049 -0.0132
 7311SOL    HW133566   1.658   0.904   4.612 -2.5146 -0.6241 -2.3214
 7311SOL    HW233567   1.670   1.047   4.667  2.1751  2.3153 -1.6751
 7312SOL     OW33568   0.984   3.424   8.486  0.1653 -0.1891  0.1229
 7312SOL    HW133569   0.961   3.362   8.555 -1.7699  0.3243 -0.0588
 7312SOL    HW233570   1.010   3.493   8.547 -3.2376  0.7071  0.5453
 7313SOL     OW33571   1.750   1.690  11.305 -0.5871 -0.4892  0.0862
 7313SOL    HW133572   1.837   1.694  11.345 -0.9864 -1.1305  1.0141
 7313SOL    HW233573   1.740   1.772  11.256  0.5838  2.3555  4.5890
 7314SOL     OW33574   1.677   2.258  17.547  0.2313 -0.2449 -0.1885
 7314SOL    HW133575   1.705   2.167  17.540  2.0932  0.5344 -2.8679
 7314SOL    HW233576   1.678   2.276  17.453  0.1636  2.3589  0.3022
 7315SOL     OW33577   3.000   3.164   8.983 -0.2276 -1.0363  0.3930
 7315SOL    HW133578   2.905   3.158   8.978 -0.2626  0.0463 -0.3278
 7315SOL    HW233579   3.037   3.143   9.069 -2.6593 -0.8034  1.4934
 7316SOL     OW33580   0.779   3.758   8.091  0.1051  0.2030 -0.1536
 7316SOL    HW133581   0.793   3.849   8.116 -2.7650  1.3759 -2.7154
 7316SOL    HW233582   0.804   3.715   8.173 -0.2585  1.9350  0.8690
 7317SOL     OW33583   1.844   0.686  16.946  0.0995  0.3260  0.7993
 7317SOL    HW133584   1.839   0.591  16.929  3.2686  0.5979 -1.6715
 7317SOL    HW233585   1.761   0.705  16.989  0.1699  3.0209 -0.2538
 7318SOL     OW33586   1.673   3.326   3.116  0.0602  0.8800  0.0807
 7318SOL    HW133587   1.588   3.369   3.102 -0.3617 -0.0549 -0.2385
 7318SOL    HW233588   1.666   3.307   3.209  1.4882  2.4669  0.5037
 7319SOL     OW33589   4.297   0.058   3.843  0.0917 -0.4494 -0.4049
 7319SOL    HW133590   4.330   0.011   3.767  0.6781 -0.1931 -0.3059
 7319SOL    HW233591   4.302   4.727   3.907  1.6998 -0.5029 -0.5922
 7320SOL     OW33592   0.854   3.750  17.405  0.1571  0.4569  0.0630
 7320SOL    HW133593   0.833   3.843  17.412 -2.8051 -0.0827 -1.6476
 7320SOL    HW233594   0.935   3.751  17.356  0.7757  1.8037  1.1185
 7321SOL     OW33595   1.081   4.524   8.512 -0.0313 -0.4041 -0.0762
 7321SOL    HW133596   1.099   4.437   8.475  3.9082  1.0254 -1.4633
 7321SOL    HW233597   1.005   4.504   8.567  0.6011  1.3609  1.4370
 7322SOL     OW33598   1.443   4.196   7.246  0.1949  0.5016 -0.0469
 7322SOL    HW133599   1.367   4.139   7.240 -0.6497  1.5353  1.1147
 7322SOL    HW233600   1.404   4.278   7.273 -2.1062 -1.5905  2.9233
 7323SOL     OW33601   1.227   4.435   3.114  0.2993  0.1514  0.4429
 7323SOL    HW133602   1.176   4.454   3.036 -2.0666 -0.0899  1.9299
 7323SOL    HW233603   1.204   4.346   3.139  0.2739  0.0811  0.1616
 7324SOL     OW33604   1.808   1.343   5.612  0.3978  0.4308  0.4003
 7324SOL    HW133605   1.776   1.339   5.702 -1.4965  0.5425 -0.2819
 7324SOL    HW233606   1.886   1.287   5.620  0.7000  0.8419  0.3531
 7325SOL     OW33607   1.799   3.671  12.224  0.6542 -0.1848  0.2024
 7325SOL    HW133608   1.891   3.680  12.252  0.9494 -0.8456 -0.5609
 7325SOL    HW233609   1.771   3.761  12.208  0.1116 -0.1486  1.3386
 7326SOL     OW33610   3.280   4.013   3.854 -0.1333 -1.4400 -0.0735
 7326SOL    HW133611   3.210   3.949   3.868 -1.4602 -0.1734 -0.9443
 7326SOL    HW233612   3.280   4.033   3.760 -1.3124  1.6310  0.5734
 7327SOL     OW33613   3.249   0.782   9.359  0.0681 -0.2585 -0.0672
 7327SOL    HW133614   3.247   0.862   9.308 -0.3112 -1.1169 -1.4060
 7327SOL    HW233615   3.232   0.718   9.289 -2.9826  0.3717  0.1071
 7328SOL     OW33616   0.424   3.847   8.305  0.7565 -0.3691  0.0840
 7328SOL    HW133617   0.422   3.849   8.400 -0.4728  1.8138  0.0143
 7328SOL    HW233618   0.497   3.791   8.280  0.9805 -0.4966  1.0471
 7329SOL     OW33619   1.781   3.100   7.528  0.1531  0.3013 -0.0311
 7329SOL    HW133620   1.687   3.086   7.530  0.4089 -1.1786  2.2113
 7329SOL    HW233621   1.794   3.087   7.622 -0.3665  2.0965  0.2881
 7330SOL     OW33622   4.377   1.704   4.371  0.5099  0.7067  0.0365
 7330SOL    HW133623   4.335   1.764   4.432 -2.5180  0.6065 -1.9168
 7330SOL    HW233624   4.471   1.710   4.388  0.6869 -0.7953 -0.3988
 7331SOL     OW33625   0.599   1.436  15.656 -0.2268 -0.5912  0.1731
 7331SOL    HW133626   0.673   1.402  15.606 -1.2525  0.0799 -1.8496
 7331SOL    HW233627   0.554   1.483  15.586 -0.1914 -0.3252  0.3293
 7332SOL     OW33628   3.445   0.865   5.626  0.3355 -0.3460 -0.3603
 7332SOL    HW133629   3.418   0.911   5.547 -1.2666 -2.7746 -1.2060
 7332SOL    HW233630   3.439   0.774   5.598  1.3275 -0.3690 -0.5261
 7333SOL     OW33631   2.664   2.337   7.475 -0.5048 -0.1189  0.1170
 7333SOL    HW133632   2.743   2.388   7.490 -0.2315 -0.1599 -1.1808
 7333SOL    HW233633   2.656   2.342   7.380  0.0316 -1.3649  0.0080
 7334SOL     OW33634   3.760   4.056   6.802 -0.1589  0.1808  0.5844
 7334SOL    HW133635   3.849   4.027   6.823 -0.2269 -0.6932 -0.3180
 7334SOL    HW233636   3.719   4.006   6.873  1.4466  0.2776  1.5865
 7335SOL     OW33637   2.786   2.783   6.509  0.2859 -0.3525 -0.0339
 7335SOL    HW133638   2.812   2.872   6.486  0.2489 -0.1562  0.6750
 7335SOL    HW233639   2.803   2.774   6.603  1.6049  0.2526 -0.2051
 7336SOL     OW33640   2.324   1.835   7.044 -0.3211 -0.1007 -0.2063
 7336SOL    HW133641   2.387   1.823   7.115 -0.5266  0.0956  0.0107
 7336SOL    HW233642   2.265   1.896   7.089  1.6702  2.3360 -0.9271
 7337SOL     OW33643   4.105   0.734   2.033  1.4363  0.1250 -0.1066
 7337SOL    HW133644   4.068   0.818   2.061 -0.6202 -0.8739  0.1968
 7337SOL    HW233645   4.182   0.765   1.987  1.3946 -0.0773 -0.3095
 7338SOL     OW33646   3.428   1.150   7.754  0.0596 -0.1294 -0.0215
 7338SOL    HW133647   3.426   1.092   7.679  0.2531  1.6555 -1.3973
 7338SOL    HW233648   3.514   1.189   7.738  0.1675 -0.4599 -0.2484
 7339SOL     OW33649   3.558   1.287  17.287 -0.0673 -0.2093 -0.1692
 7339SOL    HW133650   3.625   1.311  17.222  1.4279 -0.8100  1.1555
 7339SOL    HW233651   3.475   1.299  17.242 -1.4472 -0.8391  2.2308
 7340SOL     OW33652   3.508   1.133  13.045  0.4659 -0.5781  0.4653
 7340SOL    HW133653   3.475   1.222  13.038  1.4283 -0.4337 -1.9634
 7340SOL    HW233654   3.595   1.146  13.082  0.9438 -0.3596 -0.7410
 7341SOL     OW33655   3.872   3.534   9.175  0.5778 -0.3764 -0.4048
 7341SOL    HW133656   3.901   3.587   9.101  2.5025 -1.1332 -0.2078
 7341SOL    HW233657   3.815   3.594   9.224  2.4952  1.5225 -0.4777
 7342SOL     OW33658   3.914   2.913  11.247  0.1849 -0.3567  0.2915
 7342SOL    HW133659   3.836   2.891  11.299 -1.1575  1.3125 -1.0174
 7342SOL    HW233660   3.985   2.895  11.309  2.6384  1.7287 -1.9293
 7343SOL     OW33661   3.183   2.944  12.190 -0.6585 -0.5204  0.1694
 7343SOL    HW133662   3.216   2.984  12.271  1.1915  1.1376 -1.3950
 7343SOL    HW233663   3.146   3.022  12.148 -0.1145 -2.4132 -3.7831
 7344SOL     OW33664   4.627   1.842   8.773  0.3137  0.0793 -0.3922
 7344SOL    HW133665   4.620   1.918   8.831  0.2998  0.3790 -0.7912
 7344SOL    HW233666   4.674   1.783   8.832  2.3414  1.3321 -0.7458
 7345SOL     OW33667   4.203   4.216   8.001 -0.1131 -0.0775  0.0848
 7345SOL    HW133668   4.253   4.270   8.062  4.0318 -3.8146 -0.0349
 7345SOL    HW233669   4.118   4.216   8.044 -0.4130  1.3613 -0.5023
 7346SOL     OW33670   3.902   3.001   0.356 -0.0156 -0.1388 -0.0571
 7346SOL    HW133671   3.829   3.030   0.409  0.5379  2.4934 -0.7604
 7346SOL    HW233672   3.942   2.941   0.420  1.7978  1.0281 -0.0952
 7347SOL     OW33673   3.733   2.379  13.799  0.1561  0.3498 -0.6304
 7347SOL    HW133674   3.655   2.333  13.768  2.3772 -2.2081 -2.3532
 7347SOL    HW233675   3.687   2.462  13.808 -0.5766 -0.1582  0.3728
 7348SOL     OW33676   0.284   0.892   3.427  0.2595 -0.3552 -0.2023
 7348SOL    HW133677   0.218   0.857   3.487  0.2136  0.3782  0.1908
 7348SOL    HW233678   0.278   0.830   3.355  0.7649 -1.2022  0.4858
 7349SOL     OW33679   3.120   2.270   7.858 -0.0504 -0.1352  0.0319
 7349SOL    HW133680   3.080   2.219   7.929  2.1242  0.3821  1.6036
 7349SOL    HW233681   3.043   2.326   7.845  1.1628  1.3216 -0.8804
 7350SOL     OW33682   2.096   3.205   4.105 -0.2294 -0.2237 -0.1431
 7350SOL    HW133683   2.002   3.219   4.113 -0.1149  0.9559 -0.9070
 7350SOL    HW233684   2.100   3.111   4.124 -1.3611 -0.6301 -2.0124
 7351SOL     OW33685   0.085   3.373   4.563  0.4561  0.1915  0.5048
 7351SOL    HW133686   0.034   3.327   4.629  1.1784 -0.3583  0.6907
 7351SOL    HW233687   0.049   3.461   4.568  2.2087  0.8697  1.0634
 7352SOL     OW33688   2.043   2.431   4.291 -0.2431 -0.0294 -0.1682
 7352SOL    HW133689   2.025   2.428   4.197 -1.5223  0.8636  0.0580
 7352SOL    HW233690   2.132   2.396   4.284 -0.7465 -1.7800  2.1180
 7353SOL     OW33691   0.730   1.294   3.461  0.2613  0.3384  0.2293
 7353SOL    HW133692   0.672   1.367   3.484  0.4213  0.2236  1.0081
 7353SOL    HW233693   0.671   1.233   3.416  0.8301  0.3866 -0.5830
 7354SOL     OW33694   0.101   4.673   3.079 -0.4790  0.0217 -0.1339
 7354SOL    HW133695   0.065   0.014   3.041  1.2893  1.8326  2.1046
 7354SOL    HW233696   0.099   4.620   2.999  0.9163 -0.6961  0.3184
 7355SOL     OW33697   4.606   2.879   6.904  0.1581  0.5737  0.0325
 7355SOL    HW133698   4.683   2.823   6.899  1.2782  2.2116 -1.0766
 7355SOL    HW233699   4.545   2.812   6.936 -0.6540  1.0994 -0.4128
 7356SOL     OW33700   4.115   0.717   6.061  0.6707 -0.6632 -0.2866
 7356SOL    HW133701   4.021   0.733   6.064  1.4212  3.7668 -0.4460
 7356SOL    HW233702   4.141   0.731   5.970  0.7629  0.4265 -0.1001
 7357SOL     OW33703   2.669   0.523  14.231  0.1112 -0.0762  0.1674
 7357SOL    HW133704   2.724   0.571  14.293  0.9347 -0.5097 -0.2162
 7357SOL    HW233705   2.669   0.581  14.155 -0.3784 -0.1194  0.1384
 7358SOL     OW33706   2.976   0.769   1.209 -0.6277  0.1249 -0.3987
 7358SOL    HW133707   2.950   0.727   1.291  1.6909 -1.9191 -0.7301
 7358SOL    HW233708   2.959   0.861   1.231 -1.0936 -0.0546  0.0075
 7359SOL     OW33709   3.235   1.151   9.003 -0.5125  0.3501  0.5980
 7359SOL    HW133710   3.289   1.228   8.984 -0.3596  0.4875  1.5608
 7359SOL    HW233711   3.152   1.180   8.964 -0.0115 -0.9133 -1.4048
 7360SOL     OW33712   4.572   0.188   2.429  0.1077 -0.2242  0.2860
 7360SOL    HW133713   4.659   0.204   2.393  0.1718 -2.8160 -0.7213
 7360SOL    HW233714   4.596   0.141   2.509 -0.5734  0.2157  0.7427
 7361SOL     OW33715   0.087   2.175   0.583 -0.0496 -0.1248 -0.2262
 7361SOL    HW133716   0.107   2.250   0.640 -1.0298 -0.5591  0.6990
 7361SOL    HW233717   0.006   2.146   0.625 -1.8684  0.0960 -3.5905
 7362SOL     OW33718   4.030   0.101   0.537 -0.1040  0.0189  0.3059
 7362SOL    HW133719   4.076   0.038   0.481  0.9815  1.0684 -0.0146
 7362SOL    HW233720   4.090   0.126   0.608  0.2600 -0.8590  0.3019
 7363SOL     OW33721   3.646   0.667   6.666  0.7471 -0.4808  0.1005
 7363SOL    HW133722   3.657   0.579   6.631  1.5223 -0.3681  0.0459
 7363SOL    HW233723   3.676   0.651   6.756 -0.0579  1.4917  0.7233
 7364SOL     OW33724   1.552   0.318   4.552 -0.2425 -0.4425 -0.3720
 7364SOL    HW133725   1.646   0.336   4.555 -0.1134 -0.7636 -2.4024
 7364SOL    HW233726   1.545   0.226   4.524 -0.6998 -0.0411 -1.5742
 7365SOL     OW33727   1.878   4.423   4.612  0.2498  0.1842 -0.0457
 7365SOL    HW133728   1.894   4.344   4.560 -0.0984 -0.0928  0.2639
 7365SOL    HW233729   1.966   4.429   4.648 -0.2832  0.8994  1.1391
 7366SOL     OW33730   2.956   0.271   4.443  0.2510 -0.2310  0.0911
 7366SOL    HW133731   2.927   0.318   4.521 -1.3873  0.6765 -1.0648
 7366SOL    HW233732   2.927   0.331   4.374 -3.2505  1.0161  2.6093
 7367SOL     OW33733   4.685   4.536   4.305 -0.0043 -0.2427 -0.2018
 7367SOL    HW133734   4.658   4.463   4.250 -0.6450  0.2314 -0.5140
 7367SOL    HW233735   0.037   4.514   4.321  0.1385 -0.5550 -1.4447
 7368SOL     OW33736   4.419   1.062   8.575  0.4778  0.0095 -0.4687
 7368SOL    HW133737   4.404   0.974   8.610  0.4484 -0.3019 -1.2665
 7368SOL    HW233738   4.511   1.055   8.549  0.4566 -0.3829 -0.4301
 7369SOL     OW33739   2.128   4.505  17.159  0.3821 -0.1800 -0.1596
 7369SOL    HW133740   2.212   4.550  17.163  0.5002 -0.4615  0.5264
 7369SOL    HW233741   2.118   4.471  17.070 -0.9963  1.3527 -0.6015
 7370SOL     OW33742   4.612   2.391   2.575  0.6560  0.6983  0.2024
 7370SOL    HW133743   4.656   2.395   2.490 -0.2158  1.1303 -0.2227
 7370SOL    HW233744   4.687   2.379   2.634  1.1732 -0.5314 -0.7092
 7371SOL     OW33745   1.634   1.947   6.760  0.4616 -0.3437 -0.3409
 7371SOL    HW133746   1.642   1.892   6.683  0.2778  0.4599 -0.9387
 7371SOL    HW233747   1.684   1.903   6.828 -0.3687  1.5016  1.4879
 7372SOL     OW33748   4.072   3.683   5.890 -0.0895 -0.4969 -0.0496
 7372SOL    HW133749   4.121   3.605   5.865 -3.3945 -2.1271 -1.4122
 7372SOL    HW233750   4.058   3.737   5.812  0.6560 -1.5454 -0.9059
 7373SOL     OW33751   3.133   4.660   0.857  0.0401  0.4086 -0.1273
 7373SOL    HW133752   3.074   4.590   0.832 -2.1268  1.8485  0.9372
 7373SOL    HW233753   3.204   4.653   0.793  0.0060 -2.0351  0.0988
 7374SOL     OW33754   4.608   2.448   1.436  0.9168  0.8931  0.0519
 7374SOL    HW133755   4.651   2.475   1.518  1.6680  1.5278 -0.5475
 7374SOL    HW233756   4.534   2.395   1.466  1.4675  0.7814  1.2126
 7375SOL     OW33757   0.372   2.655   2.853  0.3431 -0.1071  0.2959
 7375SOL    HW133758   0.308   2.612   2.796 -1.0694  1.9190  0.3589
 7375SOL    HW233759   0.334   2.742   2.856  1.3525  0.3396  0.2080
 7376SOL     OW33760   4.571   2.029   8.312  0.1077 -0.5660  0.0042
 7376SOL    HW133761   4.588   2.047   8.404 -1.3785 -1.1257  0.3918
 7376SOL    HW233762   4.597   1.937   8.299  1.8503  0.2141 -2.0232
 7377SOL     OW33763   1.756   0.711   0.910  0.4482 -0.1043 -0.2949
 7377SOL    HW133764   1.791   0.782   0.856  0.1159  1.7757  1.9446
 7377SOL    HW233765   1.740   0.653   0.836 -1.4156 -1.9328  1.5574
 7378SOL     OW33766   3.539   1.324  11.602  0.2143  0.0956  0.5498
 7378SOL    HW133767   3.576   1.253  11.654  0.3257 -1.3931 -1.5407
 7378SOL    HW233768   3.455   1.321  11.648 -0.0460  0.2622  0.0912
 7379SOL     OW33769   3.650   3.960   6.545  0.4688  0.4110  0.0273
 7379SOL    HW133770   3.663   4.005   6.629 -1.6260 -0.6060  0.8962
 7379SOL    HW233771   3.663   3.871   6.576 -1.1291  0.1157 -0.1319
 7380SOL     OW33772   2.434   4.282   7.789 -0.0274  0.6253 -0.0931
 7380SOL    HW133773   2.494   4.298   7.861 -0.1510 -1.1708  0.4009
 7380SOL    HW233774   2.432   4.187   7.779 -0.7936  0.5976  0.3999
 7381SOL     OW33775   1.687   0.642   5.651 -0.6405 -0.3792 -0.0616
 7381SOL    HW133776   1.631   0.713   5.621  0.1714 -0.1897 -1.1151
 7381SOL    HW233777   1.693   0.666   5.744 -0.1151 -1.9724  0.3218
 7382SOL     OW33778   4.637   1.820  17.153  0.8204 -0.1070  0.4970
 7382SOL    HW133779   4.664   1.911  17.139  1.1678 -0.2919 -0.0184
 7382SOL    HW233780   4.584   1.804  17.074  0.6659 -2.0102  0.9826
 7383SOL     OW33781   1.730   2.805   9.495  0.3831 -0.1468  0.3057
 7383SOL    HW133782   1.729   2.774   9.586  0.1423 -0.9281  0.0353
 7383SOL    HW233783   1.725   2.726   9.441 -2.0357 -0.7257  1.3945
 7384SOL     OW33784   2.631   4.352   8.276  0.7273  0.1674  0.1485
 7384SOL    HW133785   2.671   4.435   8.299  0.3281  0.4286 -0.0889
 7384SOL    HW233786   2.589   4.330   8.359  1.0248 -1.2514 -0.0794
 7385SOL     OW33787   3.253   3.743   1.844  0.0654 -0.1667 -0.0514
 7385SOL    HW133788   3.242   3.672   1.780  0.5750  0.0725 -0.4033
 7385SOL    HW233789   3.160   3.768   1.849  0.4942  1.1408  1.5309
 7386SOL     OW33790   4.219   0.889   1.226  0.1237 -0.5903  0.2258
 7386SOL    HW133791   4.193   0.926   1.311  1.2286  1.2797 -0.2387
 7386SOL    HW233792   4.180   0.952   1.165  2.6921  0.9623  0.1775
 7387SOL     OW33793   4.259   1.977   1.885  0.1737 -0.2678  0.4253
 7387SOL    HW133794   4.262   1.982   1.790  0.5121 -2.1857  0.3540
 7387SOL    HW233795   4.219   2.062   1.906  0.3969 -0.6673  2.4362
 7388SOL     OW33796   3.512   2.805   7.325 -0.1850 -0.2623  0.0586
 7388SOL    HW133797   3.435   2.861   7.337 -0.9630 -1.5133  0.8406
 7388SOL    HW233798   3.503   2.754   7.244  0.1540 -0.3054  0.0497
 7389SOL     OW33799   1.236   0.881   1.745  0.0900  0.4767 -0.6137
 7389SOL    HW133800   1.329   0.906   1.738  0.0577  0.1568 -2.2311
 7389SOL    HW233801   1.239   0.787   1.764 -1.5368  0.6861  0.6433
 7390SOL     OW33802   0.211   2.544   8.456  0.0485 -0.1811  0.6819
 7390SOL    HW133803   0.177   2.567   8.369 -0.6842  1.4567  1.4139
 7390SOL    HW233804   0.157   2.602   8.509 -1.2565 -1.5116  0.7775
 7391SOL     OW33805   0.681   0.944  10.157  0.3696  0.4607 -0.0026
 7391SOL    HW133806   0.707   0.905  10.240 -0.0733  2.8622  1.2605
 7391SOL    HW233807   0.770   0.970  10.134  0.7353 -1.0332 -0.2988
 7392SOL     OW33808   2.610   1.834   5.829  1.0405  0.0124  0.0953
 7392SOL    HW133809   2.631   1.925   5.851  1.0165 -0.7280  3.2235
 7392SOL    HW233810   2.686   1.820   5.773 -0.9344 -0.6823 -2.3937
 7393SOL     OW33811   0.474   0.415   6.326  0.6807 -0.6271 -0.3314
 7393SOL    HW133812   0.544   0.380   6.270 -0.6048 -1.2248 -1.5837
 7393SOL    HW233813   0.512   0.492   6.368  0.7516  0.0205 -1.5757
 7394SOL     OW33814   0.806   0.599  12.652 -0.1798  0.5641  0.0723
 7394SOL    HW133815   0.784   0.537  12.721  0.5016  0.5417  0.2666
 7394SOL    HW233816   0.893   0.560  12.646 -0.7966 -0.6970 -0.5266
 7395SOL     OW33817   0.287   2.177   2.873 -0.2851 -0.0971  0.3011
 7395SOL    HW133818   0.233   2.098   2.870 -0.7748  0.3397 -2.0008
 7395SOL    HW233819   0.321   2.163   2.962  0.9059  1.0357  0.0283
 7396SOL     OW33820   2.031   0.068  15.668  0.2337 -0.0407  0.0106
 7396SOL    HW133821   1.999   0.154  15.694  0.1846 -0.3140  0.8383
 7396SOL    HW233822   2.104   0.060  15.730 -0.0172 -0.3058  0.2699
 7397SOL     OW33823   0.780   3.091   4.376 -0.5523  0.7019  0.1853
 7397SOL    HW133824   0.830   3.097   4.457  2.2343  0.0676 -1.4793
 7397SOL    HW233825   0.701   3.136   4.405 -0.8854 -1.1607  2.1204
 7398SOL     OW33826   1.088   1.072   6.512  0.5139 -0.0728 -0.2213
 7398SOL    HW133827   1.062   1.138   6.576  0.6933 -0.7037  0.4875
 7398SOL    HW233828   1.172   1.100   6.477  0.4394 -0.3948 -0.6608
 7399SOL     OW33829   0.864   1.341   6.262  0.0728 -0.3288  0.5510
 7399SOL    HW133830   0.915   1.309   6.188 -0.0542 -1.7679  1.0931
 7399SOL    HW233831   0.933   1.393   6.304  0.2066  0.4211 -0.6045
 7400SOL     OW33832   2.295   2.530   7.118 -0.1708  0.5082  0.0732
 7400SOL    HW133833   2.274   2.493   7.033  1.8767 -0.8329  0.1544
 7400SOL    HW233834   2.308   2.621   7.090 -1.2091  1.1384  1.5768
 7401SOL     OW33835   2.165   3.733  13.935 -0.5207 -0.0647 -0.4204
 7401SOL    HW133836   2.154   3.742  14.030  1.2510 -0.4783 -0.1769
 7401SOL    HW233837   2.211   3.815  13.917  0.9009 -1.0790 -1.3920
 7402SOL     OW33838   0.180   4.615  13.364  0.1857  0.5362  0.1085
 7402SOL    HW133839   0.235   4.538  13.376 -0.8951 -0.1792  0.4872
 7402SOL    HW233840   0.143   4.626  13.452 -0.5877 -0.5995 -0.0763
 7403SOL     OW33841   1.167   3.545   3.151 -0.2176  0.8066  0.3406
 7403SOL    HW133842   1.142   3.520   3.240 -1.1643  0.4514 -0.0239
 7403SOL    HW233843   1.090   3.595   3.122 -1.7491 -1.5902  0.3395
 7404SOL     OW33844   0.829   1.025   5.232  1.0473  0.2771  0.0012
 7404SOL    HW133845   0.831   0.937   5.270  3.1368  0.4448  0.2877
 7404SOL    HW233846   0.924   1.035   5.231  0.9260  1.7170  2.3504
 7405SOL     OW33847   0.609   3.179   3.183  0.1821 -0.6703 -0.8355
 7405SOL    HW133848   0.522   3.146   3.161 -0.9238  0.7343  1.3984
 7405SOL    HW233849   0.588   3.272   3.195  0.9020 -0.7550  1.0970
 7406SOL     OW33850   2.976   4.621   5.029  0.2948 -0.8133 -0.4658
 7406SOL    HW133851   2.937   4.682   5.092 -0.9563 -0.1267 -1.9336
 7406SOL    HW233852   2.903   4.577   4.986 -2.2982  1.2041  1.9251
 7407SOL     OW33853   3.825   0.307  15.075  0.7549  0.3188  0.8593
 7407SOL    HW133854   3.888   0.371  15.043 -1.0939  1.6934 -0.0662
 7407SOL    HW233855   3.836   0.322  15.169 -2.1735  0.2117  1.2431
 7408SOL     OW33856   1.489   3.298   2.042  0.0598 -0.2935  0.5426
 7408SOL    HW133857   1.442   3.242   2.104 -1.5275  0.2830 -0.1515
 7408SOL    HW233858   1.426   3.311   1.971  0.0546  2.5141  1.0601
 7409SOL     OW33859   1.748   4.118   8.067  0.0218 -0.3839  0.2846
 7409SOL    HW133860   1.767   4.204   8.028  0.4587 -1.1488 -1.1830
 7409SOL    HW233861   1.832   4.089   8.100  0.4773 -1.2686 -1.6173
 7410SOL     OW33862   3.652   0.189  12.459 -0.0882 -0.5773  0.0627
 7410SOL    HW133863   3.701   0.139  12.525  0.4706 -2.2531 -1.6346
 7410SOL    HW233864   3.719   0.254  12.436  0.4843 -1.0034  0.4974
 7411SOL     OW33865   2.277   2.593   3.680 -0.2108  0.0274  0.3319
 7411SOL    HW133866   2.213   2.530   3.713 -0.0288 -0.5449 -0.4109
 7411SOL    HW233867   2.232   2.624   3.602  2.3119 -0.6963 -1.4030
 7412SOL     OW33868   3.407   4.081   6.974 -0.9679  0.3452  0.1894
 7412SOL    HW133869   3.402   4.006   6.915  0.5482  1.0718 -0.8833
 7412SOL    HW233870   3.461   4.044   7.043  1.1981  0.6722 -1.3317
 7413SOL     OW33871   3.031   4.401   2.135 -0.3435  0.3098  0.1133
 7413SOL    HW133872   2.984   4.453   2.070 -0.2654 -1.1500 -1.1282
 7413SOL    HW233873   3.066   4.333   2.076 -0.9718 -0.1883  0.3124
 7414SOL     OW33874   0.195   1.968   4.724 -0.0798  0.0583  0.1764
 7414SOL    HW133875   0.215   1.993   4.634  1.0459 -1.0210  0.1319
 7414SOL    HW233876   0.170   1.875   4.716 -0.0504  0.1716 -1.2818
 7415SOL     OW33877   0.656   0.509   5.778  0.0145 -0.1301  0.5848
 7415SOL    HW133878   0.639   0.418   5.803 -0.4463 -0.0475  0.5718
 7415SOL    HW233879   0.566   0.543   5.780 -0.6442 -1.7344 -1.7829
 7416SOL     OW33880   2.606   0.181  15.246 -0.3052 -0.4112  0.3713
 7416SOL    HW133881   2.665   0.106  15.246  0.3684  0.1214  1.8237
 7416SOL    HW233882   2.634   0.228  15.325  4.4874 -2.5262 -0.0727
 7417SOL     OW33883   4.329   1.110   2.575  0.0918  0.0647  0.6120
 7417SOL    HW133884   4.373   1.159   2.506  0.1864 -1.9156 -0.7234
 7417SOL    HW233885   4.368   1.153   2.651  1.4754  0.7574 -0.4889
 7418SOL     OW33886   4.411   1.637  10.442  0.0443 -0.2059 -0.5200
 7418SOL    HW133887   4.443   1.562  10.492 -0.5278 -2.1959 -3.1496
 7418SOL    HW233888   4.440   1.704  10.504 -0.7614  1.6653 -2.1945
 7419SOL     OW33889   1.760   2.708   3.316  0.1592 -0.1097 -0.2774
 7419SOL    HW133890   1.757   2.680   3.225  2.2459  1.2777 -0.7630
 7419SOL    HW233891   1.833   2.652   3.342  1.1099  1.2950  0.0595
 7420SOL     OW33892   2.179   0.104   3.209 -0.4986 -0.0358 -0.6973
 7420SOL    HW133893   2.180   0.080   3.302  0.0780 -1.9719 -1.1920
 7420SOL    HW233894   2.135   0.026   3.175 -0.3889  0.8482 -2.8860
 7421SOL     OW33895   4.351   0.250  12.082 -0.4228 -0.3381 -0.3011
 7421SOL    HW133896   4.293   0.277  12.010  1.6273  2.1287 -1.0314
 7421SOL    HW233897   4.362   0.155  12.079 -2.1098 -0.5000 -1.5695
 7422SOL     OW33898   1.478   1.794  14.272 -0.2455  0.1322 -0.2344
 7422SOL    HW133899   1.396   1.747  14.258 -0.0277 -0.4598  0.4713
 7422SOL    HW233900   1.503   1.808  14.181  0.4125 -1.4142 -0.2908
 7423SOL     OW33901   1.380   0.462   6.537  0.4290  0.2584 -0.0281
 7423SOL    HW133902   1.408   0.418   6.617  0.2501 -1.8210 -1.1081
 7423SOL    HW233903   1.360   0.553   6.558  0.9753  0.0672  1.2947
 7424SOL     OW33904   4.201   2.474   6.850 -0.2259 -0.1889 -0.1468
 7424SOL    HW133905   4.173   2.564   6.868  3.2641  0.8245  0.1547
 7424SOL    HW233906   4.129   2.434   6.803  0.7012 -0.5945 -1.2051
 7425SOL     OW33907   1.980   1.910  13.267  0.0312 -0.1748  0.1506
 7425SOL    HW133908   1.983   1.851  13.192 -0.0716 -0.1875  0.1565
 7425SOL    HW233909   1.975   1.993  13.220 -0.8479 -0.3589 -0.0782
 7426SOL     OW33910   4.067   1.667  16.909 -0.0493 -0.0365 -0.2992
 7426SOL    HW133911   4.039   1.640  16.996 -0.4125  1.1559 -0.0531
 7426SOL    HW233912   3.995   1.624  16.861  0.6701 -2.6712  0.9728
 7427SOL     OW33913   2.992   3.895  12.070  0.0935 -0.0398 -0.2926
 7427SOL    HW133914   2.931   3.968  12.076 -2.0279 -1.8188  0.0240
 7427SOL    HW233915   3.043   3.920  12.147 -1.1337  2.4845 -0.2974
 7428SOL     OW33916   3.339   3.774   5.178  0.0500 -0.4242 -0.1016
 7428SOL    HW133917   3.272   3.842   5.186 -1.1306 -1.3882 -1.6845
 7428SOL    HW233918   3.415   3.816   5.139 -1.5679  1.7996 -0.8280
 7429SOL     OW33919   0.971   2.782  14.559 -0.2703  0.1022 -0.3430
 7429SOL    HW133920   0.971   2.873  14.529  3.1440  0.0507 -0.5411
 7429SOL    HW233921   0.918   2.791  14.638 -1.9445  0.0298 -1.4556
 7430SOL     OW33922   2.718   0.864  13.293  0.2813  0.5470  0.2232
 7430SOL    HW133923   2.623   0.875  13.289  0.5484  2.1391 -1.6804
 7430SOL    HW233924   2.738   0.915  13.215 -2.7794  2.1044  0.4439
 7431SOL     OW33925   4.683   0.565   8.886  0.1249 -0.4041  0.0008
 7431SOL    HW133926   4.611   0.527   8.937  1.8140 -1.1295  1.8309
 7431SOL    HW233927   4.677   0.517   8.804  3.7826 -0.2782 -0.3266
 7432SOL     OW33928   3.741   1.229   2.203  1.0435  0.2701 -0.0659
 7432SOL    HW133929   3.834   1.241   2.222  1.0353 -1.7615  1.1874
 7432SOL    HW233930   3.706   1.314   2.228  0.9062  0.0869  0.3578
 7433SOL     OW33931   3.104   3.703   7.846  0.9141  0.1965  0.5300
 7433SOL    HW133932   3.079   3.657   7.926  0.3801  1.7716  1.2784
 7433SOL    HW233933   3.174   3.754   7.887 -0.0442  2.8502 -1.1850
 7434SOL     OW33934   4.579   4.489   9.455 -0.3004 -0.0765 -0.2676
 7434SOL    HW133935   4.667   4.482   9.494 -0.1099  1.7808 -0.3981
 7434SOL    HW233936   4.530   4.516   9.532 -0.5263  0.5386 -0.6348
 7435SOL     OW33937   3.756   2.007   9.357  0.9940  0.6426  0.2060
 7435SOL    HW133938   3.738   2.071   9.426 -0.6959 -0.9636  1.2422
 7435SOL    HW233939   3.848   1.986   9.370  1.2581  0.8986 -1.2206
 7436SOL     OW33940   0.666   2.823   7.247 -0.2433  0.1839  0.2385
 7436SOL    HW133941   0.601   2.865   7.191 -0.3451  1.1007  1.0387
 7436SOL    HW233942   0.719   2.780   7.181  0.9638  0.5168  0.9898
 7437SOL     OW33943   3.341   3.216  15.059 -0.5755 -0.1220 -0.4375
 7437SOL    HW133944   3.401   3.277  15.017  1.4643 -0.5906  1.8095
 7437SOL    HW233945   3.346   3.137  15.006 -1.7659  0.0025 -0.7350
 7438SOL     OW33946   0.602   4.072  11.030  0.3902 -0.4398 -0.2086
 7438SOL    HW133947   0.634   4.075  10.939  0.3783 -0.5182 -0.2151
 7438SOL    HW233948   0.651   4.002  11.073  1.9778  0.7169 -0.1395
 7439SOL     OW33949   2.394   1.228   4.544 -0.9257  0.1272 -0.5928
 7439SOL    HW133950   2.397   1.187   4.631  2.0562 -0.2432 -0.8868
 7439SOL    HW233951   2.308   1.269   4.544 -0.5349  0.9380 -1.4216
 7440SOL     OW33952   0.255   3.170   5.862 -0.3288 -0.0996 -0.1113
 7440SOL    HW133953   0.311   3.244   5.838  1.6252 -2.2837 -2.2078
 7440SOL    HW233954   0.170   3.215   5.862 -1.8770 -3.0852 -0.1725
 7441SOL     OW33955   4.678   2.497   1.927  0.0841  0.0208 -0.1670
 7441SOL    HW133956   0.022   2.497   1.879  0.0197 -0.8392 -0.2813
 7441SOL    HW233957   4.711   2.540   2.006  0.3183 -1.6137  0.6450
 7442SOL     OW33958   1.611   1.371   6.992  0.2817  0.0125  0.7176
 7442SOL    HW133959   1.675   1.305   6.968  1.4605  0.8021  1.6527
 7442SOL    HW233960   1.537   1.346   6.936  0.8319 -1.6900  0.7595
 7443SOL     OW33961   2.630   4.614   4.051  0.1589 -0.0347  0.6478
 7443SOL    HW133962   2.684   4.562   3.992  1.5936  1.8211  0.3548
 7443SOL    HW233963   2.624   4.697   4.005 -1.2191  0.5990  1.9473
 7444SOL     OW33964   4.458   2.996   2.827  0.1199  0.3927  0.3081
 7444SOL    HW133965   4.373   2.991   2.784 -0.3343 -1.2167  1.3906
 7444SOL    HW233966   4.515   2.953   2.764 -0.3491 -0.6806  0.6036
 7445SOL     OW33967   4.220   4.318  15.682 -0.2232 -0.4441  0.3668
 7445SOL    HW133968   4.241   4.379  15.612 -0.2647  1.1989  1.7805
 7445SOL    HW233969   4.166   4.259  15.630 -0.6035  1.5039 -1.4333
 7446SOL     OW33970   3.832   3.482   0.592  0.2161  0.1296  0.2341
 7446SOL    HW133971   3.867   3.436   0.668  1.0197 -1.6620 -1.2252
 7446SOL    HW233972   3.892   3.555   0.576  1.0827  0.1083  3.5409
 7447SOL     OW33973   0.850   2.676   7.130 -0.1955 -0.1708  0.5229
 7447SOL    HW133974   0.921   2.631   7.176 -0.7348 -1.4860  0.0829
 7447SOL    HW233975   0.887   2.756   7.094 -1.5553  1.7465  3.4260
 7448SOL     OW33976   2.519   0.238   4.196  0.2773  0.1408  0.3757
 7448SOL    HW133977   2.518   0.199   4.108  1.9954 -1.2505  0.9722
 7448SOL    HW233978   2.568   0.319   4.183  0.2431  0.0013 -0.7059
 7449SOL     OW33979   0.688   0.829   8.564 -0.0110  0.4061 -0.0091
 7449SOL    HW133980   0.628   0.865   8.498  0.6943  0.6420 -0.5172
 7449SOL    HW233981   0.687   0.736   8.544  0.5523  0.4631 -0.3152
 7450SOL     OW33982   2.205   2.097   5.792  0.4577 -0.4156 -0.5339
 7450SOL    HW133983   2.167   2.077   5.877 -0.0615 -1.7148 -1.0671
 7450SOL    HW233984   2.237   2.009   5.772 -0.6176 -0.9134 -0.0892
 7451SOL     OW33985   2.140   1.545   9.630 -0.4560 -0.0972 -0.3611
 7451SOL    HW133986   2.225   1.534   9.587 -0.6406  0.3590 -0.8508
 7451SOL    HW233987   2.099   1.630   9.611 -0.5583 -0.6133 -2.4755
 7452SOL     OW33988   0.887   4.373   6.796 -0.3591  0.2074  0.0115
 7452SOL    HW133989   0.952   4.357   6.727 -0.7302 -0.6198 -0.1452
 7452SOL    HW233990   0.816   4.309   6.786 -2.4654  2.3152  1.7570
 7453SOL     OW33991   2.682   0.660   1.510  0.2305  0.3770 -0.5264
 7453SOL    HW133992   2.617   0.633   1.444 -0.8010  1.8217 -0.0906
 7453SOL    HW233993   2.630   0.651   1.590  0.2069 -0.9886 -0.7017
 7454SOL     OW33994   4.671   4.375  10.946 -0.2636  0.0846  0.0598
 7454SOL    HW133995   4.577   4.384  10.961 -0.3981 -1.2639  0.0546
 7454SOL    HW233996   4.690   4.287  10.977 -0.0500  0.6383  1.4643
 7455SOL     OW33997   1.559   3.704   3.446 -0.1231  0.1248  0.2826
 7455SOL    HW133998   1.619   3.652   3.499  0.6878  0.9864  0.2164
 7455SOL    HW233999   1.612   3.706   3.366  0.3064  1.7910  0.6046
 7456SOL     OW34000   4.573   3.031   9.576  0.0248 -0.3215 -0.6108
 7456SOL    HW134001   4.656   3.077   9.567  0.4325 -0.5045  2.2092
 7456SOL    HW234002   4.555   3.046   9.669 -1.3982 -2.3872 -0.5451
 7457SOL     OW34003   1.337   0.060   9.769 -0.1974  0.7043  0.4159
 7457SOL    HW134004   1.382   4.717   9.750 -0.0280  0.8177  0.3226
 7457SOL    HW234005   1.275   0.035   9.837 -0.0585 -0.9589 -0.0598
 7458SOL     OW34006   1.498   3.006   4.643  0.1016 -0.1090  0.4601
 7458SOL    HW134007   1.569   3.068   4.628 -0.2028 -0.1514 -1.2013
 7458SOL    HW234008   1.440   3.016   4.568 -0.2255 -0.4252  0.6725
 7459SOL     OW34009   0.292   0.646  10.522  0.0809 -0.1837 -0.5637
 7459SOL    HW134010   0.272   0.732  10.485 -0.9209  0.4022  1.3554
 7459SOL    HW234011   0.208   0.609  10.546  0.1508 -0.1073 -0.2002
 7460SOL     OW34012   3.735   1.252   3.151 -0.5225  0.0948  0.2716
 7460SOL    HW134013   3.802   1.204   3.102 -1.2990 -0.0952 -0.6037
 7460SOL    HW234014   3.739   1.213   3.239 -4.5193  0.5611  0.6713
 7461SOL     OW34015   1.905   3.281   6.436 -0.5529  0.1619  0.1647
 7461SOL    HW134016   1.874   3.282   6.345  1.2891 -1.5304 -0.4832
 7461SOL    HW234017   1.995   3.256   6.413 -0.1316  1.1252  0.7455
 7462SOL     OW34018   4.240   3.361   6.584  0.4171  0.9835  0.4080
 7462SOL    HW134019   4.237   3.295   6.654 -1.6226 -0.7415 -1.3002
 7462SOL    HW234020   4.329   3.395   6.588  1.9857 -3.2662  1.2603
 7463SOL     OW34021   1.132   0.695   0.488  0.2231  0.1087 -0.3761
 7463SOL    HW134022   1.095   0.709   0.575 -0.0401 -0.2301 -0.4299
 7463SOL    HW234023   1.149   0.786   0.465  0.9372  0.5898  2.0372
 7464SOL     OW34024   2.553   2.899   6.855  0.1019 -0.2459  0.0707
 7464SOL    HW134025   2.520   2.986   6.832 -0.1157 -0.5703 -0.8734
 7464SOL    HW234026   2.648   2.908   6.847 -0.1641  1.9468 -0.6097
 7465SOL     OW34027   3.135   3.266   2.647 -0.2357 -0.0237  0.7814
 7465SOL    HW134028   3.180   3.265   2.732  1.5387 -2.8188 -0.1907
 7465SOL    HW234029   3.139   3.361   2.635 -1.5963  0.0432  0.7612
 7466SOL     OW34030   0.726   2.457   6.873  0.4398 -0.0163 -0.4038
 7466SOL    HW134031   0.729   2.366   6.902  0.3160  1.1039  3.0918
 7466SOL    HW234032   0.724   2.502   6.957  1.6758  1.3352 -1.0920
 7467SOL     OW34033   2.145   3.035   8.598 -0.1712 -0.7812 -0.5601
 7467SOL    HW134034   2.159   3.007   8.508  0.4253 -2.8489  0.1785
 7467SOL    HW234035   2.073   3.098   8.603  0.0729 -0.4454 -1.2800
 7468SOL     OW34036   0.087   3.366   6.460 -0.0102  0.1638 -0.2534
 7468SOL    HW134037   0.029   3.391   6.532 -0.5196 -0.8190 -0.3117
 7468SOL    HW234038   0.143   3.443   6.453 -0.9957  0.9299  0.3205
 7469SOL     OW34039   2.712   0.947   1.465  0.4374 -0.2564 -0.5994
 7469SOL    HW134040   2.674   0.895   1.394 -0.3399  0.5620 -0.7803
 7469SOL    HW234041   2.695   1.029   1.418 -0.2984 -0.2048 -0.2389
 7470SOL     OW34042   3.484   3.802  12.756  0.3465 -0.2129  0.9598
 7470SOL    HW134043   3.481   3.709  12.780  0.6171 -0.2043  1.0258
 7470SOL    HW234044   3.463   3.857  12.831 -0.3383 -0.6401  1.0817
 7471SOL     OW34045   2.795   2.002   7.576  0.0311 -0.2998  0.4726
 7471SOL    HW134046   2.795   1.908   7.596  1.6681 -1.2477 -3.9050
 7471SOL    HW234047   2.820   2.001   7.483 -0.5835  0.8694  0.2939
 7472SOL     OW34048   3.329   2.885   4.661  0.0079  0.0984 -0.0938
 7472SOL    HW134049   3.310   2.887   4.567  2.5584 -0.8131 -0.6264
 7472SOL    HW234050   3.272   2.813   4.686 -1.0190  0.7514 -0.5517
 7473SOL     OW34051   2.445   4.388   4.640  0.0578  0.3583  0.5321
 7473SOL    HW134052   2.495   4.470   4.643 -0.2340  0.6253 -1.7146
 7473SOL    HW234053   2.467   4.358   4.551 -0.7179  1.0033  0.1228
 7474SOL     OW34054   3.331   2.179   5.079 -0.1311 -0.4990 -0.0118
 7474SOL    HW134055   3.266   2.233   5.036 -1.5550  0.0870  2.8712
 7474SOL    HW234056   3.416   2.217   5.056 -0.9807  1.4822  0.1744
 7475SOL     OW34057   0.871   0.186  12.451 -0.3257 -0.4965 -1.0462
 7475SOL    HW134058   0.783   0.163  12.422  0.0038 -1.6617 -1.1176
 7475SOL    HW234059   0.866   0.143  12.536  2.5137  1.4130  0.0841
 7476SOL     OW34060   1.388   4.257  16.235 -0.0375 -0.0278  0.7517
 7476SOL    HW134061   1.427   4.169  16.229 -0.3411 -0.0912 -0.3013
 7476SOL    HW234062   1.461   4.308  16.271 -1.6916  2.6900  0.2261
 7477SOL     OW34063   0.301   2.228   5.278 -0.3895  0.5036 -0.0726
 7477SOL    HW134064   0.378   2.239   5.222 -2.1115  2.6421 -1.9981
 7477SOL    HW234065   0.272   2.140   5.254  2.3687 -0.2043 -0.8951
 7478SOL     OW34066   0.127   0.251  17.627 -0.6122  0.0074  0.6832
 7478SOL    HW134067   0.145   0.179  17.687  1.1463  1.6534  2.1175
 7478SOL    HW234068   0.215   0.289  17.621  0.2712 -2.1579 -0.0467
 7479SOL     OW34069   2.425   1.617   3.875 -0.0150  0.2035 -0.5136
 7479SOL    HW134070   2.435   1.629   3.969  0.0131 -4.8061  0.1140
 7479SOL    HW234071   2.515   1.613   3.842  1.1599 -2.4270  2.9818
 7480SOL     OW34072   4.408   2.063  16.975  0.4194  0.0970  0.7076
 7480SOL    HW134073   4.340   2.113  17.021 -2.6686 -2.1418 -1.4734
 7480SOL    HW234074   4.367   1.977  16.973  1.9128 -0.6093  0.3715
 7481SOL     OW34075   2.595   0.884   1.215 -0.1635  0.7300 -0.1553
 7481SOL    HW134076   2.528   0.818   1.232 -0.0891  0.6099 -0.3182
 7481SOL    HW234077   2.645   0.835   1.149 -0.8970 -0.5565  0.2469
 7482SOL     OW34078   3.646   0.038   4.632  0.0588 -0.0054  0.2459
 7482SOL    HW134079   3.728   0.074   4.598  0.7217  0.4799  2.3515
 7482SOL    HW234080   3.601   0.007   4.554 -2.4439 -1.1660  2.1690
 7483SOL     OW34081   3.949   1.998  14.512  0.2421  0.0332  0.3150
 7483SOL    HW134082   3.912   1.934  14.452 -1.0792  1.0635  0.0340
 7483SOL    HW234083   3.917   1.970  14.598  1.5600 -1.4226  0.3325
 7484SOL     OW34084   0.056   0.770  12.485  0.5942  0.1823 -0.7609
 7484SOL    HW134085   4.714   0.754  12.436  0.9118 -1.3166 -0.7981
 7484SOL    HW234086   0.081   0.856  12.452 -1.4977  1.4153  0.8731
 7485SOL     OW34087   1.947   0.810   6.549 -0.2489  0.7730 -0.2953
 7485SOL    HW134088   1.979   0.741   6.490  2.7745  1.0455  1.0629
 7485SOL    HW234089   1.856   0.779   6.555 -0.2193  0.5623 -0.8703
 7486SOL     OW34090   1.022   0.514  17.733 -0.5353  0.2589  0.3447
 7486SOL    HW134091   1.086   0.568  17.689  1.2739 -2.1981 -0.0135
 7486SOL    HW234092   1.053   0.528   0.067 -0.0056  0.8945  0.0605
 7487SOL     OW34093   0.473   2.859   4.485 -0.0508 -0.2716  0.0497
 7487SOL    HW134094   0.380   2.881   4.489 -0.8806 -3.0434 -2.9215
 7487SOL    HW234095   0.476   2.818   4.398 -1.0387 -2.5745  1.0947
 7488SOL     OW34096   0.341   1.244  14.752 -0.1396 -0.8926  0.0725
 7488SOL    HW134097   0.269   1.248  14.688 -1.1859  4.0558  1.5513
 7488SOL    HW234098   0.424   1.261  14.708 -0.0223 -1.1347  0.2006
 7489SOL     OW34099   4.703   3.617   4.295  0.4834 -0.0842  0.2308
 7489SOL    HW134100   4.702   3.606   4.391  0.5162  2.7875  0.5657
 7489SOL    HW234101   0.031   3.557   4.263 -0.0600 -0.6446  0.1145
 7490SOL     OW34102   3.635   0.260   7.721 -0.3244 -0.2271  0.0521
 7490SOL    HW134103   3.696   0.193   7.751 -0.0727  0.4235  1.0257
 7490SOL    HW234104   3.570   0.256   7.792  0.3299  0.7809  0.7140
 7491SOL     OW34105   2.948   3.502   3.018 -0.2586 -0.1548  0.2064
 7491SOL    HW134106   2.915   3.449   2.946 -1.7705  0.8663  0.1397
 7491SOL    HW234107   2.935   3.451   3.097  1.8719  0.4598  0.9544
 7492SOL     OW34108   4.174   3.483   0.630 -0.0075  0.2581  0.1994
 7492SOL    HW134109   4.237   3.504   0.700  2.2623 -1.3087 -1.3935
 7492SOL    HW234110   4.099   3.436   0.666  1.7572 -2.5118  0.2037
 7493SOL     OW34111   3.898   0.517  10.999  0.6191 -0.0355 -0.1915
 7493SOL    HW134112   3.826   0.485  11.052 -1.8343 -0.4132 -3.7311
 7493SOL    HW234113   3.919   0.444  10.941  2.0907 -0.9706  1.5343
 7494SOL     OW34114   0.081   3.903   0.029 -0.0379 -0.6638 -0.3025
 7494SOL    HW134115   0.059   3.974  17.724 -1.1545 -0.5431  0.2509
 7494SOL    HW234116   0.022   3.915   0.103  1.9666 -0.3445  1.2231
 7495SOL     OW34117   1.591   2.582   4.042 -0.4193 -0.3761 -0.0646
 7495SOL    HW134118   1.499   2.603   4.059 -0.5853 -1.7954  0.8441
 7495SOL    HW234119   1.585   2.532   3.961 -0.1811 -0.6052  0.0616
 7496SOL     OW34120   2.730   1.067   8.776 -0.6699 -0.0643 -0.1471
 7496SOL    HW134121   2.786   1.051   8.700  1.1502 -0.8067  1.3411
 7496SOL    HW234122   2.687   1.152   8.763  2.3172  1.3360 -0.7956
 7497SOL     OW34123   3.237   0.411  16.588 -0.3899 -0.9269 -0.1358
 7497SOL    HW134124   3.316   0.446  16.548 -0.5299  0.0874  0.4580
 7497SOL    HW234125   3.214   0.478  16.653 -1.0673  1.0754 -2.4146
 7498SOL     OW34126   1.260   3.553  11.318 -0.9492 -0.2633  0.1985
 7498SOL    HW134127   1.337   3.495  11.319 -1.0763 -0.3912  3.0492
 7498SOL    HW234128   1.233   3.535  11.228 -0.6834  0.1730  0.0331
 7499SOL     OW34129   0.984   0.854   2.945 -0.0359  0.1174  0.1462
 7499SOL    HW134130   1.063   0.846   2.998  1.2094  2.4562 -1.4028
 7499SOL    HW234131   0.925   0.906   3.000  1.1135  0.4417  1.0470
 7500SOL     OW34132   4.124   3.359   8.922 -0.3676  0.8217 -0.4174
 7500SOL    HW134133   4.106   3.396   8.835 -0.6966 -0.2294 -0.7852
 7500SOL    HW234134   4.179   3.430   8.955 -1.6007  1.0142  1.2126
 7501SOL     OW34135   2.451   2.022   8.267  1.0053 -0.1223  0.5103
 7501SOL    HW134136   2.544   2.040   8.280  0.7942  0.4964  1.1454
 7501SOL    HW234137   2.415   2.108   8.247  1.2596 -0.3315 -0.8869
 7502SOL     OW34138   2.648   1.874   4.470  0.0040  0.5792 -0.0478
 7502SOL    HW134139   2.638   1.804   4.406 -2.1274  1.5000 -0.7308
 7502SOL    HW234140   2.557   1.901   4.488  0.8403  1.3786  2.9623
 7503SOL     OW34141   4.539   0.665   7.224 -0.1859  0.2454 -0.0141
 7503SOL    HW134142   4.462   0.621   7.188  0.3473 -0.0923 -0.7394
 7503SOL    HW234143   4.587   0.601   7.277 -2.0920 -0.5588  0.7435
 7504SOL     OW34144   3.489   0.435   5.381 -0.3328  0.1040 -0.3271
 7504SOL    HW134145   3.409   0.454   5.332  0.3349  1.9128 -0.6897
 7504SOL    HW234146   3.541   0.398   5.310  0.1312 -0.4478  0.2976
 7505SOL     OW34147   0.105   0.110   8.345  1.1132 -0.1206 -0.4522
 7505SOL    HW134148   0.188   0.077   8.313  1.0668 -0.0249 -0.6711
 7505SOL    HW234149   0.042   0.040   8.330  0.7760  0.1341 -0.2277
 7506SOL     OW34150   2.523   0.668   8.930  0.1265 -0.0338 -0.0413
 7506SOL    HW134151   2.593   0.732   8.946 -0.4877  0.5040  0.4937
 7506SOL    HW234152   2.471   0.723   8.871 -1.5207 -1.4654  0.0913
 7507SOL     OW34153   0.966   4.213  13.645 -0.4952 -0.0529  0.2800
 7507SOL    HW134154   0.981   4.126  13.608  1.4172 -0.2104  1.4308
 7507SOL    HW234155   0.937   4.184  13.732 -0.1561  0.8312  0.6882
 7508SOL     OW34156   4.528   2.074   4.867 -0.2331 -0.0641 -0.1632
 7508SOL    HW134157   4.439   2.110   4.869 -0.5408 -0.7530 -1.7383
 7508SOL    HW234158   4.524   2.005   4.933  0.1259 -1.4182 -1.5725
 7509SOL     OW34159   2.061   4.606   7.748  0.4073 -0.0389  0.5021
 7509SOL    HW134160   2.080   4.669   7.679  1.9959 -1.8369 -0.7045
 7509SOL    HW234161   2.063   4.523   7.700  1.4998 -0.2970  1.0000
 7510SOL     OW34162   0.764   3.467   7.419  0.2211 -0.4058  0.7296
 7510SOL    HW134163   0.823   3.542   7.410 -1.3326  1.0054  2.2396
 7510SOL    HW234164   0.814   3.397   7.378  1.2921  1.2318 -0.7618
 7511SOL     OW34165   0.346   2.986   6.460  0.0868  0.2883 -0.1418
 7511SOL    HW134166   0.307   2.899   6.465  0.8442  0.1266  2.9496
 7511SOL    HW234167   0.280   3.040   6.504 -1.0375  0.3091 -1.8325
 7512SOL     OW34168   2.243   1.602   3.689 -0.2986 -0.2092  0.4933
 7512SOL    HW134169   2.310   1.600   3.757  0.0031  0.6293  0.2144
 7512SOL    HW234170   2.233   1.511   3.659 -1.2743  0.4642 -1.2651
 7513SOL     OW34171   3.943   1.533  14.904  0.2638 -0.0085 -0.1098
 7513SOL    HW134172   3.999   1.606  14.931 -0.9090  0.6036  0.6972
 7513SOL    HW234173   3.987   1.469  14.959 -2.2187 -0.9144  0.8444
 7514SOL     OW34174   2.085   0.471   3.502  0.4065 -0.0208  0.2495
 7514SOL    HW134175   2.020   0.414   3.540 -0.6496  1.4480  0.6567
 7514SOL    HW234176   2.113   0.426   3.422  0.0925 -1.5474  1.0064
 7515SOL     OW34177   3.690   3.733  11.208 -0.0771 -0.1788 -0.6948
 7515SOL    HW134178   3.688   3.829  11.207  0.6098 -0.1560  0.6833
 7515SOL    HW234179   3.655   3.706  11.293  0.5441  2.8592  0.5279
 7516SOL     OW34180   0.786   3.135   2.949 -0.4562  0.0185 -0.3584
 7516SOL    HW134181   0.872   3.177   2.940 -0.1293 -0.6239 -0.1877
 7516SOL    HW234182   0.765   3.162   3.038 -3.6760  1.5949 -1.5759
 7517SOL     OW34183   4.712   4.492   3.280  0.3240 -0.2833  0.3272
 7517SOL    HW134184   0.050   4.480   3.226 -0.0298  1.4072 -0.5571
 7517SOL    HW234185   4.667   4.561   3.231 -0.4829  0.8741  2.6741
 7518SOL     OW34186   1.500   1.877   4.020  0.0559  0.0297 -0.4547
 7518SOL    HW134187   1.424   1.831   3.983  1.8603 -2.3860 -1.1015
 7518SOL    HW234188   1.574   1.820   4.000  0.5900  0.5922 -0.0921
 7519SOL     OW34189   4.566   2.875   9.350 -0.1483  0.2231 -0.1483
 7519SOL    HW134190   4.591   2.949   9.405  1.0608 -1.4418  1.5234
 7519SOL    HW234191   4.471   2.886   9.354 -0.2101 -0.7209  1.1976
 7520SOL     OW34192   2.191   0.931   6.175 -0.3171 -0.2449  0.2129
 7520SOL    HW134193   2.222   0.961   6.089 -0.9454 -0.3571 -0.0503
 7520SOL    HW234194   2.102   0.902   6.158 -1.2513  0.9935  3.0199
 7521SOL     OW34195   4.663   3.624   8.451 -0.3768 -0.0877  0.3654
 7521SOL    HW134196   4.603   3.551   8.466  1.0790 -1.2500  0.5585
 7521SOL    HW234197   4.686   3.612   8.358 -0.1072  0.8089  0.3151
 7522SOL     OW34198   0.495   0.451   1.951  0.1593 -0.3658  0.1031
 7522SOL    HW134199   0.522   0.473   1.861  1.9467 -1.0022  0.4970
 7522SOL    HW234200   0.403   0.430   1.934 -0.6166  0.5630  3.2189
 7523SOL     OW34201   1.437   2.698  15.777  0.0906 -0.0645 -0.7766
 7523SOL    HW134202   1.451   2.773  15.718  0.9285  0.8516  0.5804
 7523SOL    HW234203   1.527   2.680  15.805  0.1857  2.6860  0.7834
 7524SOL     OW34204   2.727   3.740  14.421  0.1444 -0.0808  0.6705
 7524SOL    HW134205   2.695   3.696  14.499 -1.1700  2.1425  1.3866
 7524SOL    HW234206   2.769   3.673  14.368  1.2732  0.7146  0.5469
 7525SOL     OW34207   3.892   3.061   2.853 -0.2812  0.1814  0.0469
 7525SOL    HW134208   3.926   3.137   2.901  0.6569 -0.5597  0.5554
 7525SOL    HW234209   3.925   3.079   2.765  0.4288 -0.1596  0.2468
 7526SOL     OW34210   1.404   1.501   7.185 -0.4638 -0.3353 -0.1605
 7526SOL    HW134211   1.475   1.437   7.181  0.1809  0.3057  0.8923
 7526SOL    HW234212   1.329   1.442   7.173 -0.6690 -0.8587  3.6317
 7527SOL     OW34213   3.973   3.655  11.748 -0.0585  0.1910  0.4434
 7527SOL    HW134214   4.066   3.642  11.764 -0.1752  0.0882  1.0177
 7527SOL    HW234215   3.963   3.637  11.654 -0.7620 -1.0969  0.7675
 7528SOL     OW34216   3.622   1.533   6.079  0.1683  0.0193 -0.4683
 7528SOL    HW134217   3.570   1.482   6.017 -1.7674  0.5614  0.6964
 7528SOL    HW234218   3.679   1.464   6.113 -0.0259  0.1739  0.1621
 7529SOL     OW34219   2.333   1.840   5.808 -0.2358  0.0118 -0.0518
 7529SOL    HW134220   2.428   1.833   5.793 -0.5385 -0.4883 -1.7580
 7529SOL    HW234221   2.306   1.775   5.743 -1.2573  2.1035 -1.6731
 7530SOL     OW34222   2.024   1.668   7.480  0.0717 -0.0241  0.4903
 7530SOL    HW134223   2.062   1.724   7.548  0.0106  1.2029 -0.5077
 7530SOL    HW234224   1.945   1.636   7.523  0.0825 -0.8632 -0.1145
 7531SOL     OW34225   4.005   1.772   9.032 -0.1898  0.3590 -0.0488
 7531SOL    HW134226   3.972   1.847   8.983 -0.8970  1.6943  2.4391
 7531SOL    HW234227   4.067   1.818   9.090  2.0158 -0.8747 -1.4388
 7532SOL     OW34228   4.233   3.275   9.409  0.3706 -0.2158  0.0017
 7532SOL    HW134229   4.197   3.351   9.362  0.8634  0.2897  0.4412
 7532SOL    HW234230   4.324   3.304   9.410  0.6930 -1.2395 -0.1522
 7533SOL     OW34231   3.721   3.304   3.768  0.2268  0.7465 -0.5308
 7533SOL    HW134232   3.680   3.270   3.689  1.9735  2.3119 -2.1144
 7533SOL    HW234233   3.642   3.341   3.807 -1.5967 -1.4549 -2.1606
 7534SOL     OW34234   2.255   1.011  13.114 -0.4286  0.1892 -0.0041
 7534SOL    HW134235   2.264   0.978  13.204 -2.4599  0.0984  0.1773
 7534SOL    HW234236   2.166   1.047  13.120 -0.3287  0.3031  0.7966
 7535SOL     OW34237   0.165   3.513   2.460  0.2067  0.2824 -0.9302
 7535SOL    HW134238   0.201   3.522   2.548  0.5428 -2.6235 -0.7750
 7535SOL    HW234239   0.219   3.580   2.419  1.0558  1.5562  2.2662
 7536SOL     OW34240   2.225   1.547   1.311  0.6780 -0.0673  0.4418
 7536SOL    HW134241   2.255   1.497   1.236 -2.2456  0.8182 -1.3198
 7536SOL    HW234242   2.130   1.542   1.301  0.6795  0.2756  0.2305
 7537SOL     OW34243   1.625   2.453   5.742  0.0924  0.0668  0.2037
 7537SOL    HW134244   1.622   2.437   5.836  1.6376 -0.7598  0.1191
 7537SOL    HW234245   1.708   2.499   5.744  0.6186 -0.8850  0.3149
 7538SOL     OW34246   2.975   0.188  12.421  0.2312  0.1310  0.5123
 7538SOL    HW134247   2.920   0.253  12.465 -0.3263 -0.4914  0.7346
 7538SOL    HW234248   3.058   0.235  12.412 -0.4068  1.0393 -0.6865
 7539SOL     OW34249   2.856   3.171  12.293 -0.0925 -0.5231 -0.4953
 7539SOL    HW134250   2.811   3.087  12.284  1.8739 -1.5410 -0.8541
 7539SOL    HW234251   2.897   3.177  12.207  2.0361  0.9910  0.6099
 7540SOL     OW34252   2.281   1.412   1.087  0.4297  0.3248  0.2440
 7540SOL    HW134253   2.200   1.396   1.038  2.2517 -0.6772 -2.4756
 7540SOL    HW234254   2.342   1.367   1.028 -0.8832 -1.7647  0.4920
 7541SOL     OW34255   1.822   3.476   2.409  0.0557 -0.2255 -0.0574
 7541SOL    HW134256   1.727   3.469   2.411 -0.0087  0.5011 -0.6014
 7541SOL    HW234257   1.844   3.412   2.476  0.9623  1.3308  1.1349
 7542SOL     OW34258   3.326   0.360   6.239 -0.1029 -0.0670  0.0503
 7542SOL    HW134259   3.397   0.422   6.254 -0.4471  0.7460 -1.5605
 7542SOL    HW234260   3.348   0.299   6.309  1.9222 -1.1154 -1.5008
 7543SOL     OW34261   4.063   2.259   2.589 -0.1025  0.1420 -0.0047
 7543SOL    HW134262   3.996   2.190   2.590 -2.3371  2.3090  0.6922
 7543SOL    HW234263   4.074   2.282   2.681 -1.4323  0.6430  0.0309
 7544SOL     OW34264   2.534   3.003   3.860  0.2954  0.1748 -0.2820
 7544SOL    HW134265   2.507   2.916   3.889 -1.4873  0.7216 -0.3495
 7544SOL    HW234266   2.490   3.014   3.776 -2.1588  1.9895  1.2754
 7545SOL     OW34267   0.943   0.478  14.809  0.1917  0.3140 -0.0063
 7545SOL    HW134268   0.990   0.409  14.856  1.6579  0.1714 -1.6953
 7545SOL    HW234269   0.953   0.445  14.719 -2.9548  0.6863 -0.5158
 7546SOL     OW34270   2.606   4.191   3.252 -0.3187 -0.3442  0.1055
 7546SOL    HW134271   2.553   4.218   3.177  0.1296  1.4871  0.4276
 7546SOL    HW234272   2.687   4.190   3.201 -0.9107 -0.0230 -0.8581
 7547SOL     OW34273   3.508   0.665  15.348 -0.5319 -0.0195 -0.5867
 7547SOL    HW134274   3.449   0.683  15.421 -1.8653 -2.3008 -1.0950
 7547SOL    HW234275   3.443   0.627  15.288  1.6971 -3.2979 -0.9186
 7548SOL     OW34276   4.257   0.392   2.656  0.4913 -0.8014 -0.2677
 7548SOL    HW134277   4.258   0.429   2.568  0.0419 -2.0770 -0.8100
 7548SOL    HW234278   4.163   0.372   2.663  0.6515 -1.6758 -0.7071
 7549SOL     OW34279   2.608   4.142   8.101 -0.1407  0.3736 -0.5231
 7549SOL    HW134280   2.639   4.194   8.174 -1.9032  0.1874  0.3566
 7549SOL    HW234281   2.662   4.167   8.026  0.2358  0.1439 -0.3272
 7550SOL     OW34282   0.964   1.646   8.268  0.3393  0.2325  0.4997
 7550SOL    HW134283   0.988   1.723   8.217 -0.2849 -0.5772 -1.0265
 7550SOL    HW234284   0.869   1.654   8.275  0.2420  0.8718 -1.6033
 7551SOL     OW34285   2.041   4.024   8.000 -0.9280  0.1333 -0.3033
 7551SOL    HW134286   2.105   4.030   8.071 -0.8041  0.8403 -0.4690
 7551SOL    HW234287   2.090   4.038   7.919  1.4385 -1.5561  0.8581
 7552SOL     OW34288   0.040   3.797   5.309  0.8706  0.2344 -0.0495
 7552SOL    HW134289   0.028   3.711   5.350 -1.1862  0.7499  0.4325
 7552SOL    HW234290   0.061   3.779   5.218 -3.1684  1.6688 -1.2577
 7553SOL     OW34291   1.454   1.704   3.452 -0.5905 -0.4620 -0.5953
 7553SOL    HW134292   1.407   1.631   3.491 -3.5924  0.6666 -2.0767
 7553SOL    HW234293   1.539   1.667   3.429  0.4764  0.4965  1.8498
 7554SOL     OW34294   2.886   3.940   3.007 -0.1902  0.3660 -0.6065
 7554SOL    HW134295   2.920   3.855   3.037  1.6403  1.5929  0.7402
 7554SOL    HW234296   2.807   3.912   2.960  0.0642  2.2027 -2.1111
 7555SOL     OW34297   0.713   4.310   3.754 -0.1108 -0.0976  0.1015
 7555SOL    HW134298   0.725   4.298   3.660 -0.6238  1.6196 -0.1758
 7555SOL    HW234299   0.803   4.333   3.776 -0.1305  0.6404 -0.6105
 7556SOL     OW34300   2.771   0.536  11.122  0.3019  0.1827  0.0782
 7556SOL    HW134301   2.865   0.518  11.129  0.3714  0.7557  0.6153
 7556SOL    HW234302   2.776   0.616  11.070  0.2847  0.4303  0.4601
 7557SOL     OW34303   3.204   4.681   6.573 -0.9664  0.5069  0.4522
 7557SOL    HW134304   3.292   4.706   6.602 -0.1039 -0.3414 -1.4708
 7557SOL    HW234305   3.177   0.030   6.549  0.2429  1.3576  2.1631
 7558SOL     OW34306   4.198   0.171   6.472  0.8166 -0.7148  0.2688
 7558SOL    HW134307   4.158   0.150   6.556  1.7944 -0.9884  0.6710
 7558SOL    HW234308   4.125   0.164   6.411  0.2164 -1.1748  1.0447
 7559SOL     OW34309   1.593   1.512   8.412 -0.2200  0.1994 -0.4670
 7559SOL    HW134310   1.595   1.554   8.498 -0.8675 -1.8360  0.5399
 7559SOL    HW234311   1.595   1.418   8.430 -0.7779  0.0452 -1.2509
 7560SOL     OW34312   0.738   3.340   3.609  0.3556  0.0711 -0.1870
 7560SOL    HW134313   0.778   3.360   3.693 -0.1409 -0.9132  0.2864
 7560SOL    HW234314   0.769   3.410   3.552  0.3211 -0.6500 -1.0964
 7561SOL     OW34315   3.262   1.081   7.110 -0.1125  0.3920  0.3025
 7561SOL    HW134316   3.169   1.074   7.090 -0.2160  0.4068  0.7706
 7561SOL    HW234317   3.282   1.161   7.062 -0.7107  0.6171  0.4295
 7562SOL     OW34318   2.287   1.057   2.600  0.2665 -0.3084 -0.1806
 7562SOL    HW134319   2.374   1.066   2.561 -0.5140  0.2871 -1.7366
 7562SOL    HW234320   2.253   1.146   2.602  1.9519  0.3413 -0.7599
 7563SOL     OW34321   2.927   0.482   2.236  0.1413 -0.3845 -0.1006
 7563SOL    HW134322   2.876   0.424   2.293 -1.0197  0.5313 -0.2029
 7563SOL    HW234323   3.001   0.423   2.224 -0.4077 -0.9817 -0.6051
 7564SOL     OW34324   4.619   4.209   2.240  0.8464 -0.2162  0.6179
 7564SOL    HW134325   4.661   4.150   2.178  1.1311 -0.6042  1.1903
 7564SOL    HW234326   4.529   4.177   2.230  1.4151 -1.5595 -0.1967
 7565SOL     OW34327   1.018   3.408   2.500  0.0579 -0.7813  0.1799
 7565SOL    HW134328   0.994   3.472   2.567  0.4354 -0.9899  0.5129
 7565SOL    HW234329   0.972   3.328   2.526  0.2206 -1.0646 -0.3926
 7566SOL     OW34330   4.034   0.936   9.788  0.5965 -0.1453 -0.0925
 7566SOL    HW134331   3.954   0.974   9.753  0.2486 -0.6916  0.1161
 7566SOL    HW234332   4.089   0.933   9.710  0.1679  0.7709 -0.4210
 7567SOL     OW34333   3.481   0.516  16.548  0.3581  0.0448 -0.6303
 7567SOL    HW134334   3.528   0.465  16.482 -1.2100 -1.5644 -0.5069
 7567SOL    HW234335   3.524   0.601  16.547 -0.4581  0.4464 -2.8843
 7568SOL     OW34336   1.167   3.907   2.046  0.0712  0.3028 -0.1030
 7568SOL    HW134337   1.260   3.892   2.030 -0.2231  0.3060 -1.8300
 7568SOL    HW234338   1.138   3.892   1.956  0.1928 -0.7287  0.0350
 7569SOL     OW34339   1.165   3.303   8.308  0.3540 -0.2312 -0.2891
 7569SOL    HW134340   1.129   3.326   8.394  1.3010  1.3021 -0.3048
 7569SOL    HW234341   1.159   3.390   8.270  2.0899  0.3150  0.7173
 7570SOL     OW34342   4.561   3.373   4.238  0.0221  0.1780 -0.2303
 7570SOL    HW134343   4.587   3.464   4.258 -2.0691  0.6204  0.5231
 7570SOL    HW234344   4.466   3.370   4.253  0.3883 -0.3137  1.9943
 7571SOL     OW34345   1.082   4.221   5.205 -0.2527  0.3017 -1.0371
 7571SOL    HW134346   1.041   4.250   5.287  0.8990  0.8473 -0.6464
 7571SOL    HW234347   1.133   4.300   5.186 -0.5768  0.2216 -2.2610
 7572SOL     OW34348   2.326   4.025  11.400  0.3443 -0.1011 -0.2758
 7572SOL    HW134349   2.368   4.012  11.486 -1.4950 -1.2685  0.4314
 7572SOL    HW234350   2.256   3.961  11.392  1.5840 -1.7695  2.2568
 7573SOL     OW34351   4.644   0.230   4.424  0.3825  0.1617 -0.6980
 7573SOL    HW134352   4.684   0.227   4.337 -1.2398  2.1747 -1.5132
 7573SOL    HW234353   4.706   0.287   4.471 -0.7309  1.1234 -0.3990
 7574SOL     OW34354   2.116   0.139  11.059 -0.4121  0.5240 -0.1649
 7574SOL    HW134355   2.062   0.128  11.137 -1.3657 -1.1020 -1.0589
 7574SOL    HW234356   2.043   0.167  11.004 -0.6723  0.0174 -0.0776
 7575SOL     OW34357   3.903   3.428   2.726 -0.1021  0.1245  0.2605
 7575SOL    HW134358   3.932   3.499   2.784 -0.4117  0.4185  0.0555
 7575SOL    HW234359   3.919   3.361   2.792  0.3081  0.4064  0.4442
 7576SOL     OW34360   3.407   4.697   7.938  0.1410 -0.2120  1.2050
 7576SOL    HW134361   3.314   4.687   7.917 -0.1348  0.8361  1.9265
 7576SOL    HW234362   3.431   4.604   7.936  0.8461 -0.0276  0.9935
 7577SOL     OW34363   2.838   0.660  14.383 -0.3001  0.5983 -0.4039
 7577SOL    HW134364   2.867   0.622  14.466 -2.0477  0.2470  0.0554
 7577SOL    HW234365   2.927   0.680  14.354  0.4712 -1.0221  0.8379
 7578SOL     OW34366   0.085   0.817   3.633 -0.5120 -0.2385  0.3131
 7578SOL    HW134367   0.031   0.787   3.559 -0.0725  1.4220 -0.6822
 7578SOL    HW234368   0.012   0.837   3.691 -1.7732 -0.4394 -1.1871
 7579SOL     OW34369   3.747   1.117   8.740 -0.4283 -0.4663 -0.2341
 7579SOL    HW134370   3.687   1.131   8.813  0.4338 -1.3486  0.6480
 7579SOL    HW234371   3.753   1.204   8.701  0.0763 -0.9537 -1.2629
 7580SOL     OW34372   2.076   2.477   4.583 -0.3157 -0.2115 -0.2260
 7580SOL    HW134373   2.046   2.553   4.633  1.0352  0.3147 -0.2178
 7580SOL    HW234374   2.126   2.436   4.654 -1.8257 -1.1854  0.2821
 7581SOL     OW34375   4.258   3.183   7.933 -0.4333  0.2088 -0.0965
 7581SOL    HW134376   4.256   3.135   7.851  0.5862 -1.4082  0.8217
 7581SOL    HW234377   4.248   3.115   8.000 -1.6754 -2.7153 -3.2619
 7582SOL     OW34378   0.613   2.017   2.815 -0.2395 -0.8416 -0.1865
 7582SOL    HW134379   0.621   1.977   2.901  3.9562 -1.2273 -0.7058
 7582SOL    HW234380   0.600   2.107   2.845 -0.4076 -1.9580  3.0156
 7583SOL     OW34381   3.450   1.204   6.181  0.4337 -0.4253 -0.5001
 7583SOL    HW134382   3.456   1.278   6.241 -1.4297 -2.5094  2.2734
 7583SOL    HW234383   3.356   1.188   6.193  0.0301  1.3313 -1.3326
 7584SOL     OW34384   2.109   4.656   5.518 -0.2569 -0.2464  0.0119
 7584SOL    HW134385   2.113   4.569   5.478 -0.8091  0.1519 -0.8977
 7584SOL    HW234386   2.052   4.689   5.449 -0.2470  0.4905  0.3559
 7585SOL     OW34387   3.965   0.828  11.715  0.1845  0.1491  0.4587
 7585SOL    HW134388   3.912   0.755  11.683 -0.2093  0.4991  0.3044
 7585SOL    HW234389   3.959   0.884  11.637 -0.7010 -0.9607 -0.2666
 7586SOL     OW34390   3.730   4.167   2.227  0.2447  0.6227  0.1098
 7586SOL    HW134391   3.788   4.093   2.245  1.3093  1.4312  0.0356
 7586SOL    HW234392   3.792   4.239   2.240 -0.1090  0.9550 -0.0291
 7587SOL     OW34393   3.289   3.818  11.274  0.3707 -0.5789  0.3254
 7587SOL    HW134394   3.353   3.814  11.344 -2.1690 -1.5417  2.5626
 7587SOL    HW234395   3.321   3.892  11.222  1.1932 -0.8647  0.4286
 7588SOL     OW34396   3.673   4.676   9.293 -0.2238 -0.0374  0.5154
 7588SOL    HW134397   3.598   4.628   9.329  1.6824 -2.9428  0.5673
 7588SOL    HW234398   3.749   4.619   9.301  0.9467  1.8952  3.5682
 7589SOL     OW34399   1.438   1.051   2.980  0.0821  0.8797  0.3342
 7589SOL    HW134400   1.497   1.111   3.026 -1.5103  1.6878  1.3260
 7589SOL    HW234401   1.463   1.056   2.888  0.7868  2.1536  0.5964
 7590SOL     OW34402   1.189   2.916   2.534 -0.1219 -0.0654  0.2797
 7590SOL    HW134403   1.261   2.862   2.503 -0.3403 -0.0608 -0.2524
 7590SOL    HW234404   1.129   2.919   2.459  1.1242 -0.1631 -0.7252
 7591SOL     OW34405   0.001   2.913   3.807  0.1136  0.1842  0.3083
 7591SOL    HW134406   0.066   2.982   3.821 -0.3776  0.7520 -0.2446
 7591SOL    HW234407   4.689   2.917   3.888  1.4276 -1.2980  1.2302
 7592SOL     OW34408   2.777   1.742   0.441  0.5882  0.1793 -0.3826
 7592SOL    HW134409   2.699   1.767   0.392  0.2139 -3.2831 -1.5135
 7592SOL    HW234410   2.764   1.794   0.521 -1.4150 -0.9270  0.0017
 7593SOL     OW34411   2.438   2.196  13.013  0.0917 -0.0145  0.0417
 7593SOL    HW134412   2.482   2.243  13.084  0.2263 -1.0484  0.6412
 7593SOL    HW234413   2.459   2.253  12.939  1.4709  0.4878  0.8271
 7594SOL     OW34414   2.928   2.807   6.065  0.0427 -0.0524 -0.8605
 7594SOL    HW134415   2.880   2.735   6.023  0.4850 -1.9720  1.9377
 7594SOL    HW234416   3.015   2.767   6.069 -0.9772 -2.0457  1.3206
 7595SOL     OW34417   1.693   3.197   4.695  0.1095 -0.0311 -0.1569
 7595SOL    HW134418   1.685   3.228   4.785  0.4708  0.4383 -0.2867
 7595SOL    HW234419   1.787   3.206   4.681  0.2556 -2.9586 -0.9576
 7596SOL     OW34420   2.805   0.359   3.920 -0.4100 -0.2009  0.0385
 7596SOL    HW134421   2.896   0.339   3.943  0.3938  3.0672 -0.4041
 7596SOL    HW234422   2.767   0.272   3.906  2.4498 -1.6285  1.1220
 7597SOL     OW34423   0.131   1.318  17.076 -0.0484  0.7321 -0.4376
 7597SOL    HW134424   0.223   1.330  17.102 -0.3413  0.0112  0.9517
 7597SOL    HW234425   0.100   1.334  17.165  2.2261  0.0580  0.4862
 7598SOL     OW34426   2.331   4.025   8.245 -0.4158 -0.4527 -0.3957
 7598SOL    HW134427   2.411   3.989   8.206  0.1259  2.3482 -1.8586
 7598SOL    HW234428   2.347   3.999   8.336  0.8691 -0.8680 -0.7420
 7599SOL     OW34429   3.385   0.920   5.907  0.3511  0.3998  0.3660
 7599SOL    HW134430   3.309   0.864   5.920  1.6527 -1.6968 -1.1053
 7599SOL    HW234431   3.409   0.915   5.814 -0.7198 -0.9820  0.1605
 7600SOL     OW34432   4.570   2.319   9.046 -0.2885 -0.2154  0.2679
 7600SOL    HW134433   4.642   2.379   9.024  1.0188 -2.3409 -1.2501
 7600SOL    HW234434   4.567   2.336   9.141  1.8327  0.5242  0.1989
 7601SOL     OW34435   2.408   1.152   6.782 -0.5040  0.0219  0.2419
 7601SOL    HW134436   2.497   1.172   6.752 -0.8631 -0.5508 -1.1915
 7601SOL    HW234437   2.384   1.244   6.795 -3.3045 -0.6363 -0.3410
 7602SOL     OW34438   0.379   4.539   6.524 -0.4231 -0.1846 -0.1374
 7602SOL    HW134439   0.464   4.572   6.494 -1.1011  2.8001  1.2314
 7602SOL    HW234440   0.344   4.515   6.438  1.0360  0.6178 -0.9621
 7603SOL     OW34441   0.147   3.405   0.499  0.3867  0.0953  0.3449
 7603SOL    HW134442   0.100   3.451   0.429  0.2752  0.6779  0.8036
 7603SOL    HW234443   0.189   3.479   0.542 -1.1280  1.2282 -0.1085
 7604SOL     OW34444   4.083   4.148   3.734  0.4774 -0.2656  0.3000
 7604SOL    HW134445   4.082   4.088   3.809  0.5909 -0.9440 -0.2450
 7604SOL    HW234446   4.053   4.224   3.784 -1.7583 -0.4436 -0.7630
 7605SOL     OW34447   0.840   3.482   0.870  0.5644  0.4108 -0.9178
 7605SOL    HW134448   0.921   3.511   0.911 -0.1937 -1.5759  1.9812
 7605SOL    HW234449   0.845   3.387   0.883 -1.1301  0.7074  1.8419
 7606SOL     OW34450   0.716   2.738   8.730  1.2158 -0.1286 -0.1923
 7606SOL    HW134451   0.724   2.653   8.774 -1.3895 -0.4150 -0.2861
 7606SOL    HW234452   0.695   2.793   8.806  0.1761  0.6670 -1.0683
 7607SOL     OW34453   4.124   1.856  12.250 -0.3971  0.5477  0.7842
 7607SOL    HW134454   4.069   1.930  12.222 -2.2530 -1.5087 -1.0422
 7607SOL    HW234455   4.060   1.790  12.276  0.1457 -0.3703 -0.2084
 7608SOL     OW34456   1.105   3.041  12.055  0.1075 -0.2439  0.3922
 7608SOL    HW134457   1.164   3.016  11.984  0.4278 -0.6938  0.8220
 7608SOL    HW234458   1.163   3.090  12.113  0.5029 -0.1920 -0.0458
 7609SOL     OW34459   3.586   1.401   2.819  0.5920 -0.7212 -0.2435
 7609SOL    HW134460   3.534   1.435   2.746  0.1740 -1.7106 -0.4026
 7609SOL    HW234461   3.514   1.347   2.853 -1.1243  2.2535  0.8459
 7610SOL     OW34462   1.975   1.852   4.600 -0.4582  0.1719 -0.1633
 7610SOL    HW134463   1.904   1.908   4.570  0.2680 -0.4509 -3.0352
 7610SOL    HW234464   2.046   1.882   4.545 -0.7911 -0.8780 -1.1712
 7611SOL     OW34465   2.326   0.344   4.737  0.1081  0.3321  0.5924
 7611SOL    HW134466   2.269   0.344   4.814 -1.3884  1.7630 -0.5203
 7611SOL    HW234467   2.350   0.436   4.727  0.1042  0.0843 -1.7950
 7612SOL     OW34468   3.926   4.002   1.508  0.2505 -0.1948  0.6770
 7612SOL    HW134469   3.956   4.083   1.549 -0.4443  0.4335 -0.0517
 7612SOL    HW234470   3.849   4.030   1.459  0.1162  0.3331  1.1947
 7613SOL     OW34471   0.480   2.530   5.948  0.0821  0.5508 -0.5364
 7613SOL    HW134472   0.531   2.449   5.957  1.4947  1.4095 -0.6849
 7613SOL    HW234473   0.439   2.526   5.861  2.0221 -3.1716 -1.3056
 7614SOL     OW34474   4.654   2.652   4.725  0.2618 -0.1518 -0.4452
 7614SOL    HW134475   4.636   2.738   4.762 -0.1872 -1.5126  2.4993
 7614SOL    HW234476   4.713   2.613   4.789  0.1056  1.1189  0.4710
 7615SOL     OW34477   1.010   0.080   3.401  0.0338  0.2733 -0.1135
 7615SOL    HW134478   1.089   0.120   3.438  0.9840 -1.0903 -0.6716
 7615SOL    HW234479   0.983   0.136   3.328  0.5281  1.4129  0.5656
 7616SOL     OW34480   3.305   2.398  14.686 -0.3492 -0.5978  0.1509
 7616SOL    HW134481   3.351   2.478  14.659  2.1125 -2.3431 -0.9080
 7616SOL    HW234482   3.361   2.381  14.762 -1.1140  0.4353  0.9464
 7617SOL     OW34483   0.294   3.346   7.984  0.1069  0.0271  0.0434
 7617SOL    HW134484   0.273   3.412   7.917 -1.5097  0.5670  1.1021
 7617SOL    HW234485   0.373   3.387   8.021 -0.8403  1.3510  0.6085
 7618SOL     OW34486   1.434   2.366  14.951  0.0592  0.0813 -0.2260
 7618SOL    HW134487   1.376   2.366  14.874 -1.2984 -2.2514  0.8193
 7618SOL    HW234488   1.492   2.296  14.922  0.3508  0.7703 -1.3602
 7619SOL     OW34489   3.466   1.764  12.984 -0.8907  0.5034  0.0633
 7619SOL    HW134490   3.487   1.822  12.911  0.4475 -0.3225 -0.2096
 7619SOL    HW234491   3.546   1.711  12.978 -0.9861  0.4350 -0.6080
 7620SOL     OW34492   2.277   0.159   7.004  0.1772  0.0027  0.1253
 7620SOL    HW134493   2.337   0.233   6.997  0.9354 -0.4187  2.0210
 7620SOL    HW234494   2.225   0.175   6.925 -0.2625 -0.7464  0.2553
 7621SOL     OW34495   2.572   4.382  17.011  0.1608 -0.5658  0.4726
 7621SOL    HW134496   2.561   4.318  17.082 -1.4355  2.3382  2.8167
 7621SOL    HW234497   2.606   4.452  17.066 -1.4017 -0.0361  0.7621
 7622SOL     OW34498   3.549   0.558   2.672 -0.2129  0.0904  0.2806
 7622SOL    HW134499   3.610   0.623   2.637 -0.9366  0.9296  0.6116
 7622SOL    HW234500   3.591   0.532   2.754 -0.8648  0.5763  0.7666
 7623SOL     OW34501   3.087   1.266  17.157  0.2294  0.1558 -0.1597
 7623SOL    HW134502   3.023   1.256  17.086 -0.3611 -0.2990  0.4429
 7623SOL    HW234503   3.052   1.198  17.215  2.7693  1.0300  2.3825
 7624SOL     OW34504   3.295   1.212   4.443 -0.0981  0.3612 -0.3191
 7624SOL    HW134505   3.346   1.254   4.512 -2.0341  0.8480  0.8154
 7624SOL    HW234506   3.262   1.293   4.405 -0.0648 -0.5940 -2.3582
 7625SOL     OW34507   0.156   1.402  16.806  0.6804  0.0827 -0.1056
 7625SOL    HW134508   0.157   1.363  16.894  0.2014 -0.1208 -0.1899
 7625SOL    HW234509   0.142   1.495  16.822  1.6078  0.2355 -0.1785
 7626SOL     OW34510   0.047   1.903   4.109 -0.8453 -0.3447 -0.1715
 7626SOL    HW134511   0.057   1.938   4.021 -0.2882  2.1160  0.8525
 7626SOL    HW234512   4.692   1.901   4.127 -0.7835 -1.3665  0.0360
 7627SOL     OW34513   1.633   1.723   9.172  0.0637 -0.4902 -0.0267
 7627SOL    HW134514   1.671   1.811   9.174 -1.8651  0.3369  0.2131
 7627SOL    HW234515   1.564   1.721   9.238  2.1187  0.1349  2.1455
 7628SOL     OW34516   0.317   2.731  10.157 -0.0346 -0.4182 -0.1642
 7628SOL    HW134517   0.236   2.772  10.187 -0.8601 -1.5086 -0.9098
 7628SOL    HW234518   0.373   2.759  10.229  0.3435 -1.9348  0.1219
 7629SOL     OW34519   1.277   3.731   2.818  0.9875  0.1217 -0.7845
 7629SOL    HW134520   1.312   3.762   2.902 -0.2800  1.9134 -0.9275
 7629SOL    HW234521   1.356   3.735   2.764  1.7985  0.1738  0.4099
 7630SOL     OW34522   1.714   1.908  14.929 -0.1325 -0.0390  0.2439
 7630SOL    HW134523   1.798   1.953  14.939 -0.5382  1.1598 -1.6929
 7630SOL    HW234524   1.727   1.860  14.848  2.1936  2.5830 -0.9306
 7631SOL     OW34525   3.946   1.404   8.746  0.2528 -0.3856  0.3468
 7631SOL    HW134526   4.018   1.376   8.802 -0.5648 -1.2681  0.9567
 7631SOL    HW234527   3.911   1.475   8.800  0.4930  0.2729 -0.3641
 7632SOL     OW34528   3.680   4.188   1.482  0.2133  0.0963 -0.0242
 7632SOL    HW134529   3.651   4.253   1.417 -2.2843 -0.7172  0.2423
 7632SOL    HW234530   3.670   4.236   1.564 -3.3810 -0.1181 -0.3109
 7633SOL     OW34531   4.582   4.289   4.164  0.6227 -0.4199 -0.3827
 7633SOL    HW134532   4.616   4.205   4.133  0.9072 -0.0454 -1.0726
 7633SOL    HW234533   4.508   4.298   4.104 -0.4120  2.1532  1.2907
 7634SOL     OW34534   0.561   2.264   3.340  0.8733  0.0256 -0.2762
 7634SOL    HW134535   0.638   2.208   3.332  0.9075  0.4984 -3.3418
 7634SOL    HW234536   0.490   2.203   3.320  0.0517  0.9379 -0.1939
 7635SOL     OW34537   0.865   3.075   8.339 -0.5453  0.1591  0.1482
 7635SOL    HW134538   0.774   3.104   8.344 -0.4546  0.7794 -1.9376
 7635SOL    HW234539   0.920   3.135   8.388  2.3798 -2.0788 -0.3841
 7636SOL     OW34540   1.336   3.088   8.370  0.3976 -0.0042 -1.0077
 7636SOL    HW134541   1.266   3.153   8.375  2.4279  1.8737  3.0370
 7636SOL    HW234542   1.309   3.020   8.433 -1.9082  0.2675 -1.7079
 7637SOL     OW34543   1.021   4.493  12.581 -0.1447 -0.0707  0.0240
 7637SOL    HW134544   1.091   4.434  12.608  0.3501  0.1676 -0.7642
 7637SOL    HW234545   0.986   4.441  12.509  1.1898  0.6104 -1.0963
 7638SOL     OW34546   1.760   3.322   2.643 -0.0275  0.3074  0.4461
 7638SOL    HW134547   1.758   3.286   2.732 -0.8334 -1.1938 -0.1775
 7638SOL    HW234548   1.733   3.411   2.664 -1.1556 -0.2168  1.1755
 7639SOL     OW34549   3.509   0.169   7.515  0.8653  0.7250 -0.0943
 7639SOL    HW134550   3.571   0.097   7.500 -0.9794 -1.2203  1.7284
 7639SOL    HW234551   3.562   0.207   7.586  0.3259  2.5191 -0.6567
 7640SOL     OW34552   3.253   1.820   1.227 -0.2335  0.2725  0.2630
 7640SOL    HW134553   3.167   1.842   1.193 -1.5755 -0.6150  3.0952
 7640SOL    HW234554   3.300   1.897   1.198 -0.7628 -0.3055 -2.1085
 7641SOL     OW34555   2.000   2.269   6.289 -0.4432  0.8832  0.2993
 7641SOL    HW134556   2.094   2.278   6.306 -0.1471  2.8161 -2.3994
 7641SOL    HW234557   1.961   2.268   6.376 -0.9143  1.6960  0.0976
 7642SOL     OW34558   2.048   3.968   1.313  0.3664  0.5801  0.2659
 7642SOL    HW134559   2.071   4.054   1.347 -1.5500  0.7202  1.1945
 7642SOL    HW234560   2.133   3.925   1.303  0.6504  1.3095 -0.4072
 7643SOL     OW34561   0.820   1.577   1.824  0.9375 -0.1350  0.2959
 7643SOL    HW134562   0.862   1.584   1.738 -3.1823 -3.0915 -1.9836
 7643SOL    HW234563   0.848   1.659   1.864  0.3158 -0.4885  1.4536
 7644SOL     OW34564   0.193   0.659  15.004 -0.3804  1.4150  0.4636
 7644SOL    HW134565   0.279   0.668  14.962 -1.5173  1.8788 -1.8006
 7644SOL    HW234566   0.217   0.630  15.092 -0.3265  1.1377  0.3582
 7645SOL     OW34567   1.297   3.518   9.341  0.2254 -0.1908 -0.0122
 7645SOL    HW134568   1.361   3.586   9.360  0.7733 -0.8109  0.3752
 7645SOL    HW234569   1.357   3.460   9.295  2.4927  0.4568  2.1124
 7646SOL     OW34570   0.935   2.449   2.848  0.2016  0.0496  0.5279
 7646SOL    HW134571   1.003   2.429   2.913  0.6582 -0.3536 -0.0770
 7646SOL    HW234572   0.960   2.540   2.832 -0.3458 -0.2441 -1.9337
 7647SOL     OW34573   0.512   0.013   2.647 -0.2768  0.4829 -0.2853
 7647SOL    HW134574   0.491   4.663   2.676 -1.8793  0.8034 -0.4565
 7647SOL    HW234575   0.605   0.015   2.669 -0.2376 -0.7595 -0.2971
 7648SOL     OW34576   3.309   1.045  12.891 -0.0143 -0.8736  0.2497
 7648SOL    HW134577   3.389   1.068  12.939 -1.1926  2.3704  0.6683
 7648SOL    HW234578   3.312   0.949  12.896 -0.3520 -0.9934 -1.8847
 7649SOL     OW34579   1.953   4.021  17.398  0.1708  0.3067  0.0735
 7649SOL    HW134580   1.943   3.938  17.444 -1.7672  0.7595  0.4683
 7649SOL    HW234581   2.020   4.062  17.453  0.2160  2.2237 -1.3987
 7650SOL     OW34582   1.726   1.893   7.029 -0.1526 -0.4145 -0.0598
 7650SOL    HW134583   1.793   1.906   7.096  0.1859 -1.7386 -0.1510
 7650SOL    HW234584   1.655   1.858   7.083 -0.7830  0.5892 -0.2323
 7651SOL     OW34585   2.670   0.641  12.114  0.2317  0.0260 -0.2425
 7651SOL    HW134586   2.578   0.649  12.137  0.4029  0.3248  0.3537
 7651SOL    HW234587   2.666   0.650  12.019 -1.1235  0.7194 -0.1135
 7652SOL     OW34588   2.675   4.637  12.458 -0.1417  0.5080 -0.3484
 7652SOL    HW134589   2.765   4.663  12.474  0.3349 -2.5526  2.0467
 7652SOL    HW234590   2.676   4.639  12.362 -1.4775  2.4280 -0.3257
 7653SOL     OW34591   4.615   3.262  15.435  0.4917 -0.1345  0.0726
 7653SOL    HW134592   4.627   3.356  15.451  1.0392 -0.1373 -0.3096
 7653SOL    HW234593   4.691   3.242  15.380  0.2996 -2.1355  0.5418
 7654SOL     OW34594   2.829   1.743   7.344  0.3029  0.0496 -0.1729
 7654SOL    HW134595   2.832   1.693   7.425  0.0263 -0.1009 -0.2535
 7654SOL    HW234596   2.863   1.673   7.287 -0.7410  1.5131 -2.5672
 7655SOL     OW34597   3.617   1.009   6.216 -0.6915  0.1578 -0.0739
 7655SOL    HW134598   3.563   1.081   6.183  0.8465  0.6564 -1.4548
 7655SOL    HW234599   3.640   0.956   6.140 -1.2550  0.6609 -0.5870
 7656SOL     OW34600   3.016   0.936   6.253 -0.1320  0.1877 -0.2471
 7656SOL    HW134601   2.947   0.870   6.245  0.2831 -0.0410 -1.8740
 7656SOL    HW234602   3.065   0.912   6.332  1.3886 -1.1928 -1.6103
 7657SOL     OW34603   0.773   2.404   3.891  0.2209  0.4609  0.2171
 7657SOL    HW134604   0.827   2.338   3.936  2.2358  1.8606 -0.1647
 7657SOL    HW234605   0.823   2.484   3.906 -0.3416  0.3791  2.6658
 7658SOL     OW34606   1.397   1.716  16.505 -0.1031  0.3896  0.5351
 7658SOL    HW134607   1.325   1.656  16.488  1.4647 -1.1767 -0.6569
 7658SOL    HW234608   1.461   1.695  16.436 -1.5835  1.9012 -1.2971
 7659SOL     OW34609   3.111   1.813   6.119 -0.6261  0.1102 -0.1263
 7659SOL    HW134610   3.034   1.864   6.092 -1.1928 -0.1286  1.0178
 7659SOL    HW234611   3.102   1.816   6.214  0.9480 -1.4612  0.0723
 7660SOL     OW34612   1.581   2.329   2.879  0.0378 -0.7580  0.0692
 7660SOL    HW134613   1.572   2.236   2.857  0.6378 -0.4736 -1.3620
 7660SOL    HW234614   1.514   2.367   2.822 -2.0651 -1.7292  1.8832
 7661SOL     OW34615   1.264   0.341  13.055  0.4747 -0.2691 -0.3306
 7661SOL    HW134616   1.278   0.435  13.049 -0.5678 -0.0989 -0.0392
 7661SOL    HW234617   1.190   0.339  13.116  0.9541  1.0016  0.2916
 7662SOL     OW34618   3.202   3.249   2.106 -0.6710 -0.2903 -0.2753
 7662SOL    HW134619   3.289   3.282   2.085  0.0347 -2.2338 -0.4641
 7662SOL    HW234620   3.192   3.202   2.023 -1.4409  0.3439 -0.5317
 7663SOL     OW34621   2.376   2.551   6.272 -0.0931  0.4689 -0.1542
 7663SOL    HW134622   2.460   2.510   6.249 -0.4965  0.3043 -1.3739
 7663SOL    HW234623   2.359   2.611   6.199  0.7126 -1.4284 -1.9104
 7664SOL     OW34624   2.506   4.419   8.846  0.2955  0.0033  0.1080
 7664SOL    HW134625   2.460   4.480   8.904  0.2871  1.8057 -1.7730
 7664SOL    HW234626   2.526   4.470   8.767 -1.9515  0.8004  0.0431
 7665SOL     OW34627   2.651   1.917   8.519 -0.3538 -0.2538 -0.3160
 7665SOL    HW134628   2.676   2.006   8.493  1.6394 -0.7415 -0.0956
 7665SOL    HW234629   2.570   1.924   8.569  1.5447 -1.4764  2.8935
 7666SOL     OW34630   1.478   3.361   0.431 -0.4447 -0.0198  0.0305
 7666SOL    HW134631   1.528   3.427   0.481  0.1701 -1.5942  1.5184
 7666SOL    HW234632   1.502   3.378   0.340 -1.5602 -1.4385 -0.5168
 7667SOL     OW34633   2.956   1.133   3.314  0.0092 -0.5167 -0.2669
 7667SOL    HW134634   2.909   1.106   3.393  1.8900  0.9981  1.3510
 7667SOL    HW234635   2.900   1.119   3.238 -1.3980  0.1265  0.6436
 7668SOL     OW34636   1.121   2.365   3.025 -0.0195  0.3347 -0.1998
 7668SOL    HW134637   1.193   2.321   3.070 -0.8449 -0.6899  0.1060
 7668SOL    HW234638   1.085   2.405   3.104 -0.6169 -1.7332  0.5710
 7669SOL     OW34639   3.441   1.910   2.788  0.0116  0.2226 -0.3177
 7669SOL    HW134640   3.403   1.944   2.869  1.1598  1.2932 -0.2189
 7669SOL    HW234641   3.410   1.820   2.785 -1.2087  0.6667 -0.8876
 7670SOL     OW34642   3.057   1.582   4.628 -0.1120 -0.5465 -0.0728
 7670SOL    HW134643   3.081   1.564   4.537  0.0344 -3.3124  0.4941
 7670SOL    HW234644   2.997   1.656   4.625  2.0267  1.1490 -0.9212
 7671SOL     OW34645   1.717   3.976   1.635 -0.6232 -0.2727 -0.1676
 7671SOL    HW134646   1.812   3.980   1.644 -0.6599  1.8624 -0.6471
 7671SOL    HW234647   1.703   3.883   1.655 -0.1037 -0.2649  0.2423
 7672SOL     OW34648   2.362   2.616   1.387 -0.1502  0.1055 -0.3607
 7672SOL    HW134649   2.437   2.557   1.379 -0.4925 -0.3558 -0.1136
 7672SOL    HW234650   2.308   2.603   1.310 -0.9213 -0.7270  0.3271
 7673SOL     OW34651   0.713   2.446   7.186  0.5928 -0.3234  0.3985
 7673SOL    HW134652   0.762   2.524   7.159  0.9443 -0.7815 -0.2712
 7673SOL    HW234653   0.624   2.476   7.208  0.5802 -0.7100  0.8525
 7674SOL     OW34654   0.909   1.045   0.629  0.4839 -0.1769  0.5932
 7674SOL    HW134655   0.930   0.983   0.560 -1.0464  0.1962 -0.2158
 7674SOL    HW234656   0.971   1.115   0.606 -0.8194  0.2893 -1.5256
 7675SOL     OW34657   1.872   0.647   4.378 -0.4793 -0.8687 -0.2042
 7675SOL    HW134658   1.933   0.658   4.306 -1.4327 -0.0317 -0.8731
 7675SOL    HW234659   1.793   0.632   4.326 -0.9966  1.4690 -0.0714
 7676SOL     OW34660   2.643   2.028  11.767 -0.4390 -0.0153  0.4289
 7676SOL    HW134661   2.729   1.987  11.780 -0.5367 -0.5385 -0.5612
 7676SOL    HW234662   2.654   2.083  11.690  3.2149 -1.2378  0.0255
 7677SOL     OW34663   3.830   0.462   3.099 -0.2777 -0.4188 -0.2677
 7677SOL    HW134664   3.800   0.451   3.189 -0.5770 -0.3329 -0.3563
 7677SOL    HW234665   3.840   0.558   3.100 -2.7595 -0.1452 -0.5684
 7678SOL     OW34666   2.896   2.295   2.640 -0.1678  0.5432 -0.1465
 7678SOL    HW134667   2.960   2.297   2.569  2.2504 -0.1210  2.0203
 7678SOL    HW234668   2.930   2.218   2.685 -1.4612  0.2945  0.4226
 7679SOL     OW34669   2.107   2.827  13.327 -0.2818  0.0848  0.0302
 7679SOL    HW134670   2.074   2.801  13.413  0.1796 -0.1120  0.1470
 7679SOL    HW234671   2.083   2.744  13.287 -0.9255  1.2265 -2.0015
 7680SOL     OW34672   2.117   4.160   5.756  0.6062 -0.4576 -0.1944
 7680SOL    HW134673   2.201   4.170   5.710  0.9774  1.8735  0.9563
 7680SOL    HW234674   2.125   4.220   5.830  0.7922 -1.3827  0.5261
 7681SOL     OW34675   3.254   1.923  10.084 -0.1781  0.4611 -0.5042
 7681SOL    HW134676   3.166   1.888  10.095 -0.5959  1.2973 -1.1305
 7681SOL    HW234677   3.306   1.857  10.040  1.8721  1.0754  0.9916
 7682SOL     OW34678   2.906   3.940   9.124 -0.3838  0.1432  0.4672
 7682SOL    HW134679   2.855   3.992   9.061  1.9229  2.6901  0.6686
 7682SOL    HW234680   2.843   3.912   9.190 -2.0568  1.3580 -0.6284
 7683SOL     OW34681   2.731   2.555   5.270  0.0855  0.0668  0.4110
 7683SOL    HW134682   2.678   2.615   5.322 -0.0392  0.2354  0.0876
 7683SOL    HW234683   2.757   2.483   5.327 -0.4605  0.2321  0.8692
 7684SOL     OW34684   0.486   0.476   9.878  0.0234 -0.0515  0.4575
 7684SOL    HW134685   0.399   0.493   9.844  0.0596  0.6751  0.7375
 7684SOL    HW234686   0.519   0.563   9.857  0.2708  0.1737  1.7861
 7685SOL     OW34687   0.089   3.813   8.083 -0.5999 -0.0898 -0.2247
 7685SOL    HW134688   0.055   3.725   8.100  2.0049 -1.4092 -1.9253
 7685SOL    HW234689   0.160   3.803   8.020  0.2630 -0.0394  0.7303
 7686SOL     OW34690   0.155   0.403   8.997 -0.5342  0.2507 -0.3092
 7686SOL    HW134691   0.190   0.471   8.940  0.8464 -1.0618 -1.0220
 7686SOL    HW234692   0.061   0.400   8.976 -0.6328  1.3344 -0.0420
 7687SOL     OW34693   1.716   3.263   4.961  0.2516 -0.0214  0.5639
 7687SOL    HW134694   1.790   3.205   4.981  2.7219  3.0643  0.3632
 7687SOL    HW234695   1.750   3.337   5.012  1.7180  1.2836 -2.3249
 7688SOL     OW34696   0.511   2.954   2.012 -0.5614 -0.3620 -0.1271
 7688SOL    HW134697   0.432   3.000   2.041  1.2344  2.0424  0.9402
 7688SOL    HW234698   0.542   3.008   1.939  0.3075  0.0560  0.5591
 7689SOL     OW34699   4.422   3.293   3.244  0.2084 -0.3606  0.4427
 7689SOL    HW134700   4.485   3.244   3.298  1.5879  0.0343 -0.8170
 7689SOL    HW234701   4.449   3.381   3.270 -3.8235  0.5371  1.6472
 7690SOL     OW34702   4.320   3.239   8.712  0.6059  0.4453 -0.4941
 7690SOL    HW134703   4.360   3.204   8.791 -0.0540  0.6029 -0.0929
 7690SOL    HW234704   4.332   3.163   8.655 -0.3006 -1.5899  2.0424
 7691SOL     OW34705   4.539   1.046   8.956  0.6374  0.1720 -0.0476
 7691SOL    HW134706   4.522   0.987   8.882 -1.1538  1.1170 -0.3766
 7691SOL    HW234707   4.596   0.985   9.004 -0.2038  0.3804  1.2139
 7692SOL     OW34708   2.929   0.752   6.475 -0.3715  0.1535  0.8859
 7692SOL    HW134709   2.965   0.803   6.548  3.2373  0.2180 -0.9793
 7692SOL    HW234710   2.860   0.818   6.466  0.5727  0.4631 -3.7176
 7693SOL     OW34711   0.699   0.577  11.294 -0.4226 -0.5163 -0.0065
 7693SOL    HW134712   0.646   0.505  11.260 -2.2677  0.2348  1.2692
 7693SOL    HW234713   0.700   0.631  11.214  0.1904 -2.7973 -1.5335
 7694SOL     OW34714   3.197   1.177   5.169  0.5106  0.4830 -0.2069
 7694SOL    HW134715   3.122   1.141   5.218  1.8705 -1.2664  0.5706
 7694SOL    HW234716   3.184   1.271   5.180  0.8798  0.5189 -0.1019
 7695SOL     OW34717   2.259   2.302  14.110  0.3194 -0.6556  0.6471
 7695SOL    HW134718   2.262   2.392  14.141 -1.8962 -0.6929  1.0151
 7695SOL    HW234719   2.258   2.310  14.015 -0.4598 -0.6271  0.6552
 7696SOL     OW34720   2.583   3.390   9.197 -0.4160 -0.1018 -0.7248
 7696SOL    HW134721   2.649   3.385   9.266 -2.1311  1.8592  1.0960
 7696SOL    HW234722   2.510   3.341   9.235 -0.5501  0.2554 -0.5140
 7697SOL     OW34723   3.736   4.601  11.162  0.4174  0.2281  0.4139
 7697SOL    HW134724   3.831   4.611  11.157  0.7069 -2.2063  0.9826
 7697SOL    HW234725   3.722   4.517  11.119 -0.1389  2.0372 -2.9519
 7698SOL     OW34726   4.205   3.595   9.880  0.0754  0.3481  0.3979
 7698SOL    HW134727   4.270   3.570   9.946  1.2093  1.4982 -0.2807
 7698SOL    HW234728   4.141   3.641   9.934  1.8611  0.3233  2.5118
 7699SOL     OW34729   4.523   2.596   3.647 -0.1763  0.6702  0.4903
 7699SOL    HW134730   4.469   2.597   3.726 -1.3939  0.0430 -0.3493
 7699SOL    HW234731   4.603   2.566   3.690 -0.0719  1.5397  0.8989
 7700SOL     OW34732   2.075   1.175  14.715  0.7652 -0.3493 -0.0294
 7700SOL    HW134733   2.132   1.119  14.767  0.4718  0.8989  1.6210
 7700SOL    HW234734   2.028   1.104  14.670  1.4084 -1.0524  0.4102
 7701SOL     OW34735   0.993   1.374  15.697 -0.3305 -0.0034 -0.1018
 7701SOL    HW134736   0.944   1.328  15.629  1.2265 -1.2045 -0.4099
 7701SOL    HW234737   0.962   1.465  15.695 -1.4713 -0.3986 -0.7448
 7702SOL     OW34738   4.601   4.198   8.336  0.3637  0.3872  0.4268
 7702SOL    HW134739   4.592   4.130   8.269 -0.1884  1.4933 -0.6433
 7702SOL    HW234740   4.639   4.160   8.415  2.3250 -2.2432 -1.7750
 7703SOL     OW34741   0.868   1.538   3.360  1.0360  0.2108  0.1145
 7703SOL    HW134742   0.790   1.577   3.401 -0.3911 -0.9704 -1.4715
 7703SOL    HW234743   0.916   1.502   3.434 -2.1479 -2.6769  0.7941
 7704SOL     OW34744   2.821   3.216   2.896  0.5708 -0.0931  0.2733
 7704SOL    HW134745   2.866   3.132   2.906 -3.2330 -2.3930 -1.6387
 7704SOL    HW234746   2.766   3.214   2.975  0.8005 -2.1374  0.3919
 7705SOL     OW34747   1.494   2.976   1.846  0.2686  0.0558  0.8004
 7705SOL    HW134748   1.492   3.048   1.783 -0.7716 -1.6506 -1.1091
 7705SOL    HW234749   1.558   3.011   1.908 -0.7314  0.0831  1.8309
 7706SOL     OW34750   2.148   2.199  10.488  0.2146 -0.3619  0.3433
 7706SOL    HW134751   2.085   2.225  10.422  1.1000  2.1638  0.4898
 7706SOL    HW234752   2.223   2.255  10.465 -0.8060  0.6074 -0.5995
 7707SOL     OW34753   1.517   0.741  15.123 -0.0155  0.1822  0.1637
 7707SOL    HW134754   1.566   0.760  15.044 -0.1059 -0.6066 -0.0815
 7707SOL    HW234755   1.481   0.653  15.108 -0.5008  0.0473  2.1144
 7708SOL     OW34756   1.626   4.470  10.278  0.3105  0.4650  0.1852
 7708SOL    HW134757   1.555   4.487  10.217 -0.8782  0.7081  1.6319
 7708SOL    HW234758   1.668   4.395  10.236 -0.6838 -0.3822  0.7029
 7709SOL     OW34759   1.747   3.381   4.030  0.1781  0.0274 -0.1816
 7709SOL    HW134760   1.750   3.290   4.059  2.7940 -0.5503 -2.3142
 7709SOL    HW234761   1.795   3.433   4.095 -1.3303 -0.1294  1.0604
 7710SOL     OW34762   4.051   4.294  11.970 -0.3186 -0.3521 -0.0644
 7710SOL    HW134763   3.968   4.315  12.013  1.2628  1.0576  2.3168
 7710SOL    HW234764   4.028   4.221  11.913 -1.1272 -0.0072 -0.1876
 7711SOL     OW34765   3.068   2.098   8.624  0.2512 -0.0984  0.7730
 7711SOL    HW134766   3.111   2.117   8.540  0.6580  3.7487  1.8656
 7711SOL    HW234767   3.148   2.079   8.673  0.2806  1.0379  1.1685
 7712SOL     OW34768   3.462   3.035   5.060 -0.5430 -0.5722 -0.1819
 7712SOL    HW134769   3.472   3.050   5.154  1.2507  0.8828 -0.6161
 7712SOL    HW234770   3.416   3.116   5.043  1.9029  1.1761  1.5353
 7713SOL     OW34771   3.537   0.578   7.888  0.7315 -0.6769  0.7204
 7713SOL    HW134772   3.494   0.632   7.954  1.2715 -1.9127  2.0897
 7713SOL    HW234773   3.480   0.501   7.881  1.6560 -1.5695  2.7238
 7714SOL     OW34774   1.120   1.716   8.738  0.2712 -0.4289 -0.2248
 7714SOL    HW134775   1.027   1.698   8.729  0.3994 -0.9159 -0.5736
 7714SOL    HW234776   1.152   1.632   8.705  0.4312 -0.3289 -0.3233
 7715SOL     OW34777   2.389   3.691  15.549 -0.3036 -0.1831  0.0323
 7715SOL    HW134778   2.416   3.774  15.589  0.2586 -0.8878  1.1004
 7715SOL    HW234779   2.326   3.726  15.485  1.5449 -0.2192 -1.8010
 7716SOL     OW34780   4.352   3.102   4.653 -0.5664 -0.2422 -0.3495
 7716SOL    HW134781   4.404   3.027   4.624  0.8190 -0.3788  2.4524
 7716SOL    HW234782   4.330   3.081   4.744  0.6652  0.4224  0.1083
 7717SOL     OW34783   2.561   0.872   1.714  0.4115 -0.0352  0.0741
 7717SOL    HW134784   2.607   0.871   1.630  1.5767 -1.0046  0.7190
 7717SOL    HW234785   2.553   0.778   1.731 -0.7159  0.4755  2.4108
 7718SOL     OW34786   0.790   3.452  11.314  0.1540 -0.3626  0.2464
 7718SOL    HW134787   0.707   3.405  11.311 -0.9514  1.5387  1.4345
 7718SOL    HW234788   0.795   3.474  11.407  1.9469 -0.6699  0.2256
 7719SOL     OW34789   0.972   1.751   5.529 -0.0415  0.8086  0.1079
 7719SOL    HW134790   0.877   1.758   5.521 -0.0957  1.6508  1.4457
 7719SOL    HW234791   0.997   1.841   5.548  0.2914  0.7357  0.0110
 7720SOL     OW34792   1.647   2.427   1.158 -0.4114  0.4007  0.3601
 7720SOL    HW134793   1.602   2.426   1.243  0.9813  0.7986  1.1009
 7720SOL    HW234794   1.732   2.386   1.174 -0.8622 -1.1677 -1.3102
 7721SOL     OW34795   3.094   2.585  14.288  0.3131  0.3578 -0.0320
 7721SOL    HW134796   3.006   2.550  14.272  0.8209 -1.1007  0.3094
 7721SOL    HW234797   3.133   2.517  14.344 -0.3769 -2.8126 -3.3558
 7722SOL     OW34798   0.323   2.699   1.522  0.1972  0.2749 -0.1340
 7722SOL    HW134799   0.269   2.771   1.491 -0.4457  0.1364  0.6607
 7722SOL    HW234800   0.301   2.634   1.455 -1.1158  0.5795  0.0103
 7723SOL     OW34801   2.095   2.134   4.938  0.3110  0.0104 -0.6697
 7723SOL    HW134802   2.160   2.077   4.897 -2.1246 -2.6234 -0.8797
 7723SOL    HW234803   2.032   2.072   4.976 -0.1345 -0.0562 -1.5228
 7724SOL     OW34804   2.697   1.524   5.274 -0.4944 -1.0542  0.4564
 7724SOL    HW134805   2.790   1.520   5.255 -0.4983 -1.7379  0.5920
 7724SOL    HW234806   2.698   1.483   5.360  1.9885 -1.1103  0.3937
 7725SOL     OW34807   3.057   3.715   5.906  0.2247  0.1932 -0.2157
 7725SOL    HW134808   3.028   3.643   5.849  1.0519 -1.0809  0.9467
 7725SOL    HW234809   2.993   3.785   5.904  0.8684  0.7998  0.2345
 7726SOL     OW34810   4.169   3.465   8.678 -0.5905 -0.5284  0.0054
 7726SOL    HW134811   4.212   3.380   8.687 -1.5061 -1.2021 -2.1084
 7726SOL    HW234812   4.240   3.522   8.708 -1.6310 -0.0848  1.5849
 7727SOL     OW34813   0.909   1.075   2.616  0.1604 -0.1170 -0.2269
 7727SOL    HW134814   0.895   1.037   2.530 -1.9026 -0.4530  0.2471
 7727SOL    HW234815   0.974   1.013   2.647 -0.4772  0.1289  1.6259
 7728SOL     OW34816   3.048   0.557   6.941  0.4893 -0.0227 -0.0203
 7728SOL    HW134817   3.096   0.569   6.859  0.6916 -1.2787 -0.0840
 7728SOL    HW234818   3.060   0.643   6.981 -2.4543 -0.1664  1.1400
 7729SOL     OW34819   2.981   0.557   7.672 -0.1513  0.9174  0.4023
 7729SOL    HW134820   2.916   0.623   7.647 -1.3964 -0.2472  0.5565
 7729SOL    HW234821   2.986   0.498   7.597 -0.8033  0.7389  0.5011
 7730SOL     OW34822   1.915   4.327   6.186 -0.0147  0.0178  0.1586
 7730SOL    HW134823   1.871   4.387   6.246 -0.2641 -0.1339  0.1277
 7730SOL    HW234824   2.004   4.352   6.209  1.1688 -2.0074 -2.2216
 7731SOL     OW34825   3.448   0.055   6.100 -0.2192 -0.1110  0.1153
 7731SOL    HW134826   3.359   0.054   6.064 -0.5341 -0.9800  0.9296
 7731SOL    HW234827   3.430   0.102   6.181 -1.4043  1.4264 -1.0257
 7732SOL     OW34828   1.470   2.059   2.896 -0.1366  0.0358  0.8087
 7732SOL    HW134829   1.516   1.978   2.876  0.5021  0.8746 -1.0960
 7732SOL    HW234830   1.405   2.049   2.826  0.9798  1.3788 -0.4039
 7733SOL     OW34831   2.078   4.681   4.323  0.0704  0.3159  0.2991
 7733SOL    HW134832   2.019   0.000   4.370  0.6285  0.2159  1.1304
 7733SOL    HW234833   2.114   4.737   4.255  0.7433 -0.6951 -0.1706
 7734SOL     OW34834   0.669   2.967   5.874 -0.6041  0.6965  0.0151
 7734SOL    HW134835   0.581   2.935   5.892  0.9427 -1.0705  4.3784
 7734SOL    HW234836   0.698   2.985   5.963  2.4805 -2.4604 -0.3473
 7735SOL     OW34837   0.629   4.605  14.233  0.3657  0.2566  0.1671
 7735SOL    HW134838   0.623   4.528  14.177 -0.7292  0.8007 -0.4547
 7735SOL    HW234839   0.539   4.604  14.264 -0.2227  0.7084 -1.5605
 7736SOL     OW34840   0.595   2.568   6.433 -0.2717 -0.0786 -0.5483
 7736SOL    HW134841   0.617   2.483   6.394  1.0424 -0.5499  1.2116
 7736SOL    HW234842   0.512   2.554   6.478  0.2217  0.6176  0.5708
 7737SOL     OW34843   3.030   0.498   0.597  0.8174 -0.1261 -0.2319
 7737SOL    HW134844   2.971   0.447   0.542 -0.5128  1.1479  0.0289
 7737SOL    HW234845   3.116   0.465   0.567 -0.3385 -2.4797 -0.9659
 7738SOL     OW34846   4.265   4.073   6.244  0.6053 -0.6310  0.2174
 7738SOL    HW134847   4.174   4.044   6.251  0.0099  0.7439 -1.7066
 7738SOL    HW234848   4.265   4.081   6.148 -1.2842 -0.4996  0.2154
 7739SOL     OW34849   3.712   0.032   6.133 -0.1593  0.3004 -0.2043
 7739SOL    HW134850   3.744   4.715   6.063  0.3045 -0.2980  0.4867
 7739SOL    HW234851   3.620   0.037   6.108 -0.5753 -0.9426  1.1143
 7740SOL     OW34852   4.117   2.253   3.969  0.6967  0.5130 -0.6917
 7740SOL    HW134853   4.073   2.334   3.996  0.0851 -0.0744  0.0629
 7740SOL    HW234854   4.053   2.184   3.984  1.9090 -1.0217 -2.4722
 7741SOL     OW34855   2.906   3.114   6.988  0.2471 -0.0286  0.4215
 7741SOL    HW134856   2.950   3.121   7.073  3.3081 -0.4982 -1.0922
 7741SOL    HW234857   2.910   3.205   6.959  0.9438 -0.3479 -0.4727
 7742SOL     OW34858   1.632   2.220   3.205 -0.1138 -0.2744 -0.0660
 7742SOL    HW134859   1.697   2.291   3.201 -1.0938  0.5426 -1.5542
 7742SOL    HW234860   1.551   2.265   3.181 -0.2066  0.8767  2.4055
 7743SOL     OW34861   1.531   4.211   8.900 -0.1856  0.1862 -0.2487
 7743SOL    HW134862   1.543   4.179   8.810 -0.7511  0.3751 -0.3875
 7743SOL    HW234863   1.497   4.132   8.942  0.0516  2.0210  3.4298
 7744SOL     OW34864   1.524   2.732   1.306  0.4403  0.0070 -0.0023
 7744SOL    HW134865   1.517   2.805   1.367  0.5578  0.3223 -0.3641
 7744SOL    HW234866   1.614   2.710   1.327  0.0774 -1.5082 -0.0100
 7745SOL     OW34867   3.394   3.376   4.404 -0.0591  0.1356  0.1067
 7745SOL    HW134868   3.489   3.380   4.414 -0.3780  2.6860  2.3525
 7745SOL    HW234869   3.366   3.322   4.478 -1.3733 -0.2889 -0.6975
 7746SOL     OW34870   1.343   4.334   1.412 -0.2976  0.0629  0.3263
 7746SOL    HW134871   1.264   4.355   1.363  0.5568 -1.1262 -1.5645
 7746SOL    HW234872   1.323   4.329   1.506  1.9617 -1.6153  0.7253
 7747SOL     OW34873   4.167   2.718   6.039  0.2017  0.1346  0.6937
 7747SOL    HW134874   4.113   2.717   6.118 -1.2364  0.1413 -0.2986
 7747SOL    HW234875   4.200   2.808   6.040 -0.6541  0.4590 -0.1237
 7748SOL     OW34876   1.849   4.044   0.504 -0.1844 -0.2023  0.4219
 7748SOL    HW134877   1.791   4.057   0.579  0.6707  0.4796  0.9696
 7748SOL    HW234878   1.850   4.131   0.462  0.8728 -0.6278 -0.4208
 7749SOL     OW34879   0.407   4.040  10.795 -0.1720 -0.2431  0.0492
 7749SOL    HW134880   0.419   3.958  10.845 -0.0039 -0.3104 -0.0990
 7749SOL    HW234881   0.393   4.100  10.868  1.3123  1.0783 -0.7533
 7750SOL     OW34882   2.495   3.279   7.576  0.3783 -0.1369  0.2017
 7750SOL    HW134883   2.548   3.350   7.612  0.9729 -0.5654  0.1783
 7750SOL    HW234884   2.507   3.284   7.481  0.5455 -0.7188  0.1903
 7751SOL     OW34885   4.241   2.057   1.624  0.4869 -0.4568 -0.1616
 7751SOL    HW134886   4.180   2.083   1.555  1.6805  2.1012 -0.2146
 7751SOL    HW234887   4.289   1.990   1.576  0.9613 -1.1972  1.3449
 7752SOL     OW34888   1.472   4.732   6.809 -0.1476  0.3090  0.1641
 7752SOL    HW134889   1.490   4.685   6.890 -0.0300 -0.1182 -0.1143
 7752SOL    HW234890   1.508   0.076   6.838 -2.4893  1.4970 -0.3039
 7753SOL     OW34891   0.627   2.498   1.539  0.3702  0.1683  0.2404
 7753SOL    HW134892   0.716   2.520   1.509 -0.9948 -1.3526 -4.8482
 7753SOL    HW234893   0.631   2.407   1.567 -0.9807  0.0526  0.0553
 7754SOL     OW34894   4.241   0.773  17.608 -0.4552 -0.0214  0.7450
 7754SOL    HW134895   4.148   0.796  17.617 -0.4874 -0.0214  0.3961
 7754SOL    HW234896   4.267   0.794  17.697  2.1959 -0.5728  0.0956
 7755SOL     OW34897   3.222   0.059   8.277  0.6024 -0.1324  0.5145
 7755SOL    HW134898   3.274   0.138   8.264  0.4904  0.0286  1.0444
 7755SOL    HW234899   3.151   0.070   8.215  0.5702 -0.9450  0.3988
 7756SOL     OW34900   1.731   2.141   6.245  0.3675 -0.2723  0.0224
 7756SOL    HW134901   1.826   2.155   6.246  0.2009  0.7574  1.1682
 7756SOL    HW234902   1.718   2.185   6.161 -0.4942 -0.1912  0.2050
 7757SOL     OW34903   0.913   3.257   7.331  0.0448  0.7164  0.1820
 7757SOL    HW134904   0.850   3.185   7.331 -0.3149  1.0364  0.7328
 7757SOL    HW234905   0.989   3.205   7.303  1.0350  1.9920  0.4755
 7758SOL     OW34906   0.077   1.470   5.299  0.1727 -0.6009 -0.1737
 7758SOL    HW134907   0.133   1.395   5.320  1.0994  0.2472  0.3555
 7758SOL    HW234908   0.005   1.446   5.240 -1.4988  1.4881  1.0143
 7759SOL     OW34909   2.283   3.800   7.412  0.3021 -0.3607  0.2763
 7759SOL    HW134910   2.235   3.720   7.390  0.6197 -0.1915 -1.0290
 7759SOL    HW234911   2.350   3.768   7.473 -0.1715 -2.5443 -0.3713
 7760SOL     OW34912   2.671   1.672   2.309 -0.4148  0.1362  0.3361
 7760SOL    HW134913   2.576   1.681   2.309 -0.3892  0.4519  1.9305
 7760SOL    HW234914   2.686   1.586   2.270 -0.6970  0.3170 -0.1668
 7761SOL     OW34915   2.067   3.414   7.951  0.2564 -0.1343  0.3414
 7761SOL    HW134916   2.161   3.432   7.945  0.2156  0.6049  1.7542
 7761SOL    HW234917   2.050   3.449   8.038  2.7307  0.8852  0.4247
 7762SOL     OW34918   3.209   1.501   7.459 -0.2532 -0.2480 -0.5371
 7762SOL    HW134919   3.209   1.595   7.446  0.8018 -0.1364  0.2685
 7762SOL    HW234920   3.245   1.501   7.548 -1.4094 -0.4484 -0.0720
 7763SOL     OW34921   2.772   1.618   8.989  0.0679 -0.0240  0.2686
 7763SOL    HW134922   2.767   1.606   9.084  2.0978 -2.2437  0.0883
 7763SOL    HW234923   2.821   1.698   8.975  1.1017 -0.8368 -0.6513
 7764SOL     OW34924   4.174   0.517   5.427 -0.3496  0.1975 -0.4983
 7764SOL    HW134925   4.248   0.513   5.488  1.1430  0.2457 -2.3054
 7764SOL    HW234926   4.129   0.439   5.459  0.1509  1.4597  3.3391
 7765SOL     OW34927   4.652   2.205   8.552  0.4383 -0.4253 -0.0564
 7765SOL    HW134928   4.709   2.132   8.576  0.0275 -0.9317 -0.6363
 7765SOL    HW234929   4.675   2.269   8.621  0.7968  0.9071 -1.4051
 7766SOL     OW34930   0.403   2.516   5.285  0.0165  0.1916 -0.1484
 7766SOL    HW134931   0.474   2.495   5.345 -0.9654  0.5864  1.1645
 7766SOL    HW234932   0.329   2.531   5.344 -0.3959  0.0436 -0.6237
 7767SOL     OW34933   0.645   4.270   0.840  0.5426  0.3286  0.0978
 7767SOL    HW134934   0.651   4.364   0.859 -1.8838  0.8086 -1.4808
 7767SOL    HW234935   0.589   4.271   0.762  0.5962  1.0429  0.0690
 7768SOL     OW34936   0.650   0.842   5.546 -0.2552 -0.3051  0.5910
 7768SOL    HW134937   0.584   0.772   5.546  1.4688 -1.9114  1.1738
 7768SOL    HW234938   0.661   0.842   5.451 -1.2559 -0.8944  0.4757
 7769SOL     OW34939   0.374   1.343  17.202 -0.3555  0.1687 -0.1188
 7769SOL    HW134940   0.398   1.436  17.206 -1.8195  0.5302  0.2074
 7769SOL    HW234941   0.445   1.298  17.248 -1.2164  1.0558  2.0763
 7770SOL     OW34942   3.964   0.739   2.868 -0.1058 -0.1422  0.4401
 7770SOL    HW134943   4.025   0.813   2.872  0.0672 -0.2570 -0.0366
 7770SOL    HW234944   4.013   0.674   2.817 -0.1018  0.4690 -0.3393
 7771SOL     OW34945   4.414   4.383   9.282  0.3117  0.5945  0.3834
 7771SOL    HW134946   4.481   4.414   9.344 -0.7123  3.5750 -0.0082
 7771SOL    HW234947   4.448   4.404   9.195 -0.0597 -2.3211 -0.4731
 7772SOL     OW34948   2.502   0.986  11.446  0.2539  0.0955  0.4349
 7772SOL    HW134949   2.588   0.967  11.408 -0.0279 -0.8290  0.2719
 7772SOL    HW234950   2.497   1.080  11.432  0.0032  0.1560  0.9199
 7773SOL     OW34951   4.298   3.970   3.522 -0.4344  0.8159  0.0560
 7773SOL    HW134952   4.314   3.890   3.573 -0.0309  0.8547 -0.0065
 7773SOL    HW234953   4.320   3.933   3.436 -0.1968  0.8443  0.1057
 7774SOL     OW34954   2.813   0.268   3.029 -0.3165 -0.1032 -0.6672
 7774SOL    HW134955   2.814   0.363   3.041 -1.0782 -0.5196  2.7389
 7774SOL    HW234956   2.895   0.245   3.073 -1.0710  0.1228  0.8384
 7775SOL     OW34957   0.584   3.372   6.589 -0.2240 -0.0564 -0.3044
 7775SOL    HW134958   0.570   3.277   6.581  1.2841 -0.4316  1.5680
 7775SOL    HW234959   0.543   3.394   6.505 -2.6143 -1.2158  0.5502
 7776SOL     OW34960   4.378   0.005   9.988 -0.0710  0.1436 -0.2410
 7776SOL    HW134961   4.456   4.690   9.993  0.0476  0.2757 -0.6340
 7776SOL    HW234962   4.405   0.084  10.035 -1.7281  2.4329 -3.1202
 7777SOL     OW34963   3.605   2.056   9.112  0.1862  0.3119  0.9613
 7777SOL    HW134964   3.542   2.123   9.139 -0.1658  0.0485  0.7932
 7777SOL    HW234965   3.642   2.036   9.198  2.6731 -0.5975 -0.2944
 7778SOL     OW34966   1.381   0.472   4.412  0.3135 -0.4357 -0.0224
 7778SOL    HW134967   1.435   0.417   4.468  1.1150 -0.0077 -0.3837
 7778SOL    HW234968   1.363   0.548   4.468 -0.6307 -0.4584 -0.2991
 7779SOL     OW34969   2.887   3.185   5.334  0.8534 -0.7453 -0.2426
 7779SOL    HW134970   2.864   3.095   5.307  2.2657 -1.5036  1.1194
 7779SOL    HW234971   2.972   3.184   5.290  1.3896  0.2814  0.7686
 7780SOL     OW34972   2.493   0.091   0.279 -0.2480  0.4165 -0.1291
 7780SOL    HW134973   2.529   0.167   0.233 -1.3789  1.9720  1.5863
 7780SOL    HW234974   2.562   0.067   0.341 -0.5455  3.3970  1.3692
 7781SOL     OW34975   1.114   0.027   0.218  0.4341  0.5866  0.2684
 7781SOL    HW134976   1.064   0.086   0.275  1.1686  0.6449  0.8551
 7781SOL    HW234977   1.048   4.697   0.228  2.3253 -0.8292  2.9363
 7782SOL     OW34978   4.334   4.013  12.436  0.2310  0.0622  0.4917
 7782SOL    HW134979   4.242   4.004  12.411  0.6519 -0.3916 -0.8960
 7782SOL    HW234980   4.352   4.099  12.399 -0.0845  0.0882  0.3959
 7783SOL     OW34981   4.238   1.619  12.867  0.0797 -0.3084  0.2891
 7783SOL    HW134982   4.194   1.661  12.793  1.1012 -1.6317 -1.0819
 7783SOL    HW234983   4.252   1.691  12.929  0.3898 -0.3680  0.2909
 7784SOL     OW34984   3.972   3.936   3.581  0.1725  0.3260  0.0452
 7784SOL    HW134985   3.935   3.989   3.510  0.7221 -0.9467 -1.1947
 7784SOL    HW234986   4.055   3.980   3.595 -1.2653  2.0699  3.1017
 7785SOL     OW34987   4.682   0.980   8.511 -0.5298  0.3758  0.2329
 7785SOL    HW134988   0.023   0.964   8.559 -0.8883 -0.2266  0.6261
 7785SOL    HW234989   4.646   0.893   8.496  0.1616  0.2640 -0.7906
 7786SOL     OW34990   0.551   2.144   5.635  0.1277 -0.0267 -0.0935
 7786SOL    HW134991   0.624   2.177   5.583  0.6428  0.4403  0.9169
 7786SOL    HW234992   0.543   2.053   5.608  0.0503 -0.1359  0.2960
 7787SOL     OW34993   2.683   2.143   7.921  0.0296 -0.4101  0.3072
 7787SOL    HW134994   2.750   2.143   7.852  0.0857  0.9054  0.3685
 7787SOL    HW234995   2.712   2.221   7.968 -2.3678  1.3037 -1.0918
 7788SOL     OW34996   4.345   1.862   1.427 -0.2052 -0.6547  0.4732
 7788SOL    HW134997   4.385   1.893   1.346 -1.5853  3.7277  1.4809
 7788SOL    HW234998   4.405   1.788   1.441  0.3457 -0.5216 -1.1755
 7789SOL     OW34999   2.521   1.254  11.140  0.3482  0.0546 -0.1936
 7789SOL    HW135000   2.451   1.317  11.122 -1.1064 -2.0067 -1.7920
 7789SOL    HW235001   2.498   1.216  11.225 -0.9126 -1.0039 -0.9968
 7790SOL     OW35002   0.808   2.603  16.347 -0.2965  0.2922  0.0608
 7790SOL    HW135003   0.821   2.560  16.431  0.6004  0.6245  0.0932
 7790SOL    HW235004   0.787   2.689  16.384 -1.5798  0.1992 -0.4247
 7791SOL     OW35005   1.235   1.480   3.195  0.0843 -0.0193 -0.2718
 7791SOL    HW135006   1.311   1.430   3.225  2.0124  2.4959 -0.9515
 7791SOL    HW235007   1.182   1.410   3.157 -1.3545  1.6504 -1.3098
 7792SOL     OW35008   4.501   1.168   2.052 -0.1172  0.4031 -0.2612
 7792SOL    HW135009   4.587   1.125   2.049  0.0294  0.7470 -1.2136
 7792SOL    HW235010   4.516   1.228   1.978  1.8349 -0.4248 -0.5369
 7793SOL     OW35011   2.684   3.155   4.542 -0.2724  0.3622  0.0425
 7793SOL    HW135012   2.625   3.210   4.491 -1.2854  1.3700  2.2860
 7793SOL    HW235013   2.763   3.200   4.571 -0.7554 -0.1273  2.1315
 7794SOL     OW35014   1.504   4.427  12.259  0.2199 -0.6579 -0.0652
 7794SOL    HW135015   1.537   4.511  12.227 -0.1682 -0.1136  0.9679
 7794SOL    HW235016   1.410   4.425  12.239 -0.2711 -0.2922  2.2976
 7795SOL     OW35017   4.278   3.892   9.211 -0.3959 -0.1762 -0.1562
 7795SOL    HW135018   4.190   3.925   9.196 -0.6759  0.3072  2.6912
 7795SOL    HW235019   4.295   3.965   9.270 -0.0638 -0.1027 -0.3405
 7796SOL     OW35020   1.249   4.210   6.099  0.3308  0.4822 -0.3430
 7796SOL    HW135021   1.225   4.126   6.060 -0.8452  0.5895  0.1748
 7796SOL    HW235022   1.344   4.196   6.106  0.1645 -0.7822 -0.7611
 7797SOL     OW35023   4.250   3.103   5.326 -0.6235 -0.4119  0.0099
 7797SOL    HW135024   4.282   3.130   5.239 -0.3390 -2.4187 -0.4983
 7797SOL    HW235025   4.323   3.046   5.347 -2.1146 -2.3821 -0.1489
 7798SOL     OW35026   3.446   0.023   0.499 -0.5089  0.5463 -0.6829
 7798SOL    HW135027   3.412   0.001   0.412 -0.4422 -0.8366 -0.3646
 7798SOL    HW235028   3.425   4.687   0.555  0.8140  1.6905  1.3619
 7799SOL     OW35029   4.587   1.112   1.237 -0.5861 -0.1921  0.4134
 7799SOL    HW135030   4.577   1.053   1.162 -1.5684  0.7252 -0.1741
 7799SOL    HW235031   4.658   1.172   1.213 -2.8375  0.7225 -4.0129
 7800SOL     OW35032   3.227   3.384   5.401 -0.2388  0.2643  0.0850
 7800SOL    HW135033   3.204   3.462   5.351  1.1704  0.3688 -0.3833
 7800SOL    HW235034   3.237   3.427   5.486  3.9727  0.0060 -0.3016
 7801SOL     OW35035   4.563   1.480   1.640  0.0469 -0.2051  0.3292
 7801SOL    HW135036   4.609   1.465   1.722  0.6085 -1.2550 -0.1728
 7801SOL    HW235037   4.473   1.505   1.660  0.5876  1.2364  0.9754
 7802SOL     OW35038   1.786   3.382   5.689 -0.4386  0.2983 -0.3342
 7802SOL    HW135039   1.722   3.315   5.666  1.4200 -1.5436 -0.1326
 7802SOL    HW235040   1.747   3.455   5.642 -2.8614 -0.7187  0.0851
 7803SOL     OW35041   3.984   1.204  17.184 -0.4027  0.5744  0.4514
 7803SOL    HW135042   3.891   1.182  17.176 -0.0694  0.4925 -3.3695
 7803SOL    HW235043   4.010   1.184  17.094 -1.1322  1.1721  0.1095
 7804SOL     OW35044   1.032   0.586   2.584  0.2490 -0.3125  0.1799
 7804SOL    HW135045   0.982   0.533   2.523  1.6891 -1.1731 -0.2468
 7804SOL    HW235046   1.083   0.528   2.641 -3.1981 -0.8284  2.7093
 7805SOL     OW35047   0.980   1.339   2.612 -0.3075  0.2961  0.1510
 7805SOL    HW135048   1.071   1.314   2.600 -0.9347 -0.9803 -2.1101
 7805SOL    HW235049   0.927   1.260   2.602 -0.8076  0.8563 -1.6597
 7806SOL     OW35050   0.185   2.942   4.435 -0.1031 -0.0498  0.4082
 7806SOL    HW135051   0.182   2.938   4.530  0.7027  0.4818  0.4491
 7806SOL    HW235052   0.094   2.968   4.418 -0.3835 -1.0267  0.4326
 7807SOL     OW35053   0.800   3.384   6.836 -0.1753 -0.2867  0.5034
 7807SOL    HW135054   0.787   3.418   6.924 -0.5933  0.4584  0.1530
 7807SOL    HW235055   0.807   3.462   6.781  1.8756  0.2831  1.5577
 7808SOL     OW35056   1.864   2.923  15.133 -0.0952 -0.9875 -0.0116
 7808SOL    HW135057   1.865   2.857  15.065 -0.1978 -2.6478  1.6012
 7808SOL    HW235058   1.937   2.893  15.187 -0.4748  0.3155  1.2362
 7809SOL     OW35059   1.677   0.568   4.202  0.8623  0.0403  0.3149
 7809SOL    HW135060   1.717   0.538   4.120 -2.1750 -1.7977 -0.4703
 7809SOL    HW235061   1.584   0.551   4.188  0.9568 -1.2674  1.3103
 7810SOL     OW35062   1.611   4.457   6.066 -0.7159  0.2279  0.4502
 7810SOL    HW135063   1.644   4.525   6.125 -3.5584  0.8348  1.3083
 7810SOL    HW235064   1.528   4.497   6.042  0.0797  2.4515  1.3702
 7811SOL     OW35065   3.323   2.448   9.680 -0.4518 -0.2643  0.2543
 7811SOL    HW135066   3.396   2.451   9.742 -0.9035  0.4125  0.7469
 7811SOL    HW235067   3.252   2.426   9.740 -1.2742  0.6054 -0.4099
 7812SOL     OW35068   0.789   0.100   8.834 -0.3305  0.7047 -0.0873
 7812SOL    HW135069   0.803   0.163   8.906  2.7743  3.5342 -3.1534
 7812SOL    HW235070   0.696   0.084   8.849 -0.0235 -2.6738 -1.8276
 7813SOL     OW35071   4.494   1.696   7.480  0.2406 -0.1634  0.0024
 7813SOL    HW135072   4.446   1.622   7.442  0.6558  0.4485 -1.7410
 7813SOL    HW235073   4.569   1.646   7.513  0.9913  0.2360 -1.0645
 7814SOL     OW35074   1.011   0.017   1.882 -0.0579 -0.3162  0.4124
 7814SOL    HW135075   0.990   4.706   1.960 -0.6949 -0.9797 -0.1868
 7814SOL    HW235076   0.928   0.019   1.835  0.9714  0.1070 -1.4155
 7815SOL     OW35077   0.293   3.970   2.792  0.2686  0.1237  0.1043
 7815SOL    HW135078   0.360   3.903   2.804 -0.7727 -0.9385 -0.0233
 7815SOL    HW235079   0.330   4.013   2.715 -0.5847  1.3074  0.3727
 7816SOL     OW35080   2.987   0.897   7.995 -0.5675  0.6709  0.3137
 7816SOL    HW135081   2.923   0.914   7.927  1.6861  0.1769 -1.9407
 7816SOL    HW235082   3.066   0.909   7.942 -0.8349  0.1475 -0.2036
 7817SOL     OW35083   1.747   2.719   8.998 -0.2589  0.6483 -0.6389
 7817SOL    HW135084   1.666   2.766   9.017 -0.2977  0.4834 -0.3972
 7817SOL    HW235085   1.787   2.780   8.936  0.7560 -1.0257 -1.6191
 7818SOL     OW35086   4.660   0.115   5.629 -0.2925  0.3033 -0.0748
 7818SOL    HW135087   4.649   0.020   5.625  0.6244  0.1590  0.7173
 7818SOL    HW235088   0.016   0.120   5.632 -0.1593 -3.1162  1.6659
 7819SOL     OW35089   3.203   2.709   9.161  0.5062 -0.3823 -0.3352
 7819SOL    HW135090   3.294   2.698   9.134  0.5430 -1.2900  0.1477
 7819SOL    HW235091   3.179   2.620   9.187 -2.9194  0.7701  0.4326
 7820SOL     OW35092   3.822   0.169   4.460  0.1894  0.0919  0.3555
 7820SOL    HW135093   3.913   0.165   4.489  0.4831  0.6864 -0.4709
 7820SOL    HW235094   3.834   0.219   4.379  2.2424  0.2678  0.7778
 7821SOL     OW35095   2.568   0.453   4.067  0.0117 -0.0418 -0.2544
 7821SOL    HW135096   2.599   0.501   4.145  2.6275  0.4313 -1.5780
 7821SOL    HW235097   2.644   0.466   4.011  1.2742 -1.6365  1.0818
 7822SOL     OW35098   0.324   3.078   2.618  0.1037 -0.1842  0.3237
 7822SOL    HW135099   0.376   3.123   2.551  0.6895 -0.5603  0.5263
 7822SOL    HW235100   0.239   3.083   2.575  0.2012 -0.2251  0.1288
 7823SOL     OW35101   3.787   2.220   6.404  0.4777 -0.0509  0.0394
 7823SOL    HW135102   3.853   2.167   6.450  0.2811  1.2011  1.7593
 7823SOL    HW235103   3.755   2.159   6.338  0.0682 -1.2893  1.3816
 7824SOL     OW35104   0.660   0.773  17.546 -0.7443 -0.4887  0.5052
 7824SOL    HW135105   0.749   0.739  17.549 -0.1855  0.6961 -2.5555
 7824SOL    HW235106   0.674   0.822  17.465 -1.7923 -0.9955  0.0135
 7825SOL     OW35107   3.653   2.332   2.445  0.2613 -0.1503 -0.0937
 7825SOL    HW135108   3.718   2.376   2.500 -0.1849  1.9688 -1.2380
 7825SOL    HW235109   3.594   2.305   2.515  1.0801  0.3458  0.8003
 7826SOL     OW35110   3.641   3.710   8.967  0.6036  0.4249 -0.7186
 7826SOL    HW135111   3.586   3.666   8.902 -0.3075  1.7428 -0.8482
 7826SOL    HW235112   3.571   3.743   9.024  2.4830  2.6167  0.2998
 7827SOL     OW35113   0.331   3.492  15.468 -0.2577  0.1142  0.2397
 7827SOL    HW135114   0.341   3.458  15.557 -0.2666  0.6728  0.4539
 7827SOL    HW235115   0.299   3.412  15.428 -2.7485  1.3946 -0.3524
 7828SOL     OW35116   0.920   0.310   4.665  0.0448  0.1001 -0.2205
 7828SOL    HW135117   0.927   0.345   4.753  1.4165 -2.9320  0.8729
 7828SOL    HW235118   0.998   0.346   4.623  0.8666 -0.6353  0.6853
 7829SOL     OW35119   3.371   0.015   2.704 -0.2372 -0.3135 -0.4677
 7829SOL    HW135120   3.458   0.028   2.741  0.8694 -3.3372 -1.9856
 7829SOL    HW235121   3.323   0.092   2.732  0.1044 -0.7654  1.3240
 7830SOL     OW35122   3.697   0.339  14.583  0.2738 -0.0280 -0.6192
 7830SOL    HW135123   3.623   0.291  14.620  0.2763 -0.6294 -1.3802
 7830SOL    HW235124   3.713   0.400  14.654  1.5990  0.6620 -1.5118
 7831SOL     OW35125   0.900   3.242   2.686  0.5143  0.6013 -0.3697
 7831SOL    HW135126   0.868   3.151   2.690 -0.8354  1.0446 -1.2224
 7831SOL    HW235127   0.977   3.241   2.744  0.1167 -0.4406  0.1431
 7832SOL     OW35128   0.077   3.903  14.437 -0.2614 -0.0735  0.3215
 7832SOL    HW135129   0.021   3.834  14.401 -0.2435  0.5421 -0.9133
 7832SOL    HW235130   0.067   3.962  14.362  2.5025 -2.0997 -1.6155
 7833SOL     OW35131   0.371   4.521   6.252  0.3411  0.4347 -0.2749
 7833SOL    HW135132   0.390   4.443   6.200  1.8110  1.1710 -0.8345
 7833SOL    HW235133   0.275   4.514   6.247  0.4191 -1.9177  1.8095
 7834SOL     OW35134   2.072   1.536   2.975 -0.2355 -0.2517 -0.5985
 7834SOL    HW135135   2.063   1.629   2.955  1.5630 -0.7265 -3.6736
 7834SOL    HW235136   1.995   1.512   2.923  0.7543 -1.0282 -1.7028
 7835SOL     OW35137   3.032   3.033   4.871  0.0118 -0.4359  0.3799
 7835SOL    HW135138   3.087   3.099   4.913  0.3502 -1.5083  1.6306
 7835SOL    HW235139   3.042   3.062   4.780  1.9433  0.2604  0.8141
 7836SOL     OW35140   2.968   4.203   9.226  0.0999 -0.0279  0.7145
 7836SOL    HW135141   3.062   4.186   9.228 -0.3661 -2.6921  0.7139
 7836SOL    HW235142   2.946   4.128   9.282  0.4389 -1.2290 -0.7277
 7837SOL     OW35143   1.895   0.280  15.923  0.6603 -0.0072 -0.5636
 7837SOL    HW135144   1.904   0.339  15.847  0.4045  1.1501  0.3045
 7837SOL    HW235145   1.826   0.225  15.885 -0.2452  0.5456  0.2819
 7838SOL     OW35146   4.462   0.743   3.098  0.2049 -0.3649  0.1038
 7838SOL    HW135147   4.382   0.725   3.147  0.5578  0.7273  1.0818
 7838SOL    HW235148   4.465   0.664   3.044 -0.2219 -1.4856  1.7233
 7839SOL     OW35149   4.498   2.662   4.083 -0.5806  0.1122 -0.0661
 7839SOL    HW135150   4.527   2.752   4.069 -1.5450  0.4427  0.0364
 7839SOL    HW235151   4.571   2.622   4.129 -1.2209  0.4021  1.1948
 7840SOL     OW35152   2.745   1.788   5.185 -0.0285 -1.0617 -0.0921
 7840SOL    HW135153   2.727   1.712   5.241 -2.6202  0.5291  1.2160
 7840SOL    HW235154   2.655   1.800   5.155  0.6415  0.4052 -1.4685
 7841SOL     OW35155   4.600   4.459   8.477 -0.1021 -0.2064  0.3089
 7841SOL    HW135156   4.527   4.397   8.466 -0.1205 -0.5592  2.4669
 7841SOL    HW235157   4.669   4.393   8.469  0.1600  0.2336 -1.0684
 7842SOL     OW35158   0.221   1.347   0.629  0.5119  0.3575  0.3042
 7842SOL    HW135159   0.262   1.360   0.544 -0.4057 -0.8190 -0.3129
 7842SOL    HW235160   0.154   1.415   0.623  2.0595  1.5276 -3.5582
 7843SOL     OW35161   2.716   0.081   2.585 -0.5425 -0.2664  1.1183
 7843SOL    HW135162   2.752   4.732   2.581  1.6053  0.7119 -0.7614
 7843SOL    HW235163   2.631   0.073   2.541 -0.3038  3.7423 -0.0946
 7844SOL     OW35164   3.013   3.406   9.228 -0.5945  0.4147 -0.1755
 7844SOL    HW135165   3.107   3.404   9.211 -0.9641  1.8371 -2.3877
 7844SOL    HW235166   3.017   3.347   9.303  0.3846  1.9485  0.9894
 7845SOL     OW35167   3.139   1.858   3.281 -0.6272 -0.2011 -0.4867
 7845SOL    HW135168   3.068   1.804   3.316  0.1559 -0.9919 -0.0989
 7845SOL    HW235169   3.212   1.847   3.343 -0.8043  1.1948 -0.0439
 7846SOL     OW35170   2.122   1.765   3.231  0.5316 -0.5529 -0.4116
 7846SOL    HW135171   2.190   1.697   3.232  1.6288  0.5583  0.3152
 7846SOL    HW235172   2.075   1.748   3.150 -0.9936  1.2701  0.1050
 7847SOL     OW35173   1.849   2.122   6.869  0.0709  0.0241  0.0334
 7847SOL    HW135174   1.892   2.044   6.834  1.4203  1.4114 -1.4221
 7847SOL    HW235175   1.774   2.088   6.919  0.1639 -0.5696 -0.2350
 7848SOL     OW35176   2.353   3.387   3.035  0.2586 -0.6144  0.4716
 7848SOL    HW135177   2.387   3.297   3.036  0.4729 -0.5147  1.4097
 7848SOL    HW235178   2.420   3.440   2.992 -1.0023  0.2758 -0.3921
 7849SOL     OW35179   0.020   3.730   5.041 -0.0048 -0.0520  0.1613
 7849SOL    HW135180   4.733   3.675   4.967 -0.4811 -0.8325  0.8998
 7849SOL    HW235181   0.113   3.722   5.023 -0.4715 -3.2187 -0.8368
 7850SOL     OW35182   4.431   0.131  17.601  0.8839 -0.0585  0.2502
 7850SOL    HW135183   4.507   0.110  17.655  2.6878 -0.6198 -2.5420
 7850SOL    HW235184   4.362   0.065  17.612 -1.2133  2.2153  0.9220
 7851SOL     OW35185   2.408   4.728  12.243 -0.2949  0.0003 -0.2933
 7851SOL    HW135186   2.435   4.704  12.331  1.3695  1.9397 -0.2786
 7851SOL    HW235187   2.380   4.647  12.201  0.9288  0.3404 -1.7633
 7852SOL     OW35188   2.637   2.674   8.921  0.0524  0.2743 -0.0709
 7852SOL    HW135189   2.663   2.703   9.008  0.5674 -2.3415  0.6379
 7852SOL    HW235190   2.700   2.606   8.896  1.1449  1.2969 -0.1218
 7853SOL     OW35191   0.677   0.550   8.538 -0.5250  0.0544 -0.5044
 7853SOL    HW135192   0.667   0.494   8.615  0.3176  0.3566 -0.1795
 7853SOL    HW235193   0.737   0.496   8.487 -2.0688 -0.5204 -1.7079
 7854SOL     OW35194   2.711   1.530   4.854 -0.3464 -0.0829 -0.0989
 7854SOL    HW135195   2.643   1.474   4.817  1.2279 -1.2869 -1.1557
 7854SOL    HW235196   2.759   1.477   4.917 -0.5798 -2.3442 -1.8381
 7855SOL     OW35197   3.989   0.378  16.059  0.5412 -0.3960  0.0081
 7855SOL    HW135198   3.927   0.433  16.010 -0.0059 -0.3983  0.7015
 7855SOL    HW235199   4.043   0.441  16.107  1.3450  0.8194 -2.4908
 7856SOL     OW35200   1.101   1.912  17.412 -0.6504  0.3217  0.1747
 7856SOL    HW135201   1.162   1.906  17.486  1.5185  2.9166 -1.4272
 7856SOL    HW235202   1.158   1.951  17.346  0.9102 -1.3238  0.5303
 7857SOL     OW35203   3.609   4.629   8.262 -0.1724  0.2679  0.0400
 7857SOL    HW135204   3.622   4.707   8.207  1.5866  1.1180  1.6417
 7857SOL    HW235205   3.668   4.645   8.336 -1.7218  0.6083  1.1987
 7858SOL     OW35206   4.399   3.455  17.017 -0.1505  0.0833 -0.0902
 7858SOL    HW135207   4.456   3.404  16.959 -0.1703  0.1102 -0.1332
 7858SOL    HW235208   4.453   3.455  17.096 -2.1706 -0.0623  1.2782
 7859SOL     OW35209   3.746   1.140   6.465 -0.5856 -0.0096  0.4878
 7859SOL    HW135210   3.695   1.087   6.403 -1.1214  1.5099 -0.3601
 7859SOL    HW235211   3.833   1.139   6.426 -1.5260 -0.5434 -1.5674
 7860SOL     OW35212   3.001   4.312   3.508 -0.1660  0.1316 -0.5198
 7860SOL    HW135213   2.925   4.258   3.489 -1.2985  1.7274 -0.4708
 7860SOL    HW235214   2.951   4.393   3.521 -1.1289 -0.7801  1.3325
 7861SOL     OW35215   3.886   2.005   4.641 -0.0159 -0.1008  0.4336
 7861SOL    HW135216   3.857   2.064   4.710  1.5352  0.2223  0.8036
 7861SOL    HW235217   3.959   2.051   4.600 -0.2717 -0.3013 -0.2480
 7862SOL     OW35218   3.291   1.851   6.930  0.7884 -0.5313  0.4432
 7862SOL    HW135219   3.232   1.813   6.865  1.3266 -2.1512  0.9205
 7862SOL    HW235220   3.267   1.941   6.907  1.3676 -0.0621  1.6832
 7863SOL     OW35221   3.687   1.625  15.438  0.2239 -0.2097 -0.1310
 7863SOL    HW135222   3.660   1.712  15.468 -2.9312 -1.0970 -0.3611
 7863SOL    HW235223   3.735   1.600  15.517 -1.9851  0.9965  1.6048
 7864SOL     OW35224   2.236   1.869   8.104  0.1643  0.1215 -0.3369
 7864SOL    HW135225   2.315   1.887   8.053 -0.4073 -1.4288 -1.7638
 7864SOL    HW235226   2.261   1.915   8.184  0.1373 -2.0956  0.9475
 7865SOL     OW35227   1.628   0.397   3.628  0.1271 -0.1337  0.1777
 7865SOL    HW135228   1.534   0.414   3.638  0.4000  0.6667  1.3660
 7865SOL    HW235229   1.633   0.373   3.535 -0.3120  0.6892 -0.0604
 7866SOL     OW35230   4.113   1.434  15.411 -0.4685  0.0230 -0.5291
 7866SOL    HW135231   4.165   1.412  15.334  1.1108 -1.8351  1.0502
 7866SOL    HW235232   4.133   1.527  15.406  2.3350 -0.5777 -0.4649
 7867SOL     OW35233   2.701   1.717   2.751 -1.1718 -0.5759 -0.0414
 7867SOL    HW135234   2.791   1.718   2.783 -1.0784  0.7211 -0.3528
 7867SOL    HW235235   2.698   1.635   2.702 -0.9335 -1.2195  1.0264
 7868SOL     OW35236   2.271   1.292   8.112 -0.6543  0.1034  0.0434
 7868SOL    HW135237   2.249   1.269   8.203 -0.8724  1.1858  0.2647
 7868SOL    HW235238   2.202   1.349   8.080  1.0169  1.4265 -1.1855
 7869SOL     OW35239   3.872   0.651   4.694 -0.5332 -0.3388  0.1529
 7869SOL    HW135240   3.964   0.647   4.669 -0.1447  1.9185  1.2050
 7869SOL    HW235241   3.874   0.603   4.777  0.5696  3.5933  2.4034
 7870SOL     OW35242   0.625   3.704   2.318 -0.1690 -0.3336  0.1424
 7870SOL    HW135243   0.648   3.705   2.411  0.6499 -2.1819 -0.0556
 7870SOL    HW235244   0.581   3.789   2.308  0.7510  0.3351  1.8408
 7871SOL     OW35245   1.686   3.941   3.930 -0.5253  0.4222 -0.5175
 7871SOL    HW135246   1.647   3.921   4.015  0.9939 -0.7487 -0.1059
 7871SOL    HW235247   1.766   3.989   3.953  0.5365 -1.3258 -0.6067
 7872SOL     OW35248   3.221   2.022   1.460 -0.3488  0.6927  0.5801
 7872SOL    HW135249   3.259   1.935   1.470  1.0950  1.0009 -2.2235
 7872SOL    HW235250   3.129   2.006   1.441 -0.4159  2.3898 -0.5989
 7873SOL     OW35251   3.748   3.415  13.313  0.8003 -1.1016  0.6196
 7873SOL    HW135252   3.789   3.338  13.352  3.1906 -1.2614 -2.1867
 7873SOL    HW235253   3.794   3.411  13.229 -0.7605  2.2040 -0.4018
 7874SOL     OW35254   0.744   0.801  16.790  0.0841  0.1619 -0.2287
 7874SOL    HW135255   0.810   0.774  16.726 -0.4517  1.4681 -1.3148
 7874SOL    HW235256   0.798   0.808  16.869  1.3574 -0.6985 -1.0192
 7875SOL     OW35257   0.199   3.610   6.552 -0.0351  0.2350 -0.8449
 7875SOL    HW135258   0.220   3.696   6.587  0.2789 -0.5474  0.8451
 7875SOL    HW235259   0.156   3.623   6.467  0.4242  1.2300 -0.9210
 7876SOL     OW35260   2.876   3.010   8.050 -0.3050  0.2824 -0.2462
 7876SOL    HW135261   2.959   3.054   8.068  0.7801 -2.2066  0.7440
 7876SOL    HW235262   2.818   3.086   8.041 -0.0129  0.4789 -0.4577
 7877SOL     OW35263   3.705   2.126   1.827  0.3788 -0.3334 -0.0832
 7877SOL    HW135264   3.721   2.034   1.846  0.2571 -0.6418 -1.5062
 7877SOL    HW235265   3.720   2.170   1.911  0.6870  0.1774 -0.4097
 7878SOL     OW35266   0.062   4.049   1.129  0.2943  0.3164 -0.5523
 7878SOL    HW135267   0.151   4.084   1.133  1.0201 -1.8740  2.6534
 7878SOL    HW235268   0.012   4.121   1.168  1.1360  1.0731 -0.8902
 7879SOL     OW35269   3.352   3.453   1.052  0.4146  0.4010 -0.2914
 7879SOL    HW135270   3.441   3.424   1.034  0.2398 -0.8394  0.8512
 7879SOL    HW235271   3.376   3.545   1.060 -0.9327  0.9421 -2.3812
 7880SOL     OW35272   1.934   3.728  14.127 -0.3067 -0.9114 -0.4642
 7880SOL    HW135273   1.953   3.702  14.037 -0.1417  0.2780 -0.7763
 7880SOL    HW235274   2.018   3.758  14.161  0.0484 -2.3180 -0.0949
 7881SOL     OW35275   0.552   4.219   8.213  0.4934  0.4352 -0.0673
 7881SOL    HW135276   0.558   4.291   8.151  1.1851 -1.8409 -2.6383
 7881SOL    HW235277   0.524   4.266   8.291  1.7515 -2.2365  2.0012
 7882SOL     OW35278   1.811   1.289   2.135  0.0089  0.4403  0.3971
 7882SOL    HW135279   1.847   1.212   2.181 -0.3567  0.3267  0.4939
 7882SOL    HW235280   1.791   1.342   2.212  0.0862  0.0772  0.6701
 7883SOL     OW35281   2.042   2.457  10.724 -0.5020 -0.2316  0.1256
 7883SOL    HW135282   2.022   2.485  10.635  2.4125  5.0452  1.1366
 7883SOL    HW235283   2.125   2.501  10.741 -0.2618 -1.7319  2.9966
 7884SOL     OW35284   4.471   2.365   8.092 -0.7202  0.0058 -0.4699
 7884SOL    HW135285   4.559   2.378   8.056 -1.7197 -2.0216 -3.5983
 7884SOL    HW235286   4.454   2.292   8.033 -1.3515  0.3548 -0.7129
 7885SOL     OW35287   3.468   0.810   4.114  0.1180 -0.4379 -0.2300
 7885SOL    HW135288   3.447   0.900   4.138  0.0261 -0.0986 -1.5893
 7885SOL    HW235289   3.480   0.772   4.201  1.2417  0.1028 -0.1447
 7886SOL     OW35290   3.432   4.085   2.539  0.1808  0.8270  0.5725
 7886SOL    HW135291   3.384   4.057   2.461 -1.3265  0.2425  1.7161
 7886SOL    HW235292   3.386   4.165   2.564 -0.6667  0.4707  0.1523
 7887SOL     OW35293   0.797   2.778   6.680  0.0133 -0.5069 -0.5158
 7887SOL    HW135294   0.833   2.865   6.660 -2.3439  0.8041  0.9071
 7887SOL    HW235295   0.794   2.736   6.594  3.1057 -2.4110  0.2769
 7888SOL     OW35296   3.043   0.167   3.791 -0.3707  0.7682 -0.1550
 7888SOL    HW135297   3.076   0.085   3.828 -2.4815 -0.5694 -1.2434
 7888SOL    HW235298   3.026   0.210   3.875 -0.5121 -0.7418  0.6051
 7889SOL     OW35299   3.954   4.142   9.518  0.6842 -0.2254  0.8592
 7889SOL    HW135300   4.027   4.156   9.578  1.8235 -0.9869 -0.3334
 7889SOL    HW235301   4.004   4.126   9.438 -1.5574 -2.9527  0.0368
 7890SOL     OW35302   3.505   1.347   5.939  0.1105  0.0163 -0.1489
 7890SOL    HW135303   3.467   1.271   5.982 -1.2084 -0.7190 -2.6083
 7890SOL    HW235304   3.587   1.309   5.908 -0.0238  0.5640 -1.2122
 7891SOL     OW35305   2.570   0.338   7.433 -0.7256  0.0042 -0.8576
 7891SOL    HW135306   2.611   0.385   7.360  0.6618 -0.9372 -0.6989
 7891SOL    HW235307   2.636   0.280   7.472 -0.8988  0.5770  0.2781
 7892SOL     OW35308   1.672   3.686   5.738 -0.1343 -0.1055 -0.1047
 7892SOL    HW135309   1.673   3.782   5.739 -0.8973 -0.0990  0.6139
 7892SOL    HW235310   1.687   3.669   5.645  1.0777 -0.2491  0.1187
 7893SOL     OW35311   2.538   0.081  11.992 -0.5990 -0.6171  0.2128
 7893SOL    HW135312   2.501   0.017  12.053 -0.1665 -0.4051  0.6935
 7893SOL    HW235313   2.590   0.133  12.053  0.3224  0.6420 -1.6723
 7894SOL     OW35314   3.771   3.155  15.644  0.1746  0.0957 -0.4189
 7894SOL    HW135315   3.752   3.061  15.647 -1.9217  0.5295 -0.8168
 7894SOL    HW235316   3.695   3.182  15.695  1.7530  3.7572 -0.0463
 7895SOL     OW35317   0.955   1.910   7.619  0.3537  0.2782  0.1728
 7895SOL    HW135318   0.949   1.965   7.697 -0.8844  0.7559 -0.2607
 7895SOL    HW235319   0.970   1.972   7.548 -0.3817  1.3035  0.9116
 7896SOL     OW35320   0.530   3.637  12.044  0.0702 -0.0004  0.2653
 7896SOL    HW135321   0.589   3.616  11.972  2.1899 -0.2048  2.0416
 7896SOL    HW235322   0.493   3.719  12.013 -0.5568  0.4136  2.1166
 7897SOL     OW35323   1.963   3.261   4.651  0.2122  0.0937 -0.2390
 7897SOL    HW135324   2.037   3.307   4.612 -0.5659  0.4266 -1.3079
 7897SOL    HW235325   1.977   3.180   4.603 -0.7091 -0.6532  0.7502
 7898SOL     OW35326   1.625   1.373   7.556 -0.2874 -0.7157 -0.3712
 7898SOL    HW135327   1.604   1.341   7.468 -2.2246 -2.2084  0.6312
 7898SOL    HW235328   1.711   1.333   7.567 -0.8530 -1.4501  1.3765
 7899SOL     OW35329   3.756   3.063  12.410 -0.0687 -0.7019 -0.1851
 7899SOL    HW135330   3.664   3.078  12.389 -0.4739 -0.5910  1.6526
 7899SOL    HW235331   3.788   3.059  12.320  0.0847 -1.3876 -0.0982
 7900SOL     OW35332   3.386   0.367   9.573 -0.5265 -0.1475 -0.0228
 7900SOL    HW135333   3.370   0.456   9.542  0.4225  0.0786  0.1407
 7900SOL    HW235334   3.481   0.366   9.583 -0.7303 -3.2064  1.7279
 7901SOL     OW35335   2.294   3.659   5.666  0.8259 -0.4244  0.4131
 7901SOL    HW135336   2.372   3.669   5.720  0.6511 -0.6770  0.7133
 7901SOL    HW235337   2.292   3.738   5.613 -1.3612 -0.3288  0.6280
 7902SOL     OW35338   4.353   4.024   2.294 -0.2837 -0.3019  0.1875
 7902SOL    HW135339   4.317   3.936   2.303 -1.5633  0.0947 -1.0258
 7902SOL    HW235340   4.287   4.081   2.333 -0.2130  0.2861 -0.5571
 7903SOL     OW35341   2.756   1.529   2.021  0.4128 -0.1254  0.1675
 7903SOL    HW135342   2.842   1.532   1.978  1.3005 -2.3428  1.8068
 7903SOL    HW235343   2.723   1.609   1.979 -2.0991 -1.3878 -0.2265
 7904SOL     OW35344   3.251   1.789   1.711 -0.1427  0.3042  0.2333
 7904SOL    HW135345   3.234   1.757   1.622 -0.0894 -0.0869  0.3633
 7904SOL    HW235346   3.333   1.746   1.737  0.5722  2.2904  1.2134
 7905SOL     OW35347   1.968   0.898   5.655  0.1825  0.1153  0.5492
 7905SOL    HW135348   1.965   0.859   5.743  0.3160 -2.7195 -0.6891
 7905SOL    HW235349   2.012   0.838   5.594  0.3778  0.1635  0.6422
 7906SOL     OW35350   1.864   4.229   3.705  0.1618 -0.0791 -0.3094
 7906SOL    HW135351   1.876   4.137   3.683  0.3440 -0.1332  0.0085
 7906SOL    HW235352   1.883   4.231   3.799 -0.3150  1.4513 -0.2435
 7907SOL     OW35353   2.676   0.362   3.384 -0.5559 -0.1442  0.1707
 7907SOL    HW135354   2.615   0.290   3.368  1.5484 -1.6209 -1.1500
 7907SOL    HW235355   2.701   0.329   3.470 -0.5294 -2.3237 -0.6764
 7908SOL     OW35356   3.390   0.289   8.261 -0.3966 -0.1242  0.0521
 7908SOL    HW135357   3.444   0.315   8.336  0.1755 -1.7265  0.2072
 7908SOL    HW235358   3.338   0.367   8.242  1.8882  0.9302 -1.8538
 7909SOL     OW35359   1.098   0.426   2.792 -0.0945  0.3392  0.1124
 7909SOL    HW135360   1.010   0.451   2.821  0.3452 -1.2967  2.8836
 7909SOL    HW235361   1.131   0.387   2.873  0.6507  0.9112  0.0794
 7910SOL     OW35362   1.451   1.465   4.718 -0.2799 -0.3530 -0.1437
 7910SOL    HW135363   1.505   1.506   4.651  0.1459 -2.7767 -1.2881
 7910SOL    HW235364   1.508   1.435   4.789  0.1202  0.7778  0.0076
 7911SOL     OW35365   0.836   2.681   6.417 -0.0573  0.1777  0.0490
 7911SOL    HW135366   0.812   2.707   6.328  1.8986  1.0157 -0.2545
 7911SOL    HW235367   0.753   2.647   6.448 -0.4375  0.9636 -0.1098
 7912SOL     OW35368   4.246   3.601  10.845  0.1750  0.2025  0.6821
 7912SOL    HW135369   4.266   3.685  10.886 -0.8756 -0.0133  1.6346
 7912SOL    HW235370   4.334   3.564  10.839 -0.3818 -0.9305 -0.5761
 7913SOL     OW35371   2.864   1.403   3.985 -0.1066  0.1304  0.2227
 7913SOL    HW135372   2.909   1.326   4.019 -0.9244  0.2843  1.6992
 7913SOL    HW235373   2.776   1.365   3.989 -0.0129  0.0021  1.1365
 7914SOL     OW35374   1.804   3.318   6.192  0.5998  0.4255  0.2304
 7914SOL    HW135375   1.831   3.373   6.118  2.1226  0.4859  0.8347
 7914SOL    HW235376   1.715   3.353   6.198  0.9069  1.0218  1.3436
 7915SOL     OW35377   2.230   2.956   7.517 -0.5867 -0.2912  0.4296
 7915SOL    HW135378   2.161   3.020   7.538  1.3530  1.8285  0.3294
 7915SOL    HW235379   2.292   3.003   7.461 -1.1271 -1.6322 -1.2857
 7916SOL     OW35380   1.227   4.057   5.751 -0.1288 -0.1761 -0.0153
 7916SOL    HW135381   1.240   4.022   5.839  1.6283 -3.1590 -1.4646
 7916SOL    HW235382   1.274   3.992   5.697 -1.4541 -1.0023 -0.1789
 7917SOL     OW35383   1.961   0.732  17.437 -0.5005  0.0737  0.2509
 7917SOL    HW135384   2.004   0.776  17.511 -2.3512  0.4905  1.0802
 7917SOL    HW235385   2.017   0.747  17.361 -2.2765 -0.5961 -1.1952
 7918SOL     OW35386   2.966   1.862  15.918  0.6887 -0.4894  0.1618
 7918SOL    HW135387   2.873   1.878  15.906  1.3970  1.4545 -3.0742
 7918SOL    HW235388   2.982   1.896  15.829 -0.6780 -2.8729 -0.9863
 7919SOL     OW35389   2.440   0.644  16.978  0.0237  0.0132 -0.0095
 7919SOL    HW135390   2.428   0.708  16.908  3.7012 -0.7319 -1.2862
 7919SOL    HW235391   2.347   0.646  17.003 -0.0561 -3.4242 -0.0053
 7920SOL     OW35392   0.618   3.615   0.904 -0.1388  0.2908  0.1519
 7920SOL    HW135393   0.705   3.584   0.879  0.4317 -0.3614  2.9041
 7920SOL    HW235394   0.637   3.605   0.998  0.2414 -2.3771 -0.2120
 7921SOL     OW35395   0.026   4.723   7.965  0.2730 -0.1422  0.0067
 7921SOL    HW135396   4.677   4.700   7.936 -0.4818  2.4197  0.2880
 7921SOL    HW235397   0.049   4.647   8.018 -0.0422 -0.5711 -0.4616
 7922SOL     OW35398   3.250   3.187  17.748 -0.0794  0.2638  0.0240
 7922SOL    HW135399   3.234   3.103   0.036  3.6239  1.0344  2.8361
 7922SOL    HW235400   3.256   3.236   0.074 -0.6275 -0.1835  0.3308
 7923SOL     OW35401   2.234   1.722   6.797 -0.0269  0.2449 -0.2119
 7923SOL    HW135402   2.258   1.794   6.854  0.3890 -1.3694  1.6604
 7923SOL    HW235403   2.162   1.686   6.848  1.9667 -0.7535  1.8728
 7924SOL     OW35404   4.090   1.701   3.605 -0.4430  0.0218 -0.5375
 7924SOL    HW135405   4.130   1.696   3.518 -0.9076 -1.4747 -0.6561
 7924SOL    HW235406   4.042   1.784   3.611  1.2323  0.9476  0.0670
 7925SOL     OW35407   3.132   3.273  16.550  0.3809  0.2071  0.5895
 7925SOL    HW135408   3.169   3.328  16.481  0.9969  0.2617  0.9607
 7925SOL    HW235409   3.186   3.309  16.620 -0.7799  2.1290  0.4887
 7926SOL     OW35410   2.987   4.215   5.691  0.0438 -0.1025 -0.0199
 7926SOL    HW135411   2.984   4.232   5.597  0.8814 -1.5419 -0.3008
 7926SOL    HW235412   2.897   4.230   5.720 -0.4839 -0.4333 -1.4985
 7927SOL     OW35413   3.340   3.123   8.411  0.8785  0.1506 -0.1687
 7927SOL    HW135414   3.246   3.112   8.425  0.8341 -0.5109 -0.9465
 7927SOL    HW235415   3.372   3.093   8.495  0.1585  1.6756  0.6497
 7928SOL     OW35416   3.355   2.314   8.034 -0.2582  0.3567  0.1440
 7928SOL    HW135417   3.441   2.349   8.011 -1.0077  0.4903 -2.4658
 7928SOL    HW235418   3.304   2.336   7.956  0.3250  1.1979  0.0010
 7929SOL     OW35419   0.070   1.671  16.872  1.0206 -0.5358 -0.9575
 7929SOL    HW135420   4.720   1.652  16.900  1.0966 -1.1900 -1.1667
 7929SOL    HW235421   0.100   1.734  16.937 -1.6914  1.4641 -1.6208
 7930SOL     OW35422   2.230   1.403  13.637 -0.2323  0.0406 -0.3225
 7930SOL    HW135423   2.261   1.437  13.721 -0.4207 -1.1463  0.2303
 7930SOL    HW235424   2.238   1.310  13.662  1.8699  0.4024  0.3319
 7931SOL     OW35425   1.425   4.154   0.623  0.4957  0.3556  0.1442
 7931SOL    HW135426   1.478   4.074   0.626 -1.1763 -0.7951 -0.9524
 7931SOL    HW235427   1.463   4.203   0.550  1.5542  0.3044  0.6597
 7932SOL     OW35428   1.142   2.568   8.756  0.0064  0.1588 -0.3787
 7932SOL    HW135429   1.103   2.619   8.826 -1.6451  1.0226 -1.9185
 7932SOL    HW235430   1.157   2.488   8.805  0.6135  0.3393 -0.2659
 7933SOL     OW35431   2.033   3.751   4.143 -0.0283 -0.4753 -0.7113
 7933SOL    HW135432   2.117   3.751   4.096  1.5399 -1.0764  2.1034
 7933SOL    HW235433   2.054   3.771   4.235  0.6248  2.6555 -1.5186
 7934SOL     OW35434   0.737   0.162   2.272  0.0207  0.3747  0.1562
 7934SOL    HW135435   0.800   0.206   2.215 -1.0263  1.2864 -0.3039
 7934SOL    HW235436   0.656   0.209   2.252  0.0381  1.5015  2.6691
 7935SOL     OW35437   1.897   2.665  15.687 -0.3088  0.5414  0.2910
 7935SOL    HW135438   1.892   2.757  15.661  2.3786 -0.2387 -2.9492
 7935SOL    HW235439   1.855   2.627  15.610 -1.2292  2.6415 -0.2526
 7936SOL     OW35440   2.930   4.387  11.635  0.1370 -0.3387 -0.6995
 7936SOL    HW135441   2.847   4.340  11.648  1.7106 -2.5759  1.5033
 7936SOL    HW235442   2.984   4.364  11.711 -0.7124 -0.1847 -0.0381
 7937SOL     OW35443   4.290   3.213   5.053 -0.0378  0.0896  0.6895
 7937SOL    HW135444   4.384   3.206   5.034 -0.1113  0.0508  0.3493
 7937SOL    HW235445   4.271   3.307   5.043  0.2088 -0.3053 -3.5492
 7938SOL     OW35446   4.514   1.170   4.030 -0.0175  1.2648 -0.4360
 7938SOL    HW135447   4.601   1.153   4.067  0.3728 -2.0006 -2.7965
 7938SOL    HW235448   4.544   1.220   3.954 -1.3374  0.8853 -1.2019
 7939SOL     OW35449   1.872   0.799   1.581  0.4766  0.2184  0.4674
 7939SOL    HW135450   1.825   0.763   1.505  1.0553 -0.7027  0.5509
 7939SOL    HW235451   1.884   0.730   1.645  1.7107  0.4549  0.5061
 7940SOL     OW35452   1.632   1.924   8.321  0.0863 -0.5458 -0.5566
 7940SOL    HW135453   1.544   1.900   8.351 -0.5882  0.2057 -1.9402
 7940SOL    HW235454   1.620   2.005   8.271  1.2652 -0.3134 -0.4676
 7941SOL     OW35455   1.601   3.589  14.802 -0.2933  0.0091  0.2230
 7941SOL    HW135456   1.637   3.533  14.734 -0.2373 -2.9967  2.6890
 7941SOL    HW235457   1.520   3.613  14.756  0.8292 -0.6656 -2.1168
 7942SOL     OW35458   3.721   4.614  17.435  0.0224 -0.1082 -0.2500
 7942SOL    HW135459   3.779   4.573  17.499  1.8373  1.9621 -0.5560
 7942SOL    HW235460   3.684   4.686  17.486 -0.0455 -1.0188  0.9933
 7943SOL     OW35461   4.664   4.224   6.272 -0.2078 -0.5047 -0.2687
 7943SOL    HW135462   4.608   4.245   6.347  2.9439 -1.2661  2.3214
 7943SOL    HW235463   4.605   4.166   6.224  0.4604 -0.4849 -1.1087
 7944SOL     OW35464   2.389   1.944   7.429 -0.2485 -0.3903  0.2524
 7944SOL    HW135465   2.297   1.956   7.454 -0.1805  1.5206 -0.4580
 7944SOL    HW235466   2.429   1.942   7.516 -2.5171  1.8817  1.3365
 7945SOL     OW35467   1.528   1.847   6.483  0.0688  0.2311  0.3651
 7945SOL    HW135468   1.542   1.806   6.398  3.0119  0.6490  0.6563
 7945SOL    HW235469   1.488   1.930   6.456  2.3910  0.6511 -1.7360
 7946SOL     OW35470   1.616   2.462   8.925 -0.0608 -0.8165 -0.1526
 7946SOL    HW135471   1.691   2.521   8.940  0.0759 -0.6351 -1.5946
 7946SOL    HW235472   1.625   2.448   8.831 -0.3503  0.3063 -0.3484
 7947SOL     OW35473   0.381   4.075   2.522 -0.0654  0.2865 -0.3071
 7947SOL    HW135474   0.291   4.050   2.506 -0.4368  0.8238  0.9534
 7947SOL    HW235475   0.382   4.167   2.494 -1.2305  0.7257  1.0728
 7948SOL     OW35476   4.293   2.990   0.565  0.2169  0.4022 -0.1585
 7948SOL    HW135477   4.343   2.965   0.487 -0.6923  1.7293 -1.1353
 7948SOL    HW235478   4.219   3.036   0.528  0.6850  0.5183 -0.9595
 7949SOL     OW35479   0.717   2.783   1.823 -0.0703 -0.0581  0.3983
 7949SOL    HW135480   0.686   2.866   1.786  1.0626  0.7428  1.2578
 7949SOL    HW235481   0.637   2.730   1.826  0.3693 -0.6097  1.8392
 7950SOL     OW35482   3.575   3.108   0.161  0.2821  0.1333 -0.0307
 7950SOL    HW135483   3.605   3.195   0.187 -0.5127  0.2258  0.5785
 7950SOL    HW235484   3.531   3.122   0.078  0.8975 -1.5079 -0.6240
 7951SOL     OW35485   0.348   1.029   5.734 -0.6372 -0.0284 -0.0646
 7951SOL    HW135486   0.422   1.077   5.696 -0.7815  1.9682  2.1601
 7951SOL    HW235487   0.388   0.943   5.744  0.1220  0.0448 -2.3314
 7952SOL     OW35488   3.281   0.451  17.749  0.1143 -0.8582 -0.4532
 7952SOL    HW135489   3.258   0.420   0.081 -0.6458  4.2606  1.1477
 7952SOL    HW235490   3.355   0.502   0.026 -0.0293  0.1861 -1.7994
 7953SOL     OW35491   1.802   1.596   7.647  0.1302  0.3642  0.5071
 7953SOL    HW135492   1.753   1.672   7.615 -1.1849 -0.4890  0.5132
 7953SOL    HW235493   1.741   1.523   7.657  2.2803 -1.4715  0.3173
 7954SOL     OW35494   3.238   4.431  13.405 -0.1732 -1.3182  0.0986
 7954SOL    HW135495   3.288   4.366  13.356  1.2447  1.7937 -2.5627
 7954SOL    HW235496   3.308   4.466  13.460 -1.6850  0.9856  0.5411
 7955SOL     OW35497   1.133   1.404  16.348 -0.6344  0.0969 -0.5582
 7955SOL    HW135498   1.227   1.384  16.343 -0.6977 -0.1188 -0.9022
 7955SOL    HW235499   1.091   1.329  16.307 -0.2485 -0.8120  0.7294
 7956SOL     OW35500   4.683   1.338  10.920 -0.2141 -0.1158 -0.5563
 7956SOL    HW135501   4.735   1.368  10.846 -1.2909 -1.2388 -1.7589
 7956SOL    HW235502   4.631   1.418  10.928 -0.1147 -0.0340 -0.7398
 7957SOL     OW35503   0.397   2.565   6.614 -0.2096  0.2751  0.5714
 7957SOL    HW135504   0.440   2.614   6.684  0.7605  1.1325 -0.6242
 7957SOL    HW235505   0.396   2.478   6.655 -0.3300 -0.2458 -0.5273
 7958SOL     OW35506   1.854   4.172   5.626 -0.3026 -0.7230 -0.4525
 7958SOL    HW135507   1.940   4.211   5.642 -0.5618  0.5070 -2.0083
 7958SOL    HW235508   1.816   4.192   5.711 -0.3483 -0.7263 -0.4721
 7959SOL     OW35509   2.121   2.750   7.245 -0.0502 -0.1458  0.1093
 7959SOL    HW135510   2.203   2.702   7.234 -0.9009 -1.4544 -0.5962
 7959SOL    HW235511   2.125   2.761   7.340  1.0958 -0.1750  0.0650
 7960SOL     OW35512   1.235   4.435   5.210 -0.4780  0.3795 -0.2431
 7960SOL    HW135513   1.279   4.454   5.127  1.3593 -0.9112  0.4287
 7960SOL    HW235514   1.187   4.518   5.220 -2.3748 -0.6666 -0.7075
 7961SOL     OW35515   0.122   4.452   8.171 -0.5017 -0.4996 -0.8934
 7961SOL    HW135516   0.129   4.414   8.084  1.0979 -0.8910 -0.6077
 7961SOL    HW235517   0.118   4.374   8.227 -0.0159  0.2957  0.2664
 7962SOL     OW35518   1.092   0.288  12.838  0.4938  0.3652  0.4718
 7962SOL    HW135519   1.127   0.204  12.809  1.8080  0.6339  1.2692
 7962SOL    HW235520   1.160   0.325  12.894 -1.3919  2.6113  1.2762
 7963SOL     OW35521   1.577   1.576   4.493  0.2777  0.2555 -0.0137
 7963SOL    HW135522   1.667   1.601   4.514  0.5795 -1.4906  0.7775
 7963SOL    HW235523   1.548   1.640   4.427  2.7218 -0.1319 -1.4558
 7964SOL     OW35524   2.896   4.720   4.000  0.1878  0.5775  0.7538
 7964SOL    HW135525   2.857   4.682   4.079 -0.7949 -1.5235 -0.7262
 7964SOL    HW235526   2.948   4.645   3.970 -1.5795 -0.5369  0.4224
 7965SOL     OW35527   4.730   1.090   7.711 -0.2641  0.1306 -0.1618
 7965SOL    HW135528   4.700   1.159   7.651 -2.6476  1.6820  2.8467
 7965SOL    HW235529   4.659   1.093   7.775 -0.3987 -0.6155 -0.2786
 7966SOL     OW35530   1.702   4.565   5.408  0.0725 -0.3873 -0.4303
 7966SOL    HW135531   1.713   4.483   5.361  0.0418  0.1940 -1.4524
 7966SOL    HW235532   1.638   4.613   5.356  0.3273 -0.8734 -1.1784
 7967SOL     OW35533   2.547   4.413   5.705  0.0360  0.0110 -0.3560
 7967SOL    HW135534   2.612   4.482   5.714 -0.2519  0.0962  1.0966
 7967SOL    HW235535   2.475   4.476   5.696 -0.4530 -0.6111 -0.7991
 7968SOL     OW35536   1.663   3.606   2.165 -0.4467  0.8201  0.2452
 7968SOL    HW135537   1.661   3.702   2.171  0.5718  0.9139 -0.8141
 7968SOL    HW235538   1.752   3.581   2.139  0.1941  1.1191  2.1489
 7969SOL     OW35539   1.014   3.833   4.085 -0.1970  0.3001 -0.5130
 7969SOL    HW135540   1.044   3.802   4.171  0.6630 -0.5821 -1.1356
 7969SOL    HW235541   0.926   3.796   4.085 -0.3948  0.7506  2.9503
 7970SOL     OW35542   2.265   1.385   6.397 -0.3149  0.0074  0.1965
 7970SOL    HW135543   2.183   1.383   6.347 -0.2234 -0.3976  0.0591
 7970SOL    HW235544   2.244   1.441   6.471 -1.5853 -2.8589  1.9983
 7971SOL     OW35545   1.286   4.395   6.497 -0.8722  0.2885  0.0685
 7971SOL    HW135546   1.232   4.320   6.475 -0.8421 -0.3306  2.1749
 7971SOL    HW235547   1.365   4.373   6.447 -1.0263 -0.6209  0.2452
 7972SOL     OW35548   1.971   2.319   2.012  0.3345  0.0468  0.4635
 7972SOL    HW135549   1.895   2.315   2.070  0.0378 -0.7850  0.0211
 7972SOL    HW235550   2.032   2.330   2.085 -1.6072 -0.2348  2.1296
 7973SOL     OW35551   0.382   0.865   0.838 -0.6379  0.6583 -0.1602
 7973SOL    HW135552   0.383   0.950   0.794 -0.7696  1.8096  2.0412
 7973SOL    HW235553   0.451   0.827   0.783 -1.6990 -0.6629 -0.5691
 7974SOL     OW35554   2.580   1.262   0.209  0.0863  0.0168 -0.4024
 7974SOL    HW135555   2.635   1.319   0.155  0.4737  2.8362  2.9688
 7974SOL    HW235556   2.633   1.260   0.289 -0.2568 -3.1826 -0.2518
 7975SOL     OW35557   1.514   4.319  15.272  0.4743  0.1552 -0.5911
 7975SOL    HW135558   1.543   4.410  15.265  2.2899 -0.3575  0.2112
 7975SOL    HW235559   1.566   4.297  15.350  1.0775 -1.8958 -1.5758
 7976SOL     OW35560   4.402   0.049   1.345  0.1177  0.0341  1.3388
 7976SOL    HW135561   4.412   0.040   1.250 -0.2360 -0.0042  1.3041
 7976SOL    HW235562   4.311   0.078   1.354  0.1028  0.6599 -0.8330
 7977SOL     OW35563   2.152   4.588   3.704 -0.0658  0.4117  0.2752
 7977SOL    HW135564   2.067   4.618   3.670  0.0996  0.2032 -0.3338
 7977SOL    HW235565   2.137   4.495   3.692  0.7053  0.8220 -3.9354
 7978SOL     OW35566   4.304   2.395   3.598 -0.0738  0.1556  0.1900
 7978SOL    HW135567   4.284   2.446   3.677  1.5734 -2.5193  2.3258
 7978SOL    HW235568   4.395   2.365   3.610 -0.4637 -0.4879  1.5803
 7979SOL     OW35569   2.344   2.298   2.534 -0.1452  0.0980 -0.1423
 7979SOL    HW135570   2.385   2.385   2.532  0.9308 -0.3475  2.3159
 7979SOL    HW235571   2.270   2.310   2.593  0.1018  2.9626 -0.3867
 7980SOL     OW35572   0.870   0.522  17.529 -0.4676  0.4326  0.4249
 7980SOL    HW135573   0.910   0.524  17.616 -1.4806  0.5266  0.8760
 7980SOL    HW235574   0.920   0.582  17.473 -2.3776 -0.9958 -2.8242
 7981SOL     OW35575   2.154   1.347   8.768 -0.0675 -0.0752  0.2049
 7981SOL    HW135576   2.129   1.424   8.820  0.5616 -0.2416  0.7588
 7981SOL    HW235577   2.205   1.293   8.829 -0.3222 -1.9263 -1.2361
 7982SOL     OW35578   0.886   2.339   6.597 -0.0161  0.0430 -0.5137
 7982SOL    HW135579   0.823   2.301   6.657 -1.8729  1.8733 -1.2856
 7982SOL    HW235580   0.947   2.383   6.656 -1.5468  1.9045 -0.2856
 7983SOL     OW35581   4.249   4.431   7.808 -0.7423  0.2270  0.1475
 7983SOL    HW135582   4.259   4.375   7.885 -1.5472  1.1959  0.9402
 7983SOL    HW235583   4.213   4.511   7.845 -0.9811 -0.2523  0.9626
 7984SOL     OW35584   0.718   4.678  14.587 -0.2860 -0.4753  0.0493
 7984SOL    HW135585   0.779   0.000  14.626  0.1213 -2.9007  3.2463
 7984SOL    HW235586   0.639   4.707  14.633  0.7275  0.8511  0.9504
 7985SOL     OW35587   4.377   2.318   1.525 -0.1789  0.1205 -0.2265
 7985SOL    HW135588   4.296   2.368   1.512 -0.5605 -0.3437  0.3967
 7985SOL    HW235589   4.357   2.245   1.583 -0.0524  0.0149 -0.3170
 7986SOL     OW35590   2.942   0.754   3.588  0.0019 -0.4244  0.1777
 7986SOL    HW135591   2.851   0.784   3.589  0.5185  1.1658  0.3572
 7986SOL    HW235592   2.947   0.723   3.678 -1.6170  0.7326  0.6874
 7987SOL     OW35593   0.975   2.452  16.166  0.4934 -0.1579  0.1531
 7987SOL    HW135594   0.968   2.357  16.179 -0.9345 -0.3028 -1.6804
 7987SOL    HW235595   0.917   2.488  16.233 -2.6730 -2.3850 -1.3748
 7988SOL     OW35596   3.072   3.415  14.019  0.1419 -1.0626  0.4155
 7988SOL    HW135597   3.157   3.446  14.051 -0.6619  1.9312 -0.3682
 7988SOL    HW235598   3.090   3.338  13.965  2.0595 -1.0871  1.0758
 7989SOL     OW35599   4.571   0.919   2.895  0.2942 -0.1399  0.5490
 7989SOL    HW135600   4.507   0.899   2.826 -0.4060 -0.5210  1.2998
 7989SOL    HW235601   4.545   0.845   2.949  0.0216 -0.8031 -0.4871
 7990SOL     OW35602   0.420   0.622  15.696  0.2103 -0.2701 -0.1482
 7990SOL    HW135603   0.379   0.695  15.742 -0.5402 -0.3610 -0.6821
 7990SOL    HW235604   0.480   0.666  15.636 -0.0890 -0.2126 -0.3996
 7991SOL     OW35605   3.871   4.609   6.377 -0.0940 -0.3265  0.6231
 7991SOL    HW135606   3.917   4.679   6.331 -3.0906  2.5397  1.9592
 7991SOL    HW235607   3.875   4.539   6.312  0.4884  0.0720  0.2311
 7992SOL     OW35608   4.316   2.052   6.128  0.5104 -0.4289 -0.6760
 7992SOL    HW135609   4.296   2.000   6.206  2.5059  0.0083  0.1338
 7992SOL    HW235610   4.389   2.094   6.174 -0.5148 -0.3702  0.8806
 7993SOL     OW35611   4.721   1.717   2.376  0.4310 -0.3493 -0.1042
 7993SOL    HW135612   0.035   1.644   2.406 -0.0736 -0.2877  0.9603
 7993SOL    HW235613   0.039   1.793   2.382 -0.7503  0.5050  0.3826
 7994SOL     OW35614   2.376   3.948   3.325  0.4089 -0.2214 -0.1103
 7994SOL    HW135615   2.331   3.865   3.308 -1.7329  0.9366 -0.2053
 7994SOL    HW235616   2.468   3.930   3.310  0.9223  0.8150  1.8068
 7995SOL     OW35617   4.183   2.169   2.290 -0.9966  0.0051  0.9013
 7995SOL    HW135618   4.109   2.203   2.341  0.7195  1.4579  2.4256
 7995SOL    HW235619   4.215   2.108   2.356 -1.8222  0.1610  1.4477
 7996SOL     OW35620   1.347   2.125   7.957 -0.2735  0.4195  0.0252
 7996SOL    HW135621   1.327   2.033   7.978  2.7897 -0.1250  0.5012
 7996SOL    HW235622   1.285   2.171   8.014  0.8910  0.7754  1.0056
 7997SOL     OW35623   2.035   4.381  10.016  0.8069  0.1277 -0.1196
 7997SOL    HW135624   2.075   4.298   9.990 -2.1156 -1.0452 -0.9922
 7997SOL    HW235625   1.944   4.355  10.031  1.2603 -0.1172  2.2175
 7998SOL     OW35626   2.281   3.007   2.404  0.0049  0.0156 -0.3555
 7998SOL    HW135627   2.304   2.917   2.424 -2.9378 -1.0714 -1.9340
 7998SOL    HW235628   2.200   2.989   2.357 -0.7792 -1.7892  1.7078
 7999SOL     OW35629   0.845   3.847   7.800 -0.0029 -0.4054 -0.5118
 7999SOL    HW135630   0.895   3.768   7.783  2.7922  1.0689  0.9359
 7999SOL    HW235631   0.821   3.836   7.892 -1.4281  1.7226 -0.6024
 8000SOL     OW35632   0.134   4.213   3.134  0.1244 -0.4661 -1.0843
 8000SOL    HW135633   0.164   4.143   3.192 -1.4416  0.5745  0.9847
 8000SOL    HW235634   0.041   4.192   3.123 -0.1406  2.2571 -3.8259
 8001SOL     OW35635   3.467   3.951  15.195  0.1310 -0.2251 -0.1525
 8001SOL    HW135636   3.533   3.911  15.138  0.8693  1.7934 -0.7173
 8001SOL    HW235637   3.510   4.026  15.237 -0.3909 -1.0175  1.7589
 8002SOL     OW35638   0.439   1.741   4.856 -0.5269  0.1987 -0.0427
 8002SOL    HW135639   0.427   1.655   4.816 -1.4465  0.3896 -0.1659
 8002SOL    HW235640   0.463   1.720   4.947  2.0869  0.9915 -0.5332
 8003SOL     OW35641   0.559   3.866   1.257 -0.0092 -0.5383  0.6802
 8003SOL    HW135642   0.651   3.884   1.233 -0.3075 -0.6402 -0.5523
 8003SOL    HW235643   0.571   3.775   1.231 -1.9733 -0.5534 -0.1590
 8004SOL     OW35644   4.599   3.064  13.764 -0.5804 -0.4221 -0.1155
 8004SOL    HW135645   4.562   3.151  13.778 -1.1447 -0.6116 -0.4529
 8004SOL    HW235646   4.607   3.037  13.856 -0.8816  0.5893  0.2148
 8005SOL     OW35647   3.698   0.685   8.240  0.1194  0.0443  0.0380
 8005SOL    HW135648   3.630   0.739   8.200  0.3834  1.0129  0.8839
 8005SOL    HW235649   3.757   0.749   8.280  0.2003 -0.8516  1.3545
 8006SOL     OW35650   3.907   2.017   7.148 -0.3449  0.1513  0.3945
 8006SOL    HW135651   3.917   1.924   7.165  1.1960  0.0781 -0.9593
 8006SOL    HW235652   3.821   2.011   7.106 -0.8331  0.1202  1.3919
 8007SOL     OW35653   2.319   2.967  16.855 -0.0287 -0.0768  0.0515
 8007SOL    HW135654   2.341   2.961  16.948  0.6336 -0.5262 -0.1365
 8007SOL    HW235655   2.264   2.889  16.847  0.2064 -0.3374  0.9187
 8008SOL     OW35656   4.402   2.723   5.413 -0.3235 -0.0698 -0.5977
 8008SOL    HW135657   4.319   2.682   5.439  1.2200 -2.4348  0.5740
 8008SOL    HW235658   4.424   2.668   5.338  0.5257  1.1407 -1.2217
 8009SOL     OW35659   3.199   0.382   8.046  0.4055  0.4049  0.2163
 8009SOL    HW135660   3.208   0.333   7.964  0.9871 -0.1239  0.5945
 8009SOL    HW235661   3.112   0.422   8.035  0.1491 -0.1775  0.1578
 8010SOL     OW35662   3.578   4.520   8.786 -0.4168 -0.1336 -0.2003
 8010SOL    HW135663   3.513   4.472   8.734 -0.2902 -1.5396  0.9335
 8010SOL    HW235664   3.538   4.602   8.813 -1.5404  0.0895 -2.5028
 8011SOL     OW35665   2.311   0.668   6.301  0.7973  0.0291  0.0254
 8011SOL    HW135666   2.275   0.744   6.256  0.9144  0.0968  0.0459
 8011SOL    HW235667   2.236   0.612   6.322 -0.7297  1.6882 -0.9720
 8012SOL     OW35668   1.134   0.574   7.476 -0.3112  0.3784  0.3863
 8012SOL    HW135669   1.096   0.493   7.442  1.9085 -0.5979  0.2941
 8012SOL    HW235670   1.142   0.623   7.394  2.8259  2.7466  2.1459
 8013SOL     OW35671   4.159   0.024   2.159 -0.1726 -0.2607 -0.0172
 8013SOL    HW135672   4.235   0.037   2.215  0.3904 -0.4571 -0.7295
 8013SOL    HW235673   4.166   0.104   2.107 -2.5827  0.4375  0.7282
 8014SOL     OW35674   2.922   4.684   6.203 -0.1786  0.1709 -0.1855
 8014SOL    HW135675   2.855   4.719   6.145 -1.6093  1.4542  2.2709
 8014SOL    HW235676   2.978   0.018   6.229  0.6359 -1.5131  2.8279
 8015SOL     OW35677   2.004   3.373  17.740  0.2426  0.4542  0.2750
 8015SOL    HW135678   2.065   3.301  17.727 -0.4837 -0.1484  0.2312
 8015SOL    HW235679   2.063   3.449  17.738 -1.0634  1.4614 -0.5130
 8016SOL     OW35680   4.336   1.360   2.776  0.8299  0.3086  0.0326
 8016SOL    HW135681   4.317   1.443   2.819  0.4431 -0.8327  2.0521
 8016SOL    HW235682   4.425   1.373   2.742  0.4207  0.8485 -0.8475
 8017SOL     OW35683   0.992   4.477   4.946  0.0475  0.2731  0.5143
 8017SOL    HW135684   0.944   4.396   4.963 -2.2800  1.4582 -0.4463
 8017SOL    HW235685   1.068   4.432   4.909 -0.7232  0.8426 -1.7360
 8018SOL     OW35686   0.549   4.675   5.884  0.1546  0.5956  0.1096
 8018SOL    HW135687   0.562   4.734   5.959 -3.4861 -1.2678  2.1810
 8018SOL    HW235688   0.621   4.614   5.897 -0.6410 -0.2155  0.6633
 8019SOL     OW35689   2.244   2.898   6.588 -0.2012 -0.2653 -0.0944
 8019SOL    HW135690   2.286   2.891   6.674  1.4104  1.0639 -0.7764
 8019SOL    HW235691   2.174   2.834   6.603 -0.4862 -0.0323 -0.4328
 8020SOL     OW35692   2.407   3.577   1.968  0.2799  0.0953  0.2866
 8020SOL    HW135693   2.398   3.575   2.063 -1.6603  2.2063  0.1712
 8020SOL    HW235694   2.330   3.530   1.936  1.1447 -0.4731 -0.9508
 8021SOL     OW35695   2.608   0.212   7.850  0.4737  0.2303 -0.3662
 8021SOL    HW135696   2.552   0.141   7.880 -0.5651  1.4592  0.5785
 8021SOL    HW235697   2.643   0.167   7.772 -1.6172 -1.2360 -0.4624
 8022SOL     OW35698   4.519   3.733  12.220 -0.3938 -0.0631  0.1277
 8022SOL    HW135699   4.519   3.719  12.126  0.9200  0.2207  0.0848
 8022SOL    HW235700   4.514   3.643  12.252 -1.3720  0.3510  1.1340
 8023SOL     OW35701   4.445   2.909  14.988  0.4270  0.0995  0.0121
 8023SOL    HW135702   4.479   2.901  15.077 -0.2664 -3.5569 -0.0534
 8023SOL    HW235703   4.510   2.855  14.943  0.1703  1.0878 -1.5600
 8024SOL     OW35704   4.298   4.461  15.471  0.5454 -0.0306 -0.5488
 8024SOL    HW135705   4.296   4.556  15.458  2.9901  0.0336 -0.4283
 8024SOL    HW235706   4.358   4.441  15.399  1.7935  0.4166  0.3705
 8025SOL     OW35707   3.967   1.635   0.082  0.2584  0.5256 -0.2719
 8025SOL    HW135708   4.050   1.609   0.122 -0.6516  1.4257  2.2600
 8025SOL    HW235709   3.917   1.554   0.075 -0.7361  0.9345  1.9866
 8026SOL     OW35710   3.639   2.221   4.258 -0.4573 -0.2351  0.4926
 8026SOL    HW135711   3.649   2.127   4.251 -0.6990 -0.3373  1.4115
 8026SOL    HW235712   3.555   2.234   4.213 -0.8950 -0.3962  1.2572
 8027SOL     OW35713   0.654   0.231  11.483 -0.4405 -0.0909  0.2284
 8027SOL    HW135714   0.613   0.149  11.456 -0.5420 -0.2710  0.9124
 8027SOL    HW235715   0.711   0.243  11.408  0.1017 -0.4473  0.5809
 8028SOL     OW35716   3.757   1.893   3.838  0.2354 -0.7817 -0.5594
 8028SOL    HW135717   3.696   1.956   3.799 -0.1165  0.2790  1.6864
 8028SOL    HW235718   3.816   1.873   3.766  1.4476 -0.2269  0.2640
 8029SOL     OW35719   3.485   2.224   1.676 -0.6071 -0.6966 -0.2257
 8029SOL    HW135720   3.434   2.222   1.757  0.2860  2.7023  0.4123
 8029SOL    HW235721   3.565   2.194   1.718  0.3566  0.2831 -1.3312
 8030SOL     OW35722   2.498   4.739   8.942 -0.0656 -0.3007 -0.4053
 8030SOL    HW135723   2.463   4.687   9.014 -2.0102 -1.6803 -2.3620
 8030SOL    HW235724   2.421   0.051   8.919 -1.2108 -0.6567  2.5205
 8031SOL     OW35725   3.673   2.243   5.221  0.2341  0.2524 -0.0474
 8031SOL    HW135726   3.749   2.185   5.221  0.8161  1.0155  0.4485
 8031SOL    HW235727   3.647   2.246   5.129  0.8463 -2.5004 -0.2866
 8032SOL     OW35728   0.221   2.042  12.128 -0.2530 -0.2488  0.0946
 8032SOL    HW135729   0.149   2.076  12.075 -0.1487 -0.5288 -0.2317
 8032SOL    HW235730   0.177   1.998  12.200 -1.1611 -1.6018 -1.2943
 8033SOL     OW35731   3.806   3.787   3.018  0.3497 -0.2539 -0.2268
 8033SOL    HW135732   3.806   3.864   3.076  1.5453  0.7668 -1.5899
 8033SOL    HW235733   3.866   3.818   2.950  0.1452 -0.6066 -0.5658
 8034SOL     OW35734   0.101   0.708   2.695  0.4623  0.6974  0.3589
 8034SOL    HW135735   0.083   0.786   2.748  0.0846  0.1442  1.0511
 8034SOL    HW235736   0.019   0.706   2.645  1.8969  1.3719 -2.0044
 8035SOL     OW35737   1.703   3.550   8.684 -0.0643  1.1869  0.0284
 8035SOL    HW135738   1.613   3.534   8.655 -0.3565  2.2089  0.3518
 8035SOL    HW235739   1.729   3.612   8.617 -1.2868 -0.2405 -1.7710
 8036SOL     OW35740   3.493   2.857   0.117  0.3063  0.0758 -0.2221
 8036SOL    HW135741   3.519   2.946   0.140  2.3747 -0.0619 -2.0681
 8036SOL    HW235742   3.412   2.881   0.070  0.4781  1.5641  0.2442
 8037SOL     OW35743   3.658   0.396   6.546  0.2123  0.2208  0.0652
 8037SOL    HW135744   3.661   0.306   6.514  1.8244 -0.2321  1.4853
 8037SOL    HW235745   3.745   0.395   6.586  0.2857  0.7724 -0.0759
 8038SOL     OW35746   0.622   3.640  14.332 -0.2101  0.3892 -0.2750
 8038SOL    HW135747   0.668   3.585  14.397 -0.4659  0.1436 -0.3043
 8038SOL    HW235748   0.592   3.566  14.280  1.6140  0.9816 -2.1679
 8039SOL     OW35749   4.010   0.480  14.994 -0.0958 -0.2883 -0.3755
 8039SOL    HW135750   3.975   0.569  14.989 -1.1498 -0.5840  1.8780
 8039SOL    HW235751   4.060   0.463  14.914 -0.9073 -0.7661 -0.7864
 8040SOL     OW35752   2.625   3.001   7.490  0.0782  0.6407 -0.1303
 8040SOL    HW135753   2.641   3.059   7.564 -0.1509  0.7975 -0.2049
 8040SOL    HW235754   2.565   3.048   7.433  2.6752  2.6088 -1.2358
 8041SOL     OW35755   3.880   2.592   9.260  0.7957 -0.5018 -0.1957
 8041SOL    HW135756   3.857   2.515   9.310  1.8227 -0.0463  0.9848
 8041SOL    HW235757   3.829   2.652   9.314  0.6721 -2.0672  1.4169
 8042SOL     OW35758   1.300   1.017  16.736  0.2193  0.3508 -0.0914
 8042SOL    HW135759   1.345   1.100  16.750 -1.1107  1.5387 -2.7880
 8042SOL    HW235760   1.296   1.018  16.640  0.4959  0.8077 -0.0959
 8043SOL     OW35761   2.652   2.901   4.326  0.1514 -0.0983 -0.1817
 8043SOL    HW135762   2.561   2.875   4.339 -0.3584  1.4080 -0.7078
 8043SOL    HW235763   2.667   2.968   4.393  1.1982 -0.1111 -0.3967
 8044SOL     OW35764   1.255   3.730   2.456  0.1675 -0.4863  0.1580
 8044SOL    HW135765   1.264   3.635   2.468  1.4033 -0.3603  0.2135
 8044SOL    HW235766   1.342   3.755   2.485  0.5731 -1.1330 -0.5189
 8045SOL     OW35767   3.122   1.051   4.620  0.4643 -0.2233 -0.3141
 8045SOL    HW135768   3.169   1.114   4.564 -0.6315  0.7372 -0.1526
 8045SOL    HW235769   3.137   0.974   4.565 -0.3868 -1.7641  1.6234
 8046SOL     OW35770   1.463   3.908   8.798 -0.2397 -0.0024  0.3996
 8046SOL    HW135771   1.433   3.928   8.887 -0.1363 -0.7904  0.6145
 8046SOL    HW235772   1.466   3.813   8.810  1.0732  0.0986  0.8547
 8047SOL     OW35773   0.843   2.185   7.507 -0.1687 -0.6245  0.8842
 8047SOL    HW135774   0.891   2.221   7.581  2.8065  2.0994 -2.3368
 8047SOL    HW235775   0.793   2.265   7.489 -2.1167 -1.6735  1.6619
 8048SOL     OW35776   4.711   4.553  10.475  0.2592 -0.1934 -0.1249
 8048SOL    HW135777   4.632   4.514  10.438  0.1582 -0.6243  0.5572
 8048SOL    HW235778   4.712   4.646  10.453  0.4705 -0.0207  0.6224
 8049SOL     OW35779   0.847   1.450   8.741  0.2974  0.2355 -0.0920
 8049SOL    HW135780   0.910   1.454   8.669  1.0973  0.9757  0.6503
 8049SOL    HW235781   0.879   1.380   8.798 -0.5217  1.4674  1.8761
 8050SOL     OW35782   1.611   2.660   7.093 -0.2291  0.5061 -0.1027
 8050SOL    HW135783   1.701   2.630   7.098 -0.7529 -1.0398 -0.0809
 8050SOL    HW235784   1.612   2.697   7.005 -1.5541  0.7085 -0.0360
 8051SOL     OW35785   2.572   4.179   6.531  0.0762  0.6998 -0.1727
 8051SOL    HW135786   2.594   4.170   6.624  0.0697 -2.1682 -0.4614
 8051SOL    HW235787   2.656   4.187   6.486  0.4987 -0.0279  0.4947
 8052SOL     OW35788   1.701   0.247  17.085 -0.9002 -0.4310  0.0955
 8052SOL    HW135789   1.710   0.242  17.180  1.8927 -0.7246 -0.1949
 8052SOL    HW235790   1.640   0.178  17.058  0.4565 -1.1254 -1.1662
 8053SOL     OW35791   0.802   4.080   2.585  0.0371 -0.0598  0.0854
 8053SOL    HW135792   0.761   4.001   2.619 -2.2722  1.3056  0.5109
 8053SOL    HW235793   0.889   4.047   2.563  0.2068  0.3241  0.1621
 8054SOL     OW35794   2.430   4.385   6.175  0.4417  0.2949  0.0986
 8054SOL    HW135795   2.424   4.456   6.110 -0.4649  0.8375  0.7673
 8054SOL    HW235796   2.447   4.439   6.252 -1.0557 -0.1857  0.7662
 8055SOL     OW35797   3.193   3.225   1.096  0.2247 -0.2010  1.0345
 8055SOL    HW135798   3.242   3.302   1.068  0.6769 -0.7708  0.2489
 8055SOL    HW235799   3.114   3.263   1.135 -0.1065  0.9102 -0.7143
 8056SOL     OW35800   4.102   0.401  15.670  0.3062 -0.6002 -0.3019
 8056SOL    HW135801   4.031   0.455  15.706  0.7931 -0.8210  0.9574
 8056SOL    HW235802   4.178   0.458  15.665  0.7469 -1.1382  0.3359
 8057SOL     OW35803   4.573   4.493   0.145  0.8726  0.2803 -0.2091
 8057SOL    HW135804   4.603   4.451   0.225 -0.3838 -1.3091 -0.5795
 8057SOL    HW235805   4.591   4.586   0.156  3.4434 -0.1862 -0.3102
 8058SOL     OW35806   0.718   4.349   9.442  0.7891 -0.0072  0.5815
 8058SOL    HW135807   0.771   4.285   9.394  0.4987 -1.2640  1.9774
 8058SOL    HW235808   0.670   4.281   9.488  0.9700  0.6600  1.7499
 8059SOL     OW35809   3.722   0.195   9.398  0.5636 -0.1745  0.7313
 8059SOL    HW135810   3.694   0.111   9.363 -1.0016  1.1767 -1.2249
 8059SOL    HW235811   3.661   0.254   9.354 -0.2949 -0.3171  1.7335
 8060SOL     OW35812   4.162   3.876  10.040 -0.2395 -0.3467 -0.5989
 8060SOL    HW135813   4.202   3.824  10.111  0.9771  1.6937  0.2194
 8060SOL    HW235814   4.073   3.887  10.072  0.1195  0.5910  0.0757
 8061SOL     OW35815   0.023   0.127   1.213  0.4217 -0.2864  0.0172
 8061SOL    HW135816   4.691   0.144   1.273  0.6867  1.2298 -0.0985
 8061SOL    HW235817   0.048   0.038   1.237 -0.1712  0.1109  2.0231
 8062SOL     OW35818   3.069   3.614   1.009 -0.4651  0.3087  0.5468
 8062SOL    HW135819   3.074   3.682   1.076  0.0425  0.4379  0.3760
 8062SOL    HW235820   3.143   3.555   1.021  0.1561  0.8428 -0.6512
 8063SOL     OW35821   0.717   4.563   2.740  0.1847 -0.0814 -0.0969
 8063SOL    HW135822   0.661   4.488   2.718 -0.7695  1.3634 -2.5757
 8063SOL    HW235823   0.766   4.527   2.814 -1.2931  2.3076  2.0252
 8064SOL     OW35824   1.757   3.891   6.791  1.1012  0.2017 -0.3294
 8064SOL    HW135825   1.834   3.837   6.774 -0.7198 -2.6743  0.5142
 8064SOL    HW235826   1.751   3.886   6.887  0.5487  0.7176 -0.3406
 8065SOL     OW35827   4.293   2.098   8.921 -0.3537  0.7203  0.0623
 8065SOL    HW135828   4.382   2.112   8.952 -0.1278 -1.2055  0.3156
 8065SOL    HW235829   4.300   2.110   8.826  1.4004 -0.2349  0.0774
 8066SOL     OW35830   2.526   4.156   7.425  0.3770 -0.3898  0.0082
 8066SOL    HW135831   2.598   4.094   7.435 -0.3427 -0.7749  2.7078
 8066SOL    HW235832   2.460   4.122   7.486  0.7761 -0.0200  0.6477
 8067SOL     OW35833   3.119   0.063   4.847  0.0423 -0.1206  0.2088
 8067SOL    HW135834   3.095   0.052   4.939 -0.1345  1.5134  0.3566
 8067SOL    HW235835   3.035   0.061   4.803 -0.0065 -1.4485  0.3488
 8068SOL     OW35836   1.307   2.624   4.804  0.7141  0.2047  0.0467
 8068SOL    HW135837   1.334   2.636   4.895  0.0892 -1.0743  0.4022
 8068SOL    HW235838   1.358   2.687   4.753  0.0162  2.4724  2.1513
 8069SOL     OW35839   0.289   4.206  11.312  0.4398  0.7643  0.1373
 8069SOL    HW135840   0.346   4.217  11.388 -0.8190  1.2921  1.0142
 8069SOL    HW235841   0.221   4.158  11.359  1.2419 -0.6587 -0.1914
 8070SOL     OW35842   0.648   1.863   7.997 -0.5187  0.0195 -0.4536
 8070SOL    HW135843   0.676   1.781   7.956  1.4388  0.0433  0.8360
 8070SOL    HW235844   0.729   1.897   8.035 -1.3397  1.2551  0.1991
 8071SOL     OW35845   4.145   3.219   4.277 -0.4295 -0.5610 -0.4806
 8071SOL    HW135846   4.155   3.293   4.338 -3.1741  0.6746 -1.5508
 8071SOL    HW235847   4.191   3.155   4.332  0.4088 -0.6816 -1.3183
 8072SOL     OW35848   1.075   3.574  15.849 -0.4486  0.5813  0.1904
 8072SOL    HW135849   1.038   3.649  15.801 -0.2415 -0.0879 -1.0137
 8072SOL    HW235850   1.003   3.574  15.913  0.3526  1.0838  1.0928
 8073SOL     OW35851   1.959   2.343   8.549  0.3092  0.1693 -0.2569
 8073SOL    HW135852   1.912   2.272   8.593  0.9524  0.1371  0.3985
 8073SOL    HW235853   2.040   2.358   8.599 -0.0029  3.0956 -0.6381
 8074SOL     OW35854   4.693   3.410   1.477 -0.0484  0.2088  0.4026
 8074SOL    HW135855   4.713   3.465   1.552  0.7948  0.9597 -0.3744
 8074SOL    HW235856   4.632   3.461   1.424 -1.2678 -0.0468  1.5296
 8075SOL     OW35857   3.529   2.910  13.474  0.1555 -0.3526  0.2322
 8075SOL    HW135858   3.511   2.991  13.522  0.8304  0.2481 -0.5303
 8075SOL    HW235859   3.522   2.843  13.541 -1.1459  0.4034  0.8542
 8076SOL     OW35860   3.126   0.472   4.817  0.0917 -0.4935 -0.1389
 8076SOL    HW135861   3.046   0.488   4.867  0.2715 -0.2644  0.0791
 8076SOL    HW235862   3.199   0.508   4.867 -1.0597  0.4232  0.8832
 8077SOL     OW35863   3.513   0.078   4.867  0.3917 -0.0328 -0.2769
 8077SOL    HW135864   3.485   4.729   4.892  1.2650  0.1795  1.5042
 8077SOL    HW235865   3.572   0.067   4.793  1.6648 -1.8279  1.0314
 8078SOL     OW35866   3.879   4.057   4.021 -0.2190 -0.2738 -0.1431
 8078SOL    HW135867   3.891   4.025   4.110  1.2988  0.0306 -0.2365
 8078SOL    HW235868   3.963   4.102   4.011 -1.3323  1.9754  0.5279
 8079SOL     OW35869   1.712   3.727   4.144 -0.1542  0.5692 -0.2690
 8079SOL    HW135870   1.777   3.672   4.187 -0.4589 -0.9357 -1.7483
 8079SOL    HW235871   1.734   3.810   4.187  1.9437  0.1857 -0.5893
 8080SOL     OW35872   2.613   0.994   9.387 -0.1555  0.4077 -0.1667
 8080SOL    HW135873   2.687   0.990   9.326  0.3475  0.8521  0.4222
 8080SOL    HW235874   2.570   1.072   9.351 -1.4966 -0.0620  0.4072
 8081SOL     OW35875   4.704   0.415   1.141  0.7521 -0.8085 -0.4937
 8081SOL    HW135876   0.038   0.376   1.187 -0.8244 -0.6921  2.0940
 8081SOL    HW235877   4.734   0.505   1.126 -0.5182 -0.6968 -2.3667
 8082SOL     OW35878   3.435   3.002   8.895 -0.2796 -0.1909  0.3086
 8082SOL    HW135879   3.439   2.987   8.801  3.1254  0.2550  0.3959
 8082SOL    HW235880   3.365   3.067   8.906  1.2859  1.8307 -1.7346
 8083SOL     OW35881   1.733   0.461   9.416  0.0548 -0.2232 -0.5191
 8083SOL    HW135882   1.796   0.531   9.399  0.1308 -0.3477 -0.7519
 8083SOL    HW235883   1.732   0.407   9.336  0.8010 -1.0747  0.0499
 8084SOL     OW35884   3.092   3.157   7.482 -0.3555 -0.3776 -0.0527
 8084SOL    HW135885   3.082   3.062   7.483 -0.3986 -0.3730 -0.0062
 8084SOL    HW235886   3.178   3.164   7.524 -0.8623  1.9418  0.5916
 8085SOL     OW35887   3.531   3.256   2.696 -0.0240 -0.0958 -0.2553
 8085SOL    HW135888   3.584   3.291   2.768 -0.3160  1.0734 -0.5967
 8085SOL    HW235889   3.498   3.179   2.742  1.4814  0.1206  1.1827
 8086SOL     OW35890   3.097   2.736   2.276  0.2879  0.3286  0.2684
 8086SOL    HW135891   3.186   2.765   2.259  1.0854 -1.6760  0.9611
 8086SOL    HW235892   3.101   2.643   2.254 -1.1303 -0.1744  2.1347
 8087SOL     OW35893   1.604   0.244   5.857  0.0334  0.4481 -0.1121
 8087SOL    HW135894   1.623   0.329   5.898  2.2918  0.5808 -1.4911
 8087SOL    HW235895   1.682   0.213   5.812  0.0403  2.2005 -1.3330
 8088SOL     OW35896   3.295   1.911   3.045 -0.4576 -0.0027 -0.6082
 8088SOL    HW135897   3.259   1.909   3.134  0.6758  0.0861 -0.1519
 8088SOL    HW235898   3.239   1.979   3.008  1.3573  1.8563  0.0230
 8089SOL     OW35899   1.931   3.754   6.344  0.2335  0.2962 -0.5952
 8089SOL    HW135900   2.000   3.736   6.279  1.7572  0.5051  0.9688
 8089SOL    HW235901   1.917   3.848   6.333 -0.5848  0.3438  0.9354
 8090SOL     OW35902   0.997   4.016   4.624  0.4595 -0.3204  0.2426
 8090SOL    HW135903   1.039   3.990   4.542 -1.6182  1.0757 -1.2757
 8090SOL    HW235904   0.906   4.026   4.595  0.2649  0.9701  1.3158
 8091SOL     OW35905   2.982   3.799   1.806 -0.3338 -0.2665 -0.0667
 8091SOL    HW135906   2.950   3.760   1.724  0.0799 -0.6858 -0.0270
 8091SOL    HW235907   2.983   3.894   1.789  0.7124 -0.3188 -0.2588
 8092SOL     OW35908   4.142   3.107   2.394 -0.6921  0.6163 -0.6710
 8092SOL    HW135909   4.164   3.065   2.311  0.0780 -1.2722  0.5049
 8092SOL    HW235910   4.173   3.194   2.369  1.7225 -0.4202 -1.3250
 8093SOL     OW35911   4.144   3.563  10.591  0.2183  0.0442  0.1906
 8093SOL    HW135912   4.051   3.552  10.611  0.4010 -0.5329  0.7267
 8093SOL    HW235913   4.168   3.567  10.683  0.6411  1.6066  0.0038
 8094SOL     OW35914   1.598   0.039   7.593 -0.2735 -0.7935 -0.0784
 8094SOL    HW135915   1.614   0.132   7.576  3.7048 -1.2911  0.9242
 8094SOL    HW235916   1.639   4.727   7.524 -0.5220 -2.3614  0.9500
 8095SOL     OW35917   3.855   3.640   2.296 -0.3294  0.7188 -0.0805
 8095SOL    HW135918   3.774   3.606   2.334  1.0374 -1.1785  1.0596
 8095SOL    HW235919   3.912   3.652   2.372  0.4644 -2.3966 -0.1977
 8096SOL     OW35920   1.366   1.522   0.430 -0.0273 -0.2604  0.1639
 8096SOL    HW135921   1.370   1.591   0.496  1.1377 -0.4745  0.3143
 8096SOL    HW235922   1.391   1.447   0.484  0.7564 -0.4115 -0.4056
 8097SOL     OW35923   4.660   2.533  12.548  0.3401 -0.1046 -0.1415
 8097SOL    HW135924   4.603   2.464  12.583 -2.2926  0.8242 -2.6138
 8097SOL    HW235925   0.007   2.517  12.587  1.1296  1.1452 -1.3693
 8098SOL     OW35926   2.119   1.287   4.464  0.1261 -0.0795  0.2551
 8098SOL    HW135927   2.109   1.326   4.377 -0.2927  1.5926  1.0664
 8098SOL    HW235928   2.030   1.278   4.497  0.1059 -1.1152 -0.0756
 8099SOL     OW35929   0.629   4.207   8.611  0.0110 -0.2069 -0.4879
 8099SOL    HW135930   0.681   4.241   8.538  0.5461 -0.6292 -0.3057
 8099SOL    HW235931   0.560   4.272   8.618  1.8098  1.6885 -0.1771
 8100SOL     OW35932   1.472   0.596  17.054 -0.4341  0.3771 -0.3452
 8100SOL    HW135933   1.516   0.546  16.985  0.4559 -2.2727  2.1474
 8100SOL    HW235934   1.435   0.527  17.109  2.2178 -1.7245 -1.2081
 8101SOL     OW35935   1.522   3.630   7.973  0.1570 -0.2120 -0.0323
 8101SOL    HW135936   1.616   3.648   7.973  0.1523 -0.1742 -0.7812
 8101SOL    HW235937   1.507   3.546   8.017  0.0223  0.3766  1.0329
 8102SOL     OW35938   2.263   3.517   4.844 -0.0474 -0.1331 -0.2566
 8102SOL    HW135939   2.332   3.526   4.778 -0.0376  0.0455 -0.2238
 8102SOL    HW235940   2.225   3.430   4.837 -0.7271  0.1827 -0.4779
 8103SOL     OW35941   3.152   1.554  10.053 -0.3281 -0.3489  0.3537
 8103SOL    HW135942   3.150   1.492   9.980 -0.5314 -0.2993  0.3201
 8103SOL    HW235943   3.234   1.524  10.093 -1.2740 -2.7452  0.4818
 8104SOL     OW35944   4.618   0.282   5.078  0.0924  0.5874  0.2461
 8104SOL    HW135945   4.530   0.246   5.088 -0.2017  1.5470  1.1562
 8104SOL    HW235946   4.627   0.335   5.157  0.4767 -1.4501  1.5448
 8105SOL     OW35947   3.184   3.536   2.705  0.4398  0.5049 -0.1190
 8105SOL    HW135948   3.139   3.620   2.693  1.1071  0.8550 -0.1623
 8105SOL    HW235949   3.208   3.530   2.798 -0.2547  1.1447  0.1036
 8106SOL     OW35950   0.485   2.400   4.037  0.7790  0.3285  0.5987
 8106SOL    HW135951   0.512   2.449   3.960 -3.3766  1.1368 -0.3713
 8106SOL    HW235952   0.569   2.402   4.082  1.4543 -0.3597 -0.6456
 8107SOL     OW35953   3.930   3.124   5.283  0.2019 -0.0215  0.5551
 8107SOL    HW135954   4.009   3.075   5.262  0.6102  0.7907  0.2128
 8107SOL    HW235955   3.914   3.176   5.204 -2.7291 -0.5322  0.7803
 8108SOL     OW35956   3.041   1.459   2.950 -0.5019  0.9976  0.0034
 8108SOL    HW135957   3.051   1.375   2.995 -1.4127  1.0698  0.3604
 8108SOL    HW235958   3.119   1.508   2.974 -1.0479  1.9988 -0.2585
 8109SOL     OW35959   3.107   0.160   0.968  0.9058  0.1523  0.2985
 8109SOL    HW135960   3.102   0.072   0.931 -2.4739  0.7485 -0.6962
 8109SOL    HW235961   3.194   0.181   0.936  0.7457  2.1079  1.1151
 8110SOL     OW35962   1.386   4.243   5.404  0.0945  0.3557  0.2882
 8110SOL    HW135963   1.342   4.300   5.341 -0.7061 -1.0123 -0.3811
 8110SOL    HW235964   1.336   4.269   5.481 -0.2303  0.3944  0.0639
 8111SOL     OW35965   2.068   3.304  15.282  0.5481  0.2671  0.0570
 8111SOL    HW135966   2.151   3.291  15.235 -0.2199 -0.5108 -1.0814
 8111SOL    HW235967   2.003   3.247  15.241  0.3638 -0.9356  2.0175
 8112SOL     OW35968   4.583   2.786   2.700 -0.2056 -0.2070  0.2121
 8112SOL    HW135969   4.658   2.742   2.740  0.2779  0.7480  0.3571
 8112SOL    HW235970   4.516   2.718   2.702  2.2758 -2.6413 -0.1930
 8113SOL     OW35971   1.862   1.588   4.950  0.0708 -0.0928  0.2026
 8113SOL    HW135972   1.888   1.657   5.011  4.1772 -1.7699  0.3509
 8113SOL    HW235973   1.767   1.596   4.952  0.1081  0.7219 -1.1611
 8114SOL     OW35974   4.611   1.309   9.006 -0.0048 -0.0788  0.0552
 8114SOL    HW135975   4.565   1.225   8.995  2.4271 -1.4906  0.6970
 8114SOL    HW235976   4.645   1.311   8.916  0.8359  1.4099  0.4113
 8115SOL     OW35977   3.818   0.029   3.219 -0.5402 -0.2422 -0.0442
 8115SOL    HW135978   3.875   0.102   3.246  0.7639 -1.4674  0.5802
 8115SOL    HW235979   3.855   4.724   3.143  2.0105  0.0438  1.0267
 8116SOL     OW35980   2.340   3.677   8.644  0.2113  0.2722 -0.1172
 8116SOL    HW135981   2.362   3.759   8.690 -0.4038  1.4137 -1.8673
 8116SOL    HW235982   2.386   3.613   8.699 -3.9270 -0.7244  2.2097
 8117SOL     OW35983   1.674   4.410  17.076 -0.0251  0.1626  0.5104
 8117SOL    HW135984   1.678   4.375  17.165 -0.9961  2.3553  1.4411
 8117SOL    HW235985   1.704   4.333  17.029 -0.8967 -1.7435  3.0908
 8118SOL     OW35986   0.364   0.256   7.504  0.0559  0.4527  0.4693
 8118SOL    HW135987   0.339   0.230   7.593 -1.9641 -0.5598 -0.4028
 8118SOL    HW235988   0.285   0.297   7.468  1.2011  0.5211 -1.9213
 8119SOL     OW35989   3.794   0.281   5.289 -0.6073  0.1140  0.1486
 8119SOL    HW135990   3.784   0.236   5.205  1.7193 -1.1811  0.5719
 8119SOL    HW235991   3.780   0.372   5.261 -0.7260  0.1593  0.3520
 8120SOL     OW35992   3.283   3.356  15.726  0.3718  0.6937 -0.5618
 8120SOL    HW135993   3.340   3.349  15.649 -0.8185 -1.7698 -1.2236
 8120SOL    HW235994   3.329   3.428  15.769  0.9388 -0.2903  0.4910
 8121SOL     OW35995   0.400   3.517  11.139  0.2088 -0.0123  0.3331
 8121SOL    HW135996   0.398   3.439  11.083  1.3159  0.4167 -0.2835
 8121SOL    HW235997   0.492   3.525  11.165  0.5864 -4.2362  0.4222
 8122SOL     OW35998   1.425   0.042  15.142 -0.3373  0.0947 -0.0741
 8122SOL    HW135999   1.465   4.716  15.085  1.4897  1.9088 -0.8523
 8122SOL    HW236000   1.355   4.727  15.179 -0.6121  1.5778  1.5557
 8123SOL     OW36001   1.076   1.553  10.549  0.0791  0.0903 -0.0376
 8123SOL    HW136002   1.060   1.557  10.454  0.1628  3.2473  0.0820
 8123SOL    HW236003   1.090   1.458  10.552 -1.8599 -0.2501 -1.5260
 8124SOL     OW36004   3.499   3.760   1.951 -0.0950 -0.5304  0.0677
 8124SOL    HW136005   3.496   3.726   2.040 -2.0263  0.2656  0.3270
 8124SOL    HW236006   3.405   3.766   1.931 -0.2462  0.3692  1.0461
 8125SOL     OW36007   0.107   4.399   7.002  0.2794 -0.5310 -0.1870
 8125SOL    HW136008   0.108   4.355   7.087  4.8062 -0.3196 -0.1288
 8125SOL    HW236009   0.089   4.334   6.934  1.2827  0.1649 -1.1158
 8126SOL     OW36010   1.464   3.320   2.897 -0.0141 -0.3703 -0.1003
 8126SOL    HW136011   1.399   3.388   2.877  1.2186  0.9701  0.3785
 8126SOL    HW236012   1.443   3.273   2.978 -0.1249  0.1800  0.1982
 8127SOL     OW36013   2.302   0.627   7.437  0.3209  0.1332  0.5378
 8127SOL    HW136014   2.296   0.571   7.515 -0.4947  1.7943  1.6603
 8127SOL    HW236015   2.320   0.561   7.370  0.8744  0.4829  0.3423
 8128SOL     OW36016   0.165   4.403   2.665 -0.0561 -0.1393  0.0996
 8128SOL    HW136017   0.088   4.365   2.623  0.1923 -0.8984  0.3258
 8128SOL    HW236018   0.148   4.381   2.757  0.2013  0.1174  0.2116
 8129SOL     OW36019   0.830   1.376   3.765 -0.2944 -0.1687  0.2579
 8129SOL    HW136020   0.881   1.414   3.693  1.3104 -1.7794  0.5544
 8129SOL    HW236021   0.746   1.355   3.725 -0.5223  1.8726 -0.3089
 8130SOL     OW36022   1.332   2.895  16.679  0.0026  0.2975 -0.1893
 8130SOL    HW136023   1.347   2.801  16.692  0.0806  0.2623 -0.5482
 8130SOL    HW236024   1.388   2.920  16.606 -1.8462  0.7127 -1.4689
 8131SOL     OW36025   4.233   3.843  10.631 -0.4816  0.1140  0.0839
 8131SOL    HW136026   4.170   3.771  10.635  1.9401 -2.0767 -1.1736
 8131SOL    HW236027   4.320   3.803  10.624 -0.4266  0.4912 -1.4316
 8132SOL     OW36028   2.455   4.669   7.662  0.2536 -0.1426 -0.0300
 8132SOL    HW136029   2.425   4.591   7.615  3.7732 -1.7422  0.4216
 8132SOL    HW236030   2.504   4.710   7.591  0.0577  0.2700  0.0680
 8133SOL     OW36031   1.484   4.292   0.830 -0.2302  0.2191 -0.0459
 8133SOL    HW136032   1.461   4.249   0.748 -1.0975  0.5552  0.0214
 8133SOL    HW236033   1.407   4.265   0.878 -0.3692 -3.2026 -2.2147
 8134SOL     OW36034   4.709   4.059  15.417  0.3785 -0.1089 -0.1312
 8134SOL    HW136035   4.646   4.110  15.467  0.9465  0.5522 -0.0825
 8134SOL    HW236036   0.055   4.061  15.460  1.1993 -1.1070 -1.7188
 8135SOL     OW36037   3.896   0.948  11.488  0.1782 -0.0842  0.2585
 8135SOL    HW136038   3.904   1.038  11.455  0.0631 -0.6155 -1.1699
 8135SOL    HW236039   3.835   0.922  11.420  2.1301 -0.9888 -1.1417
 8136SOL     OW36040   3.768   0.601   5.570 -0.3018 -0.1530  0.4894
 8136SOL    HW136041   3.805   0.547   5.640 -0.4695  0.3231  0.9399
 8136SOL    HW236042   3.806   0.684   5.596  0.2321 -0.0546 -0.6314
 8137SOL     OW36043   1.775   3.226  16.805  0.1906 -0.1195  0.4204
 8137SOL    HW136044   1.800   3.134  16.806  0.4638 -0.0711 -1.2850
 8137SOL    HW236045   1.680   3.219  16.816  0.2320  0.1806  0.9624
 8138SOL     OW36046   2.114   3.757  10.279  0.1707  0.1457 -0.3179
 8138SOL    HW136047   2.032   3.800  10.302  0.1067 -0.2508  0.2061
 8138SOL    HW236048   2.083   3.671  10.251 -0.7496  0.2588  0.3657
 8139SOL     OW36049   4.393   0.312   4.305 -0.1817 -0.1517  0.6136
 8139SOL    HW136050   4.460   0.274   4.362 -2.6273 -2.5435  1.8450
 8139SOL    HW236051   4.369   0.389   4.357 -0.8287  0.8802 -1.2427
 8140SOL     OW36052   3.431   2.468   6.912 -0.4700  0.1390  0.3898
 8140SOL    HW136053   3.394   2.500   6.829 -0.9313 -1.8682 -0.1918
 8140SOL    HW236054   3.350   2.465   6.963 -0.8709 -2.3358 -0.3487
 8141SOL     OW36055   3.381   1.595   6.330  0.0500 -0.9028 -0.7415
 8141SOL    HW136056   3.465   1.552   6.314  1.3527  0.7633  1.4985
 8141SOL    HW236057   3.370   1.584   6.424 -0.6722  1.5064 -0.5532
 8142SOL     OW36058   3.240   2.312   0.067  0.0768  0.2989  0.3052
 8142SOL    HW136059   3.266   2.249  17.756 -1.7037 -0.4526  0.3143
 8142SOL    HW236060   3.318   2.336   0.118  0.7130  0.2512 -0.6392
 8143SOL     OW36061   1.004   4.723  10.564 -0.2262  0.7355 -0.1849
 8143SOL    HW136062   0.950   0.045  10.515  1.7356  3.0680  0.5869
 8143SOL    HW236063   1.081   4.731  10.508 -0.4840  0.8159 -0.5236
 8144SOL     OW36064   4.690   0.233   1.990 -0.1013  0.1921  0.2212
 8144SOL    HW136065   4.705   0.326   1.973  1.1938 -0.1142 -0.2966
 8144SOL    HW236066   0.032   0.182   1.991 -1.8889 -2.6757  1.0900
 8145SOL     OW36067   4.477   1.288  14.240 -0.2638  0.2736 -0.0678
 8145SOL    HW136068   4.485   1.227  14.168  0.0838  0.8178 -0.4854
 8145SOL    HW236069   4.491   1.239  14.321  0.1551 -1.3537 -1.1221
 8146SOL     OW36070   2.103   0.429   5.907 -0.5509  0.5348 -0.2774
 8146SOL    HW136071   2.089   0.410   5.815  0.4203  1.0570 -0.5297
 8146SOL    HW236072   2.112   0.338   5.934 -1.8155  0.9063  1.4104
 8147SOL     OW36073   4.114   0.524   1.826 -0.0276  0.3655  0.1421
 8147SOL    HW136074   4.194   0.517   1.773  0.4290  1.0650  0.7382
 8147SOL    HW236075   4.115   0.612   1.864 -3.8304  0.5735 -0.2787
 8148SOL     OW36076   0.707   2.161   6.737  0.1665 -0.4051 -0.8606
 8148SOL    HW136077   0.678   2.074   6.711 -0.3226 -0.4849 -0.0536
 8148SOL    HW236078   0.677   2.154   6.828  1.1478 -0.4357 -0.5431
 8149SOL     OW36079   1.360   0.390  14.323 -0.3238 -0.3667  0.2338
 8149SOL    HW136080   1.321   0.422  14.404  2.3162  1.8359  0.6312
 8149SOL    HW236081   1.356   0.295  14.338  0.6918 -0.4000  0.2523
 8150SOL     OW36082   0.706   4.042   5.945 -0.0195  0.1991  0.4147
 8150SOL    HW136083   0.743   3.978   6.007 -1.7645  0.4467  1.6927
 8150SOL    HW236084   0.699   4.111   6.010 -1.9246  2.2741 -2.0058
 8151SOL     OW36085   2.521   3.787  12.264 -0.2258  0.6979 -0.0955
 8151SOL    HW136086   2.611   3.807  12.288  0.5527 -2.7012 -0.2144
 8151SOL    HW236087   2.526   3.752  12.175  0.7756 -1.1082  0.6630
 8152SOL     OW36088   2.500   3.837   1.455  0.5293  0.2041  0.0693
 8152SOL    HW136089   2.450   3.917   1.470 -3.3795 -2.2791  0.2436
 8152SOL    HW236090   2.589   3.860   1.482  0.5913 -0.1503  0.1682
 8153SOL     OW36091   1.035   1.571   4.041  0.0130 -0.7651  0.3642
 8153SOL    HW136092   1.013   1.500   3.980 -3.3569  2.0455 -1.7120
 8153SOL    HW236093   0.993   1.643   3.993 -1.5116 -0.4796  2.1091
 8154SOL     OW36094   0.811   2.836  14.787 -0.1306 -0.3586  0.3972
 8154SOL    HW136095   0.810   2.906  14.852 -0.9802  1.8285 -1.9679
 8154SOL    HW236096   0.821   2.760  14.845  0.1778 -0.0980  0.6773
 8155SOL     OW36097   3.306   0.742   7.667  0.0682 -0.2197  0.5016
 8155SOL    HW136098   3.263   0.789   7.739  2.0675  0.1458  1.4602
 8155SOL    HW236099   3.307   0.649   7.691 -2.2460 -0.4555 -0.2599
 8156SOL     OW36100   3.132   2.555   7.407  0.0970 -0.5623 -0.1166
 8156SOL    HW136101   3.214   2.590   7.441  0.4629 -2.1964  0.7169
 8156SOL    HW236102   3.157   2.476   7.359  0.7280 -0.6890  0.4157
 8157SOL     OW36103   2.079   4.206  17.532 -0.1142  0.0188 -0.3094
 8157SOL    HW136104   2.026   4.285  17.537  2.3644  1.7315 -1.3337
 8157SOL    HW236105   2.123   4.210  17.448 -0.2646  0.1833 -0.3807
 8158SOL     OW36106   3.527   4.163   1.991 -0.2103 -0.6390  0.5743
 8158SOL    HW136107   3.533   4.079   1.946  0.4013 -0.2810 -0.0169
 8158SOL    HW236108   3.603   4.156   2.049  0.5829  0.2199 -0.3661
 8159SOL     OW36109   1.794   1.778   3.030 -0.1003  0.7213 -0.2100
 8159SOL    HW136110   1.701   1.759   3.023 -0.3862  2.5843 -1.4505
 8159SOL    HW236111   1.794   1.861   3.077  1.7777  0.2936  0.5309
 8160SOL     OW36112   1.933   0.869   1.250  0.1929  0.3015 -0.1564
 8160SOL    HW136113   1.876   0.918   1.309  0.9131  0.0835  0.7168
 8160SOL    HW236114   1.980   0.933   1.198  0.3669  0.1525 -0.1822
 8161SOL     OW36115   0.086   4.542  10.786  0.5562  0.0637 -0.6827
 8161SOL    HW136116   0.167   4.499  10.815  0.0820  1.5460  2.9090
 8161SOL    HW236117   0.020   4.486  10.827  0.4422 -0.3659 -1.4753
 8162SOL     OW36118   4.208   1.398  13.025  0.3138 -0.4243 -0.1770
 8162SOL    HW136119   4.205   1.444  13.109  2.0969  1.5425 -1.2108
 8162SOL    HW236120   4.210   1.471  12.963  0.1233  0.1039  0.4326
 8163SOL     OW36121   2.586   0.735   8.499 -0.0152  0.1107 -0.0352
 8163SOL    HW136122   2.545   0.649   8.494 -0.6682  0.3751  0.7474
 8163SOL    HW236123   2.566   0.776   8.415 -0.2484  0.6039  0.2592
 8164SOL     OW36124   3.865   0.375  12.413  0.1492  0.0940  0.5474
 8164SOL    HW136125   3.814   0.451  12.389  0.6921  1.5508  3.9512
 8164SOL    HW236126   3.932   0.405  12.475  1.8791 -0.6289 -0.9560
 8165SOL     OW36127   4.208   0.388  17.354 -0.3510  0.0634  0.0948
 8165SOL    HW136128   4.137   0.452  17.367 -1.1438 -1.0401  1.1152
 8165SOL    HW236129   4.248   0.388  17.441 -0.0371 -2.0340 -0.0509
 8166SOL     OW36130   0.477   3.813  11.213  0.0474 -0.0319  0.0052
 8166SOL    HW136131   0.449   3.757  11.285  0.4481  1.1899  1.1271
 8166SOL    HW236132   0.557   3.851  11.250 -0.0676 -0.1055  0.3287
 8167SOL     OW36133   1.782   3.395  17.160 -0.1295  0.7118  0.4581
 8167SOL    HW136134   1.787   3.300  17.150  1.0641  0.7035  1.1369
 8167SOL    HW236135   1.843   3.400  17.233 -1.6357  0.1070  1.7540
 8168SOL     OW36136   1.708   1.559   3.448  0.5979  0.0215 -0.3910
 8168SOL    HW136137   1.755   1.557   3.365  1.7602  1.2228  0.2314
 8168SOL    HW236138   1.702   1.469   3.481  0.2594  0.0800 -0.2969
 8169SOL     OW36139   2.242   2.016   3.877  0.7283  0.2862 -0.5168
 8169SOL    HW136140   2.294   2.091   3.849  1.1387 -0.4583 -1.7590
 8169SOL    HW236141   2.199   1.989   3.796 -1.6471 -0.4871  1.0004
 8170SOL     OW36142   2.980   4.188   4.982  0.3320  0.1694 -0.0520
 8170SOL    HW136143   3.052   4.236   4.941 -0.0714  2.9221  2.4118
 8170SOL    HW236144   3.000   4.217   5.071 -1.6358 -2.0559  1.1162
 8171SOL     OW36145   0.353   3.204  16.315 -0.3694 -0.1063  0.7343
 8171SOL    HW136146   0.279   3.162  16.271  0.2744 -2.2273  1.6883
 8171SOL    HW236147   0.349   3.288  16.269  3.6151 -1.4072 -1.9837
 8172SOL     OW36148   4.129   0.926  10.031 -0.0940 -0.0042 -0.3946
 8172SOL    HW136149   4.096   0.925   9.942 -1.2805 -0.0097  0.0529
 8172SOL    HW236150   4.216   0.960  10.011  0.4918 -0.5161  1.2086
 8173SOL     OW36151   2.410   1.396   7.809 -0.0591  0.3070  0.6101
 8173SOL    HW136152   2.318   1.393   7.784 -0.1119  0.6067  0.7623
 8173SOL    HW236153   2.440   1.467   7.752  0.6072  1.4121  2.3320
 8174SOL     OW36154   3.872   1.752   6.971 -0.3183  0.6596  0.6176
 8174SOL    HW136155   3.834   1.709   7.047 -1.5914  1.1417  0.2735
 8174SOL    HW236156   3.881   1.684   6.904 -1.9277  0.0051  1.0754
 8175SOL     OW36157   2.191   3.101  15.043  0.0060 -0.0567 -0.0840
 8175SOL    HW136158   2.245   3.027  15.070 -0.2796  0.6370  2.3760
 8175SOL    HW236159   2.240   3.165  15.094 -1.8969  1.0384  0.3627
 8176SOL     OW36160   0.916   0.074  11.613  0.4590  0.1929  0.4415
 8176SOL    HW136161   0.880   0.133  11.678 -0.0632 -0.3597  0.6562
 8176SOL    HW236162   0.896   0.125  11.534  0.2310 -3.4620 -1.8806
 8177SOL     OW36163   1.619   4.141   1.915  0.8353 -0.0880 -0.0345
 8177SOL    HW136164   1.563   4.188   1.853  0.0066 -1.0005  0.0235
 8177SOL    HW236165   1.702   4.148   1.868 -0.6663 -1.0475 -2.8917
 8178SOL     OW36166   4.710   3.548   5.797 -0.2707 -0.1535  0.0460
 8178SOL    HW136167   4.687   3.630   5.753  0.4310  0.1328  0.2110
 8178SOL    HW236168   4.739   3.504   5.717  0.5830 -2.9914  1.9172
 8179SOL     OW36169   3.141   4.377   8.954  0.5584 -0.1093 -0.2992
 8179SOL    HW136170   3.111   4.361   8.864 -0.9234  0.8631  0.0238
 8179SOL    HW236171   3.063   4.409   9.000 -0.9481 -1.4287 -1.9347
 8180SOL     OW36172   0.419   1.770  11.155 -0.1709  0.3075 -0.3199
 8180SOL    HW136173   0.334   1.726  11.151 -0.0784 -0.0107  1.0895
 8180SOL    HW236174   0.394   1.862  11.145 -1.6082 -0.1050 -0.4840
 8181SOL     OW36175   1.777   1.376   1.672  0.2954  0.3973  0.2618
 8181SOL    HW136176   1.700   1.432   1.677 -1.6656 -2.2779  0.0989
 8181SOL    HW236177   1.836   1.442   1.635 -0.5534  1.5997  1.0401
 8182SOL     OW36178   1.199   4.427  10.661 -0.6116 -0.5010 -0.0340
 8182SOL    HW136179   1.212   4.491  10.731 -0.3931 -0.6921  0.1006
 8182SOL    HW236180   1.253   4.351  10.682 -1.3943 -1.3189 -0.9977
 8183SOL     OW36181   2.137   2.801   3.952  0.2524 -0.6514 -0.6847
 8183SOL    HW136182   2.162   2.780   3.862 -0.1096 -0.1770 -0.8948
 8183SOL    HW236183   2.063   2.741   3.968 -1.4519  2.2964  2.4581
 8184SOL     OW36184   1.515   3.778   2.684 -0.7301 -0.0892 -0.0717
 8184SOL    HW136185   1.539   3.685   2.674 -3.1727 -0.8349  0.8840
 8184SOL    HW236186   1.555   3.814   2.605  2.1383 -0.9720  0.9881
 8185SOL     OW36187   2.587   3.173  13.189  0.2332  0.7005 -0.7588
 8185SOL    HW136188   2.493   3.162  13.204  0.5894  1.3973  2.0103
 8185SOL    HW236189   2.592   3.106  13.121  0.2464  0.0376 -0.1171
 8186SOL     OW36190   1.049   3.017   4.024  0.0282 -0.2090  0.1256
 8186SOL    HW136191   0.990   3.086   4.055  0.6238  0.4716 -0.2748
 8186SOL    HW236192   1.082   3.075   3.955 -2.0428  0.2980 -0.4328
 8187SOL     OW36193   3.364   3.535   5.064 -0.0063 -0.0203  0.3094
 8187SOL    HW136194   3.337   3.596   4.995  0.5918 -0.3201 -0.1914
 8187SOL    HW236195   3.345   3.596   5.135  3.2111  0.9224  0.3507
 8188SOL     OW36196   0.092   0.799   5.586  0.5631  0.0421  0.0904
 8188SOL    HW136197   0.077   0.727   5.647  0.4062 -0.7126 -0.8410
 8188SOL    HW236198   0.075   0.748   5.507  1.1786  0.8024 -0.5288
 8189SOL     OW36199   2.671   3.946   7.380  0.0638  0.0899  0.6783
 8189SOL    HW136200   2.659   3.880   7.448 -0.8291  0.6682  1.0768
 8189SOL    HW236201   2.766   3.956   7.376 -0.1283  2.7281  2.6702
 8190SOL     OW36202   2.321   1.362   8.384  0.1316 -0.2664 -0.5707
 8190SOL    HW136203   2.384   1.393   8.449  1.2645 -0.8768 -1.3966
 8190SOL    HW236204   2.270   1.441   8.367  0.4573  0.1585  0.4383
 8191SOL     OW36205   1.788   1.858   8.547 -0.3395  0.1647  0.0654
 8191SOL    HW136206   1.880   1.874   8.529 -0.2644  0.2436  0.5075
 8191SOL    HW236207   1.753   1.878   8.460 -0.2759 -1.7295 -0.4065
 8192SOL     OW36208   0.798   2.647   3.285 -0.7226  0.5551 -0.2133
 8192SOL    HW136209   0.820   2.645   3.378 -2.4055 -2.0460  0.1138
 8192SOL    HW236210   0.880   2.614   3.247 -2.3221 -1.2848 -2.0444
 8193SOL     OW36211   1.191   2.207  16.478 -0.5127  0.3041  0.4925
 8193SOL    HW136212   1.215   2.121  16.513  2.0602  0.4034 -1.0494
 8193SOL    HW236213   1.267   2.214  16.420 -0.4351  0.0108  0.5572
 8194SOL     OW36214   1.617   4.519   5.685  0.3218 -0.3797  0.5035
 8194SOL    HW136215   1.657   4.433   5.701 -0.1880 -1.0512 -1.8942
 8194SOL    HW236216   1.675   4.556   5.619  0.3362  0.6497  1.1004
 8195SOL     OW36217   3.520   1.038   3.447  0.5837  0.4950 -0.0827
 8195SOL    HW136218   3.443   1.088   3.474  2.0508  2.8002 -0.1727
 8195SOL    HW236219   3.500   0.946   3.466  0.6194  0.2398 -1.2302
 8196SOL     OW36220   3.783   4.620   6.625  0.5018  0.0537  0.0639
 8196SOL    HW136221   3.705   4.571   6.599  0.9817  0.0590 -1.3359
 8196SOL    HW236222   3.811   4.647   6.538 -0.8431 -1.3384 -0.7982
 8197SOL     OW36223   0.586   4.592  17.228  0.0593  0.4889  0.1911
 8197SOL    HW136224   0.493   4.576  17.214  0.0858  0.2345  0.2893
 8197SOL    HW236225   0.620   4.589  17.139  1.4412 -0.9487  0.7697
 8198SOL     OW36226   1.650   1.443   3.038  0.4289 -0.7329  0.7319
 8198SOL    HW136227   1.591   1.500   3.087  0.7245  0.9355 -0.8625
 8198SOL    HW236228   1.590   1.405   2.973 -2.0989 -0.1508  2.7301
 8199SOL     OW36229   0.145   1.705  11.880  0.2578  0.2191 -0.0802
 8199SOL    HW136230   0.102   1.636  11.929  0.6312  0.3938  0.4920
 8199SOL    HW236231   0.065   1.748  11.848  0.8939  0.4936 -1.3112
 8200SOL     OW36232   4.104   4.007   4.989 -0.1289  0.2018 -0.0874
 8200SOL    HW136233   4.192   3.977   4.966 -0.2981  0.3364 -0.9423
 8200SOL    HW236234   4.070   3.944   5.052  0.1266  0.9569  0.7991
 8201SOL     OW36235   3.775   1.452   9.628  0.4135 -0.0810  0.3973
 8201SOL    HW136236   3.763   1.358   9.618 -1.2347  0.0239  1.4020
 8201SOL    HW236237   3.751   1.459   9.720  2.7505 -0.8233  1.0598
 8202SOL     OW36238   3.733   1.848   4.511  0.1013 -0.1848  0.1692
 8202SOL    HW136239   3.781   1.918   4.556 -0.3572  1.0696 -1.2784
 8202SOL    HW236240   3.805   1.788   4.492 -0.8617 -1.5437  0.8076
 8203SOL     OW36241   4.410   2.340   5.781 -0.1029 -0.3839  0.0837
 8203SOL    HW136242   4.364   2.292   5.850  1.9336  0.1774  1.7935
 8203SOL    HW236243   4.473   2.384   5.838 -2.8072  2.8150  0.6113
 8204SOL     OW36244   0.451   0.371  17.498 -0.9032  0.1899 -0.4746
 8204SOL    HW136245   0.544   0.362  17.477 -1.2489  0.0352 -1.9293
 8204SOL    HW236246   0.439   0.466  17.497 -0.7581  0.2069 -0.5923
 8205SOL     OW36247   3.306   0.379   9.239 -0.1463 -0.7775 -0.2574
 8205SOL    HW136248   3.277   0.385   9.330 -0.3156 -0.4631 -0.3325
 8205SOL    HW236249   3.232   0.326   9.209  0.3712 -2.1498  0.8396
 8206SOL     OW36250   3.566   0.806   7.562  0.3760 -0.1389  0.3531
 8206SOL    HW136251   3.552   0.884   7.507  0.3786  1.0432  2.0310
 8206SOL    HW236252   3.484   0.790   7.608 -0.1737 -0.8511 -0.8829
 8207SOL     OW36253   3.629   4.527   5.724  0.1900  0.0511 -0.4865
 8207SOL    HW136254   3.625   4.521   5.629  0.2496  0.3831 -0.5101
 8207SOL    HW236255   3.561   4.467   5.753  0.1247  1.1279  1.6311
 8208SOL     OW36256   4.575   4.000   2.446 -0.1643  0.0941 -0.5163
 8208SOL    HW136257   4.548   4.078   2.494  0.9608  1.5278 -2.2316
 8208SOL    HW236258   4.516   3.998   2.371  1.8634 -0.7085 -2.0801
 8209SOL     OW36259   1.629   4.591   4.494  0.3116  0.2928  0.1127
 8209SOL    HW136260   1.695   4.537   4.536  0.0366 -0.9581 -1.0768
 8209SOL    HW236261   1.578   4.623   4.569  2.2155  0.0836  1.5008
 8210SOL     OW36262   3.421   2.465  12.813 -0.1600 -0.0152 -0.1931
 8210SOL    HW136263   3.392   2.553  12.788 -2.2206 -1.4160 -2.7382
 8210SOL    HW236264   3.431   2.484  12.906 -0.4110  1.1488 -0.4001
 8211SOL     OW36265   1.948   0.246   8.792  0.0480 -0.0689 -0.2302
 8211SOL    HW136266   2.001   0.174   8.825  0.2363 -0.4761 -1.4261
 8211SOL    HW236267   1.867   0.229   8.840 -0.8302  1.5091 -1.1600
 8212SOL     OW36268   4.385   3.531   5.717 -0.0019 -0.1930 -0.1784
 8212SOL    HW136269   4.415   3.447   5.684 -0.9871 -0.8398  0.5471
 8212SOL    HW236270   4.352   3.509   5.805 -0.3824 -0.8558 -0.4875
 8213SOL     OW36271   2.417   0.826   8.722 -0.5089  0.5090  0.0353
 8213SOL    HW136272   2.472   0.820   8.644  0.7705  0.7752  0.9120
 8213SOL    HW236273   2.410   0.920   8.735  0.1178 -0.0564  4.4999
 8214SOL     OW36274   4.291   0.948   6.967  0.4812 -0.4501 -0.2503
 8214SOL    HW136275   4.350   0.963   6.893 -0.5131  0.1824 -0.9175
 8214SOL    HW236276   4.224   1.012   6.943 -0.1295 -0.8272  0.4554
 8215SOL     OW36277   0.410   3.189  12.512 -0.2313  0.0815 -0.7471
 8215SOL    HW136278   0.335   3.154  12.560  0.9138  0.6928  1.4549
 8215SOL    HW236279   0.464   3.236  12.575 -0.7967 -0.0560 -0.1612
 8216SOL     OW36280   2.816   4.094  16.501  0.3784 -0.4792 -0.6290
 8216SOL    HW136281   2.781   4.030  16.439  0.6982 -1.6703  0.4146
 8216SOL    HW236282   2.788   4.179  16.466  0.0562 -1.5893 -3.0057
 8217SOL     OW36283   4.082   0.800   9.432  0.4183  0.2042  0.0561
 8217SOL    HW136284   4.021   0.799   9.358  0.4846 -1.2360  0.0346
 8217SOL    HW236285   4.116   0.889   9.420  1.7401  0.0326  2.7816
 8218SOL     OW36286   1.563   3.070   9.663 -0.2681  0.3249  0.1595
 8218SOL    HW136287   1.560   3.133   9.734  1.1120  1.7626 -1.0691
 8218SOL    HW236288   1.534   2.988   9.704  0.1024  0.8736  1.5219
 8219SOL     OW36289   1.400   3.177   1.615 -0.5929  1.0420  0.0104
 8219SOL    HW136290   1.457   3.251   1.593 -0.5209  0.5635 -1.3991
 8219SOL    HW236291   1.335   3.168   1.544  0.8060  0.6585 -1.2212
 8220SOL     OW36292   3.164   2.656   8.278  0.5451 -0.3274  0.0221
 8220SOL    HW136293   3.154   2.679   8.370  1.2836  1.1477 -0.2725
 8220SOL    HW236294   3.189   2.743   8.247  2.0067 -1.0185 -0.7610
 8221SOL     OW36295   2.769   0.082   5.073 -0.5334 -0.1461 -0.0059
 8221SOL    HW136296   2.816   0.106   4.993 -0.8465  1.8784  0.4337
 8221SOL    HW236297   2.763   0.169   5.112 -0.5167 -0.3874  0.5370
 8222SOL     OW36298   1.944   1.558   1.298 -0.4663 -0.6385  0.0745
 8222SOL    HW136299   1.866   1.602   1.334 -0.4127  2.1057 -3.0833
 8222SOL    HW236300   1.928   1.468   1.325  0.6446 -0.6662  0.6100
 8223SOL     OW36301   0.904   3.226  14.800 -0.4917  0.5237 -0.2233
 8223SOL    HW136302   0.932   3.224  14.709 -0.1029  0.5980 -0.1063
 8223SOL    HW236303   0.970   3.285  14.836  0.8123 -0.2976 -1.3082
 8224SOL     OW36304   2.870   3.686   2.050  0.1751  0.3370 -0.3042
 8224SOL    HW136305   2.898   3.743   1.978  0.1383  1.9789  0.9617
 8224SOL    HW236306   2.958   3.651   2.066 -0.1338 -0.3040 -0.0184
 8225SOL     OW36307   4.489   0.924   8.001  0.2390  0.3176 -0.3841
 8225SOL    HW136308   4.560   0.895   7.945 -0.6598 -2.4158 -0.1273
 8225SOL    HW236309   4.449   0.982   7.936  1.1988  1.5642  0.1485
 8226SOL     OW36310   2.051   2.567   9.756 -0.0317  0.6700 -0.1163
 8226SOL    HW136311   2.141   2.541   9.736 -0.1051 -0.5123  1.1446
 8226SOL    HW236312   2.048   2.544   9.849  0.8983 -3.4239 -1.0925
 8227SOL     OW36313   2.163   4.205   4.024 -0.5809 -0.6174  0.3576
 8227SOL    HW136314   2.253   4.226   3.998 -1.5944  0.9401 -1.8809
 8227SOL    HW236315   2.144   4.272   4.089 -1.7073 -0.2216 -0.3709
 8228SOL     OW36316   0.615   1.371  17.380 -0.5583 -0.3884  0.3295
 8228SOL    HW136317   0.559   1.428  17.328 -1.8154 -0.1231  1.9710
 8228SOL    HW236318   0.664   1.431  17.436 -0.6802 -0.4202  0.4705
 8229SOL     OW36319   0.446   4.019  15.097  0.6223 -0.1047  0.7325
 8229SOL    HW136320   0.513   4.076  15.133  0.1926  0.4791  0.5946
 8229SOL    HW236321   0.492   3.967  15.031 -0.3631 -0.4406  0.2967
 8230SOL     OW36322   3.991   0.725   1.590  0.2603 -0.1370 -0.3095
 8230SOL    HW136323   3.976   0.632   1.603 -0.1951 -0.3820 -2.6268
 8230SOL    HW236324   4.041   0.720   1.508  0.5988  1.2214 -0.1855
 8231SOL     OW36325   1.599   0.429   3.920  0.0609  0.1364 -0.1153
 8231SOL    HW136326   1.514   0.456   3.955  1.2909  1.9399  1.4712
 8231SOL    HW236327   1.613   0.503   3.861  1.7411  1.3294  1.7939
 8232SOL     OW36328   3.871   2.444  10.760  0.0757  0.1857  0.5232
 8232SOL    HW136329   3.791   2.474  10.718 -0.5932  0.0702  1.7288
 8232SOL    HW236330   3.880   2.518  10.821  0.4312 -0.5504  1.3635
 8233SOL     OW36331   3.479   0.057  12.267 -0.6028  0.0515  0.0691
 8233SOL    HW136332   3.541   0.086  12.201 -1.0009 -1.4077 -0.9441
 8233SOL    HW236333   3.502   0.122  12.333  0.1866 -1.2660  1.1058
 8234SOL     OW36334   1.550   4.316   1.708  0.3510  0.4639  0.9885
 8234SOL    HW136335   1.587   4.401   1.732 -0.6560  1.4796 -1.0796
 8234SOL    HW236336   1.458   4.341   1.701  0.7650  1.8384  0.5774
 8235SOL     OW36337   0.310   3.501  14.999 -0.4243 -0.1696  0.3483
 8235SOL    HW136338   0.297   3.560  15.072 -0.0772  2.4946 -1.7393
 8235SOL    HW236339   0.363   3.561  14.946 -1.7578 -0.6941 -1.6122
 8236SOL     OW36340   3.487   3.149   3.505 -0.6764 -0.4682  0.3440
 8236SOL    HW136341   3.501   3.154   3.411  1.7235 -0.0233  0.7183
 8236SOL    HW236342   3.518   3.059   3.516 -0.1634  0.0929  3.7289
 8237SOL     OW36343   3.501   1.935   1.999  0.0212  0.0719 -0.0371
 8237SOL    HW136344   3.575   1.903   1.947 -0.1968  1.5141 -1.2445
 8237SOL    HW236345   3.460   2.003   1.945 -0.5126 -1.1457 -1.1524
 8238SOL     OW36346   0.667   1.541   0.350 -0.7915 -0.2041 -0.4426
 8238SOL    HW136347   0.653   1.621   0.298 -1.1061  0.8751  1.2919
 8238SOL    HW236348   0.717   1.480   0.295 -1.2017  1.2079 -2.4120
 8239SOL     OW36349   4.670   4.650   5.083 -0.1299  0.2646 -0.2984
 8239SOL    HW136350   4.598   4.609   5.130  0.7517 -3.7073 -2.4298
 8239SOL    HW236351   4.639   4.663   4.993  0.5479 -0.4401 -0.6335
 8240SOL     OW36352   1.941   3.867  15.955 -0.6608  0.6547 -0.4374
 8240SOL    HW136353   1.947   3.798  16.020 -1.7598  1.0960  0.1350
 8240SOL    HW236354   1.924   3.816  15.877 -0.8366  0.5583 -0.3344
 8241SOL     OW36355   0.320   4.716   8.236 -0.0063 -0.2397  0.3451
 8241SOL    HW136356   0.378   4.710   8.313  1.2088  1.4816 -0.4209
 8241SOL    HW236357   0.296   4.627   8.212 -0.1478  0.2806 -1.4371
 8242SOL     OW36358   1.545   0.998   4.148  0.1088  0.1663 -0.7062
 8242SOL    HW136359   1.466   1.048   4.130 -0.3802  0.5814  2.5326
 8242SOL    HW236360   1.541   1.001   4.244  2.2481 -1.8226 -0.5618
 8243SOL     OW36361   0.039   1.715   5.807 -0.3432 -0.5456 -0.6740
 8243SOL    HW136362   4.712   1.735   5.873 -0.7154 -2.2680 -0.5352
 8243SOL    HW236363   0.064   1.801   5.771  4.2659 -0.9955  1.4651
 8244SOL     OW36364   4.595   2.245   1.880  0.4341 -0.0170 -0.0808
 8244SOL    HW136365   4.509   2.266   1.845  0.7288  1.4241  0.0549
 8244SOL    HW236366   4.610   2.330   1.923 -0.8372  1.5069 -2.6312
 8245SOL     OW36367   2.995   3.505   2.482  0.0709  0.1795  0.0275
 8245SOL    HW136368   3.037   3.493   2.397  0.8443  0.7913  0.3225
 8245SOL    HW236369   3.068   3.505   2.543 -1.5978  1.6239  2.0475
 8246SOL     OW36370   3.741   4.024   3.168 -0.0096 -0.6414 -0.7911
 8246SOL    HW136371   3.821   4.049   3.214 -0.9562  2.0848 -0.6417
 8246SOL    HW236372   3.684   4.086   3.214 -0.7265 -1.8401 -0.0745
 8247SOL     OW36373   4.678   1.800   6.890 -0.0867  0.0552  1.1912
 8247SOL    HW136374   0.010   1.785   6.828 -0.5451 -0.4298  0.7698
 8247SOL    HW236375   4.718   1.848   6.962  1.6104  1.5368 -0.7134
 8248SOL     OW36376   0.845   1.276  10.721  0.3622  0.3737  0.3244
 8248SOL    HW136377   0.836   1.361  10.764  1.2089  0.5336  0.1820
 8248SOL    HW236378   0.938   1.257  10.728  0.0245 -1.7324 -0.8222
 8249SOL     OW36379   3.768   2.822   1.509  0.4354 -0.5797 -1.2824
 8249SOL    HW136380   3.789   2.902   1.557  0.5421 -1.2856 -0.1541
 8249SOL    HW236381   3.676   2.812   1.533  0.2441  1.5234 -1.1322
 8250SOL     OW36382   3.585   4.527   6.278  0.3445  0.3260  0.2294
 8250SOL    HW136383   3.666   4.487   6.245  1.2726  2.0514  0.4660
 8250SOL    HW236384   3.603   4.617   6.251 -1.0736  1.0649  1.7839
 8251SOL     OW36385   1.159   4.057   4.140  0.5307 -0.4235  0.4714
 8251SOL    HW136386   1.088   4.121   4.147  1.3321  0.6787 -1.6008
 8251SOL    HW236387   1.155   4.024   4.050 -0.3989 -0.9640  0.7009
 8252SOL     OW36388   2.629   4.409   7.417 -0.2599  0.2548  0.4422
 8252SOL    HW136389   2.592   4.327   7.450  1.8550 -0.4178  1.1556
 8252SOL    HW236390   2.544   4.450   7.401  0.1093  0.7495 -0.2756
 8253SOL     OW36391   1.104   1.947  12.886  0.2830  0.1675  0.3678
 8253SOL    HW136392   1.038   1.883  12.858 -1.1187  1.3373  0.9865
 8253SOL    HW236393   1.153   1.915  12.961  1.1365  2.1476  0.6601
 8254SOL     OW36394   2.012   0.056   2.939 -0.1374 -0.2909  0.6778
 8254SOL    HW136395   2.033   4.738   3.012 -0.6297  0.2527  1.2542
 8254SOL    HW236396   2.096   0.088   2.908  0.2251  0.6750  2.6337
 8255SOL     OW36397   0.195   1.974   3.364  0.0828 -0.3190  0.0896
 8255SOL    HW136398   0.142   2.036   3.314  0.7814  0.9521  0.9087
 8255SOL    HW236399   0.124   1.955   3.426  0.0635 -1.1785 -0.2041
 8256SOL     OW36400   4.009   3.697   6.426  0.2343  0.6428 -0.5247
 8256SOL    HW136401   4.011   3.683   6.331 -2.2870 -1.4055 -0.2567
 8256SOL    HW236402   4.100   3.720   6.444 -0.3763  1.5688  1.3656
 8257SOL     OW36403   3.136   2.650  11.175  0.0114  0.5443 -0.8083
 8257SOL    HW136404   3.186   2.725  11.143  0.6565 -0.3061 -1.7999
 8257SOL    HW236405   3.120   2.614  11.087 -0.1252 -1.1710 -0.0763
 8258SOL     OW36406   0.207   1.383   3.858  0.3428  0.5748  0.1844
 8258SOL    HW136407   0.254   1.399   3.776  0.2190  2.7417  0.5383
 8258SOL    HW236408   0.275   1.343   3.911  0.5172  2.9751  1.7977
 8259SOL     OW36409   2.846   0.080   3.467 -0.4493  0.0286  0.3781
 8259SOL    HW136410   2.793   0.131   3.529 -2.0557 -2.0881  0.7346
 8259SOL    HW236411   2.799   0.092   3.385 -0.5458  0.6149  0.5179
 8260SOL     OW36412   3.191   1.258   8.410 -0.1648  0.4416  0.3640
 8260SOL    HW136413   3.129   1.298   8.349 -0.0104 -1.3078 -0.9713
 8260SOL    HW236414   3.144   1.266   8.492  1.2105 -1.4220  1.3476
 8261SOL     OW36415   3.919   3.634   8.287  0.8191  0.2391  0.3075
 8261SOL    HW136416   3.836   3.682   8.280  2.0743  2.4804  0.6961
 8261SOL    HW236417   3.913   3.610   8.380  1.3759 -0.5704  0.1227
 8262SOL     OW36418   0.566   1.219  10.333 -0.4354  0.0560 -0.3754
 8262SOL    HW136419   0.524   1.285  10.389 -0.6075 -1.8799  1.7755
 8262SOL    HW236420   0.651   1.208  10.374 -0.2191 -0.6852 -1.0205
 8263SOL     OW36421   3.018   1.180   4.100 -0.4673  0.1736  0.5043
 8263SOL    HW136422   2.984   1.165   4.189  0.7794  0.3972  1.0129
 8263SOL    HW236423   3.054   1.093   4.082 -1.5623  0.3712 -2.5842
 8264SOL     OW36424   3.541   0.452   3.964 -0.2631  0.0692  0.0227
 8264SOL    HW136425   3.479   0.514   3.925 -0.4005  0.2595  0.5564
 8264SOL    HW236426   3.575   0.408   3.886  0.8856  1.0563 -0.0308
 8265SOL     OW36427   0.221   3.821  11.819  0.4103 -0.3482  0.1344
 8265SOL    HW136428   0.157   3.770  11.869  0.4588 -0.5875 -0.0473
 8265SOL    HW236429   0.159   3.856  11.756  0.6103 -0.6983 -0.2591
 8266SOL     OW36430   4.645   3.255   4.748 -0.2760  0.2879 -0.2560
 8266SOL    HW136431   4.613   3.212   4.827 -0.0107 -2.2749 -1.5386
 8266SOL    HW236432   4.643   3.173   4.699 -0.0461  0.3330 -0.3428
 8267SOL     OW36433   3.410   1.589  17.660  0.1048 -0.7968 -0.1097
 8267SOL    HW136434   3.498   1.552  17.648  0.2850 -0.2993 -0.3236
 8267SOL    HW236435   3.384   1.530  17.730 -0.8367  1.5416  1.4936
 8268SOL     OW36436   2.954   1.779   8.872 -0.1892 -0.3280 -0.5890
 8268SOL    HW136437   3.038   1.820   8.894 -1.4743  1.5177  0.9159
 8268SOL    HW236438   2.980   1.710   8.811  2.4188  0.5923 -0.5168
 8269SOL     OW36439   2.989   1.817   4.448  0.5588 -0.0019 -0.2183
 8269SOL    HW136440   3.017   1.907   4.465 -0.5970  0.4838 -0.8762
 8269SOL    HW236441   2.921   1.793   4.511  0.5211  0.7531  0.0232
 8270SOL     OW36442   2.616   0.819   4.758  0.0531 -0.1194 -0.8423
 8270SOL    HW136443   2.522   0.835   4.746  0.0420  0.7581  0.3948
 8270SOL    HW236444   2.633   0.747   4.697  0.0354 -0.0286 -0.9568
 8271SOL     OW36445   2.203   1.327   4.813  0.2305  0.0446  0.0371
 8271SOL    HW136446   2.220   1.262   4.882 -0.3809 -1.1677 -0.9365
 8271SOL    HW236447   2.142   1.274   4.762  1.1111  0.5493 -1.5250
 8272SOL     OW36448   2.906   1.051   2.832 -0.3754 -0.5237 -0.6895
 8272SOL    HW136449   2.820   1.009   2.824 -0.8611  0.0656  1.3326
 8272SOL    HW236450   2.945   1.054   2.745  0.5577  1.3535 -0.2156
 8273SOL     OW36451   1.157   0.613   0.951 -1.4759  1.0774 -0.6133
 8273SOL    HW136452   1.066   0.633   0.974 -1.6872  0.4770 -0.9246
 8273SOL    HW236453   1.183   0.536   1.002 -0.2949  1.0087 -1.3198
 8274SOL     OW36454   4.022   0.780   7.204  0.1498 -0.0851  0.7223
 8274SOL    HW136455   3.983   0.760   7.289  1.6244 -3.0159  0.6906
 8274SOL    HW236456   3.947   0.815   7.156  0.6735  1.9696  1.3803
 8275SOL     OW36457   3.662   1.989   6.296 -0.4118  0.1696 -0.5193
 8275SOL    HW136458   3.586   1.967   6.350 -0.9657  0.8822 -1.0108
 8275SOL    HW236459   3.642   1.928   6.225 -1.2898 -0.0357 -0.0935
 8276SOL     OW36460   3.362   2.540   6.645  0.5488  0.2003 -0.1493
 8276SOL    HW136461   3.356   2.447   6.622  4.3092  0.1930 -1.1110
 8276SOL    HW236462   3.414   2.565   6.569  0.0017  0.4612 -0.4336
 8277SOL     OW36463   1.364   0.569   8.300 -0.0655  0.2195 -0.1610
 8277SOL    HW136464   1.388   0.478   8.317  0.6631  0.3727 -0.3702
 8277SOL    HW236465   1.439   0.592   8.244 -0.1106  1.9056  0.4549
 8278SOL     OW36466   3.147   2.869   7.942  0.2259 -0.4263  0.0045
 8278SOL    HW136467   3.160   2.871   8.036 -0.6150 -0.4623  0.1242
 8278SOL    HW236468   3.153   2.774   7.929 -0.7501 -0.4201 -0.5187
 8279SOL     OW36469   4.124   2.155   7.222 -0.2561 -0.0856  0.0411
 8279SOL    HW136470   4.104   2.166   7.315 -1.4147  0.0344 -0.2266
 8279SOL    HW236471   4.055   2.094   7.196 -2.4482  1.3032  2.6158
 8280SOL     OW36472   4.154   0.004  13.045  0.0960 -0.8915 -0.2184
 8280SOL    HW136473   4.160   0.012  12.950  2.7237  0.5734  0.0725
 8280SOL    HW236474   4.110   0.083  13.077 -0.9545 -2.3473  1.9041
 8281SOL     OW36475   2.507   1.399   3.099 -0.6387  0.1931 -0.2062
 8281SOL    HW136476   2.595   1.365   3.080 -0.1453  0.4485  1.5685
 8281SOL    HW236477   2.464   1.377   3.017 -1.8882 -0.8779  0.7531
 8282SOL     OW36478   0.822   4.649   4.204 -0.1988 -0.0934  0.0168
 8282SOL    HW136479   0.748   4.678   4.150 -1.6869 -2.7103  0.6419
 8282SOL    HW236480   0.793   4.558   4.213  0.5297 -0.5707 -2.3654
 8283SOL     OW36481   2.152   1.404   7.717  0.4965 -0.1793  0.3086
 8283SOL    HW136482   2.100   1.330   7.748 -0.3075  0.4705  0.4989
 8283SOL    HW236483   2.106   1.482   7.748 -1.8273 -1.7731  0.8976
 8284SOL     OW36484   4.496   4.550  12.510  0.2722 -0.3790  0.1599
 8284SOL    HW136485   4.465   4.536  12.421  1.2693  0.6620 -0.3662
 8284SOL    HW236486   4.549   4.471  12.523 -0.2893 -0.6326  0.9236
 8285SOL     OW36487   3.617   0.903  11.704  0.1238 -0.2509  0.0719
 8285SOL    HW136488   3.691   0.957  11.676  0.1375 -0.4223 -0.2264
 8285SOL    HW236489   3.611   0.937  11.793  1.7394 -0.4022  0.2378
 8286SOL     OW36490   4.147   0.937   2.923 -0.1910 -0.0611  0.2365
 8286SOL    HW136491   4.166   1.030   2.933  0.6439 -0.0268 -1.7255
 8286SOL    HW236492   4.192   0.904   3.001 -0.6652  0.9203  0.9220
 8287SOL     OW36493   2.331   3.215   1.348 -0.1431 -1.3028 -0.0777
 8287SOL    HW136494   2.378   3.223   1.265 -1.0183  2.0765 -0.2532
 8287SOL    HW236495   2.274   3.292   1.343  0.7552 -0.6214  0.2965
 8288SOL     OW36496   0.284   1.544  16.619 -0.1337 -0.0313 -0.5110
 8288SOL    HW136497   0.274   1.481  16.690 -1.5878  0.9730  0.1927
 8288SOL    HW236498   0.316   1.486  16.551 -1.3809 -2.0772  0.6473
 8289SOL     OW36499   0.591   4.429  14.027  0.7458  0.2257  0.3177
 8289SOL    HW136500   0.572   4.336  14.020  3.5379 -0.3530  0.0807
 8289SOL    HW236501   0.684   4.429  14.003  0.4583  1.6613 -0.7792
 8290SOL     OW36502   2.371   1.116   7.904 -0.6294 -0.2164 -0.1600
 8290SOL    HW136503   2.319   1.189   7.939 -0.8425 -0.4674  0.0514
 8290SOL    HW236504   2.321   1.084   7.829 -0.2328  0.3719 -0.6806
 8291SOL     OW36505   1.391   3.144  14.891  0.3187 -0.2658  0.4803
 8291SOL    HW136506   1.386   3.173  14.982  2.6255  1.1047  0.1636
 8291SOL    HW236507   1.473   3.096  14.880 -0.4801 -1.3190 -0.8743
 8292SOL     OW36508   1.108   3.396  14.891  0.1400 -0.0697  0.0003
 8292SOL    HW136509   1.108   3.490  14.876 -0.0861 -0.3972 -2.1503
 8292SOL    HW236510   1.172   3.390  14.962  1.0888 -2.6502 -1.0653
 8293SOL     OW36511   3.344   4.298   5.394  0.0729 -0.2659  0.7082
 8293SOL    HW136512   3.352   4.281   5.488  0.8269  0.3306  0.7520
 8293SOL    HW236513   3.435   4.292   5.365  0.5902 -2.2360  2.7264
 8294SOL     OW36514   0.171   0.005   9.888 -1.0868 -0.4251 -0.4514
 8294SOL    HW136515   0.243   0.067   9.903 -1.9793  0.3868  0.4025
 8294SOL    HW236516   0.154   4.720   9.978  3.7174 -0.1582  0.5412
 8295SOL     OW36517   0.007   4.119  17.655  0.4173  0.1508  0.1374
 8295SOL    HW136518   0.016   4.141  17.563 -0.5266  0.4584  0.1134
 8295SOL    HW236519   0.045   4.200  17.690 -1.4769  0.8670  0.5682
 8296SOL     OW36520   1.507   2.360  10.450 -0.1457 -0.1499 -0.0198
 8296SOL    HW136521   1.528   2.333  10.539  1.7932 -0.8340 -0.6699
 8296SOL    HW236522   1.419   2.395  10.462 -0.4145 -1.4214  1.7682
 8297SOL     OW36523   2.007   0.805   0.478 -0.2756  0.0266 -0.0191
 8297SOL    HW136524   2.090   0.842   0.448 -0.3823  0.0384 -0.3030
 8297SOL    HW236525   2.033   0.716   0.501 -0.9650  0.4505  2.3720
 8298SOL     OW36526   2.644   2.035   9.435 -0.0311 -0.5436 -0.2930
 8298SOL    HW136527   2.619   2.099   9.369  0.8873 -1.0520 -1.1352
 8298SOL    HW236528   2.720   2.077   9.476  0.4925 -2.5843  0.8352
 8299SOL     OW36529   3.574   3.988   7.877  0.4725  0.4308 -0.4240
 8299SOL    HW136530   3.588   4.024   7.965  0.1589 -1.7788  0.5156
 8299SOL    HW236531   3.627   3.909   7.870 -0.9002 -0.2689 -2.7747
 8300SOL     OW36532   3.552   4.054  12.334 -0.3393  0.7682 -0.2696
 8300SOL    HW136533   3.468   4.041  12.289 -1.1043  1.7858  0.8773
 8300SOL    HW236534   3.601   4.079  12.255  0.7790 -1.5327 -0.2951
 8301SOL     OW36535   1.884   2.574  13.028  0.0225  0.0528 -0.3372
 8301SOL    HW136536   1.906   2.655  12.984  0.8968 -0.3870 -0.7118
 8301SOL    HW236537   1.964   2.576  13.082 -0.7175 -0.5288  0.7959
 8302SOL     OW36538   3.213   2.440   3.803 -0.1349 -0.3604  0.0908
 8302SOL    HW136539   3.185   2.365   3.854 -1.8420  2.0098  2.6065
 8302SOL    HW236540   3.124   2.476   3.802 -0.2045 -0.5379 -0.2764
 8303SOL     OW36541   3.171   0.938   1.671  0.2440  0.0332  0.2852
 8303SOL    HW136542   3.183   0.958   1.578 -0.7537 -0.7279 -0.0067
 8303SOL    HW236543   3.080   0.960   1.689  0.3246  0.3281  0.3279
 8304SOL     OW36544   4.543   1.222   6.740 -0.2526  0.4218  0.0800
 8304SOL    HW136545   4.563   1.187   6.653  0.9434  1.3071  0.0019
 8304SOL    HW236546   4.513   1.143   6.784 -1.5525 -0.1493 -1.8245
 8305SOL     OW36547   2.717   2.621   0.522 -0.2511  0.3302  0.4277
 8305SOL    HW136548   2.765   2.614   0.605  1.9978 -0.4361 -0.9364
 8305SOL    HW236549   2.680   2.709   0.517 -1.1120  0.0133  1.2708
 8306SOL     OW36550   3.745   4.165  10.759  0.1615  0.2311  0.2727
 8306SOL    HW136551   3.650   4.162  10.768  0.1639  0.3964  0.3575
 8306SOL    HW236552   3.774   4.076  10.780  2.8140  1.1033  0.2475
 8307SOL     OW36553   0.605   0.363   2.537 -0.2381 -0.1789  1.0651
 8307SOL    HW136554   0.601   0.393   2.628  0.6054 -0.1185  1.0846
 8307SOL    HW236555   0.514   0.337   2.525 -0.1326 -0.5246  0.9838
 8308SOL     OW36556   2.049   1.383   6.749  0.0502 -0.1053 -0.2686
 8308SOL    HW136557   2.069   1.346   6.663 -0.4795 -0.0744 -0.4077
 8308SOL    HW236558   2.033   1.474   6.722  2.7261  0.3921 -0.1589
 8309SOL     OW36559   0.760   4.484   9.867  0.2854 -0.0419  0.0740
 8309SOL    HW136560   0.842   4.516   9.905 -0.5718  0.8382  1.1587
 8309SOL    HW236561   0.739   4.410   9.923 -1.4297 -0.4590 -1.1227
 8310SOL     OW36562   2.758   0.979  11.322  0.2829 -0.2062 -0.7461
 8310SOL    HW136563   2.824   0.994  11.390  0.0071  1.5691 -0.8638
 8310SOL    HW236564   2.784   1.045  11.258  0.2529  0.5986  0.0808
 8311SOL     OW36565   1.904   4.203  11.966 -0.2904 -0.4454  0.7200
 8311SOL    HW136566   1.884   4.187  12.058 -3.1087  0.2506  0.2203
 8311SOL    HW236567   1.894   4.297  11.956  0.3841 -0.5193 -0.7426
 8312SOL     OW36568   0.684   3.197  11.826  0.8291 -0.5416 -0.2567
 8312SOL    HW136569   0.734   3.158  11.898  1.1199  0.5331  0.1205
 8312SOL    HW236570   0.701   3.291  11.825  1.4804 -0.6706 -1.1698
 8313SOL     OW36571   3.705   1.709   6.702 -0.3162  0.2850 -0.3543
 8313SOL    HW136572   3.746   1.654   6.769 -0.1912 -0.2306 -0.8540
 8313SOL    HW236573   3.780   1.728   6.645  1.0666  0.4328  1.5288
 8314SOL     OW36574   3.270   4.047  12.497 -0.0784 -0.1196 -0.6753
 8314SOL    HW136575   3.327   3.970  12.491 -0.3468 -0.3346 -0.4120
 8314SOL    HW236576   3.316   4.111  12.443  0.1970  0.1987 -0.0630
 8315SOL     OW36577   3.881   2.975  13.783  0.3883  0.2315 -0.1517
 8315SOL    HW136578   3.919   2.912  13.844 -0.4738 -0.3666 -0.2335
 8315SOL    HW236579   3.921   2.951  13.699  0.0231 -4.4356  0.9823
 8316SOL     OW36580   1.019   3.846   6.533  0.0281  0.4299  0.2927
 8316SOL    HW136581   0.939   3.842   6.481 -0.4187 -2.2542  1.2018
 8316SOL    HW236582   0.996   3.903   6.606 -2.0382  0.4201 -0.3725
 8317SOL     OW36583   1.881   2.750   8.559 -0.0860  0.2187 -0.0928
 8317SOL    HW136584   1.858   2.814   8.492 -0.0326 -1.3519 -1.5985
 8317SOL    HW236585   1.852   2.670   8.515 -1.8685  1.1199 -0.5768
 8318SOL     OW36586   1.053   4.321   4.148  0.4344  0.3997  0.3731
 8318SOL    HW136587   1.136   4.337   4.103  0.6674  1.0805  1.0476
 8318SOL    HW236588   1.080   4.326   4.240  0.3878  2.8560  0.2568
 8319SOL     OW36589   3.973   0.200   5.490 -0.2857 -0.3276  0.8873
 8319SOL    HW136590   3.938   0.111   5.495 -1.3439 -0.0191 -1.1615
 8319SOL    HW236591   3.919   0.235   5.420 -0.2364 -0.6666  0.6787
 8320SOL     OW36592   1.772   0.746   0.619 -0.6832 -0.1492  0.0368
 8320SOL    HW136593   1.737   0.752   0.530 -1.6135  2.3677  0.5789
 8320SOL    HW236594   1.762   0.652   0.635 -1.3004 -0.0462  0.2482
 8321SOL     OW36595   3.083   3.765  11.060  0.8908 -0.1608 -0.0286
 8321SOL    HW136596   3.132   3.800  11.134  1.0895 -1.1646  0.3055
 8321SOL    HW236597   3.019   3.712  11.108  0.8529  0.1273  0.2420
 8322SOL     OW36598   2.340   4.071  16.832 -1.1239 -0.3960 -0.0300
 8322SOL    HW136599   2.359   4.147  16.887  1.9626 -1.1120 -0.0800
 8322SOL    HW236600   2.401   4.079  16.758  0.5427 -2.5260  1.1160
 8323SOL     OW36601   1.465   0.227   8.569 -0.0025 -0.4601  0.0650
 8323SOL    HW136602   1.385   0.237   8.621 -0.5186  2.6645 -1.3603
 8323SOL    HW236603   1.502   0.143   8.596  1.3425  0.5170  1.3156
 8324SOL     OW36604   3.898   1.140   8.244 -0.1445  0.4686  0.3846
 8324SOL    HW136605   3.845   1.124   8.166  0.8985  1.7043 -0.5704
 8324SOL    HW236606   3.948   1.217   8.217  1.4576 -0.4173  0.7984
 8325SOL     OW36607   2.181   4.219   2.713 -0.0144 -0.0861 -0.0807
 8325SOL    HW136608   2.166   4.128   2.690 -0.8561  0.2842 -1.0172
 8325SOL    HW236609   2.095   4.246   2.745  0.0151 -4.1486  3.2805
 8326SOL     OW36610   1.309   0.530  17.637  0.3768  0.0659 -0.2318
 8326SOL    HW136611   1.331   0.437  17.627 -0.8814 -0.3074  0.5149
 8326SOL    HW236612   1.274   0.542  17.549  0.6936 -2.4793 -0.7075
 8327SOL     OW36613   3.125   0.695   2.192  0.0534 -0.1714 -0.0245
 8327SOL    HW136614   3.049   0.636   2.193 -0.9776  1.1259 -2.9145
 8327SOL    HW236615   3.099   0.746   2.116 -2.7631  2.7143  2.8548
 8328SOL     OW36616   3.049   4.432   6.174  0.9906  0.6779 -0.8793
 8328SOL    HW136617   3.142   4.449   6.188  0.0511  3.7991  1.6757
 8328SOL    HW236618   3.020   4.523   6.165 -2.3264 -0.1707  0.8482
 8329SOL     OW36619   3.470   4.441   6.929 -0.3301  0.3154 -0.3105
 8329SOL    HW136620   3.517   4.377   6.982  1.8115  1.6890 -0.5561
 8329SOL    HW236621   3.462   4.397   6.844 -1.6498 -1.0131  0.4938
 8330SOL     OW36622   1.601   0.838  17.004 -0.3176 -0.1878 -0.7263
 8330SOL    HW136623   1.647   0.856  17.086 -0.1026 -0.0208 -0.8867
 8330SOL    HW236624   1.543   0.765  17.025 -0.2036 -0.7467 -2.3487
 8331SOL     OW36625   2.705   1.500   5.642 -0.2629  0.5246  0.4447
 8331SOL    HW136626   2.771   1.563   5.671  1.3712 -0.6430 -0.7634
 8331SOL    HW236627   2.634   1.557   5.613 -1.8658 -0.1285  3.0452
 8332SOL     OW36628   2.394   2.373   9.104  0.7448  0.1906 -0.5842
 8332SOL    HW136629   2.416   2.453   9.152 -0.1761 -0.5012  1.0117
 8332SOL    HW236630   2.301   2.374   9.124  0.4278 -0.1670 -2.0717
 8333SOL     OW36631   3.822   3.540   5.258  0.3417 -0.2504 -0.7079
 8333SOL    HW136632   3.878   3.609   5.222 -2.7404  1.6586 -1.8548
 8333SOL    HW236633   3.800   3.498   5.175  0.8639 -1.2757 -0.3219
 8334SOL     OW36634   1.072   2.099  15.907  0.8306  0.3117 -0.5406
 8334SOL    HW136635   1.112   2.143  15.832 -1.7688  3.5212 -0.0267
 8334SOL    HW236636   1.089   2.165  15.975  0.3007 -2.3822  2.2201
 8335SOL     OW36637   3.730   1.741   7.235  0.7946 -0.2590 -0.3538
 8335SOL    HW136638   3.705   1.811   7.174  3.4352 -0.0366 -1.1958
 8335SOL    HW236639   3.725   1.790   7.317 -1.4522  1.3684 -1.4437
 8336SOL     OW36640   4.111   2.623   6.543 -0.2674  0.0152  0.3320
 8336SOL    HW136641   4.177   2.692   6.542  1.5046 -1.6827 -2.0195
 8336SOL    HW236642   4.044   2.650   6.606 -0.8483  0.6972 -0.5832
 8337SOL     OW36643   1.955   2.170   3.481  0.4282 -0.0605  0.1037
 8337SOL    HW136644   1.908   2.109   3.424 -0.2783 -1.2649  1.9854
 8337SOL    HW236645   1.883   2.204   3.535  1.0125  2.6065 -0.7915
 8338SOL     OW36646   0.998   3.711   2.770  0.4446 -0.2349 -0.4028
 8338SOL    HW136647   1.050   3.766   2.828  0.5804 -0.8204  0.0255
 8338SOL    HW236648   1.030   3.622   2.778 -2.1381 -1.1500 -0.1702
 8339SOL     OW36649   0.482   3.855   7.035  0.0960  0.4673 -0.1903
 8339SOL    HW136650   0.477   3.801   7.114 -2.8282  0.2464 -0.5234
 8339SOL    HW236651   0.464   3.938   7.078  0.0258 -0.3143  1.2917
 8340SOL     OW36652   3.411   1.893   6.369 -0.2906 -0.1043 -0.1571
 8340SOL    HW136653   3.371   1.963   6.316 -0.5094  0.1449  0.3401
 8340SOL    HW236654   3.359   1.813   6.362 -2.0446  1.0518 -0.6302
 8341SOL     OW36655   3.489   2.922   1.803 -0.7381 -0.0023  0.2854
 8341SOL    HW136656   3.483   2.841   1.752  2.4615  1.0381 -1.6871
 8341SOL    HW236657   3.397   2.926   1.831 -1.2748 -0.6806 -1.3902
 8342SOL     OW36658   0.536   3.717   7.606  0.0577 -0.1966  0.3820
 8342SOL    HW136659   0.490   3.763   7.676 -0.7803 -0.2595 -0.1271
 8342SOL    HW236660   0.600   3.778   7.571 -0.2195  2.0745  3.8287
 8343SOL     OW36661   1.764   4.506   1.841 -0.1113 -0.2695 -0.5112
 8343SOL    HW136662   1.702   4.554   1.897  0.0815 -0.6897  0.0600
 8343SOL    HW236663   1.829   4.465   1.898  1.1894 -0.8924 -2.4461
 8344SOL     OW36664   2.287   2.099   9.267 -0.6844  0.0197 -0.0107
 8344SOL    HW136665   2.194   2.077   9.260 -0.1294 -1.1783 -3.1366
 8344SOL    HW236666   2.289   2.195   9.261 -1.1249 -0.0039 -0.5760
 8345SOL     OW36667   3.869   0.748   3.110 -0.4168  0.2936  0.1420
 8345SOL    HW136668   3.801   0.814   3.098 -0.0242  0.3249 -1.9397
 8345SOL    HW236669   3.911   0.755   3.025  0.1469 -0.9192  0.3156
 8346SOL     OW36670   4.009   1.145  12.975 -0.6600 -0.4600  0.2339
 8346SOL    HW136671   4.061   1.081  12.927  1.7340  1.9625 -0.3890
 8346SOL    HW236672   4.083   1.204  12.989 -0.8967 -0.8626  3.0715
 8347SOL     OW36673   3.086   0.473  16.346 -0.0245 -0.5846 -0.8050
 8347SOL    HW136674   3.106   0.388  16.306  0.1859  0.0002 -1.9636
 8347SOL    HW236675   3.136   0.461  16.426  1.4438  2.7714 -1.2259
 8348SOL     OW36676   1.345   4.605  12.639  0.4071 -0.1350  0.1069
 8348SOL    HW136677   1.295   4.575  12.715  1.0573  1.0501  0.9999
 8348SOL    HW236678   1.335   4.700  12.650 -0.1122 -0.1524 -0.2232
 8349SOL     OW36679   2.578   2.224   8.685 -0.4689 -0.3844  0.2564
 8349SOL    HW136680   2.537   2.302   8.721 -1.1283 -1.0869  1.0234
 8349SOL    HW236681   2.655   2.219   8.741 -0.4080  1.0355  0.2911
 8350SOL     OW36682   1.246   3.962  17.751 -0.4187  0.3427  0.8895
 8350SOL    HW136683   1.220   3.970  17.659  0.7070  2.6934  0.7797
 8350SOL    HW236684   1.289   3.878  17.738 -0.6826  0.2217  0.7869
 8351SOL     OW36685   4.128   0.793   3.190 -0.2137 -0.1736  0.0015
 8351SOL    HW136686   4.037   0.765   3.183 -0.6875  1.7602 -1.4577
 8351SOL    HW236687   4.158   0.707   3.219 -0.1769 -0.3634 -0.5814
 8352SOL     OW36688   3.718   4.125  12.102 -0.6698  0.0672 -0.3723
 8352SOL    HW136689   3.733   4.211  12.065  0.4863  0.3723  0.7863
 8352SOL    HW236690   3.806   4.089  12.114 -0.6316  0.4827  0.5794
 8353SOL     OW36691   0.663   1.849   3.966  0.0646 -0.1581 -0.0251
 8353SOL    HW136692   0.670   1.935   3.925 -0.5600 -0.4877 -0.8145
 8353SOL    HW236693   0.737   1.856   4.027 -0.0782 -1.2505  0.2777
 8354SOL     OW36694   0.396   0.572  14.418  0.2571 -0.1986  0.0877
 8354SOL    HW136695   0.346   0.653  14.433 -0.0280 -0.1830 -0.9495
 8354SOL    HW236696   0.485   0.601  14.441 -0.8417  1.2572  2.5479
 8355SOL     OW36697   0.541   4.096  12.975 -0.4811 -0.2297  1.1382
 8355SOL    HW136698   0.544   4.026  12.909 -0.8399  1.6169 -0.8440
 8355SOL    HW236699   0.542   4.042  13.054 -0.5132  1.4582  2.2845
 8356SOL     OW36700   3.654   3.990  11.217 -0.3848 -0.0717 -0.3500
 8356SOL    HW136701   3.580   4.050  11.206 -0.1023  0.2372 -0.5629
 8356SOL    HW236702   3.728   4.045  11.191 -1.3284  0.6920 -1.4166
 8357SOL     OW36703   1.371   3.398   7.169  0.2187 -0.1670  0.1873
 8357SOL    HW136704   1.321   3.324   7.204 -0.6010 -0.3269 -1.2943
 8357SOL    HW236705   1.307   3.470   7.170  1.3575  0.8585 -0.5515
 8358SOL     OW36706   2.293   0.068   5.099  0.2916  0.2694 -0.5406
 8358SOL    HW136707   2.376   0.091   5.140  0.3585 -0.9309 -0.0133
 8358SOL    HW236708   2.262   0.148   5.058 -0.9434 -0.7474 -1.5978
 8359SOL     OW36709   0.081   0.609   5.361  0.1931  0.0461 -0.1950
 8359SOL    HW136710   0.134   0.552   5.306  1.3600  1.2348 -0.2974
 8359SOL    HW236711   4.734   0.569   5.348  0.6420 -0.3492 -1.8485
 8360SOL     OW36712   1.418   0.104   5.991 -0.3921  0.2140  0.5080
 8360SOL    HW136713   1.382   0.076   5.907 -0.3272  1.3478  0.0990
 8360SOL    HW236714   1.494   0.160   5.972 -0.4056 -0.0751 -0.4111
 8361SOL     OW36715   2.086   0.250   4.472 -0.6934 -0.9782 -0.1386
 8361SOL    HW136716   2.141   0.189   4.421 -1.3949 -0.0228 -2.0396
 8361SOL    HW236717   2.057   0.295   4.393  3.9114 -0.6941 -1.6759
 8362SOL     OW36718   3.054   0.236  16.131  0.4797 -0.6188  0.2928
 8362SOL    HW136719   3.035   0.195  16.215  0.3918  0.2670  0.6993
 8362SOL    HW236720   3.135   0.284  16.147  0.8832 -1.0139 -0.5498
 8363SOL     OW36721   1.830   1.000   8.069 -0.1631 -0.1247  0.2801
 8363SOL    HW136722   1.856   1.033   8.155  1.1821 -0.0328 -0.1669
 8363SOL    HW236723   1.862   0.910   8.073  1.8012  0.5684 -0.0615
 8364SOL     OW36724   0.429   4.421  13.729  0.0982  0.2612  0.2174
 8364SOL    HW136725   0.398   4.413  13.639 -0.3504  0.6577  0.3362
 8364SOL    HW236726   0.518   4.453  13.721 -0.2906  0.9229 -1.2939
 8365SOL     OW36727   2.826   0.792   8.356 -0.1252  0.3461 -0.2889
 8365SOL    HW136728   2.822   0.775   8.450  0.2329 -0.1722 -0.3678
 8365SOL    HW236729   2.763   0.864   8.352 -0.8374 -0.0875  3.6247
 8366SOL     OW36730   3.482   1.129   4.894 -0.2389  0.5792  0.5960
 8366SOL    HW136731   3.498   1.059   4.831 -0.0882  1.7146 -0.6118
 8366SOL    HW236732   3.386   1.129   4.892 -0.2198  1.8167  0.0393
 8367SOL     OW36733   4.222   3.328   2.230  0.0205 -0.3024 -0.1010
 8367SOL    HW136734   4.258   3.398   2.175 -0.4865 -0.8305 -1.0952
 8367SOL    HW236735   4.138   3.332   2.185 -0.9505  0.0907  1.7716
 8368SOL     OW36736   1.556   4.719   9.244  0.0248  0.1733 -0.2915
 8368SOL    HW136737   1.589   0.054   9.293 -0.4677  0.0609  0.2146
 8368SOL    HW236738   1.492   4.681   9.305  1.3848 -1.3752  0.1697
 8369SOL     OW36739   4.308   1.681  12.357  0.0807  0.0979 -0.4083
 8369SOL    HW136740   4.314   1.738  12.433  2.2644  0.3510 -0.7702
 8369SOL    HW236741   4.235   1.720  12.308 -0.6857 -0.6142  0.1749
 8370SOL     OW36742   1.846   4.368   9.772 -0.0976  0.6110  0.3681
 8370SOL    HW136743   1.835   4.388   9.679 -0.4517 -2.6775 -0.3168
 8370SOL    HW236744   1.910   4.428   9.809 -0.5272  1.2314  0.0987
 8371SOL     OW36745   3.010   0.925  12.322 -0.5069  0.8812 -0.3858
 8371SOL    HW136746   3.069   0.902  12.394 -1.4785  1.1532  0.4890
 8371SOL    HW236747   2.965   0.841  12.317 -1.1752  1.3147 -1.5954
 8372SOL     OW36748   1.659   0.878   6.613  0.6302 -0.5257 -0.2571
 8372SOL    HW136749   1.710   0.917   6.684 -1.9734  0.6772  0.9565
 8372SOL    HW236750   1.627   0.951   6.558 -0.7967 -1.1115 -0.1968
 8373SOL     OW36751   2.093   2.912  11.352  0.1405 -0.2128  0.1647
 8373SOL    HW136752   2.150   2.887  11.280 -0.2130  0.2147 -0.2631
 8373SOL    HW236753   2.083   3.002  11.319  1.5190  0.5227  1.7254
 8374SOL     OW36754   3.132   3.247   6.676 -0.0064 -0.4275 -0.1989
 8374SOL    HW136755   3.099   3.159   6.654 -0.4519 -1.3668  4.3968
 8374SOL    HW236756   3.152   3.222   6.766 -1.2582 -0.9302 -0.0553
 8375SOL     OW36757   2.692   0.780   3.927  0.2547 -0.1876 -0.2016
 8375SOL    HW136758   2.675   0.761   4.020  1.0044  1.0117  0.1816
 8375SOL    HW236759   2.609   0.765   3.881  1.8978  3.1043 -4.2619
 8376SOL     OW36760   3.559   1.092   2.059  0.9966  0.3105  0.0364
 8376SOL    HW136761   3.592   1.027   1.997 -1.6705 -1.6566  0.7020
 8376SOL    HW236762   3.640   1.131   2.093  0.3736  1.3336  0.3326
 8377SOL     OW36763   4.214   2.317   4.268 -0.2054 -0.0773 -0.2356
 8377SOL    HW136764   4.223   2.385   4.335 -1.0065 -0.5453  0.3449
 8377SOL    HW236765   4.159   2.351   4.198  0.8267  0.5764 -0.7276
 8378SOL     OW36766   2.597   4.637   4.694 -0.6073  0.2499 -0.0337
 8378SOL    HW136767   2.582   4.712   4.636 -0.4602 -1.0299 -1.7493
 8378SOL    HW236768   2.569   4.664   4.781  0.2792  0.4304  0.1967
 8379SOL     OW36769   0.747   4.126   5.129 -0.4763  0.0376  0.2923
 8379SOL    HW136770   0.693   4.197   5.162 -2.2004 -1.2312  0.2633
 8379SOL    HW236771   0.695   4.053   5.164 -1.1350  1.3186  1.9879
 8380SOL     OW36772   1.759   2.617   4.709 -0.0369 -0.4103  0.3768
 8380SOL    HW136773   1.850   2.614   4.739  0.5853  3.4298 -1.1327
 8380SOL    HW236774   1.762   2.581   4.620 -1.6054 -0.6927  0.4410
 8381SOL     OW36775   0.076   1.976   8.576  0.2957  0.2184  0.0892
 8381SOL    HW136776   0.139   1.926   8.523 -0.7982 -0.1988 -0.8187
 8381SOL    HW236777   0.047   1.903   8.630 -0.3683 -0.2954 -0.9594
 8382SOL     OW36778   0.515   3.715   8.013 -0.6164  0.4433  0.3211
 8382SOL    HW136779   0.493   3.680   8.099 -0.3714  1.4187  0.7799
 8382SOL    HW236780   0.605   3.740   8.036 -0.3182 -0.8657  0.5508
 8383SOL     OW36781   0.575   0.510   7.748  0.2519  0.2138 -0.5436
 8383SOL    HW136782   0.559   0.532   7.657 -0.3465 -1.9666 -0.9802
 8383SOL    HW236783   0.565   0.599   7.781  0.1872 -1.2380  3.3801
 8384SOL     OW36784   0.606   0.802   0.693  0.2109 -0.1993  0.4373
 8384SOL    HW136785   0.633   0.860   0.621 -1.5213 -0.6192 -0.5346
 8384SOL    HW236786   0.662   0.725   0.695  0.9604  0.3143 -0.9489
 8385SOL     OW36787   4.487   1.185   8.130  0.0102  1.2705 -0.8831
 8385SOL    HW136788   4.444   1.193   8.215  0.8683 -0.2027 -0.3116
 8385SOL    HW236789   4.476   1.094   8.106  2.2066  1.0624 -1.1542
 8386SOL     OW36790   4.379   4.366   8.798 -0.3800  0.0024  0.2392
 8386SOL    HW136791   4.289   4.340   8.818 -0.3946 -0.7456 -0.8254
 8386SOL    HW236792   4.363   4.438   8.736 -1.8247  0.0561  0.6794
 8387SOL     OW36793   3.512   1.422   5.163  0.0314 -0.1805  0.2033
 8387SOL    HW136794   3.562   1.397   5.241 -1.2810  1.9890  1.7352
 8387SOL    HW236795   3.560   1.375   5.095 -0.3748  0.9208 -0.8407
 8388SOL     OW36796   0.008   3.423   7.035  0.0238  0.3167  0.2642
 8388SOL    HW136797   0.060   3.444   7.113 -2.1352 -0.2731  1.8507
 8388SOL    HW236798   0.047   3.337   7.019 -0.3426  0.1028  0.5227
 8389SOL     OW36799   1.426   0.631  16.658 -0.3142 -0.3742  0.8988
 8389SOL    HW136800   1.356   0.677  16.704 -0.7414  2.7810 -2.8580
 8389SOL    HW236801   1.396   0.585  16.579  1.3244  2.1855 -1.2139
 8390SOL     OW36802   2.565   0.526  14.590 -0.5649 -0.2027 -0.0145
 8390SOL    HW136803   2.474   0.533  14.619 -0.8642  0.7074 -1.1619
 8390SOL    HW236804   2.574   0.614  14.554 -0.0767 -0.2710 -0.0607
 8391SOL     OW36805   2.013   3.581   1.872  0.1719 -0.0412  0.0594
 8391SOL    HW136806   2.083   3.524   1.842 -1.0821 -0.5621 -1.8712
 8391SOL    HW236807   1.942   3.538   1.825  0.9787 -1.3856  0.0757
 8392SOL     OW36808   4.530   2.328  13.610  0.3285 -0.3305  0.0423
 8392SOL    HW136809   4.520   2.304  13.518  1.9255 -2.8810  0.5001
 8392SOL    HW236810   4.513   2.421  13.604 -0.5254 -0.4353  0.9279
 8393SOL     OW36811   1.901   1.602   6.561  0.1013  0.9448  0.1302
 8393SOL    HW136812   1.852   1.647   6.491  1.4011  1.3015 -0.5461
 8393SOL    HW236813   1.987   1.645   6.557  0.8267 -0.3505  1.8626
 8394SOL     OW36814   1.410   1.261   5.438 -0.3786  0.2336  0.9646
 8394SOL    HW136815   1.322   1.291   5.417 -0.3013  1.0352  1.7862
 8394SOL    HW236816   1.464   1.340   5.438 -2.6270  1.7670  1.4073
 8395SOL     OW36817   4.464   4.672   3.292  0.8061 -0.7114  0.4256
 8395SOL    HW136818   4.407   4.727   3.238  1.3495  1.3591  1.9687
 8395SOL    HW236819   4.540   4.728   3.307  1.1269 -0.5507 -1.8841
 8396SOL     OW36820   3.123   1.382   6.853  0.3866 -0.6366  0.2796
 8396SOL    HW136821   3.137   1.288   6.858  0.3640 -0.7268 -1.1518
 8396SOL    HW236822   3.067   1.395   6.776 -3.2382 -0.4319  2.9657
 8397SOL     OW36823   4.235   1.497   8.391  0.2840 -0.1474 -0.3567
 8397SOL    HW136824   4.279   1.412   8.378  1.0737  0.4209 -1.4267
 8397SOL    HW236825   4.153   1.464   8.428 -1.1712  1.0464 -2.5342
 8398SOL     OW36826   2.157   2.229   5.329 -0.0410  0.2170  0.3082
 8398SOL    HW136827   2.220   2.182   5.274 -1.1152  1.1840 -1.7477
 8398SOL    HW236828   2.177   2.313   5.288  2.5422 -1.5953 -2.1838
 8399SOL     OW36829   2.911   1.746  16.958  0.3226 -0.0542  0.5724
 8399SOL    HW136830   2.821   1.772  16.979  0.3969  0.4613  0.2533
 8399SOL    HW236831   2.913   1.756  16.863  0.8686  0.0013  0.5901
 8400SOL     OW36832   1.916   1.750   5.155  0.2707 -0.3510 -0.2550
 8400SOL    HW136833   1.887   1.831   5.112  2.0656  0.5171  0.1191
 8400SOL    HW236834   1.838   1.716   5.197  0.7319 -0.2885  0.6585
 8401SOL     OW36835   2.149   1.179   2.170 -0.5831  0.4652  0.4790
 8401SOL    HW136836   2.156   1.269   2.201 -3.3058  0.4148  1.3050
 8401SOL    HW236837   2.148   1.197   2.076 -0.2041 -0.7951  0.2330
 8402SOL     OW36838   2.954   1.538   5.255  0.1126  0.4815  0.0142
 8402SOL    HW136839   3.022   1.499   5.309 -0.7085  0.3956  0.9845
 8402SOL    HW236840   3.015   1.571   5.189 -2.0317  0.0371 -2.2012
 8403SOL     OW36841   0.138   0.684   7.594  0.3092 -0.4471  0.6774
 8403SOL    HW136842   0.060   0.740   7.587  1.4607  1.0655  0.1213
 8403SOL    HW236843   0.108   0.593   7.584  0.6363 -0.1181 -3.4741
 8404SOL     OW36844   0.908   1.270   5.100  0.3715  0.3783  0.4011
 8404SOL    HW136845   0.815   1.288   5.110  0.7994  1.3387  2.7172
 8404SOL    HW236846   0.891   1.237   5.012 -0.3488 -0.3549  0.8151
 8405SOL     OW36847   2.949   1.690   8.100  0.4780  0.0469  0.0519
 8405SOL    HW136848   2.961   1.674   8.193  0.8453  2.2870  0.3987
 8405SOL    HW236849   2.856   1.669   8.093  0.8339 -1.2797 -0.6413
 8406SOL     OW36850   4.646   4.357   1.137  0.2342  0.5902  0.0802
 8406SOL    HW136851   4.656   4.358   1.041  0.2136 -1.4736  0.0699
 8406SOL    HW236852   4.553   4.340   1.151 -0.1321 -0.1986 -3.1575
 8407SOL     OW36853   2.345   4.500   8.417 -0.0108  0.1505 -0.0020
 8407SOL    HW136854   2.309   4.427   8.367  0.1203  0.1469 -0.0909
 8407SOL    HW236855   2.283   4.570   8.396  3.4591  3.0617 -0.5854
 8408SOL     OW36856   0.011   4.324   3.699  0.2552  0.0424  0.4365
 8408SOL    HW136857   0.087   4.317   3.756  1.0950  0.2917 -0.6473
 8408SOL    HW236858   4.713   4.406   3.734 -0.7549 -0.9615  1.7020
 8409SOL     OW36859   4.338   4.097   7.175 -0.1293 -0.2836 -0.2309
 8409SOL    HW136860   4.360   4.173   7.227  0.0144  1.2651 -2.5482
 8409SOL    HW236861   4.411   4.035   7.169 -1.1326 -1.4065 -1.0644
 8410SOL     OW36862   2.443   1.929   6.712  0.5862 -0.2330  0.0313
 8410SOL    HW136863   2.407   1.994   6.772  0.3613 -0.3050 -0.0270
 8410SOL    HW236864   2.397   1.847   6.725  1.5297 -0.9660 -1.1947
 8411SOL     OW36865   2.704   2.583  15.697 -0.2828 -0.0674  0.0114
 8411SOL    HW136866   2.664   2.506  15.656  2.3577 -0.8174 -1.1516
 8411SOL    HW236867   2.655   2.604  15.777 -0.4018  0.8688 -0.3115
 8412SOL     OW36868   3.195   4.734  12.218  0.5531  0.7909  0.3431
 8412SOL    HW136869   3.166   0.075  12.262  1.0918  1.6746 -0.9337
 8412SOL    HW236870   3.116   4.685  12.196  1.1129 -0.5330  1.2677
 8413SOL     OW36871   4.082   1.630   2.117 -0.5556 -0.4073  0.4115
 8413SOL    HW136872   4.132   1.675   2.050  0.6596 -0.7033  1.0949
 8413SOL    HW236873   4.021   1.699   2.142 -1.9641 -0.9956 -1.4764
 8414SOL     OW36874   0.524   0.786   5.271 -0.2866  0.1920 -0.0990
 8414SOL    HW136875   0.496   0.716   5.329  2.0568 -1.1667 -0.5995
 8414SOL    HW236876   0.557   0.732   5.199  1.7364  2.0631 -0.5769
 8415SOL     OW36877   0.576   1.368   2.931  0.2242 -0.3019 -0.3084
 8415SOL    HW136878   0.637   1.354   3.003  1.0953  0.8778 -0.8313
 8415SOL    HW236879   0.615   1.311   2.865  0.7527  2.3534 -2.2705
 8416SOL     OW36880   0.798   0.417   0.896  0.0440  0.0292 -0.2415
 8416SOL    HW136881   0.819   0.501   0.937  0.4587  0.0935 -0.5986
 8416SOL    HW236882   0.703   0.424   0.910 -0.3754 -0.9455 -2.6671
 8417SOL     OW36883   3.483   0.301   3.465  0.0006  0.3856  0.4916
 8417SOL    HW136884   3.450   0.241   3.532  1.6251 -1.4111 -0.2899
 8417SOL    HW236885   3.535   0.239   3.414 -1.7184 -0.0262 -0.7491
 8418SOL     OW36886   0.299   2.616   8.838  0.0796 -0.6502 -0.1480
 8418SOL    HW136887   0.376   2.565   8.814  2.0729  1.7267  1.0917
 8418SOL    HW236888   0.340   2.676   8.901  0.8399 -1.7677  0.4104
 8419SOL     OW36889   2.708   1.423  17.284  0.0700  0.2546 -0.0679
 8419SOL    HW136890   2.768   1.354  17.256 -1.2505 -0.8210 -0.2019
 8419SOL    HW236891   2.699   1.474  17.204  0.0557  0.2910 -0.0431
 8420SOL     OW36892   4.121   1.472   3.786 -0.2676  0.0936 -0.3058
 8420SOL    HW136893   4.215   1.470   3.804 -1.0953 -0.1051  4.0363
 8420SOL    HW236894   4.113   1.544   3.724 -0.7030 -0.1243 -0.5021
 8421SOL     OW36895   1.922   3.812   1.903 -0.4057 -0.5761 -0.7677
 8421SOL    HW136896   1.950   3.722   1.886  0.2187 -0.6662  0.7657
 8421SOL    HW236897   1.998   3.854   1.862  0.0318 -0.8219 -0.1893
 8422SOL     OW36898   0.986   3.961   8.564 -0.3468  0.0970  0.0598
 8422SOL    HW136899   0.972   3.948   8.658  1.6368 -1.2179  0.1792
 8422SOL    HW236900   1.077   3.933   8.553 -0.9259 -2.5010  2.0913
 8423SOL     OW36901   2.707   3.193   4.196 -0.0483  0.6156 -0.2484
 8423SOL    HW136902   2.611   3.194   4.196 -0.0385  1.1653  0.0433
 8423SOL    HW236903   2.734   3.251   4.266 -0.0583 -0.9806  1.0789
 8424SOL     OW36904   0.171   4.594   0.242 -0.2840  0.5334 -0.4917
 8424SOL    HW136905   0.202   4.675   0.201  2.7158  0.8158  2.3173
 8424SOL    HW236906   0.250   4.542   0.231  0.3292  1.8252 -2.1953
 8425SOL     OW36907   3.290   3.860  15.396 -0.2413 -0.0352  0.0812
 8425SOL    HW136908   3.353   3.900  15.335  0.7843 -1.7257  0.0161
 8425SOL    HW236909   3.263   3.775  15.360  0.1100 -0.2956  0.4336
 8426SOL     OW36910   0.530   2.796   3.226  0.1127  0.4399  0.2246
 8426SOL    HW136911   0.476   2.718   3.234  0.5114 -0.1594 -2.6991
 8426SOL    HW236912   0.610   2.761   3.266 -0.1032 -0.4352 -0.1035
 8427SOL     OW36913   1.594   2.129  11.393 -0.5746  0.4084  0.0016
 8427SOL    HW136914   1.500   2.138  11.381 -0.3343  1.3631 -1.1260
 8427SOL    HW236915   1.606   2.166  11.480  1.5039 -0.1665 -0.0382
 8428SOL     OW36916   4.378   3.761  12.901  0.0330  0.5858 -0.4332
 8428SOL    HW136917   4.459   3.715  12.923  0.2503  1.6157  0.9116
 8428SOL    HW236918   4.403   3.845  12.938  1.0090  0.3713 -0.6207
 8429SOL     OW36919   0.226   3.247  17.145  0.2144  0.0652  0.2512
 8429SOL    HW136920   0.153   3.188  17.163  0.4788 -0.3866 -0.1565
 8429SOL    HW236921   0.223   3.269  17.052  0.2306 -0.9799  0.0009
 8430SOL     OW36922   0.206   3.858  11.255 -0.1938 -0.3316 -0.6584
 8430SOL    HW136923   0.301   3.860  11.243  0.1307  1.2865  2.1612
 8430SOL    HW236924   0.188   3.917  11.329  2.7361  1.4228 -1.3511
 8431SOL     OW36925   2.819   3.796   4.219  0.3903 -0.1660 -0.0164
 8431SOL    HW136926   2.851   3.711   4.189 -2.9818 -2.4762  2.9783
 8431SOL    HW236927   2.776   3.826   4.140 -0.7713 -0.0298  0.6652
 8432SOL     OW36928   0.979   4.035   6.720 -0.3359  0.4447  0.0894
 8432SOL    HW136929   0.925   4.074   6.789  1.1046  1.2734  0.7472
 8432SOL    HW236930   1.057   4.019   6.772 -0.7926 -4.1809 -0.6445
 8433SOL     OW36931   3.466   1.469   1.690 -0.3445 -0.3589 -0.3243
 8433SOL    HW136932   3.465   1.450   1.597  0.9417 -1.9249 -0.0266
 8433SOL    HW236933   3.414   1.402   1.734  1.1116 -0.8107  0.7189
 8434SOL     OW36934   4.592   3.917   2.724 -0.6818 -0.1613 -0.6448
 8434SOL    HW136935   4.583   4.005   2.687 -1.0532 -0.8739 -2.2355
 8434SOL    HW236936   4.679   3.926   2.763 -1.5434  1.0121  1.0250
 8435SOL     OW36937   2.766   2.888   3.675 -0.4558  0.1766 -0.2499
 8435SOL    HW136938   2.794   2.922   3.590 -3.1247 -2.7719 -2.3403
 8435SOL    HW236939   2.695   2.947   3.699 -0.3322  0.2910 -0.1657
 8436SOL     OW36940   0.926   1.506   5.736  0.3455 -0.7095  0.1375
 8436SOL    HW136941   0.960   1.539   5.653 -2.2325  0.9867 -0.2342
 8436SOL    HW236942   0.908   1.586   5.787 -1.1964  0.3535 -2.0530
 8437SOL     OW36943   0.324   0.185   7.792  0.4297 -0.1027  0.1815
 8437SOL    HW136944   0.324   0.129   7.870  2.8272 -0.1041  0.1780
 8437SOL    HW236945   0.285   0.266   7.826 -1.8610 -2.0439  2.1250
 8438SOL     OW36946   0.039   4.024   2.884  0.3589 -0.4201 -0.1291
 8438SOL    HW136947   0.124   4.021   2.840  0.6873  1.2126  0.3871
 8438SOL    HW236948   0.050   3.953   2.946 -0.7504  0.6759  1.3281
 8439SOL     OW36949   2.074   3.140  16.679  0.2165 -0.3323  0.2284
 8439SOL    HW136950   2.018   3.127  16.602  0.3596 -0.6145  0.1732
 8439SOL    HW236951   2.134   3.208  16.647  0.3465 -0.4239  0.2786
 8440SOL     OW36952   2.127   3.384   2.859  0.3282 -0.3892 -0.0358
 8440SOL    HW136953   2.214   3.380   2.897  1.3622  0.6853 -2.3163
 8440SOL    HW236954   2.065   3.353   2.926 -2.1691 -0.4417 -2.3507
 8441SOL     OW36955   0.306   4.366   9.628 -0.3927 -0.5245 -0.2373
 8441SOL    HW136956   0.366   4.402   9.562 -0.3439 -0.6233 -0.2461
 8441SOL    HW236957   0.236   4.431   9.634  0.5983  0.4760  0.5075
 8442SOL     OW36958   2.433   4.470  14.744 -0.4109  0.1088  0.6933
 8442SOL    HW136959   2.443   4.383  14.783 -1.8520 -2.1103 -3.8605
 8442SOL    HW236960   2.371   4.514  14.802  0.7661  3.6702 -0.7681
 8443SOL     OW36961   3.421   4.569   9.363 -0.1398  0.6914  0.3306
 8443SOL    HW136962   3.377   4.532   9.286 -1.8085  1.8420  0.7287
 8443SOL    HW236963   3.406   4.500   9.428  1.4745 -0.5649 -0.6415
 8444SOL     OW36964   4.306   4.479   3.763  1.0876  0.0583  0.3696
 8444SOL    HW136965   4.292   4.506   3.854  0.2917 -0.6639  0.4591
 8444SOL    HW236966   4.352   4.395   3.756 -0.0747 -0.5346 -0.1000
 8445SOL     OW36967   0.985   2.588   5.563 -0.2014 -0.3261 -0.1845
 8445SOL    HW136968   1.017   2.669   5.604  0.9974 -0.5649 -0.6671
 8445SOL    HW236969   0.966   2.620   5.475  0.8390 -0.6306 -0.5121
 8446SOL     OW36970   2.657   2.720   7.465 -0.6090  0.4089  0.5324
 8446SOL    HW136971   2.745   2.693   7.436  0.3286  2.6676  1.2267
 8446SOL    HW236972   2.677   2.811   7.489  0.2569  0.3091  0.1880
 8447SOL     OW36973   1.340   3.197   3.096 -0.4231 -0.3365  0.3436
 8447SOL    HW136974   1.298   3.113   3.080 -0.6367  0.3385 -2.6954
 8447SOL    HW236975   1.328   3.216   3.189 -0.0626  0.6644  0.1868
 8448SOL     OW36976   1.705   2.171  16.249 -0.3758 -0.1804 -0.6976
 8448SOL    HW136977   1.719   2.261  16.276 -0.9021 -0.0544 -0.8536
 8448SOL    HW236978   1.779   2.141  16.303  1.0895  2.2079 -1.3984
 8449SOL     OW36979   2.915   3.093   1.982  0.1905 -0.0168 -0.7192
 8449SOL    HW136980   2.921   3.180   1.944 -2.2072  0.1496 -0.6959
 8449SOL    HW236981   2.873   3.115   2.065  1.4091  0.7817 -0.3166
 8450SOL     OW36982   1.498   1.167   6.636 -0.3296 -0.1209  0.1102
 8450SOL    HW136983   1.532   1.105   6.700  2.7880 -1.8368 -3.2152
 8450SOL    HW236984   1.574   1.186   6.582 -0.7957 -0.5812 -0.7093
 8451SOL     OW36985   2.083   2.904   4.859 -0.3615  0.4379  0.2502
 8451SOL    HW136986   2.098   2.937   4.948  1.4364 -1.4856  0.6678
 8451SOL    HW236987   1.988   2.902   4.862 -0.4128  1.0165 -0.8864
 8452SOL     OW36988   0.665   1.192   7.923 -0.0991 -0.1034 -0.2385
 8452SOL    HW136989   0.670   1.258   7.854 -0.8770 -0.8174 -0.9787
 8452SOL    HW236990   0.604   1.127   7.888  0.5487 -0.3744 -0.8668
 8453SOL     OW36991   4.638   3.842   7.788  0.3885  0.3566 -0.7352
 8453SOL    HW136992   4.605   3.851   7.878 -0.1346 -1.2375 -0.7586
 8453SOL    HW236993   4.571   3.781   7.756 -2.3845  1.6423  2.5778
 8454SOL     OW36994   3.963   0.952   8.677  0.4935 -0.5284  0.4399
 8454SOL    HW136995   3.884   1.005   8.675  1.1343  0.4516  0.8205
 8454SOL    HW236996   3.993   0.963   8.768  0.8498 -0.4824  0.3180
 8455SOL     OW36997   0.287   1.043   9.944  0.3919  0.2260  0.0780
 8455SOL    HW136998   0.304   1.033  10.038  2.0198 -1.6886 -0.4175
 8455SOL    HW236999   0.363   1.097   9.921  0.1311 -0.7914 -3.1393
 8456SOL     OW37000   1.399   2.406   4.622 -0.2494 -0.1930  0.5509
 8456SOL    HW137001   1.403   2.489   4.669 -0.7567  0.7496 -1.0714
 8456SOL    HW237002   1.308   2.379   4.639 -0.1127 -0.6985  0.4930
 8457SOL     OW37003   2.871   3.939  17.341 -0.0715 -0.3215  0.5515
 8457SOL    HW137004   2.787   3.948  17.296  0.0577  0.7313  0.5168
 8457SOL    HW237005   2.854   3.886  17.419  0.2954 -1.1938  0.0292
 8458SOL     OW37006   3.287   3.298   6.455  0.0977  0.2384  0.3761
 8458SOL    HW137007   3.235   3.295   6.536  0.2426  4.0185  0.6157
 8458SOL    HW237008   3.355   3.363   6.475  0.2228  0.6893 -1.4824
 8459SOL     OW37009   1.920   0.121   1.636  0.1169 -0.1499 -0.0654
 8459SOL    HW137010   1.955   0.048   1.585 -0.2191  0.0729 -0.6163
 8459SOL    HW237011   1.930   0.201   1.583 -1.9882  0.8983  1.1202
 8460SOL     OW37012   0.187   3.464   4.298  0.3570  0.3644 -0.2556
 8460SOL    HW137013   0.163   3.381   4.341 -2.3239  1.2722 -0.0322
 8460SOL    HW237014   0.269   3.447   4.251  1.4855  1.7982  1.2183
 8461SOL     OW37015   0.011   1.024   9.862 -0.0278  0.0809  0.3435
 8461SOL    HW137016   0.102   1.008   9.889 -0.7434 -0.7959  2.2803
 8461SOL    HW237017   0.032   1.048   9.772  1.3191 -1.1103  0.3439
 8462SOL     OW37018   0.235   3.210   3.565 -0.6900  0.2214  0.2769
 8462SOL    HW137019   0.311   3.164   3.600 -0.2533 -0.1955 -1.2667
 8462SOL    HW237020   0.227   3.167   3.480  0.3107  1.2412 -0.3350
 8463SOL     OW37021   4.384   2.609   2.074  0.0910  0.3548 -0.2276
 8463SOL    HW137022   4.395   2.515   2.058  0.3709  0.2225  0.7565
 8463SOL    HW237023   4.404   2.622   2.167  2.8905  0.3177 -0.8214
 8464SOL     OW37024   2.731   3.569   1.841  0.0248 -0.1770 -0.1577
 8464SOL    HW137025   2.766   3.628   1.908  0.3274  0.4073 -0.8315
 8464SOL    HW237026   2.669   3.513   1.889 -0.0149  0.4351  0.5059
 8465SOL     OW37027   0.949   3.883   9.989  0.2328  0.0363  0.4523
 8465SOL    HW137028   0.959   3.932  10.070  2.6356  1.0044 -0.4207
 8465SOL    HW237029   0.898   3.812  10.027 -1.1361  0.9075  0.2148
 8466SOL     OW37030   2.262   1.451   5.362  0.0206  0.1241 -0.1169
 8466SOL    HW137031   2.317   1.494   5.297 -1.3868 -1.3413 -2.2774
 8466SOL    HW237032   2.179   1.499   5.358  1.2038  1.9939 -1.8804
 8467SOL     OW37033   0.613   4.563   9.647  0.3066  0.2665  0.6288
 8467SOL    HW137034   0.623   4.529   9.558  2.5158  0.0201  0.9662
 8467SOL    HW237035   0.675   4.517   9.703 -1.0996 -0.1745  1.8083
 8468SOL     OW37036   1.681   1.072   9.358  0.4369 -0.3089  0.1613
 8468SOL    HW137037   1.619   1.029   9.416 -0.8818 -0.2560 -1.1913
 8468SOL    HW237038   1.751   1.007   9.363  0.7003 -0.0811 -0.4635
 8469SOL     OW37039   4.264   1.694   4.673 -0.1501  0.6178  0.4921
 8469SOL    HW137040   4.233   1.641   4.746 -0.1880 -0.3328 -0.2055
 8469SOL    HW237041   4.357   1.671   4.669 -0.2061  0.9445 -2.4627
 8470SOL     OW37042   2.409   4.184   1.899 -0.2964  0.1459 -0.0477
 8470SOL    HW137043   2.443   4.180   1.988 -1.4984  0.0794  0.3990
 8470SOL    HW237044   2.486   4.146   1.857 -1.6004 -2.8755  0.2806
 8471SOL     OW37045   2.783   2.019   5.338 -0.2570  0.0498  0.2397
 8471SOL    HW137046   2.771   2.089   5.273 -0.0445  1.4073  1.6511
 8471SOL    HW237047   2.805   1.954   5.271 -0.4918 -2.0427  2.2259
 8472SOL     OW37048   1.380   2.028   3.651  0.3852 -0.2462 -0.1480
 8472SOL    HW137049   1.299   2.065   3.685  0.5505 -0.4062  0.4093
 8472SOL    HW237050   1.365   2.042   3.557  0.2228 -3.7363 -0.6190
 8473SOL     OW37051   2.720   1.724  13.804  0.4434  0.2330 -0.2566
 8473SOL    HW137052   2.704   1.818  13.813 -1.3260 -0.1052  0.2846
 8473SOL    HW237053   2.773   1.725  13.725  1.0768  1.7261  0.1895
 8474SOL     OW37054   1.596   1.139  10.315 -0.7604  0.0239  0.2532
 8474SOL    HW137055   1.542   1.194  10.372 -0.5728  1.0477 -0.5383
 8474SOL    HW237056   1.646   1.202  10.262  0.9682 -1.5783 -0.0310
 8475SOL     OW37057   0.981   3.300  11.201 -0.5702  0.3386  0.7082
 8475SOL    HW137058   0.918   3.360  11.241 -1.3907 -0.4833  0.6366
 8475SOL    HW237059   1.043   3.370  11.181 -1.0640  0.4494 -0.4232
 8476SOL     OW37060   0.159   1.709   8.626  0.7588  0.5177 -0.3752
 8476SOL    HW137061   0.184   1.635   8.571  1.0690 -0.4237  1.0379
 8476SOL    HW237062   0.245   1.732   8.660  1.1083 -1.9246  0.3514
 8477SOL     OW37063   2.485   3.574   4.643 -0.6710 -0.1457  0.0234
 8477SOL    HW137064   2.501   3.606   4.554  1.2650  3.2063  1.5537
 8477SOL    HW237065   2.566   3.525   4.660  0.7985  2.0148 -0.6834
 8478SOL     OW37066   0.238   0.984   4.036 -0.5966 -0.5253  0.0419
 8478SOL    HW137067   0.251   0.895   4.004 -0.0483  0.5096 -2.5468
 8478SOL    HW237068   0.249   1.024   3.950 -0.4181  0.3261  0.4651
 8479SOL     OW37069   3.967   2.667   3.656  0.0806 -0.9881  0.2669
 8479SOL    HW137070   3.960   2.723   3.734  0.1642 -0.0431 -0.3949
 8479SOL    HW237071   3.940   2.585   3.697  0.9824 -0.6208  1.6040
 8480SOL     OW37072   2.929   2.831   7.115  0.9595  0.4090 -0.0532
 8480SOL    HW137073   2.905   2.920   7.142 -1.5815  0.3063 -1.9443
 8480SOL    HW237074   2.904   2.783   7.194  0.5643 -0.6113 -0.7993
 8481SOL     OW37075   4.425   4.211   1.837 -0.0027  0.1807  0.2477
 8481SOL    HW137076   4.461   4.284   1.785 -0.0651 -0.9155 -1.3529
 8481SOL    HW237077   4.471   4.137   1.797  0.2098 -0.1086  1.0296
 8482SOL     OW37078   2.109   1.244   8.501  0.6213 -0.3071 -0.8565
 8482SOL    HW137079   2.195   1.266   8.465 -0.7419  1.4102 -3.0135
 8482SOL    HW237080   2.109   1.294   8.582 -2.3476  0.4106 -1.2994
 8483SOL     OW37081   4.600   1.170  12.860  0.2370  0.1691  0.5834
 8483SOL    HW137082   4.582   1.263  12.876 -0.6666  0.4691 -2.0784
 8483SOL    HW237083   4.695   1.174  12.859  0.1706  1.7086  0.9668
 8484SOL     OW37084   3.299   2.176   6.904 -0.4557 -0.1919 -0.3704
 8484SOL    HW137085   3.358   2.176   6.829 -0.4367 -1.6276 -0.3590
 8484SOL    HW237086   3.354   2.207   6.976 -2.2633 -0.0042  0.9373
 8485SOL     OW37087   0.964   3.535   1.720 -0.0934 -0.3122  0.4092
 8485SOL    HW137088   0.982   3.462   1.661 -1.6820 -0.2372 -0.1757
 8485SOL    HW237089   0.985   3.506   1.809  1.2184  1.6309  0.7457
 8486SOL     OW37090   1.835   1.453   0.977  0.0192  0.1000 -0.3037
 8486SOL    HW137091   1.849   1.509   1.054  1.6361  0.7457 -1.0810
 8486SOL    HW237092   1.844   1.513   0.903 -1.8454 -1.1117 -1.5219
 8487SOL     OW37093   0.688   2.652   2.848 -0.4832  0.6342  0.1757
 8487SOL    HW137094   0.595   2.628   2.854 -0.3029 -0.3661 -0.9868
 8487SOL    HW237095   0.681   2.728   2.905 -1.1766  2.3530 -2.2008
 8488SOL     OW37096   3.293   2.047   6.185 -0.1903  0.3949 -0.5228
 8488SOL    HW137097   3.261   2.109   6.121  1.6429  0.9733 -0.8975
 8488SOL    HW237098   3.244   1.970   6.157 -0.7781 -0.4362  2.7235
 8489SOL     OW37099   2.201   3.467   6.041  0.4764 -0.0920 -0.3425
 8489SOL    HW137100   2.162   3.494   5.958 -0.8962 -2.4795 -0.4736
 8489SOL    HW237101   2.180   3.542   6.097  1.7524 -0.7044  0.9721
 8490SOL     OW37102   0.235   0.059   6.005 -0.1207  0.2027 -0.1472
 8490SOL    HW137103   0.274   0.119   5.942 -2.4839  0.4625 -1.3588
 8490SOL    HW237104   0.238   0.108   6.087  1.0583 -1.8163  1.0021
 8491SOL     OW37105   2.826   3.475  17.413  0.2212 -0.1761 -0.3787
 8491SOL    HW137106   2.851   3.414  17.344  3.4467 -0.5338  1.1023
 8491SOL    HW237107   2.805   3.561  17.377  0.8813  0.0248 -0.2937
 8492SOL     OW37108   0.762   3.743   0.472 -0.4316  0.6409  0.2254
 8492SOL    HW137109   0.804   3.755   0.557  0.5263 -1.3216  0.0145
 8492SOL    HW237110   0.677   3.712   0.504 -1.2870  1.9695 -0.7195
 8493SOL     OW37111   2.734   0.863  12.809 -0.3221  0.2882 -0.4323
 8493SOL    HW137112   2.649   0.825  12.831  0.0061  0.5238  1.2829
 8493SOL    HW237113   2.708   0.950  12.779  0.2886  0.5400 -0.2294
 8494SOL     OW37114   2.504   2.674   3.844  0.4666  0.0550 -0.2726
 8494SOL    HW137115   2.450   2.626   3.781  0.6274 -0.9088  0.3073
 8494SOL    HW237116   2.590   2.633   3.834  0.2066 -0.3108 -1.0325
 8495SOL     OW37117   2.532   2.849   2.941 -0.3613  0.3098 -0.2177
 8495SOL    HW137118   2.551   2.914   2.874 -0.4586 -1.3369 -1.8273
 8495SOL    HW237119   2.589   2.776   2.918 -1.2631 -0.2678 -0.5982
 8496SOL     OW37120   0.016   2.227   7.825 -0.0687  0.2200  0.4807
 8496SOL    HW137121   0.017   2.287   7.899 -0.2443  1.2828 -0.3863
 8496SOL    HW237122   4.666   2.236   7.794  0.2775  0.1215 -0.5617
 8497SOL     OW37123   2.016   4.381  16.938  0.0649 -0.2728  0.2012
 8497SOL    HW137124   1.948   4.442  16.907 -1.8106 -2.2237  0.4500
 8497SOL    HW237125   1.983   4.292  16.937  0.2714 -0.3322 -1.4520
 8498SOL     OW37126   4.668   3.868   8.856  0.4338 -0.9479  0.1180
 8498SOL    HW137127   4.694   3.783   8.891 -1.3575 -1.3267  0.5514
 8498SOL    HW237128   4.691   3.852   8.764  1.3547 -1.0426  0.3751
 8499SOL     OW37129   3.470   1.325   3.059  0.0644 -0.2317 -0.4939
 8499SOL    HW137130   3.474   1.235   3.092  1.4425  0.0512  0.1056
 8499SOL    HW237131   3.561   1.355   3.063  0.0538  0.0675 -2.4242
 8500SOL     OW37132   3.861   2.494   5.323 -0.2784  0.3056  0.1333
 8500SOL    HW137133   3.830   2.512   5.412 -1.0975  1.8324 -0.4573
 8500SOL    HW237134   3.842   2.402   5.307  2.1405  0.2420 -2.3015
 8501SOL     OW37135   3.086   1.920   7.744 -0.5614  0.3365 -0.5463
 8501SOL    HW137136   3.098   1.905   7.837 -2.7415  0.6364 -0.2340
 8501SOL    HW237137   2.994   1.896   7.735 -0.4510 -0.8136  1.3879
 8502SOL     OW37138   4.315   0.775   9.223  0.3834  0.0004 -0.1154
 8502SOL    HW137139   4.301   0.841   9.155  1.8647 -0.1279 -0.5249
 8502SOL    HW237140   4.239   0.717   9.215  0.9849 -0.7567 -0.2813
 8503SOL     OW37141   3.604   1.706   1.063  0.3287  0.1753  0.4510
 8503SOL    HW137142   3.511   1.706   1.039 -0.2486 -2.4363  2.6897
 8503SOL    HW237143   3.611   1.775   1.129 -0.3976  1.9091 -1.3015
 8504SOL     OW37144   1.447   0.138   4.161  0.0358 -0.6598 -0.0733
 8504SOL    HW137145   1.410   0.085   4.091 -2.4694  0.8087  0.1018
 8504SOL    HW237146   1.505   0.088   4.218  1.3927 -0.7119 -1.5213
 8505SOL     OW37147   4.550   1.089   3.646  0.4700  0.1951 -0.4330
 8505SOL    HW137148   4.595   1.140   3.713  0.4545  0.9366 -0.9840
 8505SOL    HW237149   4.461   1.112   3.673  0.5529  1.2325 -1.0182
 8506SOL     OW37150   1.236   3.505   6.749  0.7784  0.1287 -0.4319
 8506SOL    HW137151   1.294   3.575   6.779 -1.5386  2.6056 -1.7184
 8506SOL    HW237152   1.219   3.539   6.661 -1.8071 -1.2512 -0.4768
 8507SOL     OW37153   0.860   4.430   7.191  0.3893  0.2871  0.3145
 8507SOL    HW137154   0.877   4.454   7.282  1.7031  1.0894 -0.1415
 8507SOL    HW237155   0.908   4.503   7.152 -0.7023  0.1195 -1.3527
 8508SOL     OW37156   0.449   3.838   6.264 -0.3001  0.2878  0.2081
 8508SOL    HW137157   0.496   3.921   6.274 -1.1375  0.5653  1.8511
 8508SOL    HW237158   0.398   3.837   6.345 -1.7994 -1.1803 -0.7579
 8509SOL     OW37159   0.497   2.781   6.255  0.6178 -0.9569 -0.0110
 8509SOL    HW137160   0.487   2.702   6.308 -2.3545 -0.1133  0.6597
 8509SOL    HW237161   0.505   2.838   6.332 -1.3715 -0.6765 -0.0237
 8510SOL     OW37162   4.624   4.502   2.953 -0.2823 -0.1623  0.1662
 8510SOL    HW137163   4.580   4.488   2.870  2.8072 -0.1937 -1.4849
 8510SOL    HW237164   4.578   4.583   2.976 -0.5298 -0.3853  0.4488
 8511SOL     OW37165   3.998   0.523   3.913  0.0430 -0.3160 -0.3178
 8511SOL    HW137166   4.046   0.444   3.889 -1.9792 -1.8187  0.5340
 8511SOL    HW237167   3.933   0.479   3.968 -0.0290  1.0051  0.6542
 8512SOL     OW37168   0.499   1.477  15.125  0.5081  0.3508 -0.1690
 8512SOL    HW137169   0.408   1.450  15.131  0.2586  0.9100 -1.4041
 8512SOL    HW237170   0.506   1.481  15.029  1.0397  0.1104 -0.1390
 8513SOL     OW37171   0.069   3.064   3.188  0.0508 -0.4038  0.3878
 8513SOL    HW137172   0.072   2.980   3.142  0.8385  0.3618 -0.9574
 8513SOL    HW237173   4.725   3.100   3.158  1.0204 -1.2568 -3.2900
 8514SOL     OW37174   1.605   4.585  15.253 -0.4108 -0.1453  0.6895
 8514SOL    HW137175   1.697   4.560  15.262 -0.0719  0.7267 -0.3180
 8514SOL    HW237176   1.593   4.629  15.169 -0.9972  0.0577  0.8800
 8515SOL     OW37177   2.192   2.994   5.130  0.0524 -0.1599 -0.3499
 8515SOL    HW137178   2.258   3.013   5.063 -1.1237  0.9681 -1.1805
 8515SOL    HW237179   2.160   3.079   5.160  0.8765 -0.2068  0.6682
 8516SOL     OW37180   0.059   2.517   8.989  0.5327  0.3696  0.3079
 8516SOL    HW137181   0.154   2.510   8.978  0.8836  0.4471  3.1586
 8516SOL    HW237182   0.060   2.551   9.079  0.3942 -0.5233  0.6417
 8517SOL     OW37183   0.613   3.636  13.560  0.0625 -0.1908  0.4273
 8517SOL    HW137184   0.692   3.648  13.507 -0.3137  0.4792  0.0223
 8517SOL    HW237185   0.558   3.574  13.511 -0.1373 -0.4583  0.9902
 8518SOL     OW37186   4.002   2.557   0.553 -0.1513 -0.3308 -0.5445
 8518SOL    HW137187   4.036   2.552   0.642  0.4678 -1.0993 -0.8228
 8518SOL    HW237188   3.908   2.538   0.560  0.2624 -2.2513 -0.1213
 8519SOL     OW37189   3.718   1.563   4.404  0.3545 -0.4906 -0.2225
 8519SOL    HW137190   3.760   1.519   4.330  0.7915 -0.4720  0.0179
 8519SOL    HW237191   3.790   1.604   4.451  1.2664 -0.8356 -1.3007
 8520SOL     OW37192   3.027   0.779   5.597 -0.4131  0.5069 -0.6514
 8520SOL    HW137193   3.042   0.862   5.643 -2.6494  0.0475  0.9187
 8520SOL    HW237194   3.005   0.722   5.670 -0.4472  0.9442 -0.3192
 8521SOL     OW37195   1.881   3.416   5.949 -0.4728 -0.3302 -0.2014
 8521SOL    HW137196   1.845   3.393   5.863  0.2779 -0.2696 -0.5313
 8521SOL    HW237197   1.939   3.488   5.922 -1.1920  0.5548  0.6032
 8522SOL     OW37198   3.546   2.555   6.423 -0.5123 -0.5453  0.1918
 8522SOL    HW137199   3.548   2.649   6.407 -0.8194 -0.4942  0.4680
 8522SOL    HW237200   3.602   2.528   6.350  2.0641  2.2974  1.1243
 8523SOL     OW37201   1.467   0.060   3.139 -0.0689 -0.1006 -0.3525
 8523SOL    HW137202   1.475   4.706   3.122 -0.7207 -0.0846 -0.7329
 8523SOL    HW237203   1.382   0.075   3.099 -0.0519 -1.5270 -0.9342
 8524SOL     OW37204   0.793   3.010   6.510 -0.0874 -0.2125 -0.0162
 8524SOL    HW137205   0.777   3.072   6.581  1.4058 -0.3098  0.4086
 8524SOL    HW237206   0.715   3.031   6.460 -1.5564 -1.3138  1.8324
 8525SOL     OW37207   3.507   3.392   5.619 -0.4820 -0.0325 -0.6293
 8525SOL    HW137208   3.471   3.480   5.612  0.9454  0.5639 -0.3480
 8525SOL    HW237209   3.551   3.396   5.534  1.7720  0.4952  0.5737
 8526SOL     OW37210   2.570   1.454   9.492 -0.5235  0.0324  0.7470
 8526SOL    HW137211   2.594   1.466   9.583 -1.8642  1.7167  0.8745
 8526SOL    HW237212   2.481   1.488   9.489  0.0862  1.7585  2.2961
 8527SOL     OW37213   2.591   1.809   2.974 -0.4784 -0.6471 -0.3361
 8527SOL    HW137214   2.512   1.849   2.936 -0.0273  0.4036 -0.1663
 8527SOL    HW237215   2.628   1.771   2.894 -2.4155 -0.0401 -1.5406
 8528SOL     OW37216   1.290   3.863  14.876  0.4888  0.2439  0.0154
 8528SOL    HW137217   1.355   3.900  14.935  0.8261 -1.5881  0.7803
 8528SOL    HW237218   1.309   3.907  14.793  0.0108  2.1693  0.9148
 8529SOL     OW37219   3.437   0.400   7.369  0.3609 -0.2743  0.8799
 8529SOL    HW137220   3.441   0.310   7.400  0.6351 -1.0856 -1.4968
 8529SOL    HW237221   3.356   0.419   7.417  0.2168 -2.7818  1.5884
 8530SOL     OW37222   4.469   0.829   1.116  1.0244  0.4514 -0.1862
 8530SOL    HW137223   4.441   0.753   1.065  0.6371  1.7297 -1.8629
 8530SOL    HW237224   4.388   0.866   1.152  0.7192 -0.8712  0.5096
 8531SOL     OW37225   3.222   0.996  11.894 -0.3515  0.2362 -0.4830
 8531SOL    HW137226   3.279   1.012  11.818  2.3083 -1.0659  1.2390
 8531SOL    HW237227   3.143   0.963  11.850  0.4088  0.5026 -2.0372
 8532SOL     OW37228   2.169   1.588   8.173 -0.4263  0.3453  0.3916
 8532SOL    HW137229   2.171   1.678   8.140  2.4991  0.2501  0.3022
 8532SOL    HW237230   2.133   1.598   8.262  0.8709 -0.8427  1.0496
 8533SOL     OW37231   2.414   2.007   8.672  0.4854  0.5847 -0.1920
 8533SOL    HW137232   2.449   2.095   8.663 -0.5227  0.6904 -3.1322
 8533SOL    HW237233   2.468   1.973   8.743  0.7977 -0.0532 -0.7312
 8534SOL     OW37234   2.360   4.433   7.568  0.2097 -0.5762  0.1911
 8534SOL    HW137235   2.304   4.363   7.533  0.0627 -1.1629  1.5972
 8534SOL    HW237236   2.377   4.402   7.657  1.1111 -0.1461  0.1776
 8535SOL     OW37237   1.745   1.436   5.857 -0.6040  0.1498  0.0306
 8535SOL    HW137238   1.793   1.475   5.930  0.5646  0.6335 -0.9945
 8535SOL    HW237239   1.708   1.515   5.817  3.1127  1.2585 -1.2165
 8536SOL     OW37240   2.545   1.418   8.077  0.2473  0.0903 -0.3127
 8536SOL    HW137241   2.469   1.371   8.111  0.9723  0.8033  2.3441
 8536SOL    HW237242   2.519   1.422   7.985 -0.3468 -0.6087 -0.1733
 8537SOL     OW37243   1.443   1.400   9.357 -0.5258 -0.0384 -0.4955
 8537SOL    HW137244   1.350   1.388   9.379  0.0680  0.8561  2.4618
 8537SOL    HW237245   1.441   1.432   9.267  1.5985  0.5798 -0.3214
 8538SOL     OW37246   2.881   4.371  10.465 -0.7510  0.3557  0.1285
 8538SOL    HW137247   2.789   4.379  10.490 -1.1937  1.5684 -1.8781
 8538SOL    HW237248   2.916   4.295  10.512  0.8937 -0.5553 -2.5440
 8539SOL     OW37249   0.008   2.102   7.514 -0.2371  0.3361  0.4574
 8539SOL    HW137250   0.067   2.035   7.550  0.0868  0.8159  0.8287
 8539SOL    HW237251   4.663   2.057   7.520  1.6301 -3.2984 -0.3015
 8540SOL     OW37252   2.948   4.042   7.430  0.5167 -0.2885  0.1355
 8540SOL    HW137253   3.017   4.001   7.482  1.2214  0.0256 -0.5399
 8540SOL    HW237254   2.966   4.008   7.342  0.2824 -1.5233  0.5744
 8541SOL     OW37255   0.471   3.046   7.624 -0.0593  0.0522  0.2936
 8541SOL    HW137256   0.510   3.133   7.619  1.2544 -0.5082  0.6669
 8541SOL    HW237257   0.457   3.028   7.531  0.2539  0.2047  0.2156
 8542SOL     OW37258   4.727   4.136   5.898 -0.0906  0.1076 -0.1501
 8542SOL    HW137259   0.081   4.155   5.911  0.6753 -1.0213 -3.9167
 8542SOL    HW237260   4.718   4.115   5.805  0.3200  0.9293 -0.3798
 8543SOL     OW37261   0.484   1.868   4.194 -0.1679 -0.0176 -0.0547
 8543SOL    HW137262   0.416   1.802   4.199 -2.0003  1.8403 -0.5160
 8543SOL    HW237263   0.518   1.850   4.106  0.2580  3.9314 -0.7056
 8544SOL     OW37264   1.966   3.755   6.722  0.2734  0.3833 -0.1352
 8544SOL    HW137265   2.058   3.767   6.699  0.1951  1.2802 -0.0045
 8544SOL    HW237266   1.967   3.661   6.708 -3.5583  0.2648  0.3892
 8545SOL     OW37267   0.256   0.328   1.263 -0.2377 -0.4835 -0.6011
 8545SOL    HW137268   0.348   0.304   1.250 -0.7724 -3.3794  0.8992
 8545SOL    HW237269   0.210   0.265   1.208 -0.4480  0.4090 -1.4501
 8546SOL     OW37270   0.362   0.099  12.589  0.5550 -0.7648 -0.3975
 8546SOL    HW137271   0.412   0.180  12.579  1.1097 -1.3260 -2.2183
 8546SOL    HW237272   0.334   0.076  12.500  0.3700  1.3411 -0.9074
 8547SOL     OW37273   0.752   0.533   4.178 -0.5001 -0.3181 -0.6118
 8547SOL    HW137274   0.764   0.626   4.161  0.7946 -0.6497 -1.5127
 8547SOL    HW237275   0.831   0.509   4.226 -0.3013  1.4647 -0.0784
 8548SOL     OW37276   0.242   1.000   7.643  0.2769  0.0277  0.2677
 8548SOL    HW137277   0.244   0.922   7.698  1.3087 -0.2492 -0.1701
 8548SOL    HW237278   0.166   1.041   7.685 -1.0231 -1.1910 -0.9223
 8549SOL     OW37279   3.954   3.981   8.142 -0.4471 -0.4150  0.3146
 8549SOL    HW137280   4.008   3.903   8.160  0.1130 -0.2875 -0.8648
 8549SOL    HW237281   3.973   4.033   8.220  0.7049  0.1916 -0.3700
 8550SOL     OW37282   3.912   1.920   9.707  0.1613  0.3419 -0.1122
 8550SOL    HW137283   3.908   1.931   9.612  1.3489  0.6274 -0.1313
 8550SOL    HW237284   4.001   1.885   9.712  0.9023  2.2520  0.0114
 8551SOL     OW37285   0.628   1.968   5.409 -0.1443  0.1932 -0.2957
 8551SOL    HW137286   0.575   1.901   5.451 -1.5758  1.2882 -0.3764
 8551SOL    HW237287   0.706   1.956   5.463 -0.9536  0.0561  0.8454
 8552SOL     OW37288   0.657   1.828   9.092 -0.1112  0.1177 -0.3788
 8552SOL    HW137289   0.582   1.832   9.151  0.8986  0.7475  0.8695
 8552SOL    HW237290   0.701   1.753   9.133  1.3591  1.0177 -0.3118
 8553SOL     OW37291   0.792   3.297   9.214  0.3903  0.4389  0.1339
 8553SOL    HW137292   0.850   3.333   9.281 -0.3665  0.6851  0.6473
 8553SOL    HW237293   0.742   3.374   9.189 -0.9411 -0.2527  0.6655
 8554SOL     OW37294   2.810   0.423   8.540 -1.0250 -0.7505 -0.1733
 8554SOL    HW137295   2.744   0.364   8.577 -1.0488 -0.3584  0.4047
 8554SOL    HW237296   2.852   0.375   8.468  1.0309 -0.7675  1.0432
 8555SOL     OW37297   1.478   4.644   8.988  0.0537 -0.3798  0.0447
 8555SOL    HW137298   1.481   4.667   9.081  0.0923  0.5501 -0.1901
 8555SOL    HW237299   1.563   4.599   8.982  0.9652  1.2513  0.6253
 8556SOL     OW37300   3.670   1.507  17.680  0.2709 -0.1102 -0.0753
 8556SOL    HW137301   3.734   1.512  17.609  0.9850 -0.9799  0.5032
 8556SOL    HW237302   3.731   1.465  17.741 -0.1432 -1.8829 -0.8802
 8557SOL     OW37303   3.545   2.981   2.362 -0.3737 -0.4436 -0.2971
 8557SOL    HW137304   3.459   3.023   2.350 -1.0453 -1.9848 -0.8130
 8557SOL    HW237305   3.577   2.983   2.272  1.9744  2.6403  0.6082
 8558SOL     OW37306   0.629   0.311   5.384  0.8385 -0.0196  0.3079
 8558SOL    HW137307   0.563   0.245   5.404  0.4135  0.2614 -0.1505
 8558SOL    HW237308   0.576   0.381   5.346 -0.0079  0.6670  2.7329
 8559SOL     OW37309   3.809   3.843   7.862 -0.3884 -0.4656  0.1544
 8559SOL    HW137310   3.883   3.781   7.861 -0.3010 -0.3606 -1.1304
 8559SOL    HW237311   3.847   3.904   7.924 -0.9430  1.8974 -1.8055
 8560SOL     OW37312   2.777   4.064  13.483 -0.5161  0.0599  0.9298
 8560SOL    HW137313   2.782   4.150  13.442  0.6460 -0.3267  0.2666
 8560SOL    HW237314   2.682   4.056  13.491 -0.6192  0.0076 -0.4004
 8561SOL     OW37315   2.586   4.720  12.818 -0.3020  0.0549  0.1088
 8561SOL    HW137316   2.591   4.629  12.848  1.1422  0.1098  0.0430
 8561SOL    HW237317   2.618   0.015  12.901  2.0705 -2.5299  0.3017
 8562SOL     OW37318   2.272   3.073   3.302  0.1346 -0.1821 -0.1715
 8562SOL    HW137319   2.341   3.032   3.354  0.9296 -1.8758 -2.5771
 8562SOL    HW237320   2.284   3.028   3.218 -0.5245  0.6942 -0.7306
 8563SOL     OW37321   0.198   1.309   6.695  0.3432  0.0352  0.5063
 8563SOL    HW137322   0.271   1.366   6.723 -0.4502  2.2413 -1.9886
 8563SOL    HW237323   0.129   1.336   6.756 -1.4502  0.0202 -1.5635
 8564SOL     OW37324   4.536   1.949   7.540  0.0221  0.4723  0.2911
 8564SOL    HW137325   4.526   1.854   7.529  0.6029  0.2392  1.8256
 8564SOL    HW237326   4.495   1.973   7.623  0.9114  2.3686  0.1718
 8565SOL     OW37327   2.402   1.639   2.239  0.3485  0.2348 -0.1800
 8565SOL    HW137328   2.379   1.640   2.146 -0.8516  0.0411  0.1213
 8565SOL    HW237329   2.341   1.703   2.275  0.5669 -0.8172  2.0424
 8566SOL     OW37330   2.186   3.156   6.921 -0.0568  0.4424  0.2256
 8566SOL    HW137331   2.105   3.183   6.964 -1.3403 -2.3049 -0.4672
 8566SOL    HW237332   2.233   3.111   6.992 -3.9286 -1.5631  1.5172
 8567SOL     OW37333   4.202   2.500   1.667 -0.1729  0.3879  0.2307
 8567SOL    HW137334   4.135   2.531   1.606  0.2514  0.7511 -0.0480
 8567SOL    HW237335   4.223   2.581   1.714  2.8231  1.5541 -3.0957
 8568SOL     OW37336   1.624   1.785  15.448 -0.6694 -0.0171  0.0559
 8568SOL    HW137337   1.577   1.707  15.416 -0.1958  0.4292 -1.7093
 8568SOL    HW237338   1.625   1.845  15.373  0.9693 -0.6220 -0.3999
 8569SOL     OW37339   3.815   0.545   8.498 -0.2168 -0.1711  0.2561
 8569SOL    HW137340   3.859   0.607   8.440 -0.7939 -0.7629 -0.8209
 8569SOL    HW237341   3.826   0.595   8.579 -0.7133 -0.9135  0.7785
 8570SOL     OW37342   3.619   2.547   4.057 -0.3208 -0.4468 -0.2986
 8570SOL    HW137343   3.627   2.523   4.150  0.0449  1.5755  0.1919
 8570SOL    HW237344   3.701   2.504   4.034  0.2679  1.1479 -1.2019
 8571SOL     OW37345   1.928   1.296   5.049 -0.6424 -0.0390 -0.2291
 8571SOL    HW137346   1.900   1.380   5.012  0.8936 -0.2316 -1.8191
 8571SOL    HW237347   1.898   1.306   5.140  2.6036  1.2120  0.7078
 8572SOL     OW37348   1.702   1.236  12.885 -0.3817 -0.3164 -0.3104
 8572SOL    HW137349   1.628   1.188  12.922 -0.7776  1.0504  0.6893
 8572SOL    HW237350   1.761   1.162  12.868  0.5553  0.0916  1.0922
 8573SOL     OW37351   4.355   4.342   5.783 -0.8567  0.3466  0.5081
 8573SOL    HW137352   4.315   4.406   5.842  0.9695  0.5016  1.5891
 8573SOL    HW237353   4.446   4.364   5.804 -0.8228  0.4820  0.2226
 8574SOL     OW37354   1.380   1.226   1.934  0.0896 -0.1237 -0.0822
 8574SOL    HW137355   1.388   1.295   2.001  0.4763 -0.9270  0.6933
 8574SOL    HW237356   1.286   1.205   1.928  0.0291  0.1398 -0.0689
 8575SOL     OW37357   4.575   3.983   9.450  0.2106 -0.1734  0.0756
 8575SOL    HW137358   4.618   4.039   9.515 -0.1985  2.4495 -1.9212
 8575SOL    HW237359   4.486   4.016   9.442 -0.8153 -3.3702 -1.7855
 8576SOL     OW37360   4.685   4.650   8.276  0.3683 -0.8299  0.2091
 8576SOL    HW137361   4.738   4.598   8.216 -0.0886  1.3700 -2.0889
 8576SOL    HW237362   4.659   4.577   8.332 -1.7190 -0.1575  0.1309
 8577SOL     OW37363   1.785   3.343  16.565  0.1694  0.9207 -0.9147
 8577SOL    HW137364   1.774   3.304  16.652 -0.2689  0.3087 -1.2434
 8577SOL    HW237365   1.694   3.351  16.536 -0.4071 -0.7375  0.4343
 8578SOL     OW37366   1.286   3.804   3.333 -0.2339 -0.3492 -0.1847
 8578SOL    HW137367   1.218   3.815   3.399 -0.6723 -1.9057 -0.3765
 8578SOL    HW237368   1.356   3.760   3.382 -0.4595  1.4418  1.7200
 8579SOL     OW37369   3.926   4.585   4.726 -0.1377 -0.8897 -0.4658
 8579SOL    HW137370   4.006   4.628   4.696  1.6660 -3.1408  1.1066
 8579SOL    HW237371   3.919   4.632   4.809  0.7705 -1.2545 -0.1828
 8580SOL     OW37372   0.015   0.500  14.880 -0.0322 -0.3575  0.3645
 8580SOL    HW137373   0.100   0.536  14.906  0.5888 -0.7627 -1.1113
 8580SOL    HW237374   4.734   0.554  14.803  1.6890  0.6864  0.6441
 8581SOL     OW37375   1.983   1.901   1.485  0.0517  0.0799 -0.0661
 8581SOL    HW137376   2.040   1.911   1.409  0.2908  0.5321  0.1721
 8581SOL    HW237377   1.893   1.894   1.452  0.8500 -1.4107 -1.9047
 8582SOL     OW37378   4.029   3.679   7.829  0.5802  0.1584 -0.2253
 8582SOL    HW137379   3.991   3.622   7.896 -0.1055  0.8850  0.0120
 8582SOL    HW237380   4.110   3.631   7.811 -1.0936 -1.8954 -2.1983
 8583SOL     OW37381   4.046   0.663   5.222  0.0167 -0.4743  0.0010
 8583SOL    HW137382   3.958   0.624   5.229  0.2554 -1.0968 -0.4679
 8583SOL    HW237383   4.076   0.627   5.306  0.1202 -0.8054 -0.1781
 8584SOL     OW37384   0.628   2.782   3.905 -0.2382 -0.0440 -0.0457
 8584SOL    HW137385   0.616   2.749   3.816 -0.9588 -1.2388  0.4905
 8584SOL    HW237386   0.670   2.708   3.950  0.0723 -0.0021 -0.2651
 8585SOL     OW37387   2.109   2.846   4.592 -0.3453  0.0503 -0.2989
 8585SOL    HW137388   2.094   2.874   4.682  1.8309 -0.9330  0.3712
 8585SOL    HW237389   2.199   2.875   4.575 -0.0727 -0.4145  0.3641
 8586SOL     OW37390   3.384   4.418   1.494 -0.5497 -0.6346  0.5641
 8586SOL    HW137391   3.304   4.465   1.469 -0.4058  0.0848  1.4768
 8586SOL    HW237392   3.404   4.481   1.563  0.1769  0.2548 -0.4659
 8587SOL     OW37393   0.281   3.223  11.625  0.5655  0.0200 -0.5786
 8587SOL    HW137394   0.237   3.285  11.683  3.1930  1.1621  0.1813
 8587SOL    HW237395   0.271   3.135  11.662  0.7328 -0.6215 -2.0220
 8588SOL     OW37396   4.504   0.329   4.666 -0.2250  0.2124 -0.1967
 8588SOL    HW137397   4.493   0.237   4.688 -0.0337  0.2802  0.1792
 8588SOL    HW237398   4.570   0.351   4.732  0.8268 -0.0869 -1.1468
 8589SOL     OW37399   3.013   1.088   5.570  0.4691 -0.1450 -0.2496
 8589SOL    HW137400   3.094   1.118   5.611 -1.3894  2.8617  1.2571
 8589SOL    HW237401   2.953   1.161   5.586  0.9057  0.1065  0.2502
 8590SOL     OW37402   2.719   0.206  12.727  0.0002  0.1701 -0.1523
 8590SOL    HW137403   2.708   0.111  12.734  0.5861  0.2984  2.3489
 8590SOL    HW237404   2.807   0.221  12.762  0.3571  1.2122 -1.5124
 8591SOL     OW37405   2.559   0.967   8.031 -0.5139 -0.5599  0.1972
 8591SOL    HW137406   2.506   1.040   8.001 -0.6087 -0.3906  0.8023
 8591SOL    HW237407   2.623   0.960   7.960 -0.5900 -0.0499  0.0788
 8592SOL     OW37408   0.942   3.974   8.859 -0.3981  0.0510 -0.2679
 8592SOL    HW137409   1.011   3.908   8.867  0.2012  0.7048 -0.0630
 8592SOL    HW237410   0.993   4.044   8.899  1.3553 -0.6890 -1.2172
 8593SOL     OW37411   0.895   2.440  13.574 -0.0435  0.1108  0.0829
 8593SOL    HW137412   0.846   2.443  13.657  0.0244 -2.0581  0.1965
 8593SOL    HW237413   0.971   2.494  13.597 -2.1072  2.3640  1.7017
 8594SOL     OW37414   1.731   1.986   3.443 -0.4025  0.6473  0.4404
 8594SOL    HW137415   1.727   2.058   3.505  0.2069 -1.6863  3.1983
 8594SOL    HW237416   1.743   1.906   3.494 -0.4617  0.9911  0.9926
 8595SOL     OW37417   0.109   0.770   9.011 -0.0950 -0.0005 -0.2574
 8595SOL    HW137418   0.201   0.753   8.993 -0.8463 -1.5562 -2.5413
 8595SOL    HW237419   0.063   0.696   8.972 -0.5752  0.1003  0.1195
 8596SOL     OW37420   2.782   4.674   1.190 -0.1874  0.2147 -0.1835
 8596SOL    HW137421   2.873   4.701   1.208  0.2917 -2.1994  1.0589
 8596SOL    HW237422   2.735   0.004   1.236  1.1069  1.7850 -1.2467
 8597SOL     OW37423   3.845   3.906  10.768 -0.4970  0.0048 -0.3557
 8597SOL    HW137424   3.785   3.839  10.735 -1.5068  1.6485 -1.9035
 8597SOL    HW237425   3.850   3.876  10.858  0.7853  0.4089 -0.3027
 8598SOL     OW37426   0.136   1.304  14.599 -0.1424  0.7802  0.0900
 8598SOL    HW137427   0.047   1.313  14.633 -0.1087 -0.2302  0.4335
 8598SOL    HW237428   0.112   1.257  14.519 -0.2409 -1.7492  1.5966
 8599SOL     OW37429   3.291   2.804   3.740 -0.2455 -0.1513 -0.4680
 8599SOL    HW137430   3.239   2.865   3.793 -2.7562 -1.3878 -1.5148
 8599SOL    HW237431   3.371   2.795   3.793  1.9843  3.2261 -3.2149
 8600SOL     OW37432   1.937   4.238  15.492 -0.2791  0.2187  0.3731
 8600SOL    HW137433   1.928   4.239  15.587 -1.0744 -1.4855  0.3028
 8600SOL    HW237434   2.029   4.259  15.479 -0.1250 -0.9615 -0.3851
 8601SOL     OW37435   3.048   0.711  13.195 -0.5355  0.6199  0.5668
 8601SOL    HW137436   3.052   0.686  13.103 -1.7568  0.0970  0.6620
 8601SOL    HW237437   3.024   0.803  13.185 -2.5252  0.1647  1.0756
 8602SOL     OW37438   1.351   1.307   4.480 -0.4542 -0.3822  0.1681
 8602SOL    HW137439   1.406   1.336   4.407  0.5294 -0.2029  0.9866
 8602SOL    HW237440   1.399   1.346   4.552 -2.4907  3.0367 -0.3133
 8603SOL     OW37441   1.092   3.917  14.474 -0.4868 -0.1546 -0.5619
 8603SOL    HW137442   1.080   4.011  14.488 -0.1155 -0.1007 -0.6002
 8603SOL    HW237443   1.054   3.895  14.388  1.6081  0.9410 -1.7692
 8604SOL     OW37444   0.747   2.479   8.893 -0.0435  0.8307  0.5573
 8604SOL    HW137445   0.813   2.413   8.873 -1.6606 -0.0086 -2.1464
 8604SOL    HW237446   0.783   2.525   8.969 -3.4183  2.7247  1.0405
 8605SOL     OW37447   2.275   2.509   5.834  0.3945 -0.8924  0.1371
 8605SOL    HW137448   2.312   2.425   5.859  1.0399 -0.9316 -0.9615
 8605SOL    HW237449   2.234   2.486   5.750 -1.1307  0.5226  0.4721
 8606SOL     OW37450   2.957   0.115   1.505  0.5352 -0.4855 -0.7021
 8606SOL    HW137451   2.878   0.153   1.545  1.0577 -1.1926  0.9910
 8606SOL    HW237452   2.987   0.074   1.586 -0.1643 -1.2310 -0.8163
 8607SOL     OW37453   3.723   0.006   7.436 -0.1271  0.2281 -0.4969
 8607SOL    HW137454   3.733   0.008   7.532  0.7971 -2.5675 -0.5094
 8607SOL    HW237455   3.813   4.731   7.406  0.1455  1.8380 -0.4614
 8608SOL     OW37456   2.846   1.709   6.906 -0.0491  0.8230  0.3414
 8608SOL    HW137457   2.776   1.673   6.961 -1.0180  1.2544 -0.6031
 8608SOL    HW237458   2.794   1.774   6.860 -0.5742 -0.7017 -1.2376
 8609SOL     OW37459   1.138   4.484   6.072 -0.1372 -0.3364 -0.3404
 8609SOL    HW137460   1.204   4.417   6.089 -2.3059 -2.0350  1.4491
 8609SOL    HW237461   1.178   4.570   6.080  1.0753 -0.7452 -2.0357
 8610SOL     OW37462   0.337   1.569   9.563  0.2335  0.3075 -0.4904
 8610SOL    HW137463   0.291   1.501   9.515  1.9060 -0.1531 -1.4492
 8610SOL    HW237464   0.398   1.588   9.491  1.6496 -1.8827  0.1349
 8611SOL     OW37465   1.712   1.932  13.537  0.0364 -0.1980  0.4426
 8611SOL    HW137466   1.775   1.987  13.490 -0.9645 -0.2787 -0.9944
 8611SOL    HW237467   1.733   1.848  13.496 -1.2664 -0.0996 -0.4207
 8612SOL     OW37468   4.607   0.416   1.459 -0.4728 -0.1635  0.0864
 8612SOL    HW137469   4.698   0.397   1.483 -0.0257 -0.0698 -1.5102
 8612SOL    HW237470   4.613   0.407   1.364  1.5147  1.7617  0.0435
 8613SOL     OW37471   1.125   1.282   5.268  0.7945 -0.1207 -0.2102
 8613SOL    HW137472   1.068   1.252   5.340 -0.6186 -0.3005 -1.4054
 8613SOL    HW237473   1.055   1.269   5.204 -0.5766 -1.9122  1.6464
 8614SOL     OW37474   0.207   2.785   7.253  0.5175 -0.3867  0.1051
 8614SOL    HW137475   0.247   2.780   7.167 -1.2716 -1.4137 -0.6730
 8614SOL    HW237476   0.285   2.780   7.308  0.6691 -0.6465 -0.1336
 8615SOL     OW37477   0.838   3.451   5.797 -0.3783 -0.3345 -0.2502
 8615SOL    HW137478   0.817   3.358   5.790  0.2139 -0.5193  0.5411
 8615SOL    HW237479   0.826   3.471   5.890 -2.4490  0.5261 -0.6875
 8616SOL     OW37480   1.653   0.041   4.315  0.2372  0.2871 -0.3290
 8616SOL    HW137481   1.737   0.027   4.272  2.1213  1.5109  2.9849
 8616SOL    HW237482   1.668   4.724   4.391  0.9744 -0.6703 -1.1869
 8617SOL     OW37483   4.702   2.948   9.134  0.1364 -0.3951 -0.0642
 8617SOL    HW137484   4.654   2.933   9.216 -0.5019 -0.8328 -0.5167
 8617SOL    HW237485   0.046   2.936   9.179  0.4948 -0.6297 -0.8051
 8618SOL     OW37486   0.764   0.952   0.865 -0.4925  0.3623  0.0392
 8618SOL    HW137487   0.701   0.895   0.823 -1.0248  0.4043  0.7670
 8618SOL    HW237488   0.806   1.000   0.793  2.1626  0.2883  1.5137
 8619SOL     OW37489   2.541   3.257   0.479  0.0434  0.6614  0.0232
 8619SOL    HW137490   2.482   3.232   0.549  0.2935  2.3472  0.8427
 8619SOL    HW237491   2.600   3.314   0.528  0.6618  0.9449 -1.0343
 8620SOL     OW37492   3.357   3.534   6.694 -0.3163 -0.1940 -0.7058
 8620SOL    HW137493   3.267   3.525   6.663  0.0587 -0.0735 -1.8231
 8620SOL    HW237494   3.417   3.566   6.627  0.2197  2.5375  1.0824
 8621SOL     OW37495   1.322   4.236   2.617 -0.1779  0.0081  0.0192
 8621SOL    HW137496   1.338   4.185   2.538  2.3505  0.3819  0.2996
 8621SOL    HW237497   1.298   4.320   2.578  0.3788 -0.3341 -1.0363
 8622SOL     OW37498   0.827   1.811   3.640  0.4344 -0.0217  0.7510
 8622SOL    HW137499   0.859   1.899   3.620 -1.3082  0.5635  0.5903
 8622SOL    HW237500   0.864   1.796   3.727 -0.3835 -3.0956  0.5840
 8623SOL     OW37501   4.147   2.484   2.471  0.0638  0.4459  0.1747
 8623SOL    HW137502   4.230   2.441   2.492  0.5263  1.3765  0.2545
 8623SOL    HW237503   4.077   2.427   2.503  0.1999 -0.1475 -0.5862
 8624SOL     OW37504   0.778   0.455   3.465  0.3741  0.3285 -0.7488
 8624SOL    HW137505   0.855   0.413   3.426  0.6600  0.4867 -0.3563
 8624SOL    HW237506   0.817   0.540   3.484  1.1601 -0.7149  2.2981
 8625SOL     OW37507   0.804   0.238   8.604  0.2335 -0.1995 -0.4100
 8625SOL    HW137508   0.884   0.258   8.652 -0.5105 -0.0124  0.7282
 8625SOL    HW237509   0.787   0.157   8.651 -2.4015 -0.5056 -1.8524
 8626SOL     OW37510   3.691   3.613  14.730 -0.1943  0.1636  0.1853
 8626SOL    HW137511   3.728   3.527  14.711 -0.7135 -0.0578  0.1796
 8626SOL    HW237512   3.758   3.664  14.776 -0.3530  0.7123 -0.1857
 8627SOL     OW37513   3.720   2.863  11.652  0.4307 -0.1543  0.4652
 8627SOL    HW137514   3.739   2.951  11.618 -0.4258  0.3079  1.1701
 8627SOL    HW237515   3.733   2.812  11.572  1.3478  0.2842  0.3350
 8628SOL     OW37516   1.131   2.286   4.628  0.2260  0.1758  0.1810
 8628SOL    HW137517   1.101   2.340   4.555  0.8601 -0.1296 -0.3099
 8628SOL    HW237518   1.164   2.210   4.578 -2.2823 -1.0682  0.4306
 8629SOL     OW37519   1.148   1.942   2.114 -0.1242  0.0339  0.1653
 8629SOL    HW137520   1.205   2.007   2.072  0.0569 -1.5892 -2.1098
 8629SOL    HW237521   1.115   1.985   2.192  1.1407  0.9509  0.1955
 8630SOL     OW37522   3.888   3.704   3.694  0.1934  0.2886 -0.1995
 8630SOL    HW137523   3.876   3.702   3.789 -2.2194  0.1042 -0.5091
 8630SOL    HW237524   3.907   3.796   3.676  1.4359  0.3327  1.3661
 8631SOL     OW37525   0.240   4.570   4.072 -0.5268 -0.4142  0.3479
 8631SOL    HW137526   0.258   4.527   4.156 -0.8226 -1.5933 -0.2008
 8631SOL    HW237527   0.257   4.661   4.099  0.4222 -1.3021  2.7809
 8632SOL     OW37528   0.144   1.587   6.226  0.2277  0.3245  0.2308
 8632SOL    HW137529   0.056   1.591   6.188  0.3580  1.4035  0.0423
 8632SOL    HW237530   0.175   1.498   6.209 -1.0983 -0.6032  2.7052
 8633SOL     OW37531   0.819   1.287  10.460  0.1356 -0.8562 -0.4685
 8633SOL    HW137532   0.914   1.283  10.464  0.2823  0.9313 -2.2273
 8633SOL    HW237533   0.792   1.263  10.549  0.2814  1.7869  0.2825
 8634SOL     OW37534   0.831   0.991   7.993  0.0298 -0.5278 -0.4636
 8634SOL    HW137535   0.766   1.055   7.965  0.2753  0.3522  0.9458
 8634SOL    HW237536   0.886   1.011   7.917 -0.5310  0.5056 -0.5984
 8635SOL     OW37537   4.110   0.260   3.858 -0.1227  0.6079 -0.5853
 8635SOL    HW137538   4.121   0.260   3.953  2.1469  0.3832 -0.8357
 8635SOL    HW237539   4.167   0.183   3.851  0.6076  1.0024  0.8025
 8636SOL     OW37540   2.148   0.707   1.177 -0.3142  0.5739 -0.7929
 8636SOL    HW137541   2.162   0.756   1.097  1.5775 -0.8984 -1.3635
 8636SOL    HW237542   2.077   0.763   1.209 -0.3867 -0.8784  1.6004
 8637SOL     OW37543   1.660   1.664   3.835  0.1798 -0.3180  0.2217
 8637SOL    HW137544   1.733   1.674   3.896  2.2896 -0.1298 -2.3100
 8637SOL    HW237545   1.698   1.691   3.751 -1.9415  4.1413  0.6955
 8638SOL     OW37546   2.441   3.148   6.780 -0.2717  0.1973  0.0314
 8638SOL    HW137547   2.358   3.193   6.765 -1.0331 -1.3047 -0.1945
 8638SOL    HW237548   2.468   3.139   6.689  0.5032  0.8581  0.1942
 8639SOL     OW37549   1.860   1.539   9.717  0.2865  0.2817 -0.3804
 8639SOL    HW137550   1.782   1.532   9.661 -0.6478 -1.2610  1.1278
 8639SOL    HW237551   1.924   1.511   9.653 -0.3963 -0.5456 -0.7019
 8640SOL     OW37552   0.389   1.832   6.971  0.0895  0.1086 -0.0284
 8640SOL    HW137553   0.299   1.840   7.004  0.1817  0.3754  0.1513
 8640SOL    HW237554   0.405   1.923   6.950  2.7703  0.1884  2.4003
 8641SOL     OW37555   1.191   0.144  16.848 -0.1604  0.0413 -0.3447
 8641SOL    HW137556   1.249   0.078  16.888  0.2161 -0.0822 -1.1036
 8641SOL    HW237557   1.226   0.159  16.760  1.5995  0.3156  0.3835
 8642SOL     OW37558   1.515   3.172  16.868 -0.1995 -0.1872  0.1669
 8642SOL    HW137559   1.479   3.103  16.812  1.5525  0.1897 -1.4156
 8642SOL    HW237560   1.529   3.123  16.949  0.4253  2.7314  1.8492
 8643SOL     OW37561   0.278   2.121   2.593 -0.0547 -0.0790  0.6990
 8643SOL    HW137562   0.302   2.145   2.682  1.2933 -0.8972  0.5564
 8643SOL    HW237563   0.247   2.199   2.546  2.0046  0.4449  0.1992
 8644SOL     OW37564   0.025   1.679  10.766 -0.0111 -0.2880  0.1599
 8644SOL    HW137565   4.682   1.702  10.807 -1.3724 -2.2795 -1.4671
 8644SOL    HW237566   0.081   1.751  10.796  0.1991 -0.6330  0.6048
 8645SOL     OW37567   4.470   1.880   0.715 -0.2124  0.5675  0.0434
 8645SOL    HW137568   4.406   1.906   0.782 -0.1984  0.9572 -0.0904
 8645SOL    HW237569   4.513   1.966   0.715  0.8533  0.0358 -0.7745
 8646SOL     OW37570   2.051   1.115   7.085 -0.3623 -0.3279 -0.4363
 8646SOL    HW137571   2.031   1.154   7.000  1.5957 -1.9905 -1.6549
 8646SOL    HW237572   2.013   1.027   7.082  1.6115 -1.2849  1.8007
 8647SOL     OW37573   2.994   0.252   1.886  0.1802  0.2565  0.7850
 8647SOL    HW137574   3.062   0.189   1.860 -1.7301 -0.7816 -1.6980
 8647SOL    HW237575   3.011   0.253   1.980  2.8089  1.5582  0.2956
 8648SOL     OW37576   3.726   2.006   0.935 -0.4057 -0.0086 -0.0132
 8648SOL    HW137577   3.752   2.096   0.954  1.4001 -1.0350  2.3351
 8648SOL    HW237578   3.806   1.957   0.952 -0.5337 -0.3771 -0.4756
 8649SOL     OW37579   3.007   0.815   9.137 -0.4844  0.2443 -0.6109
 8649SOL    HW137580   3.038   0.724   9.144  0.7315  0.6503 -0.7670
 8649SOL    HW237581   3.053   0.838   9.057  0.7604 -3.1263 -0.8958
 8650SOL     OW37582   1.686   3.073   0.228 -0.4403 -1.0960  0.0289
 8650SOL    HW137583   1.744   3.002   0.199  0.4416 -0.1285 -0.5599
 8650SOL    HW237584   1.600   3.033   0.220 -0.0727 -1.9017  0.0385
 8651SOL     OW37585   0.636   1.024   6.875  1.0927 -0.1615 -0.0018
 8651SOL    HW137586   0.555   0.997   6.918  1.4156 -0.0271  0.7010
 8651SOL    HW237587   0.699   1.027   6.947  1.1507  2.0712 -0.1230
 8652SOL     OW37588   4.321   1.692   3.984 -0.2401 -1.0817  0.2695
 8652SOL    HW137589   4.333   1.605   4.020  3.3125 -1.0656 -0.8587
 8652SOL    HW237590   4.232   1.707   4.015  0.3575  0.8504  1.0303
 8653SOL     OW37591   1.055   2.898   2.763  0.1585 -0.1898  0.5037
 8653SOL    HW137592   1.111   2.956   2.711 -1.5314  0.3136 -0.7297
 8653SOL    HW237593   0.978   2.894   2.707 -0.8912 -0.0374  1.9310
 8654SOL     OW37594   0.855   2.078   7.799 -0.2558  0.0445 -0.4738
 8654SOL    HW137595   0.897   2.158   7.767 -1.6668  0.1117 -2.1686
 8654SOL    HW237596   0.795   2.112   7.866 -1.6026  0.2913 -1.7969
 8655SOL     OW37597   0.610   3.535  10.322 -0.0906 -0.3724  0.5379
 8655SOL    HW137598   0.562   3.609  10.360  2.6260  0.9650  1.3764
 8655SOL    HW237599   0.681   3.580  10.276 -0.9191 -1.0853 -1.4507
 8656SOL     OW37600   4.141   3.545  16.970 -0.6338 -0.7840 -0.2489
 8656SOL    HW137601   4.150   3.615  17.036 -0.1203 -1.4774  0.4127
 8656SOL    HW237602   4.203   3.481  17.006 -1.2388 -0.3222  1.6499
 8657SOL     OW37603   0.312   4.423  12.473  0.5858  0.4160  0.1177
 8657SOL    HW137604   0.344   4.481  12.404  0.3490 -0.7100 -0.9497
 8657SOL    HW237605   0.237   4.472  12.506  0.9694  1.9893 -1.3417
 8658SOL     OW37606   2.957   3.323  14.327 -0.5087 -0.2092  0.5029
 8658SOL    HW137607   2.940   3.234  14.295 -2.8007  0.8733 -1.3214
 8658SOL    HW237608   3.053   3.318  14.334 -0.3111  1.6566 -0.9979
 8659SOL     OW37609   3.731   3.067  10.658  0.3549 -0.0928  0.0670
 8659SOL    HW137610   3.704   3.117  10.581 -0.0937 -0.9511 -0.3317
 8659SOL    HW237611   3.788   3.004  10.614 -2.5648 -1.9706 -1.0933
 8660SOL     OW37612   1.555   1.406   8.086  0.2740  0.3841  0.0733
 8660SOL    HW137613   1.532   1.395   8.179  4.8204  2.4620  1.4443
 8660SOL    HW237614   1.631   1.349   8.072  0.0369 -0.0513  0.5290
 8661SOL     OW37615   0.652   1.691   3.479 -0.0165  0.6340  0.5403
 8661SOL    HW137616   0.586   1.702   3.547  0.3624 -1.1377  1.1904
 8661SOL    HW237617   0.710   1.756   3.518 -1.0813  1.3647  0.8724
 8662SOL     OW37618   2.132   1.375   3.952  0.4625  0.1948 -0.2702
 8662SOL    HW137619   2.115   1.281   3.947  0.5028  0.1550  0.4412
 8662SOL    HW237620   2.224   1.381   3.926 -0.2532 -3.0795 -3.4989
 8663SOL     OW37621   3.004   2.238   1.792  0.1048 -0.6945  0.0606
 8663SOL    HW137622   3.081   2.288   1.818 -2.1943  2.7015  0.3383
 8663SOL    HW237623   3.040   2.150   1.793 -0.0295 -0.7505  0.0424
 8664SOL     OW37624   3.756   2.566   8.152 -0.1741 -0.3164  0.2067
 8664SOL    HW137625   3.793   2.538   8.235  0.3113 -0.4931 -0.0723
 8664SOL    HW237626   3.818   2.518   8.098  0.0342  1.5274 -1.2169
 8665SOL     OW37627   1.027   3.233   3.269 -0.0724  0.1028 -0.4717
 8665SOL    HW137628   1.113   3.270   3.254 -1.2427  3.5761  1.4352
 8665SOL    HW237629   0.963   3.282   3.216 -0.8681 -1.5834 -1.0779
 8666SOL     OW37630   1.202   4.555   3.353  0.1325 -0.3602  0.8712
 8666SOL    HW137631   1.221   4.549   3.260 -1.7292  1.5565  0.3847
 8666SOL    HW237632   1.159   4.639   3.366  0.5937  0.1579 -0.9776
 8667SOL     OW37633   2.078   0.028   8.862  0.4041  0.4088  0.3391
 8667SOL    HW137634   2.126   4.720   8.794 -0.6443 -0.8106  0.4451
 8667SOL    HW237635   2.146   0.084   8.901  0.4813  1.3593 -1.1507
 8668SOL     OW37636   3.825   1.250   6.695  0.1461  0.5383  0.1112
 8668SOL    HW137637   3.822   1.172   6.751 -1.6277  1.3070  1.0960
 8668SOL    HW237638   3.795   1.213   6.613 -0.5244  1.4187 -0.0403
 8669SOL     OW37639   4.664   3.734   9.425 -0.0516 -0.0332  0.1910
 8669SOL    HW137640   4.574   3.706   9.406  0.2730 -1.5119  0.8265
 8669SOL    HW237641   4.647   3.827   9.440 -1.6337 -0.5029  1.3307
 8670SOL     OW37642   3.741   0.193   2.051  0.3264 -0.1470  0.1849
 8670SOL    HW137643   3.784   0.278   2.040 -0.0741 -0.1333 -1.2147
 8670SOL    HW237644   3.810   0.143   2.008  1.9923  2.0872  0.2068
 8671SOL     OW37645   1.160   3.791   8.893  0.2216 -0.2617  0.4013
 8671SOL    HW137646   1.181   3.702   8.868 -0.0124 -0.3957  0.6784
 8671SOL    HW237647   1.214   3.794   8.972 -0.4949 -1.0287  0.9272
 8672SOL     OW37648   0.980   2.140   2.936 -0.0377  0.0946 -0.2662
 8672SOL    HW137649   0.975   2.078   3.009  1.0277  1.1946  0.7164
 8672SOL    HW237650   0.991   2.223   2.981 -1.3019  0.4463 -0.5995
 8673SOL     OW37651   0.595   0.213   4.289  0.1906 -0.1107 -0.1160
 8673SOL    HW137652   0.596   0.180   4.200 -1.0777  0.7277 -0.4450
 8673SOL    HW237653   0.684   0.184   4.309  0.0988 -1.2779 -1.4112
 8674SOL     OW37654   0.451   3.822   3.885  0.2330 -0.3050  0.6382
 8674SOL    HW137655   0.497   3.889   3.834 -0.1689 -1.4285 -1.2193
 8674SOL    HW237656   0.485   3.748   3.835 -0.8338  0.5743 -1.4033
 8675SOL     OW37657   3.328   2.753   6.282 -0.7119  0.1159  0.2664
 8675SOL    HW137658   3.340   2.760   6.187  0.6598 -0.3549  0.4069
 8675SOL    HW237659   3.418   2.762   6.312 -1.0692  1.8571  0.8099
 8676SOL     OW37660   3.849   1.524   3.634 -0.4222 -0.6324  0.0893
 8676SOL    HW137661   3.921   1.585   3.648 -1.3657  0.6652 -0.7830
 8676SOL    HW237662   3.841   1.471   3.713  2.0974  0.4070  1.0313
 8677SOL     OW37663   0.384   2.943   3.397  0.0419 -0.0437 -0.5961
 8677SOL    HW137664   0.431   2.879   3.345  0.3238 -0.4006  0.0965
 8677SOL    HW237665   0.404   3.023   3.348 -0.0549  0.5864  0.3806
 8678SOL     OW37666   2.583   2.650  12.399  0.1735 -0.0884  0.3161
 8678SOL    HW137667   2.537   2.684  12.322 -0.2073 -1.5363 -0.1104
 8678SOL    HW237668   2.674   2.648  12.370  0.7216 -0.0222  2.0403
 8679SOL     OW37669   3.327   2.725  12.715  0.3433 -0.7760  0.4414
 8679SOL    HW137670   3.307   2.726  12.808 -0.3740  1.9607  0.2769
 8679SOL    HW237671   3.242   2.735  12.673 -0.2087  1.9658  2.2102
 8680SOL     OW37672   3.119   0.817   8.837  0.5228 -0.1739  0.1845
 8680SOL    HW137673   3.149   0.870   8.763  0.4984 -0.1921  0.1616
 8680SOL    HW237674   3.065   0.757   8.786  3.0559 -2.3213  0.0511
 8681SOL     OW37675   1.142   0.248   4.293  0.4665  0.1591  0.2223
 8681SOL    HW137676   1.142   0.298   4.211  0.1712 -1.2912 -0.6718
 8681SOL    HW237677   1.217   0.192   4.270 -0.9949 -1.4608 -0.6203
 8682SOL     OW37678   1.567   0.208   9.445  0.2836  0.4314  0.1105
 8682SOL    HW137679   1.643   0.151   9.457 -1.1343 -1.8060 -1.6209
 8682SOL    HW237680   1.608   0.291   9.471  0.2171  0.3209  0.5753
 8683SOL     OW37681   0.218   3.512  17.639 -0.5895  0.0452 -0.5276
 8683SOL    HW137682   0.221   3.433  17.693  2.2277  1.1282  0.9325
 8683SOL    HW237683   0.181   3.485  17.555 -1.3798 -0.9106  0.1177
 8684SOL     OW37684   4.271   3.393   5.922  0.2201  0.2441 -0.1409
 8684SOL    HW137685   4.318   3.309   5.928 -0.6934 -0.1259  1.8471
 8684SOL    HW237686   4.180   3.365   5.912  0.7499 -1.9707  1.0400
 8685SOL     OW37687   3.006   4.172   4.045  0.5583  0.5253  0.4514
 8685SOL    HW137688   2.975   4.159   4.134 -0.3384 -0.1711  0.0398
 8685SOL    HW237689   3.086   4.223   4.059  0.4149  0.9576 -0.2628
 8686SOL     OW37690   3.000   1.155   7.091 -0.0482 -0.0369  0.1380
 8686SOL    HW137691   2.978   1.218   7.160  1.0605 -1.0260  1.4037
 8686SOL    HW237692   2.930   1.171   7.028  0.2260  1.2829  0.1835
 8687SOL     OW37693   0.768   3.196   5.755  0.2213 -0.6827 -0.2765
 8687SOL    HW137694   0.703   3.237   5.697 -0.1342 -1.5760 -0.5152
 8687SOL    HW237695   0.730   3.109   5.762  0.7318 -0.9289 -0.5923
 8688SOL     OW37696   0.091   3.955  10.937  0.1166 -0.1178 -0.0818
 8688SOL    HW137697   0.183   3.945  10.961  0.5977  0.3315 -1.7109
 8688SOL    HW237698   0.081   3.890  10.867  0.4449 -0.0403 -0.1976
 8689SOL     OW37699   4.419   1.888   3.824 -0.1089 -0.2817  0.2499
 8689SOL    HW137700   4.394   1.961   3.882 -0.8916  0.2079 -0.6967
 8689SOL    HW237701   4.384   1.824   3.886 -0.0746 -0.1223  0.4352
 8690SOL     OW37702   3.520   0.207   5.547 -0.4797  0.1543  0.2311
 8690SOL    HW137703   3.505   0.288   5.499  0.3587 -0.8356 -1.6716
 8690SOL    HW237704   3.469   0.221   5.628 -1.2834  1.5158 -0.5127
 8691SOL     OW37705   0.885   2.739   6.124 -0.3529  0.7058 -0.6170
 8691SOL    HW137706   0.971   2.780   6.132  0.5666 -1.7178  1.9611
 8691SOL    HW237707   0.842   2.819   6.094  0.3827  2.4205  2.9590
 8692SOL     OW37708   2.637   3.502   5.046  0.2519 -0.4749 -0.2321
 8692SOL    HW137709   2.717   3.451   5.034 -0.6484 -1.9244 -0.0948
 8692SOL    HW237710   2.665   3.584   5.085  0.2742 -0.4478 -0.3048
 8693SOL     OW37711   2.118   2.364   6.033 -0.8106 -0.0582  0.3820
 8693SOL    HW137712   2.065   2.358   6.113 -0.9459  1.8411  0.4468
 8693SOL    HW237713   2.210   2.373   6.058 -0.8931  0.6576  0.4205
 8694SOL     OW37714   2.654   3.780  16.776  0.0817  0.2147  0.1896
 8694SOL    HW137715   2.576   3.799  16.723  0.3417  0.3680 -0.1427
 8694SOL    HW237716   2.704   3.861  16.775 -0.5885  0.6241 -0.5453
 8695SOL     OW37717   2.791   0.403   6.923  0.6487  0.3970  0.0267
 8695SOL    HW137718   2.887   0.408   6.924  0.5791  2.2099 -1.3940
 8695SOL    HW237719   2.773   0.477   6.865  0.5844 -1.0475 -1.7936
 8696SOL     OW37720   2.150   3.766   3.295  0.2861  0.3739 -0.6340
 8696SOL    HW137721   2.087   3.787   3.364  1.6225  3.5118 -0.3838
 8696SOL    HW237722   2.161   3.671   3.291  2.0898  0.4895  1.3910
 8697SOL     OW37723   3.226   1.323   3.969 -0.2891  0.2534  0.3912
 8697SOL    HW137724   3.156   1.267   4.001 -1.1065  1.2649  0.3900
 8697SOL    HW237725   3.284   1.340   4.043  1.1568  1.2154 -0.9594
 8698SOL     OW37726   2.407   1.320   6.104  0.5945 -0.4460  0.1984
 8698SOL    HW137727   2.499   1.299   6.118  1.0487  2.2997  1.2491
 8698SOL    HW237728   2.375   1.311   6.194  1.4528 -3.4723  0.2045
 8699SOL     OW37729   4.311   2.237   6.748 -0.2056 -0.1895  0.2605
 8699SOL    HW137730   4.237   2.291   6.777  0.1490  0.6057 -0.3438
 8699SOL    HW237731   4.271   2.155   6.718  0.6223 -0.9629  1.2953
 8700SOL     OW37732   2.331   3.422  15.537  0.0613 -0.1222 -0.3803
 8700SOL    HW137733   2.355   3.514  15.533  1.2651 -0.5043 -1.8010
 8700SOL    HW237734   2.386   3.377  15.473  1.2016  0.8101 -0.0657
 8701SOL     OW37735   1.905   0.617   5.471 -0.4468 -0.4254  0.0908
 8701SOL    HW137736   1.859   0.672   5.408  0.0353 -0.6961 -0.4988
 8701SOL    HW237737   1.831   0.610   5.530 -1.3049  2.9461 -0.5773
 8702SOL     OW37738   3.974   2.796  13.231  0.5691 -0.1589  0.5533
 8702SOL    HW137739   3.935   2.853  13.298  2.4452  2.2971 -0.4707
 8702SOL    HW237740   3.917   2.719  13.236  0.6610 -0.1334  2.0126
 8703SOL     OW37741   4.197   1.807   2.712 -0.6178  0.3045 -0.4976
 8703SOL    HW137742   4.233   1.718   2.724 -1.3673  0.0498 -0.1312
 8703SOL    HW237743   4.108   1.790   2.682 -0.0339 -1.8165 -1.0815
 8704SOL     OW37744   2.500   1.863   0.826 -0.3331  0.0666  0.6589
 8704SOL    HW137745   2.519   1.944   0.874  1.6859  0.1311 -0.2457
 8704SOL    HW237746   2.405   1.872   0.820 -0.1216 -0.4097 -3.3314
 8705SOL     OW37747   3.741   1.833   8.373 -0.9172  0.4299 -0.0584
 8705SOL    HW137748   3.678   1.807   8.440 -0.8230  0.2902 -0.0247
 8705SOL    HW237749   3.801   1.759   8.372 -0.9141  0.4361 -0.4835
 8706SOL     OW37750   4.634   4.274   9.878  0.0535  0.5061  0.2286
 8706SOL    HW137751   4.709   4.330   9.898 -0.7099  1.2618  0.9710
 8706SOL    HW237752   4.560   4.331   9.899 -0.8430 -0.4623 -0.3102
 8707SOL     OW37753   1.248   1.679  14.211  0.0639  0.2121  0.0222
 8707SOL    HW137754   1.243   1.591  14.248 -0.1138 -0.9166 -2.6906
 8707SOL    HW237755   1.214   1.654  14.126 -0.3214  0.2000  0.1822
 8708SOL     OW37756   4.073   1.848   8.072 -0.3854  1.0426 -0.0859
 8708SOL    HW137757   4.021   1.915   8.028 -0.4718  2.2295  1.7873
 8708SOL    HW237758   4.060   1.871   8.164 -1.1046 -2.1911  0.6073
 8709SOL     OW37759   1.647   4.110   7.391  0.8848 -0.3788  0.2439
 8709SOL    HW137760   1.595   4.160   7.328 -0.1323 -1.5162  0.2025
 8709SOL    HW237761   1.664   4.026   7.350  3.7475  0.3297 -0.0129
 8710SOL     OW37762   3.176   0.598   9.130 -0.1703 -0.1750  0.0791
 8710SOL    HW137763   3.237   0.531   9.159  0.1052  0.8078  1.7552
 8710SOL    HW237764   3.181   0.582   9.036  0.9824  0.0992  0.0876
 8711SOL     OW37765   3.420   3.993   0.232  0.0141 -0.3691 -0.3262
 8711SOL    HW137766   3.342   4.033   0.271 -0.3929 -0.4029 -1.1131
 8711SOL    HW237767   3.456   3.957   0.313  0.7173 -0.7909 -0.8320
 8712SOL     OW37768   1.736   2.915   6.667 -0.1603  0.3649  0.1213
 8712SOL    HW137769   1.810   2.890   6.722 -1.8858  0.1873  2.3767
 8712SOL    HW237770   1.757   2.858   6.593  1.7252  1.6233 -0.3239
 8713SOL     OW37771   1.813   3.656   2.704  0.1945  0.3112 -0.6314
 8713SOL    HW137772   1.889   3.688   2.752 -1.9726  3.5463  0.6393
 8713SOL    HW237773   1.791   3.589   2.768 -1.0149  0.7933 -0.5264
 8714SOL     OW37774   3.027   0.429   9.548  0.3242  0.4044  0.3621
 8714SOL    HW137775   3.014   0.523   9.555  1.9515  0.6925 -0.3738
 8714SOL    HW237776   2.950   0.414   9.602 -1.1159 -0.7517 -2.0056
 8715SOL     OW37777   0.898   2.768   8.527 -0.1982 -0.6326  0.2645
 8715SOL    HW137778   0.951   2.842   8.555 -0.7154 -0.0785 -0.2296
 8715SOL    HW237779   0.828   2.763   8.592 -0.2596  0.6537  0.2974
 8716SOL     OW37780   4.549   1.580   7.011  0.5896 -0.7011 -0.1161
 8716SOL    HW137781   4.592   1.650   6.964 -0.4446 -1.5421 -2.3113
 8716SOL    HW237782   4.506   1.635   7.077 -0.3184  0.3187 -1.5747
 8717SOL     OW37783   0.220   2.599   3.833  0.5005 -0.1473 -0.4032
 8717SOL    HW137784   0.263   2.520   3.801  0.7959  0.4291 -1.4029
 8717SOL    HW237785   0.219   2.655   3.756 -0.6824 -0.7146 -0.7977
 8718SOL     OW37786   0.744   4.464   5.856 -0.7593  0.2927  0.1754
 8718SOL    HW137787   0.743   4.386   5.799  0.8440  0.0747  0.4339
 8718SOL    HW237788   0.809   4.427   5.916 -1.0379  0.1566  0.3897
 8719SOL     OW37789   2.273   3.406   3.977 -0.7304 -0.6190  0.1294
 8719SOL    HW137790   2.309   3.333   3.926 -0.7876  1.4909 -2.9639
 8719SOL    HW237791   2.188   3.366   3.991 -0.7855 -0.3776  0.4688
 8720SOL     OW37792   0.678   3.499   2.161  0.1306 -0.2586 -0.1530
 8720SOL    HW137793   0.756   3.458   2.200  2.2224  3.0810 -0.8680
 8720SOL    HW237794   0.672   3.581   2.210 -0.1756 -0.3949  0.0392
 8721SOL     OW37795   0.681   3.703  17.613  0.6340 -0.5537  0.0807
 8721SOL    HW137796   0.592   3.692  17.580  1.1728 -0.8340 -1.2741
 8721SOL    HW237797   0.727   3.738  17.537 -0.5389 -2.0918 -1.3196
 8722SOL     OW37798   0.598   3.437  10.859 -0.1596 -0.5181  0.3733
 8722SOL    HW137799   0.566   3.352  10.889 -0.4471 -1.2828 -2.1653
 8722SOL    HW237800   0.619   3.479  10.943  1.9406  0.2839 -0.5594
 8723SOL     OW37801   1.831   1.482  11.895 -0.0431  1.0728  0.0063
 8723SOL    HW137802   1.806   1.534  11.971  0.2079  0.1167  0.7466
 8723SOL    HW237803   1.916   1.465  11.934  0.2779 -0.2766 -1.2794
 8724SOL     OW37804   4.237   3.244   1.267  0.0767 -0.8126 -0.3611
 8724SOL    HW137805   4.182   3.167   1.256 -2.3134  1.1573 -2.1479
 8724SOL    HW237806   4.274   3.237   1.355  2.1876 -1.4775 -1.3072
 8725SOL     OW37807   3.860   3.198   9.377 -0.1726 -0.5453 -0.0584
 8725SOL    HW137808   3.804   3.272   9.403  0.0100 -0.2148 -0.6032
 8725SOL    HW237809   3.910   3.235   9.305  2.9551 -0.9709  1.9350
 8726SOL     OW37810   4.421   2.029  10.896 -0.3542 -0.0165 -0.2816
 8726SOL    HW137811   4.375   2.087  10.957 -0.1323 -0.1002 -0.0312
 8726SOL    HW237812   4.471   2.096  10.851  0.8224 -0.5459  0.2478
 8727SOL     OW37813   4.656   3.490   4.916 -0.1747  0.5663  0.0153
 8727SOL    HW137814   4.681   3.418   4.858  0.4446  1.8766 -1.3583
 8727SOL    HW237815   4.677   3.448   4.999  1.2416 -0.1995 -0.7179
 8728SOL     OW37816   0.030   2.495  11.132  0.2323 -0.3109  0.1764
 8728SOL    HW137817   0.044   2.586  11.155  0.0877 -0.4695  0.8848
 8728SOL    HW237818   0.086   2.490  11.055  1.0073 -0.9743  0.7830
 8729SOL     OW37819   1.881   1.885   8.942  0.2161 -0.4587  0.1560
 8729SOL    HW137820   1.958   1.895   8.887 -0.3330 -1.7505 -0.8296
 8729SOL    HW237821   1.847   1.801   8.911  2.2012 -1.0035 -0.5245
 8730SOL     OW37822   3.609   0.705  13.942 -0.6814 -0.5381 -0.3870
 8730SOL    HW137823   3.696   0.740  13.960  0.4423 -3.3597 -0.3853
 8730SOL    HW237824   3.556   0.780  13.969  0.5545  1.0257 -2.3190
 8731SOL     OW37825   3.806   4.450   8.998 -0.2277 -0.9924 -0.0183
 8731SOL    HW137826   3.749   4.394   8.946  0.3907 -0.8902 -0.7968
 8731SOL    HW237827   3.740   4.507   9.039 -1.2950 -1.3356 -1.2603
 8732SOL     OW37828   4.077   4.041  12.709 -0.2327  0.2828  0.0234
 8732SOL    HW137829   4.172   4.031  12.697 -0.2838  1.2522 -1.3007
 8732SOL    HW237830   4.062   4.006  12.796  1.1024  0.0667  0.1693
 8733SOL     OW37831   4.683   1.708   2.921  0.4454  0.2566 -0.3079
 8733SOL    HW137832   4.676   1.666   3.007  0.9450 -0.5267 -0.6439
 8733SOL    HW237833   4.677   1.624   2.875 -1.9150  0.9104 -1.1996
 8734SOL     OW37834   3.301   3.534   2.955  0.1972 -0.4185 -0.0225
 8734SOL    HW137835   3.288   3.510   3.047 -0.0818  1.1636  0.3512
 8734SOL    HW237836   3.354   3.612   2.969 -0.1584  0.1186 -1.7303
 8735SOL     OW37837   4.450   1.893   5.459  0.1911  0.2632 -0.3450
 8735SOL    HW137838   4.459   1.798   5.464  1.7934  0.4058 -0.7897
 8735SOL    HW237839   4.493   1.909   5.376  0.5391  0.4952 -0.1190
 8736SOL     OW37840   2.094   1.906   8.810 -0.2114 -0.4108  0.4825
 8736SOL    HW137841   2.144   1.983   8.836 -3.6869  2.4302 -1.2567
 8736SOL    HW237842   2.125   1.897   8.720 -0.1534  0.0443  0.4546
 8737SOL     OW37843   3.556   0.197   6.816  0.0581  0.0077 -0.1353
 8737SOL    HW137844   3.563   0.216   6.910 -2.3346 -1.2553  0.3038
 8737SOL    HW237845   3.646   0.171   6.796  1.0005  1.6291  1.9860
 8738SOL     OW37846   2.438   3.992  11.640  0.3165  0.0644 -0.0246
 8738SOL    HW137847   2.511   3.931  11.637  1.2031  1.0416  2.0675
 8738SOL    HW237848   2.484   4.076  11.633 -1.6098  1.1929  0.8879
 8739SOL     OW37849   0.851   1.101   4.884  0.1584 -0.3827 -0.6415
 8739SOL    HW137850   0.796   1.023   4.887 -1.9338  0.9620 -3.3962
 8739SOL    HW237851   0.814   1.129   4.800  1.2010 -0.0608 -0.9901
 8740SOL     OW37852   3.633   3.778   4.817 -0.0102 -0.4826 -0.0991
 8740SOL    HW137853   3.562   3.728   4.776  2.0462 -2.6359 -1.0267
 8740SOL    HW237854   3.665   3.832   4.745  0.0527 -0.4428 -0.0414
 8741SOL     OW37855   4.021   4.573   6.063 -0.4819  0.3640 -0.3227
 8741SOL    HW137856   4.021   4.665   6.034 -1.4833 -0.0708 -1.6980
 8741SOL    HW237857   3.937   4.553   6.021 -0.6693  1.5834 -0.5490
 8742SOL     OW37858   2.789   0.187   8.388 -0.5282 -0.3635  0.6563
 8742SOL    HW137859   2.819   0.154   8.303  1.9774 -0.6823  1.6613
 8742SOL    HW237860   2.705   0.142   8.386 -0.0199 -1.3210  0.9388
 8743SOL     OW37861   3.802   3.721  16.070 -0.3328 -0.1250 -1.0717
 8743SOL    HW137862   3.749   3.768  16.005  0.6376 -0.7623 -2.3221
 8743SOL    HW237863   3.869   3.685  16.012  2.6698  1.9889  1.1100
 8744SOL     OW37864   0.332   0.853  17.084  0.1337  0.1739 -0.4776
 8744SOL    HW137865   0.277   0.800  17.026 -2.0452  3.1564 -1.1185
 8744SOL    HW237866   0.376   0.920  17.032  0.6827  0.0782 -0.1283
 8745SOL     OW37867   0.556   1.309  14.156  0.3534  0.0270  0.0506
 8745SOL    HW137868   0.546   1.301  14.251 -1.1136  0.9235 -0.0229
 8745SOL    HW237869   0.483   1.258  14.120 -0.2418  1.5676 -0.9029
 8746SOL     OW37870   1.223   4.061   1.710 -0.0857  0.1759 -0.2647
 8746SOL    HW137871   1.302   4.009   1.728 -0.3002  0.2978  1.0182
 8746SOL    HW237872   1.156   3.993   1.717  0.2240 -0.0395  0.6952
 8747SOL     OW37873   1.016   2.577   2.481  0.0372  0.0978  0.3217
 8747SOL    HW137874   0.937   2.605   2.527 -0.0909 -0.2759  0.3289
 8747SOL    HW237875   1.030   2.649   2.419 -1.7970 -0.7881 -1.1252
 8748SOL     OW37876   1.252   3.206   1.395  0.2885  0.2466 -0.1840
 8748SOL    HW137877   1.285   3.286   1.354 -0.2171  0.8266  0.5441
 8748SOL    HW237878   1.215   3.165   1.316 -0.9507  2.1822 -0.5873
 8749SOL     OW37879   3.109   4.022   3.244  0.0578 -0.1804 -0.3273
 8749SOL    HW137880   3.195   4.020   3.284 -0.8371  2.3415  1.7285
 8749SOL    HW237881   3.095   3.935   3.206 -0.4043  0.4001 -1.4995
 8750SOL     OW37882   3.691   3.255   6.317  0.2104 -0.4468  0.3545
 8750SOL    HW137883   3.630   3.310   6.367  1.9954  2.3853 -0.5714
 8750SOL    HW237884   3.727   3.202   6.388  1.8630 -0.0070 -0.1620
 8751SOL     OW37885   1.353   4.369  16.550  0.2946  0.1972  0.1894
 8751SOL    HW137886   1.442   4.379  16.585  0.1723 -1.6917  1.0846
 8751SOL    HW237887   1.365   4.284  16.506  0.1835 -0.4846  1.4717
 8752SOL     OW37888   1.418   2.138   8.495  0.2086  0.2918 -0.0970
 8752SOL    HW137889   1.371   2.076   8.551 -1.0064  0.5445 -0.8385
 8752SOL    HW237890   1.350   2.130   8.428  1.7542  3.7881 -2.0616
 8753SOL     OW37891   0.523   2.918   2.691 -0.0674  0.0164  0.6029
 8753SOL    HW137892   0.447   2.976   2.692  1.2037  1.6466  2.2058
 8753SOL    HW237893   0.487   2.842   2.644  0.7951  0.5731 -0.9661
 8754SOL     OW37894   4.633   2.924   4.068  0.2483 -0.0844 -0.5478
 8754SOL    HW137895   4.718   2.919   4.112  0.4108 -0.9060 -0.9556
 8754SOL    HW237896   4.606   3.016   4.075 -1.4122 -0.5790 -0.4683
 8755SOL     OW37897   2.189   3.535   9.995 -0.5845 -0.0737  0.1418
 8755SOL    HW137898   2.105   3.552   9.951 -0.6881 -0.1586  0.3063
 8755SOL    HW237899   2.159   3.516  10.084  1.8348 -0.9088  0.7703
 8756SOL     OW37900   2.147   2.337   9.193  1.2197 -0.7157  0.4142
 8756SOL    HW137901   2.058   2.313   9.167  0.0161  2.6744  1.4297
 8756SOL    HW237902   2.136   2.397   9.268  0.4940 -0.7771  0.3571
 8757SOL     OW37903   0.250   3.139   0.600  0.6242  0.0364 -0.3197
 8757SOL    HW137904   0.265   3.175   0.688  5.1904 -0.1896 -1.0002
 8757SOL    HW237905   0.235   3.214   0.543 -1.4869 -0.5579 -0.5535
 8758SOL     OW37906   1.274   1.205   5.060 -0.3020  0.0800 -0.0916
 8758SOL    HW137907   1.245   1.291   5.030  1.4692  0.6756 -0.0909
 8758SOL    HW237908   1.254   1.202   5.154  1.2359  1.5555  0.2892
 8759SOL     OW37909   2.200   2.884   8.326 -0.4989  0.3619 -0.0097
 8759SOL    HW137910   2.210   2.936   8.246  1.1687 -1.0421 -0.7156
 8759SOL    HW237911   2.287   2.885   8.365 -0.1547 -0.8289 -0.7615
 8760SOL     OW37912   3.146   1.218   0.522  0.3763 -0.3958  0.2679
 8760SOL    HW137913   3.126   1.311   0.534  0.7348 -0.0444 -1.9741
 8760SOL    HW237914   3.103   1.194   0.441  1.8519  0.8103 -0.8660
 8761SOL     OW37915   2.495   0.862  13.138 -0.1735  0.1304 -0.2607
 8761SOL    HW137916   2.492   0.816  13.054  2.3439  1.1123 -0.8859
 8761SOL    HW237917   2.423   0.925  13.132 -0.9133 -0.6490  0.5878
 8762SOL     OW37918   3.558   3.932   8.782 -0.4162 -0.2458 -0.0914
 8762SOL    HW137919   3.569   3.862   8.845 -0.2104 -2.5060 -2.6375
 8762SOL    HW237920   3.518   3.890   8.706 -1.5561  0.4430  0.1131
 8763SOL     OW37921   1.831   1.691  13.723  0.3316  0.2419 -0.1602
 8763SOL    HW137922   1.916   1.706  13.681  0.9570  0.0128  1.0462
 8763SOL    HW237923   1.776   1.649  13.656 -0.4876 -1.5279  1.6124
 8764SOL     OW37924   2.238   3.689  15.786  0.0469  0.1009  0.0949
 8764SOL    HW137925   2.276   3.763  15.833  0.3244  0.7103 -1.1130
 8764SOL    HW237926   2.286   3.687  15.703  0.5488  1.8463  0.3467
 8765SOL     OW37927   0.388   3.428  12.082 -0.7101  0.1912 -0.2965
 8765SOL    HW137928   0.354   3.393  11.999  0.0994  0.5905 -0.7876
 8765SOL    HW237929   0.440   3.505  12.060  0.9366  0.0276  2.9443
 8766SOL     OW37930   4.519   3.425   6.520  0.3196 -0.3655 -0.0481
 8766SOL    HW137931   4.555   3.462   6.601 -1.0437  0.4249  0.2014
 8766SOL    HW237932   4.512   3.334   6.548  4.9507 -0.8023 -0.3036
 8767SOL     OW37933   3.479   0.224   4.079 -0.4898  0.2472  0.0229
 8767SOL    HW137934   3.474   0.311   4.038 -1.1538  0.7049  1.1013
 8767SOL    HW237935   3.419   0.226   4.153  0.4571  1.8076  0.7554
 8768SOL     OW37936   2.792   1.524  16.767  0.3848 -0.0016 -0.1920
 8768SOL    HW137937   2.799   1.429  16.768 -1.2160 -0.1721 -3.0876
 8768SOL    HW237938   2.843   1.542  16.688  0.0627 -0.5852 -0.5314
 8769SOL     OW37939   2.133   2.192  13.624  0.4535 -0.0225 -0.5302
 8769SOL    HW137940   2.093   2.119  13.577  0.6840  0.4975 -1.5276
 8769SOL    HW237941   2.106   2.170  13.713 -3.5287  0.4390 -1.6031
 8770SOL     OW37942   0.097   0.845   4.538  0.3819 -0.2909  0.2138
 8770SOL    HW137943   0.113   0.796   4.457  1.0824 -0.6046  0.5452
 8770SOL    HW237944   0.180   0.891   4.539  1.1139 -1.6043 -0.1778
 8771SOL     OW37945   3.872   3.760   3.966 -0.2330  0.2546  0.5735
 8771SOL    HW137946   3.952   3.759   4.017  0.5704 -3.6496 -0.7725
 8771SOL    HW237947   3.846   3.852   3.978  1.5439  0.6020  1.7673
 8772SOL     OW37948   2.090   2.271   6.888 -0.1076 -0.0512 -0.6084
 8772SOL    HW137949   2.161   2.236   6.941 -0.5434  0.4193  0.2735
 8772SOL    HW237950   2.022   2.204   6.895  1.7912 -2.0232 -0.9821
 8773SOL     OW37951   1.263   4.056   8.350  0.5798 -0.2828  0.8050
 8773SOL    HW137952   1.336   4.010   8.391  1.4494 -0.2524 -0.7180
 8773SOL    HW237953   1.211   3.980   8.323  1.5047 -0.2786 -0.9543
 8774SOL     OW37954   1.266   1.652   1.529  0.8467  0.9222  0.0950
 8774SOL    HW137955   1.223   1.571   1.557  2.5235 -0.0335 -0.1042
 8774SOL    HW237956   1.186   1.700   1.509 -0.7279 -1.9833 -0.6747
 8775SOL     OW37957   2.408   1.050   4.757 -0.1527  0.4792 -0.1403
 8775SOL    HW137958   2.322   1.030   4.793  0.5715 -1.6463  0.4341
 8775SOL    HW237959   2.456   1.092   4.828  0.3651 -1.2826  0.5633
 8776SOL     OW37960   0.624   2.293   5.928 -0.1307 -0.7350  0.9025
 8776SOL    HW137961   0.674   2.256   5.856 -0.5606  1.4283 -0.4837
 8776SOL    HW237962   0.614   2.207   5.969  2.8836 -1.1033  0.8568
 8777SOL     OW37963   0.931   2.708   5.320  0.5972 -0.2659  0.2539
 8777SOL    HW137964   0.863   2.762   5.361 -0.1288 -2.1878  1.5768
 8777SOL    HW237965   1.004   2.770   5.314 -0.2444  0.8255  1.3019
 8778SOL     OW37966   1.035   3.726   5.736  0.3834  0.1149 -0.5499
 8778SOL    HW137967   1.059   3.732   5.828  1.5648  0.2511 -0.8674
 8778SOL    HW237968   1.098   3.787   5.698  1.3199 -0.3091  0.3248
 8779SOL     OW37969   0.154   2.579   8.197 -0.1636  0.0787 -0.1147
 8779SOL    HW137970   0.124   2.669   8.192 -2.1795 -0.4868  1.7876
 8779SOL    HW237971   0.220   2.581   8.128  1.5261  1.7006  1.5465
 8780SOL     OW37972   1.432   1.496   9.087  0.0619 -0.7934  0.7930
 8780SOL    HW137973   1.497   1.563   9.107 -2.0998  1.1769  1.2681
 8780SOL    HW237974   1.441   1.480   8.993  0.7750 -0.4011  0.7939
 8781SOL     OW37975   1.641   1.166  13.834 -0.1631 -0.1186 -0.1776
 8781SOL    HW137976   1.563   1.211  13.801  0.5734  0.2642 -1.4289
 8781SOL    HW237977   1.700   1.241  13.834  0.3471 -0.5254 -0.5647
 8782SOL     OW37978   3.001   2.045   3.137  0.3845 -0.1619 -1.0496
 8782SOL    HW137979   2.920   2.015   3.180 -0.5140 -0.1628 -2.7618
 8782SOL    HW237980   3.060   1.992   3.191 -0.3550  1.0506  0.9479
 8783SOL     OW37981   0.653   3.359  14.816  0.3516 -0.0896 -0.4733
 8783SOL    HW137982   0.673   3.439  14.767  1.2239 -1.7755 -2.8297
 8783SOL    HW237983   0.724   3.303  14.784  0.0914 -0.8365  0.2675
 8784SOL     OW37984   4.667   1.136   5.270 -0.1424  0.7689 -0.0940
 8784SOL    HW137985   0.008   1.094   5.238 -0.6355 -0.1828 -0.0697
 8784SOL    HW237986   4.595   1.086   5.231 -0.9772  2.3403 -0.5824
 8785SOL     OW37987   0.205   0.293   9.594 -0.1387 -0.2482  0.7459
 8785SOL    HW137988   0.285   0.338   9.568 -0.8112  0.6506  0.2309
 8785SOL    HW237989   0.147   0.325   9.525 -0.2305 -2.6851 -0.3223
 8786SOL     OW37990   2.588   0.946   8.302  0.0318 -0.5429 -0.0531
 8786SOL    HW137991   2.563   0.928   8.212  2.6932  0.3626 -0.9782
 8786SOL    HW237992   2.636   1.028   8.287  0.1501 -0.7088 -0.5647
 8787SOL     OW37993   1.223   2.959   7.829 -0.4704 -0.0514  0.1071
 8787SOL    HW137994   1.228   2.957   7.925  2.4837 -1.1843 -0.0695
 8787SOL    HW237995   1.134   2.926   7.816 -0.3949 -0.2277  0.0290
 8788SOL     OW37996   3.321   2.396  13.840  0.0403  0.3876  0.6821
 8788SOL    HW137997   3.310   2.386  13.935 -1.1735 -0.6649  0.4282
 8788SOL    HW237998   3.233   2.389  13.802  0.2695  0.0132  0.2142
 8789SOL     OW37999   2.976   2.602   2.980 -0.1225  0.1510  0.2060
 8789SOL    HW138000   2.999   2.680   2.930 -0.7308  0.7371  0.8344
 8789SOL    HW238001   2.996   2.625   3.071 -2.1024 -1.6487  1.1100
 8790SOL     OW38002   0.789   0.135  12.755 -0.1245 -0.7048  0.7114
 8790SOL    HW138003   0.874   0.093  12.765 -0.0285 -0.1872  2.0789
 8790SOL    HW238004   0.790   0.187  12.835  0.3830 -1.0699  0.9398
 8791SOL     OW38005   1.635   3.565   7.378  0.0031  0.9584  0.2599
 8791SOL    HW138006   1.628   3.539   7.286  2.7457 -0.5840  0.4912
 8791SOL    HW238007   1.633   3.485   7.429 -1.6537 -0.3325 -1.8129
 8792SOL     OW38008   3.223   2.744  11.780 -0.3935  0.5238 -0.4400
 8792SOL    HW138009   3.161   2.790  11.837  0.1143  0.9522 -0.2246
 8792SOL    HW238010   3.207   2.652  11.801  0.0874  0.4604 -0.3477
 8793SOL     OW38011   2.143   2.615  11.105 -0.3723  0.4904 -0.5825
 8793SOL    HW138012   2.215   2.679  11.112  0.1069 -0.0797 -0.3327
 8793SOL    HW238013   2.190   2.533  11.119 -2.0691 -0.4424 -0.4349
 8794SOL     OW38014   2.777   1.774   6.487  0.3592 -0.0884 -0.2284
 8794SOL    HW138015   2.820   1.690   6.471 -0.2045 -0.1598 -1.4137
 8794SOL    HW238016   2.849   1.835   6.468  3.1566 -2.1014  3.8601
 8795SOL     OW38017   2.194   1.044   7.700  0.1728  0.6267  0.4146
 8795SOL    HW138018   2.125   1.039   7.766  0.8274  0.8954  1.1230
 8795SOL    HW238019   2.195   0.958   7.659 -0.9518  1.5801 -1.5997
 8796SOL     OW38020   1.927   0.863   7.108 -0.0980 -0.5457  0.8429
 8796SOL    HW138021   1.988   0.818   7.166 -0.0554 -0.7475  0.6443
 8796SOL    HW238022   1.876   0.790   7.072 -1.9424  0.0645  2.2037
 8797SOL     OW38023   0.746   2.008   4.699  0.3041 -0.6429  0.0087
 8797SOL    HW138024   0.662   1.997   4.744  0.5444  1.6096  1.0167
 8797SOL    HW238025   0.765   2.095   4.735 -3.5295  1.6030 -3.2492
 8798SOL     OW38026   3.994   2.064   8.594 -0.3689 -0.7758  0.4757
 8798SOL    HW138027   3.993   1.969   8.607  2.9897 -0.5098  2.5609
 8798SOL    HW238028   4.041   2.069   8.510 -0.5143  2.1407  0.5806
 8799SOL     OW38029   4.231   1.897   0.873  0.1169  0.4650  0.3590
 8799SOL    HW138030   4.187   1.963   0.820  0.9844 -0.1451 -1.1220
 8799SOL    HW238031   4.166   1.834   0.903 -0.4356  0.8934  0.0531
 8800SOL     OW38032   1.828   2.384   9.215 -0.6165  0.2576  0.1432
 8800SOL    HW138033   1.759   2.319   9.200 -2.3121  1.7683  1.4617
 8800SOL    HW238034   1.796   2.419   9.298 -0.6214  0.2421  0.1477
 8801SOL     OW38035   0.485   1.008  16.923  0.0119 -0.5412 -0.1213
 8801SOL    HW138036   0.553   1.074  16.941 -2.5925  2.0559  0.1423
 8801SOL    HW238037   0.527   0.972  16.845 -0.3666  0.1621 -0.6529
 8802SOL     OW38038   2.172   0.325  15.026  0.3918  0.1229 -0.4200
 8802SOL    HW138039   2.095   0.382  15.029  0.1782 -0.2579  1.4131
 8802SOL    HW238040   2.240   0.368  15.077 -1.3521 -0.6104  2.5621
 8803SOL     OW38041   1.532   2.967   4.042 -0.0255 -0.1391  0.1349
 8803SOL    HW138042   1.548   2.974   3.948 -1.1807 -0.5654 -0.0846
 8803SOL    HW238043   1.458   2.907   4.035  0.3931 -0.6183 -0.1409
 8804SOL     OW38044   3.913   0.897   7.829  0.2183 -0.1551 -0.1728
 8804SOL    HW138045   3.931   0.945   7.748 -1.4604 -0.7322 -0.8686
 8804SOL    HW238046   3.832   0.848   7.813  1.6080 -2.2626 -0.7872
 8805SOL     OW38047   4.314   0.848   1.910  0.8452 -0.0952 -0.3552
 8805SOL    HW138048   4.385   0.784   1.910 -0.6226 -1.7048 -1.6919
 8805SOL    HW238049   4.305   0.862   1.816  0.2449  2.7952  0.1150
 8806SOL     OW38050   0.164   0.878   7.942  0.1521 -0.7710  0.3517
 8806SOL    HW138051   0.152   0.970   7.968 -1.0342  0.0720 -3.1959
 8806SOL    HW238052   0.187   0.843   8.028  1.1076  2.8486  1.6079
 8807SOL     OW38053   3.187   1.825   6.597  0.6200 -0.1471 -0.6506
 8807SOL    HW138054   3.257   1.761   6.582 -0.6816 -1.5582 -0.6291
 8807SOL    HW238055   3.133   1.776   6.659  3.1601 -3.4138 -1.0049
 8808SOL     OW38056   2.589   4.554  14.527 -0.3331  0.5207 -0.2311
 8808SOL    HW138057   2.548   4.503  14.596  1.4358  0.9565  1.1345
 8808SOL    HW238058   2.594   4.645  14.557 -0.1394  0.3128  0.3589
 8809SOL     OW38059   0.330   1.448   3.605 -0.4108  0.7957 -0.5191
 8809SOL    HW138060   0.268   1.381   3.579 -1.8287  0.4398  3.7158
 8809SOL    HW238061   0.297   1.516   3.546  0.6052 -0.4633 -2.5382
 8810SOL     OW38062   3.212   1.806  13.068  0.0013 -0.0019 -0.9120
 8810SOL    HW138063   3.300   1.787  13.035 -0.2240  1.4942 -2.3800
 8810SOL    HW238064   3.219   1.899  13.086 -0.0119 -0.0611 -0.6034
 8811SOL     OW38065   1.742   3.180   6.629 -0.5083 -0.2169  0.9918
 8811SOL    HW138066   1.718   3.088   6.625  3.1589 -1.0100 -2.0597
 8811SOL    HW238067   1.774   3.203   6.542  1.5313  0.2439  1.8679
 8812SOL     OW38068   0.655   2.751  10.806  0.0935  0.4105 -0.5031
 8812SOL    HW138069   0.732   2.701  10.780 -0.7721 -0.7757 -0.7544
 8812SOL    HW238070   0.697   2.824  10.853  2.6068 -1.7482  0.5839
 8813SOL     OW38071   1.173   4.671   9.936 -0.7125  0.0045  0.0730
 8813SOL    HW138072   1.147   4.647  10.025 -1.4343  2.6689  0.5561
 8813SOL    HW238073   1.156   4.592   9.885  0.2761  0.0128 -0.2833
 8814SOL     OW38074   3.790   4.553   4.135 -0.7272 -0.0351  0.1490
 8814SOL    HW138075   3.881   4.580   4.151 -0.6232 -0.9324  1.1658
 8814SOL    HW238076   3.783   4.570   4.042  0.6101  2.0361  0.4267
 8815SOL     OW38077   4.114   4.301   6.050 -0.4227 -0.3188 -0.4350
 8815SOL    HW138078   4.094   4.389   6.017  2.1300  0.3729 -0.1921
 8815SOL    HW238079   4.108   4.327   6.142 -0.1847  1.9663 -1.0590
 8816SOL     OW38080   3.651   1.571  10.876  0.2413  0.1160  0.3538
 8816SOL    HW138081   3.742   1.597  10.864 -0.0824  0.8474 -0.4771
 8816SOL    HW238082   3.658   1.484  10.916 -0.3319 -0.0012  0.1926
 8817SOL     OW38083   1.439   4.332   9.600 -0.1065  0.0655  0.2274
 8817SOL    HW138084   1.462   4.330   9.507  1.8769 -0.4769  0.7391
 8817SOL    HW238085   1.448   4.239   9.621  0.3371 -0.5044 -2.5325
 8818SOL     OW38086   1.105   1.294   7.958  0.1365 -0.4546 -0.3760
 8818SOL    HW138087   1.199   1.291   7.940  0.1072 -2.5196 -0.2319
 8818SOL    HW238088   1.089   1.355   8.030 -0.7163  0.0638 -1.0089
 8819SOL     OW38089   4.726   0.816   3.199  0.1304  0.0615  0.3981
 8819SOL    HW138090   4.647   0.780   3.159 -0.2939  0.7807  0.5857
 8819SOL    HW238091   0.018   0.879   3.134 -1.2211 -0.3409 -0.6392
 8820SOL     OW38092   1.143   0.732  16.409 -0.8404  0.0712 -0.6648
 8820SOL    HW138093   1.163   0.823  16.386 -0.3896  0.3665  0.9317
 8820SOL    HW238094   1.109   0.710  16.322  1.5420 -1.5515 -1.1959
 8821SOL     OW38095   3.390   2.012   7.221 -0.2692  0.0973 -0.1143
 8821SOL    HW138096   3.382   2.102   7.191  0.0569  0.3012  0.4029
 8821SOL    HW238097   3.304   1.996   7.261 -1.0355 -0.0430 -1.8135
 8822SOL     OW38098   3.194   3.492   8.975 -0.3845 -0.6553  0.6311
 8822SOL    HW138099   3.103   3.506   9.003  0.2157  0.4592  2.0518
 8822SOL    HW238100   3.183   3.434   8.900  0.5313  1.1486 -0.9052
 8823SOL     OW38101   4.393   2.147   8.566 -0.2255 -0.4612  0.2207
 8823SOL    HW138102   4.482   2.172   8.542  0.5559 -1.0708  2.5291
 8823SOL    HW238103   4.386   2.052   8.578  0.1189 -0.5777 -0.5463
 8824SOL     OW38104   3.034   3.169   5.593 -0.1586  0.1652  0.2370
 8824SOL    HW138105   2.990   3.212   5.518  0.7056  0.2132 -0.2402
 8824SOL    HW238106   2.987   3.196   5.672  2.5030 -1.7118  2.4332
 8825SOL     OW38107   2.928   0.030   4.304 -0.3069  0.0799  0.1659
 8825SOL    HW138108   2.836   0.047   4.324 -0.5381 -0.3649 -0.5322
 8825SOL    HW238109   2.971   0.103   4.349 -0.1018 -0.3040  0.5943
 8826SOL     OW38110   1.649   3.215   1.380 -0.0950  0.1767  0.2075
 8826SOL    HW138111   1.652   3.264   1.462  0.1873 -1.6433  1.2865
 8826SOL    HW238112   1.700   3.136   1.397  0.2977  0.1299 -1.2214
 8827SOL     OW38113   4.616   3.097   8.136 -0.4112  0.3631 -0.4266
 8827SOL    HW138114   4.706   3.120   8.112 -0.1638  2.7850  2.8964
 8827SOL    HW238115   4.618   3.117   8.229  0.2672  0.5850 -0.4869
 8828SOL     OW38116   1.532   2.741   1.974 -0.3888 -0.0552  0.8177
 8828SOL    HW138117   1.516   2.833   1.951 -2.0033 -0.5487 -0.0325
 8828SOL    HW238118   1.445   2.702   1.967 -0.4829  0.1021  1.1101
 8829SOL     OW38119   1.551   1.914  13.754 -0.7342  0.0523 -0.4907
 8829SOL    HW138120   1.478   1.926  13.693  0.4292  1.0907 -1.6682
 8829SOL    HW238121   1.631   1.930  13.703  1.0818  0.9504  2.6560
 8830SOL     OW38122   1.993   4.187   9.231 -0.2995 -0.7420  0.3884
 8830SOL    HW138123   1.980   4.265   9.176 -2.4214 -0.2528  1.5759
 8830SOL    HW238124   1.945   4.133   9.168  1.4045 -0.4928 -1.1311
 8831SOL     OW38125   1.623   2.158   1.628 -0.2295 -0.4140 -0.1273
 8831SOL    HW138126   1.638   2.139   1.535 -0.0902 -1.0940  0.0342
 8831SOL    HW238127   1.532   2.189   1.633  0.6547  2.1620  0.1906
 8832SOL     OW38128   4.413   0.165   8.868  0.0737  0.1736  0.2561
 8832SOL    HW138129   4.506   0.147   8.881  0.4485  2.1497  0.2748
 8832SOL    HW238130   4.408   0.119   8.784 -0.4430 -1.0060  0.9274
 8833SOL     OW38131   3.953   3.664  10.015 -0.2244  0.2177 -0.2484
 8833SOL    HW138132   3.871   3.662  10.064 -0.1936  0.9794 -0.1623
 8833SOL    HW238133   3.924   3.673   9.924 -0.5330 -1.1588 -0.2879
 8834SOL     OW38134   3.309   1.921   8.453  0.2464 -0.2675 -0.0097
 8834SOL    HW138135   3.266   1.993   8.407 -0.6301  0.6295  2.2209
 8834SOL    HW238136   3.392   1.968   8.462 -0.6785  1.6533 -1.5737
 8835SOL     OW38137   1.770   3.450  10.178 -0.3929 -0.0723  0.1937
 8835SOL    HW138138   1.723   3.516  10.228  0.9481  1.6387 -0.8105
 8835SOL    HW238139   1.760   3.470  10.085 -2.0154 -0.3174  0.3178
 8836SOL     OW38140   4.242   2.923  13.944 -0.2390  0.0835  0.0813
 8836SOL    HW138141   4.184   2.913  14.020 -0.9699 -0.0648 -0.5012
 8836SOL    HW238142   4.274   3.010  13.966  0.5480  0.3933 -2.3771
 8837SOL     OW38143   4.409   4.506   2.448 -0.0919 -0.1891 -0.4611
 8837SOL    HW138144   4.359   4.586   2.468  0.8709 -0.3317  2.5659
 8837SOL    HW238145   4.460   4.531   2.371 -0.1107 -0.4466 -0.5561
 8838SOL     OW38146   0.300   0.739   9.822 -0.1101  0.0717 -0.6491
 8838SOL    HW138147   0.395   0.728   9.820 -0.3745 -2.6609  0.8108
 8838SOL    HW238148   0.301   0.819   9.875  0.2506  0.3914 -1.1446
 8839SOL     OW38149   1.183   2.618   5.887 -0.1183  0.5865  0.8485
 8839SOL    HW138150   1.276   2.613   5.911  0.8669 -1.0632 -3.2704
 8839SOL    HW238151   1.152   2.535   5.923 -0.1728  0.3233  0.2000
 8840SOL     OW38152   0.444   3.218  12.215  0.0397 -0.3728 -0.2408
 8840SOL    HW138153   0.396   3.291  12.175  2.7865  1.4729 -0.1890
 8840SOL    HW238154   0.419   3.224  12.307  1.1945  0.9973 -0.0109
 8841SOL     OW38155   4.529   0.526   2.174  0.5032 -0.1186  0.5533
 8841SOL    HW138156   4.561   0.613   2.149  0.1678 -0.0955  0.2004
 8841SOL    HW238157   4.613   0.480   2.173  0.7779  0.3784  0.7086
 8842SOL     OW38158   3.753   0.996  17.754  0.4637  0.3050 -0.0748
 8842SOL    HW138159   3.738   1.040  17.670  2.2559  0.8739 -0.0919
 8842SOL    HW238160   3.686   0.927  17.754  2.9670 -2.1400 -0.6800
 8843SOL     OW38161   1.000   0.542  14.397 -0.4706 -0.2142  0.0848
 8843SOL    HW138162   1.071   0.540  14.461 -0.2240  1.0691 -0.1412
 8843SOL    HW238163   1.005   0.633  14.368  0.6429 -1.1651 -2.6793
 8844SOL     OW38164   0.945   0.745  14.822  0.3768  0.2392 -0.0005
 8844SOL    HW138165   0.964   0.757  14.915  0.1601 -1.1228  0.2119
 8844SOL    HW238166   0.947   0.651  14.809 -0.3576  0.3248 -0.7497
 8845SOL     OW38167   4.507   4.181   2.652  0.4216  0.6198 -0.1115
 8845SOL    HW138168   4.585   4.228   2.685  1.2327  0.1680 -1.4054
 8845SOL    HW238169   4.452   4.196   2.729  1.8162 -1.6425  1.3617
 8846SOL     OW38170   1.759   1.794  15.695  0.4703  0.1117 -0.6024
 8846SOL    HW138171   1.739   1.779  15.602  0.8136 -0.1561 -0.6316
 8846SOL    HW238172   1.726   1.713  15.734  0.2096  0.7162  0.4188
 8847SOL     OW38173   4.519   1.458   2.049 -0.1546 -0.4269  0.0012
 8847SOL    HW138174   4.513   1.546   2.087 -0.6998 -0.0273 -1.0057
 8847SOL    HW238175   4.553   1.408   2.122  3.9286  0.3614 -1.3457
 8848SOL     OW38176   2.618   3.599   9.700  0.1856  0.1502 -0.3844
 8848SOL    HW138177   2.565   3.652   9.641 -0.1621 -0.3557 -0.5234
 8848SOL    HW238178   2.704   3.626   9.665  0.2776  0.8515  0.3827
 8849SOL     OW38179   0.560   1.530   1.886  0.0435  0.5221 -0.4119
 8849SOL    HW138180   0.653   1.513   1.873  0.0530  0.8831 -0.8089
 8849SOL    HW238181   0.540   1.558   1.797  3.0554  1.5198 -0.7742
 8850SOL     OW38182   3.352   1.221   8.003  0.0320 -0.1756 -0.0971
 8850SOL    HW138183   3.445   1.240   8.015 -0.2870  0.6851  1.0655
 8850SOL    HW238184   3.368   1.206   7.910 -0.7779  1.7077 -0.5261
 8851SOL     OW38185   2.608   2.148  11.503 -0.2689  0.3058 -0.0402
 8851SOL    HW138186   2.684   2.114  11.456  0.0317  1.6063 -0.4877
 8851SOL    HW238187   2.535   2.100  11.463 -1.0743  0.6986  0.9512
 8852SOL     OW38188   0.506   2.091   4.467  0.2057 -1.3149  0.3825
 8852SOL    HW138189   0.462   2.144   4.401  1.1478 -3.3223 -1.8471
 8852SOL    HW238190   0.548   2.155   4.524  0.0561 -0.1912 -0.7809
 8853SOL     OW38191   3.273   4.320   5.668  0.2354  0.3931  0.1954
 8853SOL    HW138192   3.195   4.265   5.668  1.4360 -1.2943 -2.5527
 8853SOL    HW238193   3.290   4.339   5.760  0.5510  0.0378  0.2151
 8854SOL     OW38194   2.505   1.658   5.577 -0.2902 -0.5951  0.7821
 8854SOL    HW138195   2.410   1.668   5.582 -0.2562 -0.3469  0.9027
 8854SOL    HW238196   2.519   1.748   5.548  1.6729 -0.6301  1.6280
 8855SOL     OW38197   1.884   4.062   8.961 -0.0184  0.0818 -0.2586
 8855SOL    HW138198   1.814   4.023   8.908  0.9730 -2.0967  0.0590
 8855SOL    HW238199   1.912   4.132   8.902  0.6360  0.7120  0.8029
 8856SOL     OW38200   0.484   2.575   4.770 -0.1985  0.0574  0.4491
 8856SOL    HW138201   0.485   2.480   4.786 -1.0161 -0.2628 -1.4303
 8856SOL    HW238202   0.446   2.604   4.853  0.2163 -0.6245  0.8834
 8857SOL     OW38203   3.156   3.587   4.648 -0.1356 -0.0415  0.0537
 8857SOL    HW138204   3.163   3.649   4.575 -0.9792  0.6367  0.5419
 8857SOL    HW238205   3.203   3.622   4.724  0.5782  2.2820 -1.4232
 8858SOL     OW38206   3.737   3.273   4.180  0.4534  0.1649 -0.8518
 8858SOL    HW138207   3.787   3.191   4.177 -1.0998 -0.8318  0.2539
 8858SOL    HW238208   3.810   3.334   4.167  1.4975 -0.3423  2.5427
 8859SOL     OW38209   2.002   3.507   6.957 -0.6110 -0.0725  0.1123
 8859SOL    HW138210   2.085   3.532   6.998  0.0322 -1.0542 -0.5817
 8859SOL    HW238211   2.016   3.477   6.867  1.3622  2.9595 -0.5927
 8860SOL     OW38212   2.572   1.294  12.635 -0.0208 -0.2636  0.3000
 8860SOL    HW138213   2.539   1.383  12.624  0.2639 -0.2332 -0.2923
 8860SOL    HW238214   2.537   1.268  12.720  0.5380  0.3808  0.7324
 8861SOL     OW38215   4.189   4.624   0.419  0.1523 -0.5178 -0.6074
 8861SOL    HW138216   4.192   4.574   0.338  0.7762 -1.8515  0.2499
 8861SOL    HW238217   4.171   4.552   0.479 -0.4739  1.0772  1.1381
 8862SOL     OW38218   3.678   4.366   1.710 -0.6347 -0.1455 -0.6150
 8862SOL    HW138219   3.659   4.384   1.802  0.9558  1.0379 -0.5140
 8862SOL    HW238220   3.763   4.408   1.698  0.4851 -1.8774  1.3435
 8863SOL     OW38221   3.884   0.351   6.681  0.2697 -0.0724 -0.7751
 8863SOL    HW138222   3.854   0.269   6.719 -0.8903  0.1349 -1.2168
 8863SOL    HW238223   3.952   0.368   6.745  0.2825 -1.7278 -0.3635
 8864SOL     OW38224   4.597   2.541   3.097  0.4358  0.0194  0.5653
 8864SOL    HW138225   4.547   2.559   3.177 -0.7289 -2.4363  0.3787
 8864SOL    HW238226   4.524   2.517   3.042  0.3113 -1.0506  1.2099
 8865SOL     OW38227   4.236   3.162  15.854  0.2665 -0.0306 -0.1835
 8865SOL    HW138228   4.208   3.244  15.893 -2.9786 -1.3128  0.1815
 8865SOL    HW238229   4.299   3.179  15.784  1.3317  0.6100  0.9322
 8866SOL     OW38230   0.562   3.675   0.657  0.2639  0.1869 -0.0692
 8866SOL    HW138231   0.467   3.685   0.668  0.1123 -0.1296 -1.0714
 8866SOL    HW238232   0.585   3.636   0.741  2.2956 -1.4071 -1.3776
 8867SOL     OW38233   3.534   1.919   5.216 -0.5989 -0.1112  0.5098
 8867SOL    HW138234   3.494   1.944   5.132 -2.3061 -0.8667  1.1174
 8867SOL    HW238235   3.451   1.924   5.263 -1.5842 -0.7829 -1.1616
 8868SOL     OW38236   0.275   0.909  10.399 -0.2544  0.2506 -0.1100
 8868SOL    HW138237   0.308   0.953  10.477 -0.4680 -0.0470  0.1476
 8868SOL    HW238238   0.330   0.958  10.337  0.7900 -2.0456 -0.9821
 8869SOL     OW38239   3.977   1.516  12.257  0.2616 -0.5587  0.2332
 8869SOL    HW138240   4.029   1.523  12.337 -0.8961 -1.4566  1.0632
 8869SOL    HW238241   3.928   1.434  12.264  0.9273 -0.9415  0.4870
 8870SOL     OW38242   3.175   0.079   5.129 -0.7503 -0.1027  0.1079
 8870SOL    HW138243   3.227   0.040   5.200 -1.4778 -0.7908  0.2629
 8870SOL    HW238244   3.239   0.131   5.081 -0.9055 -0.3522 -0.3710
 8871SOL     OW38245   0.497   1.248   1.922  0.2032  0.4465 -0.1293
 8871SOL    HW138246   0.588   1.261   1.894 -0.2482  3.8355 -0.1215
 8871SOL    HW238247   0.482   1.340   1.943  1.3534  1.3094 -3.0536
 8872SOL     OW38248   0.603   1.715   7.640 -0.0698  0.1641 -0.0998
 8872SOL    HW138249   0.565   1.777   7.702  1.6922 -0.7135  1.8551
 8872SOL    HW238250   0.682   1.704   7.692  1.4854 -0.0628 -2.5196
 8873SOL     OW38251   4.135   4.449   9.242 -0.0946  0.1200  0.2515
 8873SOL    HW138252   4.148   4.509   9.168 -0.6321 -0.4618 -0.3099
 8873SOL    HW238253   4.214   4.395   9.245 -0.9020 -1.0393  0.3469
 8874SOL     OW38254   3.639   2.234   3.819  0.5823  0.0763 -0.2965
 8874SOL    HW138255   3.595   2.151   3.800  0.2890  0.4055 -1.0778
 8874SOL    HW238256   3.579   2.300   3.783 -0.4029 -1.1370 -0.8702
 8875SOL     OW38257   3.294   2.595   3.582  0.2368 -0.2686  0.4047
 8875SOL    HW138258   3.326   2.659   3.645  1.7623 -0.8083  0.1888
 8875SOL    HW238259   3.245   2.545   3.647 -0.2221 -0.0923  0.1987
 8876SOL     OW38260   3.937   1.801   6.563 -0.1021  0.0928  0.1604
 8876SOL    HW138261   3.980   1.880   6.597 -0.1531  1.4211 -2.8862
 8876SOL    HW238262   4.010   1.772   6.508 -0.3665 -1.4347  0.6417
 8877SOL     OW38263   1.336   3.788   6.959 -0.0371 -0.4090  0.2086
 8877SOL    HW138264   1.411   3.803   7.017 -0.6827  0.4469  0.8023
 8877SOL    HW238265   1.387   3.745   6.889  1.1080 -0.3568  1.0109
 8878SOL     OW38266   2.861   2.189   8.762 -0.6014 -0.2717  0.1440
 8878SOL    HW138267   2.884   2.266   8.710  2.4724 -0.6275  0.9589
 8878SOL    HW238268   2.923   2.129   8.721 -2.1055 -0.7489 -1.4480
 8879SOL     OW38269   0.115   2.346  12.627 -0.0963  0.0466 -0.2899
 8879SOL    HW138270   0.168   2.374  12.702 -0.0006  1.5158 -0.9033
 8879SOL    HW238271   0.171   2.293  12.570  2.1522  1.2760  0.7776
 8880SOL     OW38272   2.391   3.581   8.394  0.2316 -0.2080  0.0195
 8880SOL    HW138273   2.343   3.499   8.397  0.7309 -0.4713  0.8141
 8880SOL    HW238274   2.367   3.624   8.476 -0.1745 -0.8144  0.2141
 8881SOL     OW38275   0.971   2.790  16.831 -0.1596  0.0236  0.3944
 8881SOL    HW138276   0.980   2.803  16.926  0.6551 -0.5267  0.3954
 8881SOL    HW238277   0.913   2.714  16.833  0.2889 -0.3179  0.4699
 8882SOL     OW38278   1.228   0.425  16.119  0.0801  0.3445  0.6309
 8882SOL    HW138279   1.293   0.449  16.052  0.3193  1.3244  1.2088
 8882SOL    HW238280   1.188   0.346  16.082 -0.0573  0.1959  1.1027
 8883SOL     OW38281   3.732   3.885  17.240 -0.5558  0.2369 -0.4464
 8883SOL    HW138282   3.679   3.950  17.193  0.9320  1.8243  0.0577
 8883SOL    HW238283   3.667   3.874  17.309 -0.1672 -1.2256 -0.3332
 8884SOL     OW38284   3.168   1.623   0.934  0.2713  0.3541 -0.5501
 8884SOL    HW138285   3.081   1.647   0.903 -0.0223  0.3180  0.2426
 8884SOL    HW238286   3.157   1.637   1.028  1.9244  0.2686 -0.3369
 8885SOL     OW38287   1.454   4.266   8.599 -0.0108 -0.5244 -0.1819
 8885SOL    HW138288   1.374   4.250   8.548 -0.3066  0.6082 -0.0768
 8885SOL    HW238289   1.423   4.328   8.665  0.2668 -0.8910  0.2971
 8886SOL     OW38290   3.294   1.621   8.877 -0.0916  0.3996 -0.5334
 8886SOL    HW138291   3.342   1.542   8.902  1.9148  1.9575  0.4718
 8886SOL    HW238292   3.362   1.663   8.825  1.5788 -1.6917  0.0005
 8887SOL     OW38293   2.180   3.752  14.188  0.7387  0.3065 -0.7263
 8887SOL    HW138294   2.237   3.821  14.222 -0.1551  0.6796  0.0269
 8887SOL    HW238295   2.237   3.675  14.194 -0.1682 -0.2255  1.3810
 8888SOL     OW38296   0.895   4.463  13.540 -0.3321 -0.4179 -0.1739
 8888SOL    HW138297   0.888   4.433  13.449  1.2537 -0.5905 -0.2341
 8888SOL    HW238298   0.911   4.382  13.587 -0.2792  0.0014  0.5246
 8889SOL     OW38299   2.665   0.625   5.879 -0.0149  0.4187 -0.5030
 8889SOL    HW138300   2.603   0.692   5.908  1.0672  1.4799 -0.6355
 8889SOL    HW238301   2.610   0.547   5.871 -0.0017  0.5539 -1.8323
 8890SOL     OW38302   1.572   2.387   0.553  0.2962  0.2715 -0.1365
 8890SOL    HW138303   1.647   2.415   0.606 -0.3585  1.1452  0.3253
 8890SOL    HW238304   1.505   2.371   0.618 -1.6332 -0.7963 -2.4003
 8891SOL     OW38305   4.085   1.199   3.533  0.2510  0.8530 -0.4675
 8891SOL    HW138306   4.122   1.145   3.463  0.6581  1.4298 -0.7038
 8891SOL    HW238307   4.098   1.289   3.503 -0.1588  0.3080 -2.2579
 8892SOL     OW38308   4.628   2.139   6.612  0.2032  0.0840  0.2649
 8892SOL    HW138309   4.594   2.062   6.568 -1.6363  1.5905 -0.9405
 8892SOL    HW238310   4.600   2.130   6.703  0.6144 -0.0989  0.3756
 8893SOL     OW38311   2.467   2.822   2.136  0.1569 -0.5015 -0.0801
 8893SOL    HW138312   2.500   2.909   2.162  0.3921 -0.2241 -1.2854
 8893SOL    HW238313   2.521   2.801   2.059 -0.9371 -0.1046 -0.9560
 8894SOL     OW38314   2.163   0.623   4.413  0.2001  0.0261 -0.0122
 8894SOL    HW138315   2.214   0.549   4.379 -0.4843 -0.1561 -0.6332
 8894SOL    HW238316   2.092   0.577   4.457 -0.7296 -0.3649 -1.9156
 8895SOL     OW38317   2.675   4.557  17.178 -0.0565  0.1964  0.2307
 8895SOL    HW138318   2.631   4.635  17.212 -0.6890 -0.8761  1.8848
 8895SOL    HW238319   2.757   4.554  17.228 -0.2594  1.9942  0.6739
 8896SOL     OW38320   3.465   2.380  11.739  0.2019  0.5693  0.2645
 8896SOL    HW138321   3.493   2.362  11.649  0.7207 -0.2347  0.5822
 8896SOL    HW238322   3.421   2.463  11.725 -1.9315 -0.7214 -0.7870
 8897SOL     OW38323   1.928   3.560   9.906 -0.2003 -0.3772 -0.2676
 8897SOL    HW138324   1.834   3.566   9.886 -0.6683  0.5036  2.1364
 8897SOL    HW238325   1.946   3.469   9.885 -1.0839 -1.1342  2.2817
 8898SOL     OW38326   3.096   3.870   4.227  0.1147 -0.6335 -0.4117
 8898SOL    HW138327   3.007   3.834   4.226 -0.5423  0.9630 -0.4612
 8898SOL    HW238328   3.122   3.864   4.135  2.9937 -1.4180  0.4642
 8899SOL     OW38329   2.113   0.854   4.962 -0.0222 -0.1538 -0.2434
 8899SOL    HW138330   2.097   0.810   4.879  0.2321  1.2151 -1.0174
 8899SOL    HW238331   2.188   0.806   4.998 -0.6767 -1.2518 -0.3511
 8900SOL     OW38332   3.736   0.042   5.670  0.4760  0.3117 -0.0190
 8900SOL    HW138333   3.686   0.087   5.601  1.2259  1.2915  0.0767
 8900SOL    HW238334   3.691   4.700   5.693  2.3122 -0.7483 -0.2077
 8901SOL     OW38335   2.299   1.458  11.290  0.2062 -0.2820  0.4964
 8901SOL    HW138336   2.339   1.446  11.204  0.8566  2.0413  0.4840
 8901SOL    HW238337   2.254   1.541  11.277  0.6612  0.0185  0.8478
 8902SOL     OW38338   4.710   4.047   4.101  0.7617  0.2951  0.3559
 8902SOL    HW138339   0.022   3.998   4.165 -0.2171  1.8863  2.3595
 8902SOL    HW238340   0.042   4.049   4.037 -0.5812  1.1307 -1.1043
 8903SOL     OW38341   2.083   3.512   9.641  0.0188 -0.5465  0.1206
 8903SOL    HW138342   2.017   3.471   9.698  0.1032  1.0736  1.4155
 8903SOL    HW238343   2.094   3.448   9.571  0.9876  0.9630 -1.0910
 8904SOL     OW38344   2.155   4.685   9.180  0.1995  0.7069  0.4280
 8904SOL    HW138345   2.127   4.716   9.266 -1.2546  0.8182 -0.0766
 8904SOL    HW238346   2.112   0.007   9.121  0.4506 -1.3824 -1.9317
 8905SOL     OW38347   3.738   2.318   4.772  0.1495  0.1955  0.3509
 8905SOL    HW138348   3.827   2.352   4.778  0.4829 -0.4129 -1.0366
 8905SOL    HW238349   3.710   2.401   4.732  1.7245  1.5664  2.1255
 8906SOL     OW38350   3.984   0.297  10.103 -0.3392  0.2542  0.7169
 8906SOL    HW138351   4.071   0.336  10.103  0.1636 -0.8612  1.2532
 8906SOL    HW238352   4.009   0.207  10.127  0.2753 -0.5607 -3.0329
 8907SOL     OW38353   3.060   3.428   7.404 -0.1756  0.7419  0.5012
 8907SOL    HW138354   3.046   3.350   7.457 -3.3442  1.3065  0.4702
 8907SOL    HW238355   3.066   3.496   7.472  0.4775 -0.4020  1.5809
 8908SOL     OW38356   3.236   2.804   3.075 -0.1743  0.7688  0.8950
 8908SOL    HW138357   3.266   2.725   3.028 -1.8687  2.0182 -2.2783
 8908SOL    HW238358   3.314   2.859   3.068  0.7324 -0.4947  1.0451
 8909SOL     OW38359   3.408   3.822  12.496 -0.2964  0.0328 -0.3059
 8909SOL    HW138360   3.474   3.779  12.442  0.1256 -0.4694  0.5957
 8909SOL    HW238361   3.446   3.806  12.583  0.7822 -0.6934 -0.9123
 8910SOL     OW38362   3.165   4.293  10.040  0.2713 -0.7348  0.5284
 8910SOL    HW138363   3.161   4.302  10.136  1.4821  2.3700  0.2747
 8910SOL    HW238364   3.198   4.381  10.020 -1.5153  0.5811  3.2602
 8911SOL     OW38365   2.340   3.637   2.256 -0.3990  0.9565  0.1335
 8911SOL    HW138366   2.366   3.545   2.258 -0.8538  0.8181 -0.4582
 8911SOL    HW238367   2.325   3.658   2.349 -1.5724 -0.5887  0.2936
 8912SOL     OW38368   4.093   1.207   7.478  0.1238  0.5272  0.4482
 8912SOL    HW138369   4.176   1.212   7.431 -1.4567  1.0155 -2.3050
 8912SOL    HW238370   4.111   1.174   7.566 -0.9095  1.0403  0.8517
 8913SOL     OW38371   1.011   0.081  13.073 -0.3369  0.3780  0.6994
 8913SOL    HW138372   1.058   0.140  13.131  0.4689  1.4193 -1.0033
 8913SOL    HW238373   1.087   0.035  13.038 -2.1061 -0.0554 -2.6208
 8914SOL     OW38374   3.178   3.040   3.885  0.3803  0.0176  0.7381
 8914SOL    HW138375   3.204   3.065   3.974  1.7153  0.4003  0.2309
 8914SOL    HW238376   3.249   3.083   3.838 -2.2424  3.4444 -0.0659
 8915SOL     OW38377   2.404   0.846   7.175  0.6056 -0.2688 -0.2137
 8915SOL    HW138378   2.321   0.801   7.186  1.6854 -1.2197  3.8753
 8915SOL    HW238379   2.364   0.932   7.188 -0.2218 -0.9439  1.7321
 8916SOL     OW38380   3.827   4.146   2.635 -0.0448  0.0565  0.0877
 8916SOL    HW138381   3.889   4.219   2.641  0.9528 -0.6503 -1.5550
 8916SOL    HW238382   3.806   4.151   2.542  0.1440 -0.8873 -0.0068
 8917SOL     OW38383   3.878   2.615   3.133  0.0844  0.4357  0.6574
 8917SOL    HW138384   3.921   2.628   3.218  1.2911 -1.8925  0.4225
 8917SOL    HW238385   3.907   2.686   3.076  1.2850 -0.4784  0.1231
 8918SOL     OW38386   1.702   1.954  11.211  0.2093  0.4308 -0.3219
 8918SOL    HW138387   1.684   2.003  11.291  1.7881 -1.4253  1.1753
 8918SOL    HW238388   1.631   1.983  11.154  0.0305  1.2692  0.3260
 8919SOL     OW38389   3.369   2.154   7.505  0.1830  0.1421 -0.4254
 8919SOL    HW138390   3.357   2.237   7.551 -1.0427  0.2076 -0.8819
 8919SOL    HW238391   3.282   2.118   7.521  0.5145 -0.9833 -1.1653
 8920SOL     OW38392   1.002   2.253  15.092 -0.1685 -0.0689 -0.3256
 8920SOL    HW138393   1.089   2.225  15.064 -1.3737 -1.8941 -2.2552
 8920SOL    HW238394   1.020   2.325  15.152  2.1338 -0.8494 -0.0584
 8921SOL     OW38395   0.298   0.782   1.416 -0.0894  0.4155  0.7673
 8921SOL    HW138396   0.221   0.838   1.401  0.6601  1.1496 -0.2849
 8921SOL    HW238397   0.365   0.794   1.349  1.0278 -1.1756  1.6272
 8922SOL     OW38398   3.379   1.035   4.260 -0.3691  0.5069  0.2977
 8922SOL    HW138399   3.335   1.091   4.323 -0.0296  0.5446  0.5027
 8922SOL    HW238400   3.455   1.093   4.252  1.1388 -1.0633  2.9930
 8923SOL     OW38401   3.130   0.217  16.383 -0.4024 -0.5180  0.4437
 8923SOL    HW138402   3.177   0.137  16.362 -0.0607  0.2115 -1.5791
 8923SOL    HW238403   3.083   0.194  16.463 -0.2506 -0.1626  0.6370
 8924SOL     OW38404   1.130   0.665   4.128  0.0012  0.1587 -0.3599
 8924SOL    HW138405   1.076   0.744   4.129  2.7885  2.0525  1.6056
 8924SOL    HW238406   1.215   0.700   4.101  0.7507 -1.0084  0.5098
 8925SOL     OW38407   1.915   1.618   1.661  0.6389  0.2481 -0.1858
 8925SOL    HW138408   1.841   1.653   1.711  0.3588 -1.7840  0.8409
 8925SOL    HW238409   1.933   1.692   1.604 -0.1095  1.5018  1.2101
 8926SOL     OW38410   3.334   0.963   1.915 -0.0169  0.1896 -0.2569
 8926SOL    HW138411   3.402   0.969   1.848 -0.3141  1.2910 -0.4605
 8926SOL    HW238412   3.378   1.017   1.980 -1.7041  0.7657  0.4114
 8927SOL     OW38413   4.619   1.645   5.064 -0.7588 -0.7875  0.2811
 8927SOL    HW138414   4.602   1.556   5.095 -2.1579 -0.3805  0.6597
 8927SOL    HW238415   4.714   1.652   5.073 -1.4237  4.7940  2.5153
 8928SOL     OW38416   3.030   2.433   6.484  0.4937  0.1261  0.2332
 8928SOL    HW138417   3.069   2.506   6.436  0.7543 -0.2573 -0.1265
 8928SOL    HW238418   2.936   2.446   6.476  0.6646  1.7521  0.7108
 8929SOL     OW38419   1.746   0.367   9.093  0.3797 -0.5571  0.1269
 8929SOL    HW138420   1.763   0.460   9.107 -0.0542 -0.0120 -2.8564
 8929SOL    HW238421   1.836   0.334   9.102  0.8377  0.5116 -0.4789
 8930SOL     OW38422   3.906   3.725  14.869  0.2499 -0.0556 -0.2480
 8930SOL    HW138423   3.931   3.633  14.870  1.4080  0.2577  0.2179
 8930SOL    HW238424   3.984   3.779  14.883 -1.1453  2.5181 -2.3730
 8931SOL     OW38425   1.888   1.856  15.386 -0.1303 -0.0109  0.2158
 8931SOL    HW138426   1.795   1.863  15.362  0.0621 -2.2666 -1.1446
 8931SOL    HW238427   1.916   1.779  15.338 -0.3954 -0.3205  0.5548
 8932SOL     OW38428   3.998   3.532   6.654 -0.3421 -0.3094 -0.1612
 8932SOL    HW138429   4.010   3.619   6.618  1.6276 -0.4292  0.2323
 8932SOL    HW238430   4.075   3.483   6.626  0.5628 -0.4638  2.5256
 8933SOL     OW38431   2.251   4.471  16.480 -0.4433  0.1072  0.0324
 8933SOL    HW138432   2.192   4.538  16.446  0.0498  0.3796 -0.2793
 8933SOL    HW238433   2.228   4.464  16.573  0.1173 -0.4336  0.1305
 8934SOL     OW38434   2.463   4.326   4.358 -0.1057 -0.1583  0.0322
 8934SOL    HW138435   2.469   4.275   4.277 -2.2068  0.2875 -0.4097
 8934SOL    HW238436   2.526   4.398   4.347  0.2004 -0.6541 -1.5558
 8935SOL     OW38437   3.078   2.614   1.933  0.1649  0.4299 -0.0018
 8935SOL    HW138438   3.078   2.601   2.028  1.0792  0.1850 -0.0362
 8935SOL    HW238439   2.986   2.639   1.925 -0.1076  0.0056  1.9067
 8936SOL     OW38440   0.520   4.388   3.924 -0.3094  0.0168 -0.1152
 8936SOL    HW138441   0.501   4.476   3.893  0.1938  0.1085 -0.1667
 8936SOL    HW238442   0.603   4.362   3.882 -0.6294  0.6581 -1.1631
 8937SOL     OW38443   3.481   4.543   4.905 -0.1632 -0.6191 -0.5445
 8937SOL    HW138444   3.392   4.530   4.938 -0.9539  0.1517 -2.3308
 8937SOL    HW238445   3.464   4.538   4.811  0.1597 -2.3869 -0.5060
 8938SOL     OW38446   4.084   2.149   9.804 -0.2121 -0.0898  0.5256
 8938SOL    HW138447   4.049   2.078   9.750  2.6932  0.5976 -2.2452
 8938SOL    HW238448   4.156   2.100   9.844 -2.3101 -2.6497  1.2025
 8939SOL     OW38449   0.285   1.403   1.359  0.7009 -0.7013 -0.3910
 8939SOL    HW138450   0.343   1.407   1.283 -1.8003 -0.6970 -2.2895
 8939SOL    HW238451   0.335   1.348   1.419 -0.1921  0.9496  1.8638
 8940SOL     OW38452   3.124   1.989   1.821  0.0004  0.9038  0.2959
 8940SOL    HW138453   3.164   1.924   1.763 -0.2944  1.8763 -0.9820
 8940SOL    HW238454   3.073   1.927   1.873 -1.7715  1.1595 -1.1691
 8941SOL     OW38455   2.247   2.085   3.210  0.2954 -0.1219 -0.4812
 8941SOL    HW138456   2.276   1.993   3.213  0.6194 -0.0507 -1.2121
 8941SOL    HW238457   2.208   2.092   3.123  1.2264 -2.9708 -1.1585
 8942SOL     OW38458   0.656   2.770   4.673 -0.7905  0.5110  0.2369
 8942SOL    HW138459   0.593   2.707   4.708 -1.6372  0.9650 -0.4854
 8942SOL    HW238460   0.592   2.826   4.631  2.2015  1.4174 -3.1160
 8943SOL     OW38461   3.224   1.713   4.346 -0.3071 -0.4603 -0.4367
 8943SOL    HW138462   3.135   1.694   4.377 -0.3652 -1.2573 -1.0964
 8943SOL    HW238463   3.275   1.648   4.393 -0.0362 -0.6012 -0.9304
 8944SOL     OW38464   0.590   4.360  13.280  0.0967 -0.1347 -0.0315
 8944SOL    HW138465   0.645   4.299  13.329 -1.0596 -0.4679  0.8574
 8944SOL    HW238466   0.653   4.415  13.234 -0.9187  2.6141  1.8408
 8945SOL     OW38467   3.232   1.097   3.487 -0.6139  0.6377 -0.6679
 8945SOL    HW138468   3.229   1.191   3.473  0.2658  0.7414 -0.1044
 8945SOL    HW238469   3.158   1.085   3.546 -1.8479  2.4738 -1.8507
 8946SOL     OW38470   2.238   1.247  11.654 -0.1987 -0.1856 -0.4073
 8946SOL    HW138471   2.245   1.343  11.652 -0.1664 -0.1935 -0.7399
 8946SOL    HW238472   2.145   1.231  11.674  0.2102 -2.0502 -0.0600
 8947SOL     OW38473   0.963   1.408  14.891 -0.1129 -0.2456 -0.1571
 8947SOL    HW138474   1.024   1.342  14.857  1.6348  0.2409  1.9876
 8947SOL    HW238475   0.925   1.454  14.816 -0.0329 -0.1616 -0.1459
 8948SOL     OW38476   1.765   2.042  17.360  0.4553  0.9843  0.4703
 8948SOL    HW138477   1.776   2.125  17.314  1.7488 -0.3967 -1.7123
 8948SOL    HW238478   1.846   2.003  17.327  0.2944  0.4536  0.6860
 8949SOL     OW38479   0.178   0.097   5.682 -0.1962  0.1149 -0.3770
 8949SOL    HW138480   0.243   0.154   5.725 -0.0392 -2.3524  2.5969
 8949SOL    HW238481   0.212   0.010   5.702  0.3576  0.7836  1.6176
 8950SOL     OW38482   0.652   1.065   0.528  0.4501  0.1639 -0.0585
 8950SOL    HW138483   0.689   1.104   0.449 -2.0060  0.4439 -1.0626
 8950SOL    HW238484   0.730   1.055   0.584 -1.6019  2.6693  3.2655
 8951SOL     OW38485   4.142   2.049  11.864  0.1440 -0.2091 -0.1927
 8951SOL    HW138486   4.213   2.011  11.915  0.6929 -1.2880 -1.7490
 8951SOL    HW238487   4.190   2.120  11.822  0.6441 -1.4471 -1.6930
 8952SOL     OW38488   0.388   4.033   7.834  0.2381  0.0341 -0.3784
 8952SOL    HW138489   0.437   4.023   7.916  1.2473  0.5846 -0.9075
 8952SOL    HW238490   0.389   4.129   7.837 -0.6397  0.0828 -2.2436
 8953SOL     OW38491   3.826   1.339   5.593  0.6182 -0.2470 -0.2453
 8953SOL    HW138492   3.797   1.427   5.618  1.8423  0.0805  0.0782
 8953SOL    HW238493   3.780   1.289   5.661  0.0592  0.9980  0.2912
 8954SOL     OW38494   1.333   4.027  14.239 -0.0107  0.2966  0.1535
 8954SOL    HW138495   1.411   3.988  14.279 -0.3395 -0.6091 -0.1079
 8954SOL    HW238496   1.261   4.003  14.297  2.1106 -1.0830  2.2248
 8955SOL     OW38497   0.303   1.207   2.585  1.0122  0.3344 -0.0811
 8955SOL    HW138498   0.393   1.190   2.613  1.0053 -2.2936 -1.7088
 8955SOL    HW238499   0.284   1.263   2.660  2.3388  1.3044 -0.4816
 8956SOL     OW38500   2.056   2.558   4.844 -0.1424  1.1518 -0.4831
 8956SOL    HW138501   2.140   2.581   4.885  1.1049 -2.6963 -0.9326
 8956SOL    HW238502   2.015   2.551   4.930  0.7098 -0.5212 -0.2201
 8957SOL     OW38503   4.662   2.932  11.808 -0.4676  0.2592 -0.4232
 8957SOL    HW138504   4.588   2.980  11.770  0.6006  2.2031 -0.0509
 8957SOL    HW238505   4.617   2.899  11.885  0.5979 -1.1503 -0.4252
 8958SOL     OW38506   1.824   3.549   6.465 -1.1887 -0.6319  0.0693
 8958SOL    HW138507   1.853   3.469   6.421  1.9096  1.1476 -1.0915
 8958SOL    HW238508   1.836   3.622   6.404 -2.7165  1.1113  1.8491
 8959SOL     OW38509   0.616   1.418   6.285 -0.1955 -0.1368 -0.1742
 8959SOL    HW138510   0.708   1.394   6.286 -1.0838 -3.5378  0.5762
 8959SOL    HW238511   0.610   1.445   6.193  2.3467  1.3660  0.1069
 8960SOL     OW38512   3.760   1.807   5.750 -0.0729  0.0912 -0.2154
 8960SOL    HW138513   3.768   1.875   5.818 -1.6431  0.0499  0.0243
 8960SOL    HW238514   3.823   1.740   5.775 -0.4493  0.1388  0.8791
 8961SOL     OW38515   1.821   2.680  14.469  0.2090 -0.7625  0.0179
 8961SOL    HW138516   1.778   2.657  14.551 -0.6319  3.9617  0.8891
 8961SOL    HW238517   1.880   2.756  14.476 -1.7326  0.5715  1.8431
 8962SOL     OW38518   3.199   0.942  17.291 -0.0814  0.0690  0.7419
 8962SOL    HW138519   3.275   0.988  17.329 -0.1043  1.0674 -0.4476
 8962SOL    HW238520   3.240   0.877  17.235 -0.5700  0.5016 -0.1074
 8963SOL     OW38521   2.306   2.953   6.339  0.5596  0.2979 -0.1519
 8963SOL    HW138522   2.278   2.936   6.429  1.4864 -0.8403 -0.0711
 8963SOL    HW238523   2.393   2.912   6.342 -0.3647 -1.8101 -1.8759
 8964SOL     OW38524   2.366   1.667   6.089 -0.7412  0.2070 -0.3094
 8964SOL    HW138525   2.379   1.745   6.035  0.2559 -1.5015 -2.5301
 8964SOL    HW238526   2.421   1.600   6.048 -1.4383 -1.7599  1.9914
 8965SOL     OW38527   4.511   3.136   1.761 -0.6834  0.0444  0.2352
 8965SOL    HW138528   4.456   3.064   1.791  0.6289 -0.5784  1.1422
 8965SOL    HW238529   4.581   3.131   1.827 -0.5119  0.7244  0.1055
 8966SOL     OW38530   4.540   2.318   7.342 -0.0615 -0.1382  0.2147
 8966SOL    HW138531   4.468   2.272   7.385 -0.5183 -0.3029 -0.7299
 8966SOL    HW238532   4.587   2.241   7.311 -1.7451 -1.3022  0.5627
 8967SOL     OW38533   1.417   1.373  16.356  0.1316 -0.5594 -0.5183
 8967SOL    HW138534   1.473   1.440  16.397  0.1174 -0.6621 -0.3306
 8967SOL    HW238535   1.462   1.382  16.272  2.0105 -1.1396  0.4393
 8968SOL     OW38536   2.710   0.004   0.949 -0.0625  0.4981 -0.3207
 8968SOL    HW138537   2.713   4.711   1.039  0.2106 -0.0502 -0.5260
 8968SOL    HW238538   2.694   4.664   0.898  0.4439  1.0241 -1.3063
 8969SOL     OW38539   4.339   0.751  15.473  0.3822 -0.6116  0.1197
 8969SOL    HW138540   4.255   0.789  15.446  1.2286  1.5256  0.5114
 8969SOL    HW238541   4.371   0.720  15.388  0.9178  4.1684 -1.4710
 8970SOL     OW38542   2.404   1.648   3.156 -0.0898 -0.2541 -0.1065
 8970SOL    HW138543   2.487   1.673   3.116  0.0173 -0.9649 -0.3236
 8970SOL    HW238544   2.418   1.554   3.159  0.1203 -0.2747 -1.7311
 8971SOL     OW38545   4.239   1.068   8.807  0.0508 -0.1649 -0.2272
 8971SOL    HW138546   4.284   0.990   8.777  2.1136  0.9971 -0.1694
 8971SOL    HW238547   4.247   1.131   8.735  0.5154  2.0666  1.7718
 8972SOL     OW38548   0.847   1.018   3.695 -0.2380  0.2670 -0.1487
 8972SOL    HW138549   0.862   1.022   3.789  0.8531  0.0562 -0.3179
 8972SOL    HW238550   0.756   1.049   3.695  0.0843  1.2127 -0.0848
 8973SOL     OW38551   3.165   2.513   7.031 -0.1864 -0.5963  0.0825
 8973SOL    HW138552   3.141   2.431   7.075  0.6328 -0.5785  0.5560
 8973SOL    HW238553   3.078   2.548   7.010 -0.7216 -1.7841  0.2830
 8974SOL     OW38554   3.107   0.853   8.340  0.3515 -0.1371 -0.2529
 8974SOL    HW138555   3.135   0.911   8.410  0.5306  0.0905 -0.5126
 8974SOL    HW238556   3.014   0.874   8.340  0.3350 -0.1766 -2.2206
 8975SOL     OW38557   4.710   3.325   7.624 -0.0525  0.5823  0.6566
 8975SOL    HW138558   0.059   3.356   7.640  0.0036  1.5107 -1.5387
 8975SOL    HW238559   4.695   3.249   7.681 -0.3798 -0.2870 -0.5974
 8976SOL     OW38560   2.175   1.739   9.090  0.2650  0.0759  0.3512
 8976SOL    HW138561   2.244   1.759   9.026 -0.7033  1.3543 -0.2950
 8976SOL    HW238562   2.209   1.779   9.171  1.2064  2.6871 -1.3391
 8977SOL     OW38563   4.071   0.484   4.889  0.6552 -0.1560 -0.0339
 8977SOL    HW138564   4.037   0.537   4.961  1.2976 -0.0683  0.2061
 8977SOL    HW238565   4.165   0.490   4.904  0.4446  0.3086  1.0956
 8978SOL     OW38566   4.252   1.426   5.657  0.1226  0.5190 -0.1975
 8978SOL    HW138567   4.282   1.490   5.721  0.2555 -0.6448  0.9079
 8978SOL    HW238568   4.305   1.349   5.680  1.1738  0.9135 -1.2666
 8979SOL     OW38569   4.322   2.479   4.480 -0.4635 -0.1327 -0.3525
 8979SOL    HW138570   4.366   2.409   4.529  0.6119  0.6611 -0.1702
 8979SOL    HW238571   4.397   2.538   4.472  0.0061 -0.4663  1.6534
 8980SOL     OW38572   2.753   0.145   7.571 -0.0137 -0.0428  0.3721
 8980SOL    HW138573   2.840   0.179   7.552 -0.3001  0.0838 -0.6921
 8980SOL    HW238574   2.762   0.056   7.606  1.7410  0.6794  1.7610
 8981SOL     OW38575   2.575   0.550   4.614  0.0565 -0.3843 -0.3246
 8981SOL    HW138576   2.646   0.536   4.677 -0.6737 -1.5133  0.2579
 8981SOL    HW238577   2.506   0.573   4.677  0.1789  0.1430 -0.3830
 8982SOL     OW38578   2.895   1.362   6.163  0.4743 -0.4104  0.3148
 8982SOL    HW138579   2.885   1.443   6.113  0.1224 -0.3273  0.5190
 8982SOL    HW238580   2.989   1.348   6.150 -0.0509 -0.0393 -3.8524
 8983SOL     OW38581   1.632   4.690   1.668 -0.0986  0.6544  0.1004
 8983SOL    HW138582   1.662   4.733   1.588  1.3842  1.2102  0.9695
 8983SOL    HW238583   1.709   4.639   1.692 -0.3566 -0.5260 -1.5378
 8984SOL     OW38584   1.089   4.191  15.948 -0.3393  0.4271 -0.4012
 8984SOL    HW138585   1.120   4.124  15.887 -0.4232  2.0131 -2.1940
 8984SOL    HW238586   0.996   4.168  15.953 -0.4644  0.6397 -1.8332
 8985SOL     OW38587   4.283   3.634   6.283 -0.5703 -0.2820  0.0524
 8985SOL    HW138588   4.216   3.679   6.231 -0.9761 -0.9972 -0.0454
 8985SOL    HW238589   4.361   3.677   6.249 -0.6972 -0.4932 -0.5036
 8986SOL     OW38590   3.363   2.021   8.141  0.1274 -0.1731  0.3048
 8986SOL    HW138591   3.353   2.105   8.096  0.4705 -1.0326 -1.3689
 8986SOL    HW238592   3.448   2.033   8.182 -0.3091 -0.8350  1.3945
 8987SOL     OW38593   3.850   3.943   8.632  0.3381  0.2863  0.0475
 8987SOL    HW138594   3.784   3.886   8.671  0.2370  0.6535  0.4133
 8987SOL    HW238595   3.811   3.970   8.549 -0.3242  2.0602  0.9363
 8988SOL     OW38596   1.055   0.298  10.409 -0.0931 -0.5738  0.1659
 8988SOL    HW138597   1.115   0.263  10.476  0.9029  2.6482  0.9283
 8988SOL    HW238598   1.118   0.363  10.377 -0.3985 -0.9029 -1.1050
 8989SOL     OW38599   0.878   4.006   1.710  0.4186 -0.0389  0.0252
 8989SOL    HW138600   0.891   4.019   1.804 -0.4941  0.2966  0.1007
 8989SOL    HW238601   0.882   4.094   1.672  0.1541 -0.4955 -1.0471
 8990SOL     OW38602   3.619   0.022  11.394 -0.4228  0.0490 -0.1595
 8990SOL    HW138603   3.532   0.044  11.360  0.2489  4.1480  0.7533
 8990SOL    HW238604   3.676   0.083  11.349 -0.3538  1.1748  1.4400
 8991SOL     OW38605   1.786   4.555   7.047 -0.5685 -0.5914  0.4099
 8991SOL    HW138606   1.806   4.510   7.130  2.0981 -0.6107 -0.2398
 8991SOL    HW238607   1.794   4.483   6.984  1.7396  0.4829 -0.5243
 8992SOL     OW38608   2.695   2.233   2.984 -0.2624 -0.3548 -0.1303
 8992SOL    HW138609   2.620   2.219   3.041  0.3373 -2.3709  0.1578
 8992SOL    HW238610   2.768   2.249   3.043  0.5550  1.0059 -1.5276
 8993SOL     OW38611   0.389   0.015   2.285  0.0359 -0.1704  0.0860
 8993SOL    HW138612   0.369   4.724   2.196 -0.3499 -1.4824  0.6171
 8993SOL    HW238613   0.471   0.063   2.278 -0.6800  0.8521 -1.2367
 8994SOL     OW38614   1.465   2.172   0.437  0.3364  0.4371  0.3282
 8994SOL    HW138615   1.423   2.199   0.355  0.2880 -0.1046  0.1715
 8994SOL    HW238616   1.509   2.256   0.451 -0.7739  0.6900  2.2857
 8995SOL     OW38617   0.484   2.275   6.268 -0.0442  0.2318  0.1320
 8995SOL    HW138618   0.431   2.353   6.252 -0.7190 -0.4815 -1.0286
 8995SOL    HW238619   0.570   2.302   6.302 -1.1502 -0.9756  3.9270
 8996SOL     OW38620   3.801   2.235   3.114 -0.0240 -0.0471 -0.2466
 8996SOL    HW138621   3.731   2.282   3.158 -1.4274 -1.9844 -0.4094
 8996SOL    HW238622   3.822   2.301   3.048 -1.2344 -0.2712 -0.8525
 8997SOL     OW38623   3.829   4.230  14.278 -0.6622  0.0154 -0.6064
 8997SOL    HW138624   3.896   4.293  14.252  0.8221 -0.9276  1.0068
 8997SOL    HW238625   3.880   4.168  14.330 -0.8709 -0.1068 -0.5486
 8998SOL     OW38626   2.605   3.496   7.708  0.3702 -0.6520  0.2490
 8998SOL    HW138627   2.589   3.479   7.801  0.6934 -0.0994  0.4100
 8998SOL    HW238628   2.700   3.487   7.704  0.5366  1.0820  0.2048
 8999SOL     OW38629   4.412   3.773   2.881  0.4591 -0.4036  0.2796
 8999SOL    HW138630   4.455   3.695   2.846  1.0409 -0.5523  1.3298
 8999SOL    HW238631   4.466   3.847   2.852  0.2837 -0.0151  0.9684
 9000SOL     OW38632   3.660   4.146   4.257 -0.1295  0.5499  0.1933
 9000SOL    HW138633   3.649   4.059   4.294 -1.7934  0.8216  0.3306
 9000SOL    HW238634   3.666   4.201   4.335 -1.3687 -0.2526  0.8628
 9001SOL     OW38635   4.141   0.204  17.676  0.1294  0.4531  0.1373
 9001SOL    HW138636   4.100   0.268  17.734  0.9115 -0.3740  1.5778
 9001SOL    HW238637   4.197   0.262  17.624  1.6009 -0.8024  0.3275
 9002SOL     OW38638   2.953   0.247  12.825  0.7805  0.1860 -0.4227
 9002SOL    HW138639   3.015   0.286  12.764  0.1134 -1.5122 -2.2022
 9002SOL    HW238640   2.948   0.314  12.893  0.1200  2.6401 -2.8677
 9003SOL     OW38641   2.171   4.034   7.480 -0.2021 -0.1391 -0.0599
 9003SOL    HW138642   2.174   4.095   7.406 -1.6409 -2.4122 -1.9926
 9003SOL    HW238643   2.235   3.969   7.452 -0.0244 -0.5821  1.4007
 9004SOL     OW38644   1.723   4.366   3.058  0.2047 -0.3630 -0.0319
 9004SOL    HW138645   1.748   4.301   2.992  2.4080  0.3354  0.1052
 9004SOL    HW238646   1.719   4.444   3.003  0.4511  1.5208  2.6014
 9005SOL     OW38647   2.025   2.129  14.172 -0.0991 -0.1579 -0.0161
 9005SOL    HW138648   2.112   2.167  14.157 -1.0017  2.1266  0.6196
 9005SOL    HW238649   2.025   2.068  14.098  2.1413  0.1150 -0.2678
 9006SOL     OW38650   2.840   2.908   5.306  0.0888  0.2976  0.8622
 9006SOL    HW138651   2.794   2.858   5.374 -0.3396  0.2639  0.5471
 9006SOL    HW238652   2.888   2.838   5.261  0.0786  0.9241 -0.1234
 9007SOL     OW38653   3.882   4.417   6.958 -0.8188  0.0108  0.2362
 9007SOL    HW138654   3.856   4.326   6.970 -3.1765  0.6857  0.4407
 9007SOL    HW238655   3.958   4.401   6.903 -1.0598  0.0084 -0.0986
 9008SOL     OW38656   1.580   3.297   8.421  0.0459  0.3474 -0.4290
 9008SOL    HW138657   1.507   3.346   8.460  1.6949  0.2045  2.8093
 9008SOL    HW238658   1.539   3.218   8.386 -2.2691  1.1224  0.4771
 9009SOL     OW38659   1.929   3.175   8.373  0.3150 -0.4903  0.1884
 9009SOL    HW138660   1.984   3.160   8.296 -0.2797  2.0063 -0.7443
 9009SOL    HW238661   1.933   3.271   8.366 -0.6529 -0.4792 -0.2155
 9010SOL     OW38662   0.369   4.458   8.841 -0.0827 -0.0197  0.3691
 9010SOL    HW138663   0.300   4.525   8.840  0.4105  0.4860  0.2039
 9010SOL    HW238664   0.399   4.470   8.751 -2.0468 -1.3598 -0.4675
 9011SOL     OW38665   0.126   0.428   9.302  0.1081 -0.0482 -0.4451
 9011SOL    HW138666   0.199   0.486   9.323  0.0124 -0.4834  1.0841
 9011SOL    HW238667   0.125   0.418   9.207 -0.2897  3.5717 -0.8044
 9012SOL     OW38668   0.766   1.779   5.285  0.7535 -0.3202  0.9479
 9012SOL    HW138669   0.821   1.838   5.233 -0.9726 -0.0224 -0.5411
 9012SOL    HW238670   0.707   1.849   5.314  0.2060 -0.2641 -0.3218
 9013SOL     OW38671   3.031   1.317   0.286  0.7724  0.4162  0.1639
 9013SOL    HW138672   3.071   1.403   0.296  1.2862 -0.0218  1.8854
 9013SOL    HW238673   3.060   1.284   0.201  0.8081 -0.0458  0.3546
 9014SOL     OW38674   0.911   1.278   2.203  0.3159  0.1486  0.3445
 9014SOL    HW138675   0.983   1.239   2.154  0.0948 -0.6103  0.6271
 9014SOL    HW238676   0.952   1.312   2.282  0.2025 -1.4730  1.0970
 9015SOL     OW38677   1.849   1.421   0.142  0.0793  0.0958  0.1367
 9015SOL    HW138678   1.926   1.367   0.125 -0.1510  0.7390 -3.0514
 9015SOL    HW238679   1.900   1.492   0.182 -2.8349  0.5947  2.9652
 9016SOL     OW38680   0.547   1.364   3.711 -0.3525  0.9347 -0.1625
 9016SOL    HW138681   0.469   1.404   3.672  0.9407  1.9676 -1.6593
 9016SOL    HW238682   0.525   1.385   3.802 -1.8631 -1.8981  0.1314
 9017SOL     OW38683   3.593   1.518   8.294  0.1998  0.6999 -0.2876
 9017SOL    HW138684   3.503   1.541   8.270  0.3308 -0.3049 -1.7362
 9017SOL    HW238685   3.571   1.438   8.340 -1.6288  1.1410 -0.3972
 9018SOL     OW38686   2.255   3.358   8.463  0.1504 -0.5211  0.0771
 9018SOL    HW138687   2.261   3.280   8.407 -1.2291  0.4175 -1.3601
 9018SOL    HW238688   2.265   3.310   8.545  0.7888 -0.3073  0.1212
 9019SOL     OW38689   2.673   1.649   8.416 -0.1537 -0.4969 -0.2793
 9019SOL    HW138690   2.607   1.675   8.352  0.4433  0.4647 -0.5066
 9019SOL    HW238691   2.677   1.735   8.457  0.1972  0.2338 -1.8682
 9020SOL     OW38692   1.257   4.181   3.232  0.3662 -0.2073  0.5532
 9020SOL    HW138693   1.348   4.190   3.204 -0.5268  1.2246 -1.9076
 9020SOL    HW238694   1.254   4.156   3.324  0.5280  1.6712  1.0750
 9021SOL     OW38695   0.693   4.204  11.795  0.0451 -0.2393 -0.0852
 9021SOL    HW138696   0.653   4.204  11.882  1.0121 -1.1779  0.3605
 9021SOL    HW238697   0.695   4.113  11.768  0.2960  0.5360 -2.6575
 9022SOL     OW38698   2.521   1.233   5.124  0.0418 -0.0497 -0.4080
 9022SOL    HW138699   2.566   1.208   5.044 -1.0040  2.8691 -1.9167
 9022SOL    HW238700   2.585   1.268   5.186 -0.5679 -0.3534  0.3968
 9023SOL     OW38701   3.909   2.004   6.839 -0.1221  0.6777  0.1977
 9023SOL    HW138702   3.923   1.950   6.917  0.6050 -1.5191 -1.4832
 9023SOL    HW238703   3.818   1.992   6.812 -0.2254  0.5246  0.6062
 9024SOL     OW38704   3.060   0.072   8.058 -0.3794 -0.4037 -0.3529
 9024SOL    HW138705   3.078   4.736   8.002  1.5170 -1.5834  1.8183
 9024SOL    HW238706   3.021   0.129   7.993  2.2931  1.2360 -0.5223
 9025SOL     OW38707   4.364   4.103   7.578  0.1671 -0.2482  0.1495
 9025SOL    HW138708   4.337   4.034   7.639 -1.3195  1.4160  1.3956
 9025SOL    HW238709   4.295   4.169   7.585  2.1431  1.9502 -1.2512
 9026SOL     OW38710   4.148   2.740   6.866 -0.0447 -0.0351  0.0336
 9026SOL    HW138711   4.193   2.788   6.797 -1.3064  2.4442  0.9335
 9026SOL    HW238712   4.112   2.814   6.916  1.4665  0.7108  0.0179
 9027SOL     OW38713   1.829   3.813   9.559 -0.2631  0.0131  0.5699
 9027SOL    HW138714   1.849   3.900   9.525 -0.2755 -0.1657  0.1099
 9027SOL    HW238715   1.914   3.794   9.599 -0.5979 -0.3348  1.1148
 9028SOL     OW38716   0.462   0.743   6.814 -0.5418  0.1269  0.0113
 9028SOL    HW138717   0.440   0.760   6.723 -1.2895  1.7535  0.4895
 9028SOL    HW238718   0.386   0.690   6.835 -0.0351 -0.0749  1.3460
 9029SOL     OW38719   1.046   1.254   4.215  0.2825 -0.2012 -0.1666
 9029SOL    HW138720   1.105   1.182   4.236  0.1630  0.4775  2.5289
 9029SOL    HW238721   1.084   1.330   4.259 -0.7653 -0.1168  0.5880
 9030SOL     OW38722   4.461   0.198  10.567  0.3431 -0.6708 -0.5948
 9030SOL    HW138723   4.400   0.146  10.515 -2.4620  1.4287  0.5290
 9030SOL    HW238724   4.462   0.281  10.520  4.0121 -1.5623 -2.0298
 9031SOL     OW38725   4.067   0.246   1.553  0.3478  0.4540 -0.1107
 9031SOL    HW138726   4.136   0.298   1.594  2.4371 -2.0484 -0.4273
 9031SOL    HW238727   4.009   0.322   1.550  1.4685  1.3095 -0.3040
 9032SOL     OW38728   0.783   3.988   4.308 -0.5258  0.1073  0.3674
 9032SOL    HW138729   0.748   3.905   4.339  0.2444 -0.7463 -1.0318
 9032SOL    HW238730   0.836   3.954   4.236 -0.3229 -0.6260  0.8625
 9033SOL     OW38731   0.162   0.575   5.718 -0.4857 -0.1801  0.1644
 9033SOL    HW138732   0.168   0.501   5.657  0.7824  0.6581 -0.7238
 9033SOL    HW238733   0.119   0.535   5.794  2.6240 -0.9753  1.4845
 9034SOL     OW38734   0.819   4.002   3.365  0.0774  0.5943 -0.4634
 9034SOL    HW138735   0.799   4.080   3.417 -0.5988  0.1711 -0.1008
 9034SOL    HW238736   0.819   4.034   3.275  0.0013 -0.9162 -1.0023
 9035SOL     OW38737   2.344   3.440   8.814 -0.2740  0.0493  0.4418
 9035SOL    HW138738   2.332   3.358   8.767 -0.8457  0.5778 -0.3342
 9035SOL    HW238739   2.436   3.431   8.838 -0.4897  0.0181  1.2773
 9036SOL     OW38740   3.994   2.951  11.900 -0.0076 -0.5151  0.4684
 9036SOL    HW138741   3.938   2.920  11.971 -1.1587 -1.0807 -0.6990
 9036SOL    HW238742   3.936   3.026  11.883  0.7681 -0.1211 -0.4778
 9037SOL     OW38743   1.259   4.172   0.920 -0.2565 -0.8000 -0.5100
 9037SOL    HW138744   1.293   4.114   0.988 -2.1267 -2.5018 -1.0082
 9037SOL    HW238745   1.166   4.164   0.939 -0.3359  1.2569 -0.0830
 9038SOL     OW38746   2.031   1.813   7.918 -0.1404 -0.3568 -0.1332
 9038SOL    HW138747   2.100   1.852   7.971 -0.8854 -1.4632  1.6383
 9038SOL    HW238748   1.952   1.857   7.949 -0.8816 -0.2996 -2.1011
 9039SOL     OW38749   3.620   3.017   2.078  0.0074  0.1137 -0.7246
 9039SOL    HW138750   3.586   3.005   1.989  3.1577 -0.5942 -1.8373
 9039SOL    HW238751   3.655   3.105   2.063  0.0030  0.5254  1.7680
 9040SOL     OW38752   1.627   0.781   8.559  0.0889 -0.9246  0.4657
 9040SOL    HW138753   1.690   0.790   8.488  0.0653 -1.3838  0.3820
 9040SOL    HW238754   1.669   0.718   8.618  0.1156 -2.7922 -1.5338
 9041SOL     OW38755   4.478   0.131   3.583  0.2295 -0.2250  0.3531
 9041SOL    HW138756   4.543   0.123   3.513  0.5018 -0.1710  0.5987
 9041SOL    HW238757   4.418   0.058   3.572  0.7075 -0.3422 -1.5694
 9042SOL     OW38758   3.204   0.748   3.909  0.3599 -0.2157  0.0940
 9042SOL    HW138759   3.111   0.760   3.928  0.6051  0.3884  0.9152
 9042SOL    HW238760   3.206   0.761   3.814  0.9830 -0.9944  0.0084
 9043SOL     OW38761   0.797   0.718   5.872  0.3117 -0.3371 -0.0771
 9043SOL    HW138762   0.881   0.674   5.885  1.8861  2.6603 -0.2466
 9043SOL    HW238763   0.741   0.658   5.823  1.2410 -1.2869  0.0146
 9044SOL     OW38764   0.618   4.487  11.408  0.3878  0.1597 -0.0310
 9044SOL    HW138765   0.618   4.404  11.361  1.7098 -1.1585  2.2610
 9044SOL    HW238766   0.648   4.461  11.496  1.2175  0.8792 -0.1030
 9045SOL     OW38767   2.304   0.155   7.674  0.1226 -0.0773 -0.5105
 9045SOL    HW138768   2.361   0.082   7.697  1.6984  0.8210 -1.5550
 9045SOL    HW238769   2.268   0.117   7.594 -1.7571  0.0222  0.2941
 9046SOL     OW38770   0.338   1.221   7.003  0.5930  0.0880  0.3371
 9046SOL    HW138771   0.397   1.146   7.008  0.9199  0.3346  0.1896
 9046SOL    HW238772   0.373   1.265   6.926 -0.6653 -2.1306 -1.5108
 9047SOL     OW38773   3.213   4.257   6.833  0.2434 -0.1004  0.1150
 9047SOL    HW138774   3.286   4.202   6.863  0.8180  1.3171  1.2995
 9047SOL    HW238775   3.142   4.212   6.878  0.6546 -1.1814 -0.3033
 9048SOL     OW38776   0.832   4.183   9.239 -1.0964 -0.3322  0.5071
 9048SOL    HW138777   0.771   4.154   9.171 -0.2159  0.5017 -0.6380
 9048SOL    HW238778   0.868   4.095   9.251  0.2119  0.1968  0.3356
 9049SOL     OW38779   0.248   2.615   4.142 -0.2960 -0.0739  0.6835
 9049SOL    HW138780   0.249   2.523   4.117  2.4856  0.3357 -0.7582
 9049SOL    HW238781   0.256   2.647   4.052  0.2023 -0.5979  0.5422
 9050SOL     OW38782   1.729   0.392   2.764  0.0609  0.0387 -0.0865
 9050SOL    HW138783   1.689   0.314   2.803  0.2938 -0.1124 -0.1547
 9050SOL    HW238784   1.747   0.428   2.851 -4.1395  0.3703  0.6632
 9051SOL     OW38785   0.287   2.575   0.227  0.0182  0.4079 -0.1827
 9051SOL    HW138786   0.380   2.590   0.246 -0.1379 -2.2427  2.6544
 9051SOL    HW238787   0.269   2.518   0.302 -1.6990 -3.2616 -3.3925
 9052SOL     OW38788   4.631   0.058  11.153  0.1782  0.7974  0.1842
 9052SOL    HW138789   4.692   0.120  11.113 -0.2658  1.2596  0.2240
 9052SOL    HW238790   4.687   4.735  11.199 -0.4546  0.7988  0.9401
 9053SOL     OW38791   3.818   1.873  12.416  0.2591  0.0565  0.0397
 9053SOL    HW138792   3.779   1.929  12.483  0.5171  0.8717 -0.5036
 9053SOL    HW238793   3.843   1.929  12.343 -0.3935  1.0914  0.6168
 9054SOL     OW38794   1.947   1.315   3.593 -0.1847 -0.4181  0.2830
 9054SOL    HW138795   2.007   1.383   3.563  1.2591 -1.0148  1.8107
 9054SOL    HW238796   1.880   1.315   3.525  1.2211  0.2823 -1.0967
 9055SOL     OW38797   1.387   0.104   7.898 -0.1981 -0.0127  0.2946
 9055SOL    HW138798   1.354   0.037   7.838  2.2998 -1.3310  0.3960
 9055SOL    HW238799   1.306   0.134   7.939  1.9414  2.7593  2.5108
 9056SOL     OW38800   1.354   2.363   4.966  0.1234  0.1611 -0.1847
 9056SOL    HW138801   1.444   2.335   4.983  0.1819  0.0995 -0.6189
 9056SOL    HW238802   1.373   2.457   4.974 -2.1619  0.7422 -1.7063
 9057SOL     OW38803   2.190   4.485   0.062 -0.1256  0.5593  0.0669
 9057SOL    HW138804   2.242   4.536   0.123  1.3645  0.9422 -1.5429
 9057SOL    HW238805   2.259   4.461   0.000 -0.7844  1.5558 -1.0430
 9058SOL     OW38806   2.784   1.695  10.174  0.7116  0.2326 -0.2063
 9058SOL    HW138807   2.794   1.631  10.245  2.7879  1.0927  0.2515
 9058SOL    HW238808   2.689   1.689  10.161  0.3844  0.2823  2.2248
 9059SOL     OW38809   3.431   2.448   8.943  0.1787 -0.1492 -0.0926
 9059SOL    HW138810   3.344   2.414   8.923  0.4908 -0.0755 -1.5618
 9059SOL    HW238811   3.488   2.398   8.885  0.6755  0.7753 -0.4084
 9060SOL     OW38812   3.124   4.550   4.347  0.2891 -0.0764 -0.3709
 9060SOL    HW138813   3.111   4.551   4.252  1.7729 -0.9356 -0.5702
 9060SOL    HW238814   3.055   4.612   4.373 -1.5734 -2.5691  0.5640
 9061SOL     OW38815   4.353   0.863   2.707 -0.1181  0.1899  0.1551
 9061SOL    HW138816   4.346   0.942   2.653 -0.2535 -0.4014 -0.6935
 9061SOL    HW238817   4.292   0.897   2.771 -0.5770 -1.4887  0.6236
 9062SOL     OW38818   1.275   3.433   2.430 -0.1628 -0.2565  0.1542
 9062SOL    HW138819   1.304   3.359   2.483  0.6075  0.5237  0.8338
 9062SOL    HW238820   1.186   3.446   2.461 -0.3521  0.3750 -0.6492
 9063SOL     OW38821   2.312   1.017   6.396 -0.3361  0.1153 -0.1064
 9063SOL    HW138822   2.388   1.048   6.347  1.2247 -0.3590  2.0490
 9063SOL    HW238823   2.252   0.994   6.325  0.7467  1.4330 -1.4417
 9064SOL     OW38824   1.490   0.230  16.379 -0.6410  0.7078 -0.3293
 9064SOL    HW138825   1.509   0.324  16.380  3.8917 -0.2888  3.5957
 9064SOL    HW238826   1.501   0.211  16.286  1.3715 -1.9911  0.4542
 9065SOL     OW38827   3.652   1.312  11.334 -0.0107 -0.2243 -0.5688
 9065SOL    HW138828   3.591   1.322  11.407  1.1037  0.0621  0.3337
 9065SOL    HW238829   3.610   1.281  11.254 -1.5977 -1.1431  0.6061
 9066SOL     OW38830   2.567   0.014  17.305 -0.2090 -0.0892  0.7357
 9066SOL    HW138831   2.633   0.059  17.358  1.0488 -1.0331 -0.0202
 9066SOL    HW238832   2.490   0.031  17.359 -1.8558 -0.6179 -1.4625
 9067SOL     OW38833   1.424   4.500  10.101  0.0492 -0.0088  0.1855
 9067SOL    HW138834   1.421   4.543  10.016  0.6378 -0.6008 -0.1331
 9067SOL    HW238835   1.333   4.515  10.129 -0.1063  0.7347 -0.7120
 9068SOL     OW38836   1.213   3.548   4.724  0.6907 -0.2013  0.0746
 9068SOL    HW138837   1.296   3.537   4.770  1.3617  2.9712 -0.4482
 9068SOL    HW238838   1.227   3.618   4.660 -1.2164 -0.4529 -0.6128
 9069SOL     OW38839   0.457   1.646   4.454  0.5876 -0.3990  0.4462
 9069SOL    HW138840   0.471   1.698   4.375  0.3178 -1.1965 -0.1278
 9069SOL    HW238841   0.535   1.658   4.508 -0.6729 -0.9509  2.3910
 9070SOL     OW38842   0.923   0.302   8.201  0.6998 -0.8156  0.0724
 9070SOL    HW138843   0.989   0.365   8.231  1.9237 -1.7151 -0.7506
 9070SOL    HW238844   0.846   0.357   8.184  0.6609 -1.2308 -1.0916
 9071SOL     OW38845   2.597   4.254   9.333 -0.3099 -0.4624  0.2509
 9071SOL    HW138846   2.591   4.347   9.312 -0.2747  0.0483  2.5387
 9071SOL    HW238847   2.673   4.252   9.392  0.4168  0.4236 -0.6558
 9072SOL     OW38848   4.476   0.097   2.065  0.0549 -0.0575 -0.2056
 9072SOL    HW138849   4.560   0.139   2.049 -0.8480  0.7974 -2.8081
 9072SOL    HW238850   4.432   0.162   2.120  0.7715 -0.2459  0.5834
 9073SOL     OW38851   1.560   4.068   5.487 -0.2111 -0.1280  0.5049
 9073SOL    HW138852   1.550   3.997   5.423 -0.0348 -0.3751  0.7565
 9073SOL    HW238853   1.492   4.131   5.464  0.5199  0.3699 -0.2801
 9074SOL     OW38854   2.774   2.507  14.699 -0.3673 -0.6646 -0.5552
 9074SOL    HW138855   2.771   2.537  14.790  0.3112  0.3614 -0.8641
 9074SOL    HW238856   2.868   2.510  14.680 -0.4080 -0.7863 -0.7676
 9075SOL     OW38857   3.224   3.620   4.077 -0.2686 -0.0608  0.0270
 9075SOL    HW138858   3.231   3.602   3.984  3.0366 -3.3450  0.9190
 9075SOL    HW238859   3.306   3.670   4.077 -0.3329  0.0460  0.9929
 9076SOL     OW38860   2.958   2.662   2.502 -0.2960 -0.2967  0.5232
 9076SOL    HW138861   2.993   2.684   2.416 -2.1501 -1.3137 -0.5013
 9076SOL    HW238862   3.044   2.672   2.542  0.4099 -3.7311 -0.1298
 9077SOL     OW38863   4.249   4.351  11.110  0.0742 -0.2768  0.1511
 9077SOL    HW138864   4.330   4.308  11.137  0.6181  0.1994 -0.7125
 9077SOL    HW238865   4.267   4.445  11.115 -1.9417  0.0418  1.3624
 9078SOL     OW38866   0.011   1.212   1.565  0.0326  0.2955 -0.0131
 9078SOL    HW138867   0.002   1.296   1.610 -2.4925 -0.0896  0.2208
 9078SOL    HW238868   0.035   1.229   1.474  2.2896  1.2125  0.7740
 9079SOL     OW38869   0.604   3.347   5.567  0.1460  0.4673 -0.3775
 9079SOL    HW138870   0.583   3.440   5.554  2.5997  0.7612 -2.2880
 9079SOL    HW238871   0.645   3.323   5.484 -0.2057 -2.1279  0.2138
 9080SOL     OW38872   4.011   2.500   5.624 -0.3553 -0.4802  0.4060
 9080SOL    HW138873   3.962   2.583   5.624 -0.0163 -0.2804  0.3738
 9080SOL    HW238874   4.032   2.495   5.717  2.0030 -1.1776 -0.1652
 9081SOL     OW38875   4.676   2.586   0.810 -0.0293  0.3636  0.3974
 9081SOL    HW138876   4.724   2.505   0.791  1.8934  1.1053  2.1202
 9081SOL    HW238877   0.000   2.655   0.823  0.0279  0.4967 -0.5934
 9082SOL     OW38878   0.688   3.281   7.621 -0.3233  0.1062 -0.0210
 9082SOL    HW138879   0.738   3.343   7.568 -2.1468  2.0527  0.5506
 9082SOL    HW238880   0.635   3.351   7.660  1.9722  1.6740  0.2972
 9083SOL     OW38881   0.283   2.229   7.694  0.4699  0.2230  0.2751
 9083SOL    HW138882   0.277   2.171   7.618  4.1061  0.1895  0.0139
 9083SOL    HW238883   0.192   2.234   7.722  0.2519  0.3326 -0.4373
 9084SOL     OW38884   3.596   0.824   8.599  0.1340  0.1155  0.0045
 9084SOL    HW138885   3.542   0.896   8.631  0.5888  0.4611 -0.0061
 9084SOL    HW238886   3.575   0.813   8.506 -2.3316  0.3220  0.5320
 9085SOL     OW38887   1.919   4.561   6.439 -0.3997  0.6079 -0.0337
 9085SOL    HW138888   2.005   4.583   6.404 -0.9569 -0.8610 -2.3354
 9085SOL    HW238889   1.941   4.479   6.483  0.8108  1.2453  0.5547
 9086SOL     OW38890   4.403   4.724   8.658 -0.3206  0.0377 -0.5455
 9086SOL    HW138891   4.385   4.634   8.633 -1.8934 -0.1860  1.3790
 9086SOL    HW238892   4.415   0.018   8.569 -0.7225 -2.4108 -1.5093
 9087SOL     OW38893   1.661   1.902  15.198  0.2199  0.5415 -0.4650
 9087SOL    HW138894   1.688   1.890  15.107  1.5171  2.4921 -0.3286
 9087SOL    HW238895   1.586   1.961  15.192 -1.3623 -1.5080 -1.0497
 9088SOL     OW38896   3.382   2.902   2.547 -0.3383  0.2444 -0.5540
 9088SOL    HW138897   3.432   2.930   2.470  2.0929  0.3018  1.0570
 9088SOL    HW238898   3.378   2.807   2.536  2.8530 -0.0598  1.1066
 9089SOL     OW38899   3.778   1.134  11.705 -0.2224 -0.0409 -0.2607
 9089SOL    HW138900   3.835   1.144  11.628  1.1700  1.9382  1.0487
 9089SOL    HW238901   3.845   1.144  11.773  0.1490  4.0719 -1.2143
 9090SOL     OW38902   1.717   1.060   4.871  0.0408 -0.1837 -0.0652
 9090SOL    HW138903   1.728   0.981   4.923  0.9993 -1.6597 -2.5668
 9090SOL    HW238904   1.621   1.067   4.874  0.2250  1.8442  0.9563
 9091SOL     OW38905   2.993   2.820   4.299 -0.4046 -0.0250 -0.4798
 9091SOL    HW138906   2.959   2.891   4.244 -0.6086  0.0362 -0.2736
 9091SOL    HW238907   2.991   2.742   4.243  0.3203 -0.7114  0.4489
 9092SOL     OW38908   1.971   4.031   6.301  0.3327 -0.1566  0.0527
 9092SOL    HW138909   1.920   4.107   6.272 -0.6919 -1.2184 -0.8929
 9092SOL    HW238910   2.040   4.027   6.235 -0.7535  0.4579 -1.1038
 9093SOL     OW38911   4.432   4.255   5.305 -0.0344  0.5975 -0.2979
 9093SOL    HW138912   4.336   4.248   5.299 -0.1042  1.5593 -0.2709
 9093SOL    HW238913   4.434   4.335   5.357 -1.1070  2.3075 -2.8904
 9094SOL     OW38914   3.538   4.439   2.210 -0.5909 -0.5386 -0.0401
 9094SOL    HW138915   3.585   4.384   2.273  0.6064 -0.4449 -0.8375
 9094SOL    HW238916   3.465   4.465   2.266  0.6785 -2.2528  2.4215
 9095SOL     OW38917   1.632   4.105   8.498 -0.4841  0.4553  0.1645
 9095SOL    HW138918   1.685   4.155   8.435  0.5887 -1.0807 -0.1511
 9095SOL    HW238919   1.578   4.170   8.544 -1.3952  0.7596 -1.3096
 9096SOL     OW38920   0.295   3.510   2.720  0.2746  0.1300  0.2375
 9096SOL    HW138921   0.309   3.544   2.808 -0.1132 -3.0398  1.5455
 9096SOL    HW238922   0.291   3.421   2.755  0.9051 -0.7233 -1.8691
 9097SOL     OW38923   2.863   1.639   1.800 -0.4358  0.2067 -0.1565
 9097SOL    HW138924   2.948   1.595   1.804 -0.9538 -0.4548  3.2452
 9097SOL    HW238925   2.820   1.587   1.732 -2.0169 -0.4341  1.3410
 9098SOL     OW38926   2.265   4.140  11.174  0.6119  1.3381 -0.2634
 9098SOL    HW138927   2.200   4.204  11.202  0.8687  1.3678  0.2637
 9098SOL    HW238928   2.293   4.102  11.257  3.1280  3.5822 -0.1097
 9099SOL     OW38929   0.553   1.884   8.851 -0.0738 -0.5353  0.3533
 9099SOL    HW138930   0.590   1.849   8.932  0.8977 -1.8882 -0.6823
 9099SOL    HW238931   0.612   1.947   8.810 -0.0670 -1.0001 -0.3395
 9100SOL     OW38932   3.109   1.896   0.809 -0.0314  0.1228  0.4077
 9100SOL    HW138933   3.042   1.842   0.850 -0.6128  0.0071 -0.7035
 9100SOL    HW238934   3.091   1.889   0.716  0.6367 -0.6090  0.3354
 9101SOL     OW38935   2.054   3.588  15.266 -0.1052  0.6631 -0.4192
 9101SOL    HW138936   2.054   3.495  15.291 -0.4804  0.5453 -0.8359
 9101SOL    HW238937   2.075   3.572  15.174  1.3456 -0.0485  0.0461
 9102SOL     OW38938   3.715   1.833   7.487 -0.4606 -0.3060  0.0384
 9102SOL    HW138939   3.805   1.824   7.517 -0.7871  0.6198  1.2803
 9102SOL    HW238940   3.694   1.924   7.511  0.5954  0.2390 -1.0825
 9103SOL     OW38941   0.134   3.639   0.132  0.0809 -0.0641 -0.1886
 9103SOL    HW138942   0.165   3.603   0.049 -1.5382 -1.1912 -0.3207
 9103SOL    HW238943   0.101   3.719   0.090 -0.5016 -1.2192 -1.9710
 9104SOL     OW38944   0.070   3.726   7.367 -0.3434 -0.3570 -0.8213
 9104SOL    HW138945   4.728   3.753   7.324 -0.6869  1.1364  0.7931
 9104SOL    HW238946   0.074   3.789   7.439  0.3646  0.0943 -1.2509
 9105SOL     OW38947   3.482   1.626   3.237  0.4610  0.4876  0.5064
 9105SOL    HW138948   3.518   1.582   3.314 -1.0557 -0.0895  0.8756
 9105SOL    HW238949   3.388   1.609   3.237  0.6420 -0.5082 -0.0918
 9106SOL     OW38950   3.138   3.657   1.272  0.3565  0.2461  0.6800
 9106SOL    HW138951   3.225   3.637   1.307 -0.2776  0.6710  2.4605
 9106SOL    HW238952   3.084   3.586   1.307  0.1722  0.4369  0.7823
 9107SOL     OW38953   0.921   0.187  15.741 -0.0451 -0.2737  1.0787
 9107SOL    HW138954   0.886   0.217  15.658  0.2532  0.0471  1.0661
 9107SOL    HW238955   0.953   0.101  15.714 -3.2879 -0.5527 -1.7716
 9108SOL     OW38956   1.317   2.595   2.284  0.0563  0.3282  0.0146
 9108SOL    HW138957   1.352   2.647   2.357 -2.3281 -0.3481  1.6486
 9108SOL    HW238958   1.273   2.530   2.340 -2.6585  2.3252  0.2113
 9109SOL     OW38959   1.911   1.302   1.399 -0.4556 -0.1837  0.5633
 9109SOL    HW138960   1.889   1.210   1.386  0.3807 -0.6779  2.8064
 9109SOL    HW238961   1.901   1.315   1.493 -0.6743 -1.4112  0.7080
 9110SOL     OW38962   2.645   2.666   7.898  0.4080 -0.1527  0.3820
 9110SOL    HW138963   2.557   2.699   7.919  0.4185  0.1020  0.0327
 9110SOL    HW238964   2.631   2.586   7.847  0.2078  0.6602 -0.8463
 9111SOL     OW38965   3.938   4.620   2.138  0.6214 -0.4287 -0.3949
 9111SOL    HW138966   4.028   4.642   2.164  1.1084 -3.3711  0.4016
 9111SOL    HW238967   3.916   4.692   2.080  1.7145 -0.3334 -0.7003
 9112SOL     OW38968   1.423   0.595   8.737  0.0479  0.1919 -0.0245
 9112SOL    HW138969   1.492   0.530   8.752  0.5646  0.0594 -2.9800
 9112SOL    HW238970   1.486   0.667   8.747  0.3640 -0.3248  1.7234
 9113SOL     OW38971   2.126   3.962   2.662 -0.2921  0.2011 -0.2444
 9113SOL    HW138972   2.135   3.961   2.567 -0.6179 -1.6465 -0.2674
 9113SOL    HW238973   2.106   3.869   2.676 -0.4392  0.1073 -1.0474
 9114SOL     OW38974   3.790   1.940   2.476  0.2418  0.0951 -0.1116
 9114SOL    HW138975   3.787   1.997   2.553  0.7302 -0.1860  0.1161
 9114SOL    HW238976   3.703   1.958   2.439 -0.6934 -1.2516  1.4395
 9115SOL     OW38977   4.045   2.284   7.468 -0.1640 -0.0367 -0.1206
 9115SOL    HW138978   3.978   2.240   7.520  1.3099 -0.2737  1.5942
 9115SOL    HW238979   3.996   2.362   7.441 -1.9392 -1.0602  0.1931
 9116SOL     OW38980   4.479   4.299   3.661  0.2068 -0.4299  0.5532
 9116SOL    HW138981   4.574   4.304   3.651  0.0669 -1.8846 -1.4957
 9116SOL    HW238982   4.459   4.347   3.580  2.7310 -0.3144 -0.0158
 9117SOL     OW38983   0.211   0.663   3.244  0.1550  0.0494  0.7958
 9117SOL    HW138984   0.177   0.578   3.217  0.5261 -0.5460  2.1845
 9117SOL    HW238985   0.137   0.722   3.230  0.7217  0.7010  0.5693
 9118SOL     OW38986   2.161   3.792   9.615 -0.3411  0.1515  0.2168
 9118SOL    HW138987   2.119   3.789   9.529  0.2062  1.4060 -0.0935
 9118SOL    HW238988   2.162   3.701   9.643 -1.4469  0.6112  1.7803
 9119SOL     OW38989   2.366   0.758   7.991  0.3175  0.2886 -0.3094
 9119SOL    HW138990   2.454   0.732   7.963 -1.0006 -1.3634 -2.9435
 9119SOL    HW238991   2.386   0.847   8.020 -0.2610  0.6107 -0.8972
 9120SOL     OW38992   2.797   2.789  15.523  0.4836  0.7602 -0.1595
 9120SOL    HW138993   2.888   2.809  15.544 -0.1812  0.9104  2.5524
 9120SOL    HW238994   2.777   2.709  15.573  0.8183  0.2691 -0.8191
 9121SOL     OW38995   1.068   3.793   1.023 -0.2440 -0.7299  0.7412
 9121SOL    HW138996   1.107   3.829   0.943 -1.7951 -2.1113 -0.6557
 9121SOL    HW238997   1.083   3.868   1.080 -0.9324 -0.0459  0.0267
 9122SOL     OW38998   3.118   0.997  11.529  0.7032  0.0549 -0.0787
 9122SOL    HW138999   3.201   1.026  11.568  1.3311  0.1219 -1.4998
 9122SOL    HW239000   3.073   0.990  11.613 -0.6686 -1.1247 -0.9270
 9123SOL     OW39001   4.575   4.456  11.466  0.2462 -0.2371 -0.7192
 9123SOL    HW139002   4.653   4.424  11.422 -0.2057  0.0905 -1.7593
 9123SOL    HW239003   4.536   4.374  11.497 -0.3491  0.1463 -0.4503
 9124SOL     OW39004   3.826   3.348   3.165  0.4262  0.4162 -0.0429
 9124SOL    HW139005   3.738   3.385   3.178 -0.6434 -1.0299 -3.0393
 9124SOL    HW239006   3.883   3.421   3.190  1.4498 -1.1512  2.1002
 9125SOL     OW39007   0.767   1.892   5.629  0.3812  0.7955 -0.1941
 9125SOL    HW139008   0.804   1.954   5.693  0.3417  3.0219 -2.3149
 9125SOL    HW239009   0.728   1.819   5.677 -0.0085 -0.3823 -2.3314
 9126SOL     OW39010   4.465   2.275   4.623  0.1019 -0.0629 -0.4512
 9126SOL    HW139011   4.530   2.250   4.689  0.8402  1.3912 -0.6238
 9126SOL    HW239012   4.390   2.226   4.656  0.2622 -0.1759 -0.2523
 9127SOL     OW39013   2.863   0.234   1.001 -0.9166  0.7948 -0.5502
 9127SOL    HW139014   2.953   0.200   1.000 -1.3132 -0.3048  0.2160
 9127SOL    HW239015   2.819   0.154   0.972  1.7219 -0.4490 -1.1882
 9128SOL     OW39016   2.923   2.687  15.817 -0.4702 -0.1280  0.1656
 9128SOL    HW139017   2.943   2.772  15.777 -3.0915  0.0498 -0.7990
 9128SOL    HW239018   2.848   2.654  15.767  0.4023  0.2027 -1.3767
 9129SOL     OW39019   1.852   1.532   7.130  0.1035 -0.2331 -0.0294
 9129SOL    HW139020   1.771   1.520   7.179 -0.4596 -2.3434 -1.4772
 9129SOL    HW239021   1.899   1.452   7.153 -1.2300 -1.1633 -0.5141
 9130SOL     OW39022   3.466   3.777   8.409 -0.6319  0.1886  0.4670
 9130SOL    HW139023   3.464   3.711   8.479 -0.6200  0.4528  0.7171
 9130SOL    HW239024   3.412   3.839   8.458 -1.1872 -0.2208  0.3758
 9131SOL     OW39025   2.252   1.486   9.126  0.2266  0.0635  0.3346
 9131SOL    HW139026   2.229   1.579   9.119 -0.3326 -0.0150  1.0297
 9131SOL    HW239027   2.177   1.443   9.086  0.9243  0.7255 -1.6608
 9132SOL     OW39028   3.461   1.503   2.580 -0.0609 -0.3146  0.1286
 9132SOL    HW139029   3.530   1.493   2.515  1.1520  2.8663  0.9181
 9132SOL    HW239030   3.417   1.587   2.564 -0.6259 -0.5685  0.3280
 9133SOL     OW39031   1.958   1.138   4.780  0.3409  0.0100  0.4062
 9133SOL    HW139032   1.870   1.106   4.801  0.2010 -0.5138 -1.0018
 9133SOL    HW239033   1.979   1.178   4.864 -2.2540 -1.5970  1.8151
 9134SOL     OW39034   4.102   0.523   9.212  0.2960  0.2391 -0.2350
 9134SOL    HW139035   4.013   0.492   9.229 -0.7240  1.7945 -2.7262
 9134SOL    HW239036   4.069   0.603   9.172  1.9603  0.3691 -1.3241
 9135SOL     OW39037   1.208   4.730   2.561 -0.0101 -0.1857 -0.3428
 9135SOL    HW139038   1.135   0.010   2.620  0.2375 -0.9188  0.2151
 9135SOL    HW239039   1.213   0.040   2.479 -1.6238  0.3871 -0.0929
 9136SOL     OW39040   4.160   4.056   8.547  0.8440 -0.2637  0.3466
 9136SOL    HW139041   4.102   4.114   8.596  1.7807  0.5401  0.5193
 9136SOL    HW239042   4.244   4.099   8.566 -0.3152  2.5299 -0.8167
 9137SOL     OW39043   1.182   0.972  16.347 -0.2989  0.3656  0.3362
 9137SOL    HW139044   1.270   0.998  16.373 -0.1424 -0.0311  0.2040
 9137SOL    HW239045   1.154   1.040  16.286 -1.9343 -1.1691 -0.6341
 9138SOL     OW39046   0.601   1.320   2.549  0.0688  0.3532  0.3538
 9138SOL    HW139047   0.622   1.240   2.500  0.9773  0.8145 -0.0113
 9138SOL    HW239048   0.645   1.299   2.631  0.7579  0.2396 -0.0441
 9139SOL     OW39049   0.343   0.375   8.599  0.4391 -0.0852 -0.4072
 9139SOL    HW139050   0.360   0.468   8.612 -1.5604  0.3560 -0.8632
 9139SOL    HW239051   0.424   0.331   8.574  1.2172  1.0550  0.0849
 9140SOL     OW39052   3.631   0.031   3.784 -0.5187 -0.2907  0.1842
 9140SOL    HW139053   3.541   0.007   3.762 -0.7252  1.7813 -1.1956
 9140SOL    HW239054   3.620   0.126   3.789 -0.0053 -0.2201 -0.0228
 9141SOL     OW39055   4.631   0.312   0.446  0.2560  0.5692 -0.0582
 9141SOL    HW139056   4.656   0.224   0.417 -3.1140 -0.0141 -1.1978
 9141SOL    HW239057   4.698   0.359   0.397 -0.0363  0.9176 -0.1239
 9142SOL     OW39058   2.203   0.931   9.111  0.3173  0.7180  0.2060
 9142SOL    HW139059   2.183   0.879   9.033  0.0921 -0.7077  1.2147
 9142SOL    HW239060   2.238   1.012   9.074 -0.1050  0.0501 -1.6900
 9143SOL     OW39061   3.907   3.746  12.842  0.1473 -0.4555 -0.2099
 9143SOL    HW139062   3.901   3.770  12.750  0.5481  1.5530  0.3054
 9143SOL    HW239063   3.863   3.661  12.837  1.0089 -0.8698 -0.6374
 9144SOL     OW39064   3.816   2.095   2.694 -0.1920 -0.0957 -0.8262
 9144SOL    HW139065   3.746   2.161   2.685 -0.0831  0.1854  0.3220
 9144SOL    HW239066   3.800   2.055   2.780 -1.6786  2.2343  0.0079
 9145SOL     OW39067   3.120   3.194   4.304 -0.3572 -0.1399 -0.0322
 9145SOL    HW139068   3.201   3.146   4.288 -0.0350 -0.0047  1.1694
 9145SOL    HW239069   3.125   3.283   4.270  0.9920 -0.4874 -0.7353
 9146SOL     OW39070   4.315   0.395  17.601  0.9587  0.3738 -0.6286
 9146SOL    HW139071   4.374   0.338  17.649  0.5852  2.3646  2.2074
 9146SOL    HW239072   4.349   0.479  17.633  0.5067  0.5664 -0.6466
 9147SOL     OW39073   4.573   1.540  14.237 -0.6734  0.0786 -0.5666
 9147SOL    HW139074   4.531   1.554  14.152 -0.9304 -1.0954 -0.6223
 9147SOL    HW239075   4.541   1.453  14.258  3.0585 -1.0235  0.5073
 9148SOL     OW39076   3.752   3.554  12.728  0.2622 -0.3288  0.2235
 9148SOL    HW139077   3.672   3.557  12.780  0.0620 -1.0893 -0.0427
 9148SOL    HW239078   3.723   3.518  12.645 -0.4121  0.9892 -0.1214
 9149SOL     OW39079   4.534   0.856   1.617 -0.0031  0.0847  0.0294
 9149SOL    HW139080   4.444   0.825   1.624  0.1678 -0.8610 -1.9409
 9149SOL    HW239081   4.547   0.820   1.529  1.4157 -0.3979  0.4423
 9150SOL     OW39082   3.455   2.803   9.396  0.1683  0.0551 -0.0371
 9150SOL    HW139083   3.524   2.739   9.413  0.6334 -0.2609 -3.1034
 9150SOL    HW239084   3.503   2.885   9.394  1.1855 -0.5609 -0.8622
 9151SOL     OW39085   3.258   1.118   6.803 -0.2139 -0.0169 -0.0910
 9151SOL    HW139086   3.222   1.096   6.717 -0.1373 -0.1481 -0.0895
 9151SOL    HW239087   3.326   1.050   6.805 -0.0776  0.0998 -0.6355
 9152SOL     OW39088   4.023   4.079   5.577  0.4664  0.4288 -0.2964
 9152SOL    HW139089   4.004   4.070   5.484 -2.2855  2.6611  0.0400
 9152SOL    HW239090   4.090   4.146   5.592 -0.5070  0.9230  1.8826
 9153SOL     OW39091   2.368   2.336   7.756 -0.1102 -0.2917 -0.5081
 9153SOL    HW139092   2.414   2.412   7.722 -0.3740 -0.3727 -1.0344
 9153SOL    HW239093   2.429   2.265   7.735 -0.7097 -1.4764  1.7546
 9154SOL     OW39094   4.089   2.204   1.430  0.2715 -0.4014 -0.0401
 9154SOL    HW139095   4.015   2.240   1.478 -0.0208  0.0041 -0.7916
 9154SOL    HW239096   4.101   2.275   1.368  1.8462 -0.1061  0.6052
 9155SOL     OW39097   3.617   0.069  10.569  0.2126  0.2974 -0.5058
 9155SOL    HW139098   3.626   0.053  10.663 -0.5066  0.0443 -0.4840
 9155SOL    HW239099   3.584   0.158  10.586  2.1666  0.7400  1.0198
 9156SOL     OW39100   3.830   2.371   9.381  0.3808  0.7205  0.6429
 9156SOL    HW139101   3.767   2.318   9.430  1.7386 -0.8018  0.7396
 9156SOL    HW239102   3.903   2.363   9.442  0.6627 -0.5842  0.1323
 9157SOL     OW39103   2.701   0.022   1.719  0.1112  0.2741  0.3031
 9157SOL    HW139104   2.626   0.066   1.680  2.2828  2.1862 -1.7727
 9157SOL    HW239105   2.722   4.700   1.649  0.5529  2.4437 -1.4601
 9158SOL     OW39106   0.097   0.423   6.041  0.8384 -0.1255 -0.0411
 9158SOL    HW139107   0.018   0.412   6.094  0.6316  1.8388  0.0523
 9158SOL    HW239108   0.132   0.503   6.080  2.5572 -1.3686  0.9654
 9159SOL     OW39109   1.687   4.084   0.722 -0.1904 -0.3044  0.0793
 9159SOL    HW139110   1.648   4.052   0.804  1.3388 -0.7720  0.6179
 9159SOL    HW239111   1.691   4.179   0.732  1.4664 -0.3257 -0.4277
 9160SOL     OW39112   1.610   1.094  16.624 -0.3749  0.6266 -0.4719
 9160SOL    HW139113   1.659   1.067  16.702 -2.4994 -0.2512  0.5668
 9160SOL    HW239114   1.664   1.058  16.554 -0.8570 -1.0425  0.0239
 9161SOL     OW39115   4.522   2.834   6.111  0.0263 -0.7846 -0.2577
 9161SOL    HW139116   4.553   2.911   6.063 -1.2966  0.0871  0.2774
 9161SOL    HW239117   4.583   2.765   6.085  0.8642  0.0517 -0.5046
 9162SOL     OW39118   0.807   1.936   6.992  0.4615  0.1372  0.4911
 9162SOL    HW139119   0.788   1.913   6.901  0.4612 -1.0352  0.7905
 9162SOL    HW239120   0.877   1.999   6.977  1.7024 -0.9239  1.8824
 9163SOL     OW39121   1.157   3.909   4.828  0.4769  0.0035 -0.2583
 9163SOL    HW139122   1.221   3.865   4.772 -0.5225  1.2299 -2.3717
 9163SOL    HW239123   1.102   3.934   4.755 -0.3689 -0.8576  0.0909
 9164SOL     OW39124   1.894   3.833   7.903 -0.3763  0.1526 -0.7194
 9164SOL    HW139125   1.844   3.903   7.862 -0.5779 -0.3372 -1.3113
 9164SOL    HW239126   1.945   3.890   7.959 -0.3310 -0.7926  0.1979
 9165SOL     OW39127   3.522   1.987   3.690 -0.7198 -0.4480 -0.6673
 9165SOL    HW139128   3.540   1.944   3.606  0.0579 -1.4243 -0.0017
 9165SOL    HW239129   3.427   1.974   3.689 -0.8622  0.6553 -2.1456
 9166SOL     OW39130   1.518   2.914   7.173  0.2668 -0.3850  0.3679
 9166SOL    HW139131   1.525   2.818   7.169 -1.4891 -0.5050  0.4871
 9166SOL    HW239132   1.611   2.934   7.158  0.0854 -1.0428 -1.5720
 9167SOL     OW39133   4.395   3.383   3.926  0.0918  0.5654  0.1156
 9167SOL    HW139134   4.387   3.298   3.882 -0.4735  0.2827  0.7612
 9167SOL    HW239135   4.482   3.393   3.888 -0.8930  1.8481 -1.8294
 9168SOL     OW39136   4.665   1.748   8.305  0.3380  0.1345 -0.4366
 9168SOL    HW139137   4.661   1.660   8.343 -0.9805 -0.1308 -1.1978
 9168SOL    HW239138   0.017   1.761   8.282  0.2990 -2.7367 -2.1503
 9169SOL     OW39139   3.561   0.399   9.186  0.5380 -0.1769  0.8039
 9169SOL    HW139140   3.467   0.383   9.178  0.8549 -1.0370 -1.4615
 9169SOL    HW239141   3.573   0.485   9.148 -0.5374 -0.1347  0.5496
 9170SOL     OW39142   3.624   1.686  12.325  0.1228 -0.0505 -0.0664
 9170SOL    HW139143   3.693   1.747  12.350  0.0467  0.3466 -0.8310
 9170SOL    HW239144   3.582   1.676  12.411  0.7079 -0.6588  0.1474
 9171SOL     OW39145   2.889   4.038   3.824 -0.2057 -0.3877  0.4572
 9171SOL    HW139146   2.879   4.103   3.755 -0.6277 -1.7423 -0.7537
 9171SOL    HW239147   2.918   4.094   3.895 -2.2073 -0.3093  1.2243
 9172SOL     OW39148   3.119   4.233  10.766  0.1929 -0.2018 -0.1829
 9172SOL    HW139149   3.109   4.198  10.677 -0.2491 -1.3519  0.3039
 9172SOL    HW239150   3.025   4.239  10.785 -0.0244 -1.8291 -0.6899
 9173SOL     OW39151   0.445   1.624   8.218  0.5001  0.1849 -0.1134
 9173SOL    HW139152   0.480   1.587   8.137  2.0079 -2.4965  1.7346
 9173SOL    HW239153   0.453   1.546   8.273  1.4531  0.0475 -0.4493
 9174SOL     OW39154   1.237   3.884   0.751  0.2748  0.6197 -0.0679
 9174SOL    HW139155   1.309   3.858   0.808 -1.3297 -0.7947  1.3092
 9174SOL    HW239156   1.276   3.950   0.693  0.8065  0.5441  0.2009
 9175SOL     OW39157   3.144   0.102  14.813  0.2068  0.8505  1.0535
 9175SOL    HW139158   3.153   0.010  14.836  2.2558  0.7161 -0.3156
 9175SOL    HW239159   3.236   0.123  14.797  0.3946  1.6103  3.0196
 9176SOL     OW39160   3.550   0.504   6.237  0.2183  0.5212 -0.0770
 9176SOL    HW139161   3.598   0.443   6.294 -2.3387 -0.0944  1.4352
 9176SOL    HW239162   3.595   0.587   6.252  0.2619  0.7799 -1.7288
 9177SOL     OW39163   4.257   3.491   5.106  0.3055  0.5865  0.2648
 9177SOL    HW139164   4.249   3.586   5.118 -0.4649  0.5562 -0.0144
 9177SOL    HW239165   4.219   3.454   5.186  2.7045 -1.9408  0.2006
 9178SOL     OW39166   1.145   2.924   5.395 -0.9865  0.0694 -0.0238
 9178SOL    HW139167   1.149   2.908   5.489 -2.1474 -0.1317 -0.0139
 9178SOL    HW239168   1.141   3.019   5.401  1.3350  0.2545 -1.5609
 9179SOL     OW39169   0.141   4.262   5.568 -0.5972  0.3651  0.5327
 9179SOL    HW139170   0.116   4.208   5.643  1.0980 -3.5012 -1.6769
 9179SOL    HW239171   0.127   4.205   5.492 -1.3967  1.7045 -0.3274
 9180SOL     OW39172   2.542   4.428  14.290  0.3956  0.0914  0.3901
 9180SOL    HW139173   2.562   4.469  14.374 -0.7096  1.4570 -0.0119
 9180SOL    HW239174   2.620   4.448  14.239  0.0609  0.3999 -0.0069
 9181SOL     OW39175   2.127   4.211   7.239  0.3136 -0.1817  0.0192
 9181SOL    HW139176   2.190   4.276   7.209 -1.3394  0.9930 -0.9176
 9181SOL    HW239177   2.064   4.222   7.168  0.1886 -0.7321  0.0512
 9182SOL     OW39178   0.198   1.013   1.601  0.5000  0.3735  0.7388
 9182SOL    HW139179   0.148   1.094   1.612  1.0081  1.0923 -2.2818
 9182SOL    HW239180   0.168   0.997   1.512 -0.8967 -0.6157  1.3869
 9183SOL     OW39181   2.501   3.671   5.831  0.3426  0.3176 -0.3175
 9183SOL    HW139182   2.557   3.628   5.766  0.7529  2.2412 -1.2352
 9183SOL    HW239183   2.556   3.695   5.907  1.2588  0.5034 -1.0373
 9184SOL     OW39184   3.719   1.198   9.669  0.0958 -0.0135  0.0640
 9184SOL    HW139185   3.774   1.139   9.618  1.1634  1.5776 -0.6244
 9184SOL    HW239186   3.645   1.145   9.697 -1.1004  1.6321 -0.0140
 9185SOL     OW39187   3.779   4.555   5.954 -0.7518  0.2096 -0.5471
 9185SOL    HW139188   3.727   4.575   5.876 -0.0784  0.1132 -1.0223
 9185SOL    HW239189   3.698   4.516   5.987 -0.2984  0.0624  0.4061
 9186SOL     OW39190   0.256   0.912   4.829 -0.3432 -0.9008  0.6148
 9186SOL    HW139191   0.289   1.002   4.835  0.3684 -1.3371  3.2771
 9186SOL    HW239192   0.292   0.891   4.743  0.7148 -1.6096  1.2397
 9187SOL     OW39193   0.975   0.890   3.262 -0.0521 -0.2765 -0.1653
 9187SOL    HW139194   0.928   0.913   3.341  1.7053  1.1375  0.4758
 9187SOL    HW239195   1.005   0.976   3.233  1.8864 -0.7317  0.4728
 9188SOL     OW39196   2.655   4.041   5.019  0.0431  0.4399 -0.8413
 9188SOL    HW139197   2.623   4.057   4.930 -1.5341  2.2505  0.0474
 9188SOL    HW239198   2.631   4.124   5.058 -1.8316  0.5155 -2.1460
 9189SOL     OW39199   1.301   0.227  16.584 -0.3851 -0.6249 -0.1547
 9189SOL    HW139200   1.374   0.225  16.523 -0.1651 -2.0271  0.1602
 9189SOL    HW239201   1.254   0.300  16.544 -0.3484 -0.5451 -0.0510
 9190SOL     OW39202   2.514   2.618  17.342 -0.0324 -0.2797  0.3659
 9190SOL    HW139203   2.499   2.706  17.375 -0.0740  0.5542 -1.8582
 9190SOL    HW239204   2.595   2.615  17.291  0.0351  0.8598  0.4013
 9191SOL     OW39205   0.390   2.395   1.915 -0.0870  0.0945 -0.2269
 9191SOL    HW139206   0.433   2.311   1.898 -3.2494 -1.6235  0.1828
 9191SOL    HW239207   0.414   2.451   1.842  0.4395 -0.5062 -0.5207
 9192SOL     OW39208   3.076   0.252   2.170  0.1735 -0.0184 -0.1811
 9192SOL    HW139209   3.040   0.167   2.197  0.4226  0.0224  0.2947
 9192SOL    HW239210   3.118   0.279   2.252 -2.2392 -0.3696  1.1642
 9193SOL     OW39211   0.821   4.186  16.007 -0.8765 -0.3041  0.1826
 9193SOL    HW139212   0.777   4.188  16.092  2.0894  3.8463  1.6321
 9193SOL    HW239213   0.766   4.249  15.959  1.1359 -0.6196 -2.5352
 9194SOL     OW39214   2.399   4.510  16.098  0.5558 -0.6956 -0.0892
 9194SOL    HW139215   2.390   4.417  16.077  0.0440 -0.6333 -0.1522
 9194SOL    HW239216   2.342   4.552  16.034  0.9424 -0.4860 -0.2954
 9195SOL     OW39217   0.292   3.591   2.977 -0.4584 -0.0660  0.1833
 9195SOL    HW139218   0.299   3.678   3.016  0.4497  0.0570 -0.2535
 9195SOL    HW239219   0.254   3.536   3.046 -0.3046 -0.3261  0.0585
 9196SOL     OW39220   1.507   2.582   9.410  0.9568  0.6366 -0.2030
 9196SOL    HW139221   1.449   2.647   9.371 -0.1540 -1.1133 -1.4763
 9196SOL    HW239222   1.539   2.541   9.329  1.7546  0.0378  0.4070
 9197SOL     OW39223   0.364   0.724   7.733  0.2856  0.0680 -0.3313
 9197SOL    HW139224   0.362   0.723   7.638  1.9829  0.3979 -0.3661
 9197SOL    HW239225   0.285   0.675   7.758  0.0334  0.7000  0.1360
 9198SOL     OW39226   3.415   1.996   6.616 -0.2026 -0.5145  0.1077
 9198SOL    HW139227   3.331   1.950   6.611  1.0366 -2.6384 -1.1679
 9198SOL    HW239228   3.446   1.987   6.526  1.2811 -0.7981  0.6607
 9199SOL     OW39229   4.354   2.586  13.047 -0.2901  0.2573  0.4760
 9199SOL    HW139230   4.344   2.592  13.142 -0.2416 -0.6461  0.5337
 9199SOL    HW239231   4.263   2.575  13.018 -0.5457 -1.6681  2.0504
 9200SOL     OW39232   2.363   2.495   3.331 -0.0639  0.0865 -0.2360
 9200SOL    HW139233   2.382   2.506   3.238 -2.4991 -1.4129 -0.9125
 9200SOL    HW239234   2.276   2.455   3.332 -0.7234  1.5126 -1.1578
 9201SOL     OW39235   2.176   4.721  16.792 -0.2717 -0.8165 -0.4073
 9201SOL    HW139236   2.243   0.049  16.793 -1.9551  0.8493 -0.3210
 9201SOL    HW239237   2.160   4.713  16.886 -0.2377  0.4502 -0.2963
 9202SOL     OW39238   2.726   4.216   5.782 -0.4056 -0.0083 -0.5234
 9202SOL    HW139239   2.668   4.286   5.751 -2.0062 -1.3658 -0.5404
 9202SOL    HW239240   2.720   4.224   5.877  3.0010  1.1622 -0.3904
 9203SOL     OW39241   1.159   4.245  10.041  0.3363  0.4188  0.1559
 9203SOL    HW139242   1.081   4.260   9.987 -0.3697 -1.3394  0.6736
 9203SOL    HW239243   1.136   4.278  10.127  2.2755 -0.2225  0.9198
 9204SOL     OW39244   0.614   0.382  11.744  0.2801  0.3003 -0.5314
 9204SOL    HW139245   0.688   0.345  11.792 -1.4448  0.7799  2.5478
 9204SOL    HW239246   0.630   0.347  11.657 -0.2788 -0.3435 -0.3711
 9205SOL     OW39247   0.823   3.469  17.417 -0.3902 -0.0572 -0.5896
 9205SOL    HW139248   0.805   3.563  17.411 -1.5982 -0.1089  1.9786
 9205SOL    HW239249   0.753   3.443  17.477  1.8684 -1.1677  1.5657
 9206SOL     OW39250   4.139   0.143   5.194  0.3376 -0.2543 -0.1939
 9206SOL    HW139251   4.231   0.143   5.169  0.3218  0.6056 -0.2337
 9206SOL    HW239252   4.148   0.140   5.289 -0.1020  0.6989 -0.1140
 9207SOL     OW39253   0.618   3.970  11.452 -0.2216  0.5542 -0.5331
 9207SOL    HW139254   0.528   3.955  11.482  1.0108  0.3429  3.0962
 9207SOL    HW239255   0.663   3.978  11.536 -1.4035  0.3569  0.1216
 9208SOL     OW39256   1.479   1.926   0.504 -0.8351 -0.4203 -0.3205
 9208SOL    HW139257   1.458   2.018   0.485 -3.2030 -1.1439 -1.2144
 9208SOL    HW239258   1.463   1.901   0.413 -0.8854 -1.3205 -0.0606
 9209SOL     OW39259   0.212   2.889  12.800  0.3905  0.2949 -0.4685
 9209SOL    HW139260   0.236   2.820  12.738  1.1153  0.2622 -0.1586
 9209SOL    HW239261   0.120   2.910  12.789  0.3338  0.1991 -0.1525
 9210SOL     OW39262   2.737   0.387  12.535 -0.1823 -0.1028 -0.5571
 9210SOL    HW139263   2.700   0.329  12.601 -0.9179  0.3456 -0.5808
 9210SOL    HW239264   2.735   0.476  12.570 -2.1238 -0.1733 -0.4905
 9211SOL     OW39265   1.091   4.668   5.243  0.4908 -0.1205 -0.5824
 9211SOL    HW139266   1.010   4.661   5.293  1.1285  1.1099  0.5997
 9211SOL    HW239267   1.062   4.729   5.175  1.0512  0.4921 -0.2584
 9212SOL     OW39268   4.690   4.114   9.663 -0.4489  0.3773  0.2779
 9212SOL    HW139269   0.013   4.054   9.703  0.2515  0.9599  0.0483
 9212SOL    HW239270   4.666   4.167   9.738  2.5902  1.7240  0.2938
 9213SOL     OW39271   0.001   2.281   5.168  0.1995 -0.4298 -0.0671
 9213SOL    HW139272   0.041   2.219   5.106  0.7761  0.6919 -0.8082
 9213SOL    HW239273   4.656   2.283   5.125  0.1018 -0.4977  0.1198
 9214SOL     OW39274   4.704   4.144   8.855 -0.0988 -0.6243  0.9245
 9214SOL    HW139275   0.051   4.186   8.854  0.0322 -0.9006  0.4575
 9214SOL    HW239276   4.707   4.075   8.921 -1.3310 -1.0179  0.5704
 9215SOL     OW39277   3.707   1.103   3.607 -0.5507 -0.3225 -0.4412
 9215SOL    HW139278   3.696   1.195   3.587 -1.9840  0.1612  2.5088
 9215SOL    HW239279   3.633   1.073   3.554 -0.2386 -1.5828 -0.1711
 9216SOL     OW39280   2.443   3.640   9.912 -0.5178  0.4664 -0.3616
 9216SOL    HW139281   2.474   3.632   9.821  1.8965 -1.1496  0.6030
 9216SOL    HW239282   2.352   3.612   9.908 -0.8039  1.3691 -0.1319
 9217SOL     OW39283   2.182   1.089   6.611 -0.5672  0.1189  0.3842
 9217SOL    HW139284   2.237   1.063   6.537 -0.8597 -1.4387  0.7083
 9217SOL    HW239285   2.254   1.099   6.672 -1.8340  1.0013  1.7355
 9218SOL     OW39286   1.906   2.647   7.092 -0.3458 -0.1372  0.8562
 9218SOL    HW139287   1.957   2.704   7.150 -0.5639  1.3912 -0.4397
 9218SOL    HW239288   1.948   2.562   7.104  1.8555  1.0449  1.6723
 9219SOL     OW39289   0.531   3.644   3.690 -0.5634 -0.0425  0.0366
 9219SOL    HW139290   0.491   3.559   3.704  1.7614 -1.0467  0.6215
 9219SOL    HW239291   0.473   3.668   3.618 -2.4075 -0.1269  1.5187
 9220SOL     OW39292   4.202   4.216   2.513  0.6373  0.0615  0.3241
 9220SOL    HW139293   4.288   4.218   2.556 -0.5788  0.6680  2.7402
 9220SOL    HW239294   4.159   4.274   2.576  1.6056  2.3604 -1.1442
 9221SOL     OW39295   0.795   2.165  16.726  0.1851 -0.1231 -0.0561
 9221SOL    HW139296   0.785   2.246  16.777  0.1420 -1.3668  1.9048
 9221SOL    HW239297   0.831   2.189  16.641 -0.0325 -0.3259 -0.2017
 9222SOL     OW39298   1.627   2.109   7.927  0.1341 -0.3007  0.4629
 9222SOL    HW139299   1.643   2.132   8.018 -0.4917 -0.3452  0.5832
 9222SOL    HW239300   1.532   2.103   7.938  0.2123 -0.5780  0.9910
 9223SOL     OW39301   0.915   4.685   5.813 -0.5505 -0.1448 -0.0800
 9223SOL    HW139302   0.849   4.626   5.848 -0.1883 -0.7389 -0.4043
 9223SOL    HW239303   0.867   4.702   5.731 -0.6607  1.0438  0.2261
 9224SOL     OW39304   4.708   0.693   1.075  0.5809  0.3460  0.6310
 9224SOL    HW139305   4.633   0.751   1.077 -0.2070 -0.6342 -0.4134
 9224SOL    HW239306   0.045   0.750   1.064  0.4426  0.3337 -0.4064
 9225SOL     OW39307   4.663   1.004  11.283 -0.6011 -0.2207  0.0054
 9225SOL    HW139308   4.723   0.995  11.357  0.3259 -1.3971 -0.8987
 9225SOL    HW239309   4.716   1.061  11.227 -0.9927  0.0230 -0.1182
 9226SOL     OW39310   3.931   2.885   8.647  0.1141  0.2559  0.5159
 9226SOL    HW139311   3.958   2.798   8.677 -2.3193 -0.9557 -0.7287
 9226SOL    HW239312   3.974   2.877   8.562  1.6488  0.5642  1.2688
 9227SOL     OW39313   0.840   3.744  15.325 -0.5600  0.1408  0.0042
 9227SOL    HW139314   0.774   3.679  15.348  0.3544 -1.9185 -3.1961
 9227SOL    HW239315   0.872   3.701  15.246  2.6364 -0.3061  1.5438
 9228SOL     OW39316   3.141   0.852   5.875  0.0279 -0.1209  0.1560
 9228SOL    HW139317   3.107   0.768   5.845 -0.0018  1.1058 -3.3452
 9228SOL    HW239318   3.059   0.889   5.909  0.3099 -0.0393  0.7418
 9229SOL     OW39319   2.242   2.227  10.751  0.8934  0.5862 -0.8322
 9229SOL    HW139320   2.177   2.208  10.819  1.2488 -1.4989 -1.0903
 9229SOL    HW239321   2.182   2.225  10.677  0.7206 -0.7426 -0.6530
 9230SOL     OW39322   3.334   4.319   6.599  0.3184  0.1342 -0.0999
 9230SOL    HW139323   3.263   4.307   6.662 -0.3364  2.6594 -0.3392
 9230SOL    HW239324   3.338   4.231   6.562 -1.5089  0.1443 -0.3326
 9231SOL     OW39325   3.407   1.814   7.848 -0.0008 -0.0833  0.1073
 9231SOL    HW139326   3.320   1.826   7.886 -1.3171 -2.7259 -2.0957
 9231SOL    HW239327   3.459   1.799   7.927  1.3406 -0.4156 -0.8379
 9232SOL     OW39328   2.065   1.827   6.519  0.0039  0.7138  0.4431
 9232SOL    HW139329   2.137   1.833   6.457  0.5243 -0.6322  0.9177
 9232SOL    HW239330   2.002   1.894   6.494 -0.9943 -0.4027 -0.0612
 9233SOL     OW39331   0.054   2.055  16.515 -0.0503  0.2212  0.1101
 9233SOL    HW139332   0.113   1.981  16.520 -1.6094 -1.1832 -2.2465
 9233SOL    HW239333   0.001   2.041  16.593  0.8749  0.7938  0.8483
 9234SOL     OW39334   1.902   4.113   3.983 -0.1668 -0.0563 -0.0379
 9234SOL    HW139335   1.997   4.117   3.983 -0.2432  1.3057  1.5221
 9234SOL    HW239336   1.884   4.155   4.067  1.0228  2.7239 -1.1784
 9235SOL     OW39337   3.961   0.321   6.387  0.0021 -0.2462 -0.2982
 9235SOL    HW139338   3.945   0.335   6.481 -0.4551  0.7217 -0.5160
 9235SOL    HW239339   4.038   0.375   6.367 -0.3923 -0.1339 -1.4979
 9236SOL     OW39340   4.718   3.123   5.701  0.0312 -0.6643  0.3248
 9236SOL    HW139341   4.649   3.058   5.718 -1.9770  0.9695 -1.4788
 9236SOL    HW239342   4.727   3.158   5.790 -0.1285  0.4774 -0.1070
 9237SOL     OW39343   0.078   3.295   6.193  0.0549 -0.2261  0.7766
 9237SOL    HW139344   0.017   3.368   6.202  0.1309 -0.3791  2.4232
 9237SOL    HW239345   0.106   3.290   6.284 -1.0215 -2.2366  0.9911
 9238SOL     OW39346   4.369   1.052   4.381 -0.2406  0.2224  0.0210
 9238SOL    HW139347   4.332   0.991   4.316 -1.0838  0.7935 -0.0216
 9238SOL    HW239348   4.446   0.996   4.397  0.7346  1.1195 -1.5162
 9239SOL     OW39349   1.316   4.081   6.623 -0.3242 -0.3925 -0.3533
 9239SOL    HW139350   1.225   4.073   6.594 -0.2317  0.4794 -0.8893
 9239SOL    HW239351   1.361   4.052   6.544  0.2244 -0.1884 -0.1148
 9240SOL     OW39352   2.913   1.713   0.878 -0.3440  0.3118 -0.3311
 9240SOL    HW139353   2.859   1.745   0.950 -0.9749 -1.3787 -0.0611
 9240SOL    HW239354   2.838   1.677   0.830 -0.5001 -0.2551  0.3472
 9241SOL     OW39355   3.662   0.361  11.042  0.1197  0.0797  0.0797
 9241SOL    HW139356   3.595   0.302  11.005 -0.6871  1.8600 -1.2869
 9241SOL    HW239357   3.608   0.431  11.078 -1.6951 -1.9475  1.3543
 9242SOL     OW39358   3.468   3.679   2.192  0.0275 -0.2732 -0.0898
 9242SOL    HW139359   3.516   3.684   2.275 -1.5787  0.2408  0.7884
 9242SOL    HW239360   3.383   3.719   2.206  0.0205  0.9320 -3.5463
 9243SOL     OW39361   2.981   1.542   7.211 -0.3067 -0.2906 -0.3527
 9243SOL    HW139362   2.971   1.448   7.228  0.2399 -0.3331 -0.2661
 9243SOL    HW239363   3.059   1.533   7.157 -0.0206 -1.2067  0.2060
 9244SOL     OW39364   2.498   3.140  15.406  0.2096 -0.1328 -0.3584
 9244SOL    HW139365   2.436   3.107  15.342  1.7837  0.2496 -2.0790
 9244SOL    HW239366   2.560   3.068  15.399  0.7122  0.0689  2.0313
 9245SOL     OW39367   2.156   2.160  11.831 -0.1681 -0.8947 -0.0971
 9245SOL    HW139368   2.157   2.076  11.785  2.6806 -1.1047  0.3191
 9245SOL    HW239369   2.249   2.157  11.853 -0.5738  0.1896  1.7879
 9246SOL     OW39370   0.418   0.590   5.406 -0.0052 -0.0516 -0.4220
 9246SOL    HW139371   0.378   0.614   5.489 -0.7645 -3.5170  0.1990
 9246SOL    HW239372   0.343   0.544   5.367 -0.3580  0.0405  0.1404
 9247SOL     OW39373   3.447   1.103   1.532  0.3870 -0.3511 -0.6080
 9247SOL    HW139374   3.506   1.039   1.491 -0.3676 -0.8215 -0.9519
 9247SOL    HW239375   3.471   1.083   1.623  1.3189  0.6422 -0.6248
 9248SOL     OW39376   1.392   0.268   7.428 -0.1198  0.1888 -0.4562
 9248SOL    HW139377   1.394   0.351   7.476 -1.1242  0.2556 -0.5284
 9248SOL    HW239378   1.327   0.223   7.481 -1.0291  2.5023  0.3989
 9249SOL     OW39379   4.472   3.745  14.563 -0.1003  0.1500 -0.0948
 9249SOL    HW139380   4.420   3.710  14.491  0.7755 -1.1969 -0.0552
 9249SOL    HW239381   4.560   3.724  14.533 -0.3864 -0.0003 -0.8224
 9250SOL     OW39382   4.501   1.181   4.624 -0.4221  0.0634 -0.0195
 9250SOL    HW139383   4.459   1.095   4.615  0.3647 -0.2517 -0.7396
 9250SOL    HW239384   4.595   1.163   4.629 -0.1143  1.9759  0.9556
 9251SOL     OW39385   3.972   2.620   1.580  0.3718 -0.0028 -0.6231
 9251SOL    HW139386   3.927   2.703   1.598  0.5410 -0.1146  0.2804
 9251SOL    HW239387   3.938   2.603   1.492 -1.3672 -2.0248  0.4449
 9252SOL     OW39388   4.296   2.082   3.605 -0.3510 -0.1558  0.1119
 9252SOL    HW139389   4.323   2.164   3.647 -2.2517 -1.1041  3.1560
 9252SOL    HW239390   4.342   2.018   3.659  0.2967  0.5086  0.3550
 9253SOL     OW39391   3.848   0.433   7.577  0.6117 -0.2767  0.3795
 9253SOL    HW139392   3.871   0.391   7.494  0.6184  0.6933 -0.1114
 9253SOL    HW239393   3.775   0.379   7.607 -1.7829  1.8809 -1.6145
 9254SOL     OW39394   4.054   4.448  16.138 -0.1836  0.2666 -0.5515
 9254SOL    HW139395   4.100   4.393  16.075 -0.8656 -0.3641 -0.4987
 9254SOL    HW239396   4.109   4.526  16.131 -0.5668  0.8927  3.2334
 9255SOL     OW39397   0.211   3.580   1.215 -0.5128  0.2293 -0.4374
 9255SOL    HW139398   0.207   3.510   1.149  1.6108 -0.4595  0.1705
 9255SOL    HW239399   0.190   3.660   1.165  0.0024  0.5689 -0.1070
 9256SOL     OW39400   1.631   3.665  14.120 -0.0252  0.1526 -0.2269
 9256SOL    HW139401   1.627   3.679  14.214 -2.8883 -0.6159 -0.2300
 9256SOL    HW239402   1.727   3.658  14.118  0.0150  0.3907  0.8106
 9257SOL     OW39403   1.628   2.576  14.861 -0.3637 -0.0378 -0.4240
 9257SOL    HW139404   1.596   2.635  14.930  0.8142 -1.0250  0.9802
 9257SOL    HW239405   1.578   2.497  14.881 -1.0715  0.6170  0.4065
 9258SOL     OW39406   2.316   2.950   8.055  0.0073 -0.0062  0.1028
 9258SOL    HW139407   2.332   2.924   7.965  2.2172  1.8158 -0.0336
 9258SOL    HW239408   2.404   2.951   8.093  0.3315 -0.8828 -0.6339
 9259SOL     OW39409   2.629   3.584   5.620  0.3510  0.2736 -0.1718
 9259SOL    HW139410   2.616   3.617   5.531 -1.4661  0.2253  0.0765
 9259SOL    HW239411   2.641   3.491   5.601  2.3477  1.0172 -2.4922
 9260SOL     OW39412   0.900   2.104  16.221 -0.4949  0.4173 -0.0392
 9260SOL    HW139413   0.869   2.139  16.138 -0.0059 -1.1468 -0.8905
 9260SOL    HW239414   0.903   2.012  16.195 -0.7422  0.5789 -0.6267
 9261SOL     OW39415   1.229   0.665   7.231  0.3511  0.0389  0.2630
 9261SOL    HW139416   1.257   0.753   7.208  0.4905  0.3679  1.6562
 9261SOL    HW239417   1.147   0.662   7.182  1.8630  1.7763 -2.3650
 9262SOL     OW39418   2.242   0.030   4.697  0.4592 -0.1857  0.4173
 9262SOL    HW139419   2.199   0.115   4.707  0.1503 -0.5483  2.2051
 9262SOL    HW239420   2.261   0.031   4.603  0.5417 -0.8599  0.4275
 9263SOL     OW39421   1.085   1.277  10.518 -0.2676 -0.1408  0.4030
 9263SOL    HW139422   1.094   1.228  10.600 -0.9668  0.3592  0.7728
 9263SOL    HW239423   1.160   1.233  10.477  1.0291  0.8210  1.7282
 9264SOL     OW39424   3.056   2.256   5.309  0.4994 -0.4415  0.6763
 9264SOL    HW139425   2.969   2.248   5.349 -0.1315 -1.4441 -0.9048
 9264SOL    HW239426   3.068   2.345   5.275  1.3117 -0.4770  0.8785
 9265SOL     OW39427   2.782   1.963  16.790  0.0563 -0.8753  0.1819
 9265SOL    HW139428   2.726   2.038  16.767  0.0224 -1.6612 -2.2994
 9265SOL    HW239429   2.866   2.009  16.789 -1.1068  1.2190 -1.6345
 9266SOL     OW39430   0.705   1.049   5.718 -0.6074 -0.7700  0.6300
 9266SOL    HW139431   0.695   0.986   5.647 -1.3021  0.3010 -0.2111
 9266SOL    HW239432   0.654   1.120   5.681  0.3501 -0.5880 -0.3510
 9267SOL     OW39433   0.529   3.862   5.796  0.3067 -0.1801  0.0855
 9267SOL    HW139434   0.607   3.807   5.782  1.1455  0.5007  2.0708
 9267SOL    HW239435   0.570   3.938   5.839 -1.8588  0.8551  0.3473
 9268SOL     OW39436   3.208   2.473  10.678 -0.5226 -0.0003 -0.3071
 9268SOL    HW139437   3.135   2.512  10.630 -0.0828  0.3254 -0.7204
 9268SOL    HW239438   3.231   2.411  10.609  0.2158 -0.5325  0.4165
 9269SOL     OW39439   1.419   4.529   9.789 -0.1056  0.4670 -0.0376
 9269SOL    HW139440   1.332   4.493   9.773 -0.2770  0.2236  1.3979
 9269SOL    HW239441   1.464   4.468   9.731  0.1786 -1.3481  2.0815
 9270SOL     OW39442   0.748   1.592   4.508  0.1134 -0.2127 -0.2702
 9270SOL    HW139443   0.782   1.544   4.584 -1.2985 -0.2450  0.3555
 9270SOL    HW239444   0.774   1.535   4.436 -0.8546  1.2237 -1.7445
 9271SOL     OW39445   2.369   0.891  17.198  0.2824  0.1355  0.3215
 9271SOL    HW139446   2.420   0.812  17.217 -0.8060  0.0618  2.9726
 9271SOL    HW239447   2.442   0.953  17.194  0.1164  0.1757 -2.3874
 9272SOL     OW39448   2.937   2.022   3.943 -0.1706  0.5546  0.2153
 9272SOL    HW139449   2.949   1.974   4.025 -0.3808 -0.2951 -0.2516
 9272SOL    HW239450   2.902   1.956   3.884  0.3066 -0.2629  0.8565
 9273SOL     OW39451   3.932   1.669   4.510 -0.6134 -0.5196  0.5356
 9273SOL    HW139452   3.994   1.714   4.568 -0.9396 -1.0601  1.3076
 9273SOL    HW239453   3.967   1.581   4.523 -0.3443 -0.3647  0.8791
 9274SOL     OW39454   3.975   0.457   2.610 -0.0567 -0.0304 -0.0712
 9274SOL    HW139455   4.017   0.542   2.595 -0.5240  0.0456 -0.9228
 9274SOL    HW239456   3.896   0.460   2.557  1.1437  0.0828 -1.8500
 9275SOL     OW39457   2.089   1.228  13.427 -0.3679  0.2305 -0.3390
 9275SOL    HW139458   2.106   1.167  13.499  2.6455  0.6286 -0.7065
 9275SOL    HW239459   2.138   1.309  13.441  1.8256 -1.3373  1.1040
 9276SOL     OW39460   3.359   2.274   1.444  0.5103 -0.1940 -0.4924
 9276SOL    HW139461   3.416   2.286   1.520  1.8017 -1.1766 -1.3057
 9276SOL    HW239462   3.319   2.188   1.451  0.9182 -0.2464  1.2239
 9277SOL     OW39463   1.494   1.525   1.465 -0.3980 -0.4369 -0.6153
 9277SOL    HW139464   1.409   1.569   1.472 -0.2973 -0.5411  1.4885
 9277SOL    HW239465   1.485   1.462   1.537 -1.3338  1.7545  1.1852
 9278SOL     OW39466   4.663   1.616   4.089 -0.0511 -0.3208  0.0255
 9278SOL    HW139467   4.604   1.690   4.091  0.9623  0.5091 -0.5458
 9278SOL    HW239468   4.667   1.585   4.179  1.8814  1.9696  0.7176
 9279SOL     OW39469   2.764   1.091  12.043  0.3745 -0.6188  0.6322
 9279SOL    HW139470   2.755   1.015  11.986 -1.4323 -0.6402  0.9445
 9279SOL    HW239471   2.858   1.081  12.062  0.3604 -1.3720  0.2797
 9280SOL     OW39472   1.398   1.026   8.060  0.5371  0.8842 -0.2400
 9280SOL    HW139473   1.353   1.067   8.134 -0.9605  0.2239 -0.7869
 9280SOL    HW239474   1.454   1.099   8.031 -1.3415  3.0601  1.6129
 9281SOL     OW39475   0.430   0.470   9.574 -0.7227 -0.1688  0.2992
 9281SOL    HW139476   0.422   0.538   9.507  2.1549  1.7459  1.8958
 9281SOL    HW239477   0.523   0.448   9.576 -0.7339 -0.3994 -1.2479
 9282SOL     OW39478   3.457   3.722   4.219  0.1366 -0.1048 -0.1507
 9282SOL    HW139479   3.539   3.712   4.267 -0.1597  0.6244  0.5098
 9282SOL    HW239480   3.463   3.795   4.157  1.0167  0.6028  0.7620
 9283SOL     OW39481   3.983   1.679   2.888 -0.1033  0.0072 -0.0396
 9283SOL    HW139482   3.905   1.668   2.943  1.3491  0.8917  2.2007
 9283SOL    HW239483   3.945   1.689   2.801  3.2297  1.2523 -1.3606
 9284SOL     OW39484   4.491   2.543   5.240  0.1923  0.3364  0.0258
 9284SOL    HW139485   4.490   2.499   5.325  0.1870 -1.6841 -1.0356
 9284SOL    HW239486   4.458   2.472   5.185  0.6965 -0.9650  1.3958
 9285SOL     OW39487   3.507   2.423   3.706  0.4918  0.2913 -0.1837
 9285SOL    HW139488   3.520   2.388   3.618 -0.5740  0.9823 -0.6207
 9285SOL    HW239489   3.411   2.419   3.710  0.6821 -1.1789  2.9349
 9286SOL     OW39490   3.172   1.479   6.167  0.1770  0.1754 -0.0547
 9286SOL    HW139491   3.126   1.560   6.147 -1.0893 -0.5114  0.0436
 9286SOL    HW239492   3.259   1.512   6.187 -0.0993  0.2468  1.0063
 9287SOL     OW39493   1.123   4.680   6.688 -0.2033 -0.2287  0.1745
 9287SOL    HW139494   1.208   4.684   6.645 -0.4361 -1.0643 -0.3901
 9287SOL    HW239495   1.064   4.729   6.630  0.3047 -2.2519 -2.0649
 9288SOL     OW39496   3.402   2.935   3.302  0.5577  0.7325  0.1980
 9288SOL    HW139497   3.364   3.015   3.266 -0.1626 -0.9142 -2.6821
 9288SOL    HW239498   3.489   2.936   3.263  0.7511 -1.4117  0.6061
 9289SOL     OW39499   1.378   0.508   2.166  0.3533 -0.2605  0.2040
 9289SOL    HW139500   1.412   0.597   2.154 -0.2473 -0.1726 -0.8213
 9289SOL    HW239501   1.439   0.473   2.231 -0.0678 -0.1293  0.6677
 9290SOL     OW39502   2.147   4.369   9.500  0.5249  0.2295  0.1641
 9290SOL    HW139503   2.055   4.386   9.517  0.5169  1.4119 -1.0896
 9290SOL    HW239504   2.181   4.455   9.523  0.3638  1.2671 -3.4987
 9291SOL     OW39505   0.588   0.272   3.772  0.2127 -0.2262  0.1180
 9291SOL    HW139506   0.637   0.354   3.777  0.1923 -0.1884 -0.3512
 9291SOL    HW239507   0.665   0.215   3.772  1.5591  1.5902 -2.2833
 9292SOL     OW39508   3.115   1.990   5.211 -0.5241 -0.3793  0.2387
 9292SOL    HW139509   3.056   2.059   5.239 -2.9768 -1.0675 -3.1810
 9292SOL    HW239510   3.199   2.031   5.233 -0.8602 -0.2163  1.2025
 9293SOL     OW39511   3.386   3.063  16.341  0.3781 -0.2210  0.2317
 9293SOL    HW139512   3.338   3.031  16.417 -0.2606 -0.0193 -0.0837
 9293SOL    HW239513   3.430   3.127  16.397 -0.4604 -0.5765  1.3016
 9294SOL     OW39514   4.100   4.294  15.914  0.3703 -0.1962  0.0990
 9294SOL    HW139515   4.022   4.250  15.879 -0.4029  1.9761 -0.9367
 9294SOL    HW239516   4.151   4.320  15.838  1.5031  0.4953  1.0888
 9295SOL     OW39517   3.043   2.767   5.193 -0.2276  0.2195  0.2305
 9295SOL    HW139518   3.080   2.680   5.208 -2.3982 -0.7854 -0.3453
 9295SOL    HW239519   3.105   2.814   5.249 -0.1585  0.4556 -0.0445
 9296SOL     OW39520   3.227   3.547  17.525  0.4607 -0.0640 -0.3136
 9296SOL    HW139521   3.235   3.609  17.453  1.8707  0.6165  0.4255
 9296SOL    HW239522   3.303   3.567  17.580  1.3539  0.3867 -1.7173
 9297SOL     OW39523   3.012   0.401  11.158  0.2432 -0.0685  0.2726
 9297SOL    HW139524   3.002   0.349  11.238  0.4591 -2.3567 -1.2098
 9297SOL    HW239525   3.089   0.359  11.121 -0.9128 -0.0982 -2.0976
 9298SOL     OW39526   3.435   2.595   5.100 -0.4556  0.3046  0.3535
 9298SOL    HW139527   3.418   2.666   5.039 -0.4232 -1.1192 -1.3302
 9298SOL    HW239528   3.489   2.634   5.168  1.0168 -1.5197  0.2380
 9299SOL     OW39529   2.851   1.373   3.352 -0.3839 -0.0656 -0.5106
 9299SOL    HW139530   2.917   1.304   3.354 -0.6436 -0.2390  2.1337
 9299SOL    HW239531   2.899   1.443   3.307  1.9914 -0.6663  1.0763
 9300SOL     OW39532   3.600   3.638  12.403 -0.3388  0.2720  0.1562
 9300SOL    HW139533   3.563   3.551  12.417 -1.0639  0.5228 -0.2034
 9300SOL    HW239534   3.693   3.621  12.384  0.4902  4.1318  0.8040
 9301SOL     OW39535   2.942   0.297   0.430  0.0595 -0.2056 -0.4223
 9301SOL    HW139536   3.028   0.262   0.456  0.1302  1.3604  1.4224
 9301SOL    HW239537   2.974   0.357   0.362  0.7705 -1.3177 -1.0793
 9302SOL     OW39538   1.251   4.324   1.687 -0.0575  0.1454 -0.3123
 9302SOL    HW139539   1.224   4.366   1.769 -1.2539 -2.7564  0.7925
 9302SOL    HW239540   1.226   4.233   1.702  0.4604 -0.0085 -0.4098
 9303SOL     OW39541   3.371   0.054   7.239  0.4001  0.4953 -0.2621
 9303SOL    HW139542   3.399   0.139   7.204 -0.0952  0.6243 -0.3520
 9303SOL    HW239543   3.316   0.025   7.167 -1.5068  1.5448  0.7513
 9304SOL     OW39544   0.774   2.637   4.079  0.1274  0.6591  0.3865
 9304SOL    HW139545   0.740   2.594   4.157  2.4155 -3.4884 -0.9172
 9304SOL    HW239546   0.818   2.714   4.114  0.5294  0.3699  0.5139
 9305SOL     OW39547   1.434   4.370   6.802 -0.7713 -0.3700 -0.3921
 9305SOL    HW139548   1.362   4.360   6.739 -1.6303 -2.0324  0.8474
 9305SOL    HW239549   1.466   4.283   6.824 -0.3680 -0.5516 -1.6858
 9306SOL     OW39550   0.339   1.839  10.555  0.2676  0.1455  0.4840
 9306SOL    HW139551   0.253   1.867  10.525  0.0936 -2.4330 -1.4161
 9306SOL    HW239552   0.377   1.827  10.468  1.2267 -0.5873  1.0080
 9307SOL     OW39553   2.015   4.375   1.183  0.0007 -0.4309 -0.3356
 9307SOL    HW139554   1.935   4.323   1.188 -0.0666 -0.5884 -2.6882
 9307SOL    HW239555   1.993   4.467   1.168  0.0895 -0.1235  1.5101
 9308SOL     OW39556   3.462   1.009   6.504 -0.5395 -0.0570 -0.5982
 9308SOL    HW139557   3.534   0.963   6.462 -0.2967  0.6578 -0.9747
 9308SOL    HW239558   3.498   1.096   6.520 -2.6774  0.5680  0.8559
 9309SOL     OW39559   4.594   4.711   4.511  0.1356 -0.0665  0.4196
 9309SOL    HW139560   4.620   4.668   4.429 -0.5426 -2.2292  1.3419
 9309SOL    HW239561   4.609   0.065   4.494  2.5404 -0.9207 -2.2134
 9310SOL     OW39562   2.725   2.642   1.571  0.0146 -0.1797  0.3113
 9310SOL    HW139563   2.715   2.583   1.497 -2.0336  0.6062 -0.0374
 9310SOL    HW239564   2.794   2.593   1.615 -0.2615 -0.2278  0.6843
 9311SOL     OW39565   1.732   1.127   6.471  0.6328 -0.4204  0.0489
 9311SOL    HW139566   1.816   1.085   6.453  1.9619  1.2412  2.3742
 9311SOL    HW239567   1.769   1.216   6.477  1.5058 -1.0258  3.3264
 9312SOL     OW39568   3.873   3.802  11.008  0.2955  0.0766  0.1756
 9312SOL    HW139569   3.837   3.794  11.096 -0.5719 -2.8521 -0.4176
 9312SOL    HW239570   3.887   3.709  10.989 -0.0515  0.5863 -2.6270
 9313SOL     OW39571   3.881   0.895   5.289 -0.0635  0.2118 -0.2402
 9313SOL    HW139572   3.886   0.898   5.385 -0.2064  3.2196 -0.3228
 9313SOL    HW239573   3.919   0.815   5.254 -0.8891 -0.5073  0.4975
 9314SOL     OW39574   0.784   0.351  16.756 -0.2495 -0.3231  0.4740
 9314SOL    HW139575   0.841   0.301  16.697 -1.6431  1.2454 -2.2186
 9314SOL    HW239576   0.711   0.382  16.702  0.5010 -0.0714 -0.4137
 9315SOL     OW39577   1.939   1.030   6.749 -0.1338 -0.3769 -0.0702
 9315SOL    HW139578   1.930   0.954   6.690  0.9266 -2.1449  2.0508
 9315SOL    HW239579   2.030   1.051   6.729  0.0859 -1.3504 -0.1283
 9316SOL     OW39580   4.442   3.437   9.839 -0.2281 -0.8410 -0.2111
 9316SOL    HW139581   4.486   3.505   9.889 -1.7602  2.0950 -2.8665
 9316SOL    HW239582   4.414   3.490   9.764  0.4087  0.2196  0.3062
 9317SOL     OW39583   3.372   4.250   6.188 -0.4290 -0.4651 -0.2248
 9317SOL    HW139584   3.373   4.200   6.270 -1.7950  0.1047  0.1432
 9317SOL    HW239585   3.347   4.183   6.124 -1.6914  0.0664 -0.2780
 9318SOL     OW39586   2.175   0.297   4.968 -0.1877 -0.4664  0.0843
 9318SOL    HW139587   2.165   0.379   5.016  1.6552 -0.8065  1.0800
 9318SOL    HW239588   2.082   0.276   4.958 -0.4889  0.3410  1.1719
 9319SOL     OW39589   3.269   0.787   8.090  0.1883 -0.3538 -0.2450
 9319SOL    HW139590   3.273   0.839   8.010 -0.0475 -0.0253 -0.0475
 9319SOL    HW239591   3.202   0.829   8.145  0.7636 -0.7392  0.7550
 9320SOL     OW39592   1.735   2.473  16.297  0.1737  0.5695 -0.4968
 9320SOL    HW139593   1.678   2.463  16.221  2.9419 -1.0240 -2.3522
 9320SOL    HW239594   1.674   2.512  16.360  1.4823  0.7867  0.6570
 9321SOL     OW39595   3.502   2.235   7.100  0.1982 -0.0308 -0.2724
 9321SOL    HW139596   3.594   2.229   7.126  0.5373  0.7643 -1.2697
 9321SOL    HW239597   3.521   2.282   7.018 -0.0521 -0.0566 -0.3466
 9322SOL     OW39598   0.540   3.111  17.093  0.0123  0.3410 -0.2006
 9322SOL    HW139599   0.451   3.105  17.058 -0.8562 -0.4867  2.0802
 9322SOL    HW239600   0.536   3.199  17.131  2.9714  0.2666  0.2567
 9323SOL     OW39601   1.873   2.582   1.845 -0.7298  0.2404  0.2383
 9323SOL    HW139602   1.791   2.610   1.804 -0.9140  0.0340  0.4620
 9323SOL    HW239603   1.876   2.489   1.822 -2.5564  0.2487 -0.0806
 9324SOL     OW39604   3.351   0.168   0.864  0.4775  0.4309  0.1651
 9324SOL    HW139605   3.402   0.088   0.853  0.2795  0.4397 -0.7780
 9324SOL    HW239606   3.411   0.223   0.915  1.7113  0.6953 -1.5668
 9325SOL     OW39607   2.029   1.345   8.039  0.2849  0.0698 -0.9467
 9325SOL    HW139608   1.968   1.354   8.112 -1.3188 -0.6676 -2.1862
 9325SOL    HW239609   2.007   1.421   7.984  0.5215  1.1502  0.4450
 9326SOL     OW39610   4.682   4.611   8.714  0.4348 -0.1485 -0.2556
 9326SOL    HW139611   4.637   4.577   8.636 -1.3681  0.2604  0.6073
 9326SOL    HW239612   4.623   4.681   8.742 -0.9191 -1.3038 -0.1575
 9327SOL     OW39613   3.905   1.749   5.390  0.4362 -0.0609  0.0789
 9327SOL    HW139614   3.981   1.692   5.386  1.0034  0.7580 -1.0098
 9327SOL    HW239615   3.940   1.818   5.446  0.2042  1.4925 -1.6605
 9328SOL     OW39616   2.419   1.475   4.858  0.6608  0.1927 -0.8474
 9328SOL    HW139617   2.332   1.437   4.846 -0.2731  2.3248 -0.8853
 9328SOL    HW239618   2.403   1.569   4.850  2.0702  0.5850  1.0657
 9329SOL     OW39619   0.220   4.189   8.242  0.1362 -0.0950  0.3761
 9329SOL    HW139620   0.233   4.162   8.151 -1.9017  1.4419 -0.3830
 9329SOL    HW239621   0.309   4.195   8.278  0.5526 -1.3924 -0.4741
 9330SOL     OW39622   4.519   1.346   0.189  0.4119 -0.0166 -0.1673
 9330SOL    HW139623   4.549   1.361   0.100 -0.6733  0.1764 -0.5043
 9330SOL    HW239624   4.575   1.281   0.230  0.1501  1.3378  2.4039
 9331SOL     OW39625   0.571   2.289   2.887  0.1725  0.4608  0.2385
 9331SOL    HW139626   0.481   2.282   2.856  0.8815 -0.4560 -1.6853
 9331SOL    HW239627   0.557   2.332   2.971  0.7470  2.7498 -0.8447
 9332SOL     OW39628   2.336   2.790   7.012 -0.0510 -0.0702  0.2132
 9332SOL    HW139629   2.308   2.872   7.054  0.1016  1.2438 -2.2041
 9332SOL    HW239630   2.428   2.807   6.990  0.0256 -1.0529 -0.2263
 9333SOL     OW39631   4.009   4.239   4.333 -0.4368  0.0539 -0.3946
 9333SOL    HW139632   4.084   4.189   4.365 -0.9812  0.0897  0.9605
 9333SOL    HW239633   3.967   4.168   4.284  0.2088 -1.3547  1.1013
 9334SOL     OW39634   4.545   4.293  15.262 -0.0844 -0.3573  0.1425
 9334SOL    HW139635   4.534   4.254  15.349 -1.5378 -0.3374 -0.0382
 9334SOL    HW239636   4.453   4.299  15.237  0.0198  0.1302 -0.1221
 9335SOL     OW39637   2.366   2.914  17.605  0.3424 -0.2589  0.5715
 9335SOL    HW139638   2.437   2.861  17.569 -1.0276 -1.0925 -0.9183
 9335SOL    HW239639   2.395   2.929  17.695  0.2496 -0.7294  0.6788
 9336SOL     OW39640   1.937   3.908   7.164  0.1791  0.3490  0.1019
 9336SOL    HW139641   1.948   3.877   7.254 -0.3799  2.0810  0.7677
 9336SOL    HW239642   1.886   3.832   7.134 -1.4846  1.7718 -0.6218
 9337SOL     OW39643   4.166   0.921   7.935  0.0051  0.0300  0.2282
 9337SOL    HW139644   4.189   0.828   7.945 -2.4793 -0.3327  2.5971
 9337SOL    HW239645   4.078   0.899   7.905 -0.3250  2.2212 -0.3521
 9338SOL     OW39646   2.286   0.383   4.293  0.3779  0.1495  0.1699
 9338SOL    HW139647   2.289   0.425   4.207  2.2469  1.3145  0.7967
 9338SOL    HW239648   2.378   0.356   4.301  0.0694 -0.8503  0.3152
 9339SOL     OW39649   4.120   2.365   5.188 -0.2670 -0.0735  0.0070
 9339SOL    HW139650   4.045   2.343   5.244  0.3889 -0.0521  0.9052
 9339SOL    HW239651   4.192   2.318   5.229  1.4355  2.1637 -0.3970
 9340SOL     OW39652   0.329   4.059  11.078 -0.2524 -0.1376 -0.2356
 9340SOL    HW139653   0.421   4.056  11.105 -0.3269  0.3450  0.0749
 9340SOL    HW239654   0.290   4.108  11.150  3.2885 -1.2640  2.4622
 9341SOL     OW39655   0.041   4.238   1.659  0.2604  0.3204 -0.4127
 9341SOL    HW139656   0.074   4.224   1.571 -0.4348 -0.2168 -0.5869
 9341SOL    HW239657   4.713   4.303   1.641 -1.7776 -1.1358  1.8814
 9342SOL     OW39658   3.195   0.832   7.388  0.6523  0.0707 -0.6420
 9342SOL    HW139659   3.188   0.739   7.367 -1.8177 -0.0836  0.8573
 9342SOL    HW239660   3.233   0.823   7.475 -1.8220  0.3222  0.4658
 9343SOL     OW39661   2.669   2.228   6.333  0.4224  0.1998 -0.0241
 9343SOL    HW139662   2.630   2.141   6.344 -0.1655  0.4107 -0.3782
 9343SOL    HW239663   2.692   2.255   6.421 -1.3172  2.6384 -0.3016
 9344SOL     OW39664   1.870   0.841   7.504  0.7975  0.1778  0.0619
 9344SOL    HW139665   1.820   0.825   7.424  1.0606 -3.6488  0.6427
 9344SOL    HW239666   1.799   0.845   7.568  2.3459 -1.1920  1.8612
 9345SOL     OW39667   1.269   1.716   2.494  0.4840  0.2126 -0.4558
 9345SOL    HW139668   1.224   1.678   2.569 -1.3126 -0.7751 -2.0324
 9345SOL    HW239669   1.208   1.751   2.430 -0.1433  2.7052  1.5223
 9346SOL     OW39670   0.484   3.957  15.428 -0.2253  0.3898 -0.1086
 9346SOL    HW139671   0.522   3.871  15.440  1.2684  1.3412  1.9110
 9346SOL    HW239672   0.537   3.989  15.355  1.2526 -0.5960  0.5428
 9347SOL     OW39673   2.087   0.233  17.533  0.6442 -0.4608 -0.2795
 9347SOL    HW139674   2.081   0.325  17.510  1.7933 -0.6659 -1.3291
 9347SOL    HW239675   2.004   0.194  17.504  0.0657 -1.1082  2.1567
 9348SOL     OW39676   3.340   0.772  12.819  0.0917 -0.3125 -0.6846
 9348SOL    HW139677   3.424   0.761  12.863 -0.8075  2.4754  1.7280
 9348SOL    HW239678   3.342   0.705  12.751  0.5342 -1.8512  0.8180
 9349SOL     OW39679   3.070   1.853  16.262 -0.0753  0.3131 -0.2802
 9349SOL    HW139680   3.150   1.841  16.211 -0.6459 -3.0029 -0.3910
 9349SOL    HW239681   2.998   1.824  16.205  0.7857 -1.3970 -0.4759
 9350SOL     OW39682   1.076   1.378  17.003 -0.1001  0.4069 -0.4641
 9350SOL    HW139683   1.082   1.300  16.948  0.4539  0.9056 -1.1238
 9350SOL    HW239684   0.985   1.401  16.987 -0.2120  1.1942  1.2908
 9351SOL     OW39685   2.887   4.437   7.353 -0.8106  0.5657  0.0184
 9351SOL    HW139686   2.877   4.442   7.258  0.2208  0.7210 -0.0831
 9351SOL    HW239687   2.796   4.441   7.382 -0.0512  1.1889  2.3454
 9352SOL     OW39688   4.514   4.117   0.040  0.8702 -0.1030 -0.3021
 9352SOL    HW139689   4.492   4.038  17.747  0.7908 -0.8115  0.9121
 9352SOL    HW239690   4.606   4.123   0.012  0.8289  0.2480 -0.3676
 9353SOL     OW39691   1.437   2.465   7.760  0.2947  0.5616  0.5287
 9353SOL    HW139692   1.482   2.534   7.711 -0.1242 -0.5568 -1.4288
 9353SOL    HW239693   1.514   2.434   7.807 -0.9603 -2.4304  0.6516
 9354SOL     OW39694   4.406   2.521   6.272  0.1837 -0.2730  0.1843
 9354SOL    HW139695   4.414   2.496   6.179  0.5022  2.4938 -0.5165
 9354SOL    HW239696   4.471   2.463   6.312 -1.0271 -1.6063  0.2333
 9355SOL     OW39697   0.475   3.278   2.544  0.6955  0.3540  0.0681
 9355SOL    HW139698   0.452   3.361   2.503 -0.4328  0.0551  0.0784
 9355SOL    HW239699   0.570   3.281   2.540  0.6051 -0.4742 -2.8545
 9356SOL     OW39700   3.509   1.334   8.711 -0.0161  0.0608  0.2268
 9356SOL    HW139701   3.481   1.303   8.625  1.2387  0.4569 -0.3274
 9356SOL    HW239702   3.596   1.369   8.693 -0.3326 -0.6641 -2.7242
 9357SOL     OW39703   3.004   3.902   7.211  0.2972  0.2455  0.3789
 9357SOL    HW139704   3.064   3.828   7.221 -0.2960 -0.2912 -0.0005
 9357SOL    HW239705   2.996   3.916   7.117  2.3322 -0.0097  0.1718
 9358SOL     OW39706   1.722   0.557   6.779 -0.0766 -0.3191  0.1101
 9358SOL    HW139707   1.650   0.494   6.775 -1.2008  0.9008  1.4261
 9358SOL    HW239708   1.690   0.628   6.724  1.9453  1.7208  1.5613
 9359SOL     OW39709   3.220   2.138   2.866 -0.1665 -0.3481 -0.4494
 9359SOL    HW139710   3.180   2.218   2.901 -0.5977  0.9938 -4.0212
 9359SOL    HW239711   3.155   2.096   2.811  0.8381 -2.9680  0.3787
 9360SOL     OW39712   3.315   1.276  16.007 -0.0750  0.4658 -0.0054
 9360SOL    HW139713   3.247   1.275  15.940 -1.6232 -0.1970  1.5896
 9360SOL    HW239714   3.373   1.348  15.982  0.3467 -0.0114 -0.4031
 9361SOL     OW39715   0.687   2.909   8.954 -0.0059 -0.1626 -0.0682
 9361SOL    HW139716   0.694   2.977   8.886  0.0454  0.5030  0.6076
 9361SOL    HW239717   0.718   2.960   9.029 -0.3304 -0.9678  0.6079
 9362SOL     OW39718   1.385   2.467   2.736  0.2780  0.0396  0.0145
 9362SOL    HW139719   1.291   2.484   2.733  0.4461  0.8579 -0.5525
 9362SOL    HW239720   1.401   2.402   2.667  0.5558  0.9422 -0.7737
 9363SOL     OW39721   2.552   3.565   5.343 -0.5961  0.8066 -0.0179
 9363SOL    HW139722   2.616   3.497   5.360 -0.4772  0.0911 -3.2881
 9363SOL    HW239723   2.587   3.607   5.265  1.5810  2.7058  1.9851
 9364SOL     OW39724   1.496   3.471   6.354  0.1819  0.5723 -0.4802
 9364SOL    HW139725   1.413   3.519   6.356 -0.4806 -0.4981 -1.5451
 9364SOL    HW239726   1.490   3.428   6.268 -1.0444  1.0275 -0.6234
 9365SOL     OW39727   0.727   3.597  11.858 -0.3942  0.5037 -0.1915
 9365SOL    HW139728   0.805   3.586  11.912 -2.2815  0.3973  2.5066
 9365SOL    HW239729   0.771   3.599  11.772 -0.0871  0.5585 -0.0330
 9366SOL     OW39730   0.647   4.303   6.467 -0.2829 -0.4852  0.2541
 9366SOL    HW139731   0.660   4.359   6.391 -0.4649 -1.5493 -0.5525
 9366SOL    HW239732   0.730   4.257   6.477  0.3213  1.0789  2.4637
 9367SOL     OW39733   3.763   1.707  12.830 -0.2200  0.7297 -0.1065
 9367SOL    HW139734   3.809   1.660  12.900  0.1932  1.2897  0.0059
 9367SOL    HW239735   3.799   1.667  12.751  1.5937 -0.3559  1.2604
 9368SOL     OW39736   1.298   3.248   3.351  0.6146  0.0004 -0.0844
 9368SOL    HW139737   1.327   3.329   3.392 -1.6462 -0.2102  1.9052
 9368SOL    HW239738   1.309   3.182   3.419 -0.5236  0.6956  0.7757
 9369SOL     OW39739   4.129   2.553   0.807  0.1610  0.4185  0.2585
 9369SOL    HW139740   4.139   2.530   0.900  1.6575  2.1442  0.5473
 9369SOL    HW239741   4.216   2.580   0.777  1.2636 -0.4249  2.6336
 9370SOL     OW39742   2.584   1.650   7.019  0.8104 -0.6116  0.1564
 9370SOL    HW139743   2.520   1.699   6.968 -0.3957 -0.7852  1.4900
 9370SOL    HW239744   2.577   1.680   7.110 -3.4349 -1.3484  0.1045
 9371SOL     OW39745   3.751   1.328   8.576  0.3382 -0.9218 -0.2864
 9371SOL    HW139746   3.821   1.381   8.615 -0.5326 -1.5277  2.1115
 9371SOL    HW239747   3.779   1.316   8.485 -0.3038 -1.0145 -0.4684
 9372SOL     OW39748   3.065   2.877   7.495 -0.0521 -0.4321  0.6941
 9372SOL    HW139749   3.000   2.869   7.565  0.3209 -2.1314  0.8424
 9372SOL    HW239750   3.145   2.848   7.540 -0.6464 -2.5818  0.3607
 9373SOL     OW39751   3.218   2.917   9.325 -0.5990  0.2807  0.1463
 9373SOL    HW139752   3.206   2.836   9.275 -1.8003  2.0465 -2.4106
 9373SOL    HW239753   3.312   2.907   9.338 -0.6910  0.4824  0.9600
 9374SOL     OW39754   0.961   1.919   4.963  0.5117  0.1413  0.1636
 9374SOL    HW139755   0.988   1.889   5.050  1.0053  0.1985  0.0303
 9374SOL    HW239756   0.926   2.007   4.981  0.5705  0.0814  0.5633
 9375SOL     OW39757   1.210   2.924   8.113  0.1613 -0.0630 -0.1954
 9375SOL    HW139758   1.282   2.875   8.150  0.9523  0.0472 -1.5978
 9375SOL    HW239759   1.135   2.902   8.168 -0.1281  2.4270  0.3898
 9376SOL     OW39760   0.126   4.451   6.222 -0.3408 -0.4607  0.4524
 9376SOL    HW139761   0.120   4.357   6.202 -0.2678 -0.4426  0.3462
 9376SOL    HW239762   0.071   4.491   6.155  0.9394 -2.7834 -1.9850
 9377SOL     OW39763   0.102   0.039  13.175  0.0960  0.3117 -0.2437
 9377SOL    HW139764   0.192   0.057  13.148  0.6859 -1.3546  0.6131
 9377SOL    HW239765   0.120   4.714  13.244  0.5946 -1.2809 -1.8592
 9378SOL     OW39766   3.251   1.810   3.572  0.0975 -0.2430 -0.3658
 9378SOL    HW139767   3.170   1.760   3.559  0.7061 -0.8398 -1.8702
 9378SOL    HW239768   3.226   1.826   3.663 -0.6562 -2.3968 -0.1779
 9379SOL     OW39769   2.945   3.415   6.935  0.1507  0.4070 -0.6206
 9379SOL    HW139770   2.862   3.444   6.972 -1.0877 -1.7752 -1.7073
 9379SOL    HW239771   3.003   3.431   7.010 -1.3504 -3.9341  1.4647
 9380SOL     OW39772   2.362   0.827   5.649 -0.0378 -0.4401  0.0534
 9380SOL    HW139773   2.287   0.771   5.629 -1.8263  1.8676  0.2594
 9380SOL    HW239774   2.435   0.765   5.653  0.3665  0.0289 -0.1076
 9381SOL     OW39775   0.571   3.632  17.279 -0.0942  0.2824  0.0018
 9381SOL    HW139776   0.519   3.692  17.332 -0.4884 -0.6827  0.7046
 9381SOL    HW239777   0.520   3.643  17.199  0.2818 -1.0502 -0.4240
 9382SOL     OW39778   2.674   2.408   7.183  0.0574 -0.1711  0.2607
 9382SOL    HW139779   2.581   2.427   7.193 -0.5443 -2.0257 -1.7953
 9382SOL    HW239780   2.694   2.475   7.118  0.2245 -1.8339 -1.4169
 9383SOL     OW39781   1.612   3.053   5.768 -0.1448 -0.2161 -0.4425
 9383SOL    HW139782   1.549   2.998   5.720  0.2297 -2.1282  1.2596
 9383SOL    HW239783   1.695   3.029   5.727 -0.5086 -2.1198 -0.0650
 9384SOL     OW39784   1.110   1.649   4.835 -0.2855  0.4117  0.3753
 9384SOL    HW139785   1.140   1.710   4.768  0.1321  1.7292  1.7587
 9384SOL    HW239786   1.029   1.618   4.795  1.0396 -0.9869 -1.2344
 9385SOL     OW39787   1.562   2.032   7.660 -0.8313 -0.3475 -0.2342
 9385SOL    HW139788   1.488   2.091   7.671 -1.2301 -0.7999 -0.4756
 9385SOL    HW239789   1.594   2.016   7.749  0.7918 -1.2882 -0.9868
 9386SOL     OW39790   1.922   4.485  17.342 -0.4215 -0.5625 -0.1512
 9386SOL    HW139791   1.878   4.415  17.294  1.9503 -2.7694  0.9022
 9386SOL    HW239792   1.989   4.507  17.277  0.0383 -1.1446  0.1280
 9387SOL     OW39793   0.436   4.020   8.094  0.1178  0.4129 -0.2155
 9387SOL    HW139794   0.419   3.961   8.168 -0.5846  0.8778 -0.0081
 9387SOL    HW239795   0.485   4.093   8.132  2.2347 -0.2783 -1.5971
 9388SOL     OW39796   2.975   1.456  17.003 -0.4421  0.3611  0.2840
 9388SOL    HW139797   2.951   1.537  16.958  0.2471 -0.5980 -1.8084
 9388SOL    HW239798   3.054   1.435  16.953  0.8027 -1.5620  3.1044
 9389SOL     OW39799   4.725   4.473   2.019  0.5220  0.6372  0.0667
 9389SOL    HW139800   0.019   4.389   1.987  0.7349  0.6390  0.2823
 9389SOL    HW239801   0.024   4.539   1.962  2.6653  1.1542  2.0806
 9390SOL     OW39802   4.241   3.179  16.942  0.2888  0.0303 -0.0764
 9390SOL    HW139803   4.319   3.221  16.978  1.3241 -1.6937 -0.3003
 9390SOL    HW239804   4.181   3.174  17.016  0.6661  2.2893  0.3868
 9391SOL     OW39805   3.771   4.417   7.351  0.2319 -0.1897  0.8225
 9391SOL    HW139806   3.709   4.443   7.283 -0.7097 -0.3004  1.6241
 9391SOL    HW239807   3.765   4.322   7.335  0.2907  0.0656 -0.6589
 9392SOL     OW39808   0.075   1.339   9.781 -0.2395  0.4907 -0.3772
 9392SOL    HW139809   0.146   1.328   9.845 -1.3829  1.0508  0.9940
 9392SOL    HW239810   0.095   1.273   9.715  1.4642  0.4471  0.1634
 9393SOL     OW39811   1.090   0.484   8.289  0.1417 -0.2501 -0.2552
 9393SOL    HW139812   1.169   0.535   8.273 -1.2159  2.6963  2.4830
 9393SOL    HW239813   1.114   0.441   8.371  2.8627 -0.6853 -1.2938
 9394SOL     OW39814   0.445   4.269  11.561 -0.0586  0.4312  0.0635
 9394SOL    HW139815   0.404   4.326  11.626 -1.2602 -0.7384  0.3430
 9394SOL    HW239816   0.535   4.273  11.593  0.1321 -2.3467 -0.1290
 9395SOL     OW39817   2.762   0.506   3.159 -0.5466 -0.6720  0.6365
 9395SOL    HW139818   2.712   0.580   3.195 -1.3712  0.0601 -2.0266
 9395SOL    HW239819   2.756   0.445   3.232  1.7927 -1.8101 -0.1540
 9396SOL     OW39820   1.106   0.397   4.046 -0.3487  0.0173 -0.1674
 9396SOL    HW139821   1.109   0.490   4.068 -0.9350  0.1598 -0.6694
 9396SOL    HW239822   1.036   0.405   3.981 -0.0155 -1.0332 -0.6643
 9397SOL     OW39823   2.087   3.176   2.203 -0.2904  0.6878  0.1930
 9397SOL    HW139824   2.056   3.085   2.198  0.5972  0.2240  3.5085
 9397SOL    HW239825   2.159   3.164   2.141  0.4665 -0.9284  1.3654
 9398SOL     OW39826   2.407   0.905   6.889  0.1323  0.6717 -0.0008
 9398SOL    HW139827   2.446   0.987   6.857 -0.0815  0.3047 -1.2008
 9398SOL    HW239828   2.422   0.911   6.983  1.0341  1.5472 -0.1942
 9399SOL     OW39829   0.216   2.127   8.142  0.5102  0.1511  0.4241
 9399SOL    HW139830   0.240   2.054   8.199 -2.3645 -1.1253  0.0349
 9399SOL    HW239831   0.157   2.172   8.203  0.3649  1.2905 -0.5590
 9400SOL     OW39832   1.956   2.268   7.416  0.3648  0.9130 -0.0033
 9400SOL    HW139833   1.889   2.301   7.476 -1.6202 -2.6868 -0.2530
 9400SOL    HW239834   2.028   2.248   7.475  0.9060  0.4260 -0.8307
 9401SOL     OW39835   2.242   4.710   1.668 -0.3261 -0.1515 -0.1221
 9401SOL    HW139836   2.303   4.644   1.636  1.6852 -0.1729  3.7778
 9401SOL    HW239837   2.182   4.658   1.722 -1.1939  0.8374 -0.1270
 9402SOL     OW39838   0.033   0.065   0.420  0.0597 -0.6041 -0.1953
 9402SOL    HW139839   0.121   0.094   0.396  1.2201 -1.0469  3.4408
 9402SOL    HW239840   0.037   0.062   0.516 -3.1352 -0.0627 -0.0602
 9403SOL     OW39841   1.429   1.253  16.754 -0.4237 -0.5469  0.0377
 9403SOL    HW139842   1.478   1.311  16.812  0.2647 -1.5702  0.4778
 9403SOL    HW239843   1.502   1.238  16.694  1.6779  1.2502  2.1686
 9404SOL     OW39844   4.157   0.403   3.616  1.1391 -0.0557  0.0437
 9404SOL    HW139845   4.244   0.424   3.649  1.6348 -1.0614 -0.6155
 9404SOL    HW239846   4.118   0.358   3.691 -0.9498  0.7831 -0.5361
 9405SOL     OW39847   0.732   4.085   6.841  0.7572 -0.6464  0.0550
 9405SOL    HW139848   0.644   4.078   6.805  0.4143  0.1152  0.7578
 9405SOL    HW239849   0.714   4.141   6.916 -0.1189  1.3344 -1.6350
 9406SOL     OW39850   2.844   4.497   7.888 -0.4697  0.6887  0.6109
 9406SOL    HW139851   2.864   4.541   7.971  1.0847  0.7341  0.2166
 9406SOL    HW239852   2.761   4.452   7.904 -1.7697  2.9889  0.2460
 9407SOL     OW39853   3.860   2.673   3.941 -0.0029 -0.2080  0.0808
 9407SOL    HW139854   3.798   2.745   3.947 -0.6214 -0.7516  0.1344
 9407SOL    HW239855   3.940   2.708   3.980 -0.0591 -0.2717  0.2526
 9408SOL     OW39856   0.852   3.140   9.664 -0.3742 -0.3405  0.7076
 9408SOL    HW139857   0.881   3.230   9.678 -0.1824  0.0385 -2.0580
 9408SOL    HW239858   0.916   3.116   9.598 -0.1698  1.5487  0.2082
 9409SOL     OW39859   0.871   2.338   5.674 -0.0891 -0.0182 -0.2071
 9409SOL    HW139860   0.908   2.423   5.651  0.8144 -0.0867  1.0063
 9409SOL    HW239861   0.954   2.301   5.706  0.1379 -0.1013 -0.8938
 9410SOL     OW39862   1.884   4.645   9.044 -0.3679 -0.1149 -0.1114
 9410SOL    HW139863   1.805   4.640   8.990 -0.3601 -1.2935 -0.0028
 9410SOL    HW239864   1.935   4.709   8.993  1.5573  0.8708  3.0464
 9411SOL     OW39865   0.329   3.613   0.847  0.3226 -0.3287 -0.0519
 9411SOL    HW139866   0.284   3.535   0.878  0.9768 -0.0747  1.5525
 9411SOL    HW239867   0.413   3.616   0.894  0.4409 -0.3425 -0.2630
 9412SOL     OW39868   1.469   2.243   6.019 -0.3250  0.4072 -0.1850
 9412SOL    HW139869   1.451   2.276   6.107 -1.8207  2.2576 -1.1888
 9412SOL    HW239870   1.559   2.270   6.002  0.1153  0.5758  2.3554
 9413SOL     OW39871   3.856   0.893   1.235  0.6729  0.1936  0.8041
 9413SOL    HW139872   3.797   0.928   1.168 -1.5649  0.9573  3.2040
 9413SOL    HW239873   3.915   0.969   1.236 -0.0251  0.7669 -0.2463
 9414SOL     OW39874   4.694   3.147  15.830  0.0391  0.8320 -1.1968
 9414SOL    HW139875   4.621   3.152  15.892  0.8738 -0.8140 -0.0381
 9414SOL    HW239876   0.024   3.117  15.889 -0.9933  0.6275 -0.0875
 9415SOL     OW39877   2.810   3.789   2.296  0.3108 -0.1427 -0.1143
 9415SOL    HW139878   2.717   3.804   2.313  0.7487  1.5896  0.7471
 9415SOL    HW239879   2.808   3.760   2.204  1.3754 -1.4761  0.2766
 9416SOL     OW39880   2.390   4.264  16.582 -0.3753 -0.5039 -0.8881
 9416SOL    HW139881   2.319   4.308  16.629  1.4584  0.5350  0.9353
 9416SOL    HW239882   2.458   4.284  16.647 -0.1954  0.3030 -1.3319
 9417SOL     OW39883   1.885   0.980   9.070  0.1089 -0.1953  0.2597
 9417SOL    HW139884   1.936   0.930   9.007 -0.1685 -0.3267  0.1359
 9417SOL    HW239885   1.938   1.059   9.080  0.0569 -0.2951  1.3331
 9418SOL     OW39886   1.903   4.685   7.951 -0.0065 -0.0869  0.1830
 9418SOL    HW139887   1.856   0.014   7.905  0.8302 -0.4611 -1.2287
 9418SOL    HW239888   1.953   4.659   7.873 -0.5396  1.0267 -0.5240
 9419SOL     OW39889   2.329   1.698   4.812  0.8509 -0.1710 -0.4495
 9419SOL    HW139890   2.362   1.770   4.866 -2.0594  0.3766  0.6171
 9419SOL    HW239891   2.237   1.724   4.817  1.0130  0.1459  0.8353
 9420SOL     OW39892   1.538   3.113   6.007 -0.8689  0.1821  0.6680
 9420SOL    HW139893   1.583   3.091   5.925  0.0072  1.8774  0.7074
 9420SOL    HW239894   1.510   3.027   6.037 -0.7204  0.5026  1.6954
 9421SOL     OW39895   0.025   0.003  11.559  0.5782 -0.1237  0.5886
 9421SOL    HW139896   0.019   4.714  11.467  0.2844  0.2999  0.4768
 9421SOL    HW239897   0.062   4.662  11.594 -1.6620 -2.5578 -2.5451
 9422SOL     OW39898   1.125   0.442   4.502  0.0265 -0.5859 -0.1884
 9422SOL    HW139899   1.139   0.376   4.435 -3.0113 -1.0490 -0.3678
 9422SOL    HW239900   1.214   0.477   4.507  0.1578 -0.7978 -1.0843
 9423SOL     OW39901   3.986   1.393   1.595  0.0788 -0.1295 -0.6690
 9423SOL    HW139902   3.961   1.455   1.664  2.4017  1.4340 -1.2245
 9423SOL    HW239903   4.081   1.403   1.583  0.2143  0.1079  0.5828
 9424SOL     OW39904   0.201   4.180   9.447  0.4204 -0.4938  0.5033
 9424SOL    HW139905   0.262   4.237   9.494 -1.6009  1.9085  0.2109
 9424SOL    HW239906   0.123   4.190   9.502  0.5429  3.4342 -0.0130
 9425SOL     OW39907   1.052   1.598   7.813  0.3574 -0.0854  0.0609
 9425SOL    HW139908   1.115   1.652   7.766  1.5605 -0.2675  1.4478
 9425SOL    HW239909   1.072   1.517   7.767  2.0778  0.3083  0.1293
 9426SOL     OW39910   1.194   3.476   2.877 -0.2369  0.0042  0.2490
 9426SOL    HW139911   1.239   3.543   2.825  0.1740 -0.5737 -0.1396
 9426SOL    HW239912   1.201   3.508   2.967  1.0204 -0.3529  0.2664
 9427SOL     OW39913   3.815   0.338  14.006  0.3591  0.1803  0.3647
 9427SOL    HW139914   3.780   0.387  14.080  2.3679  3.3351 -0.8160
 9427SOL    HW239915   3.778   0.250  14.020  1.4443  0.3341  4.1629
 9428SOL     OW39916   3.485   0.891   4.726 -0.1152 -0.6213  0.2086
 9428SOL    HW139917   3.397   0.859   4.706 -0.7278  1.5303 -0.5373
 9428SOL    HW239918   3.531   0.824   4.675  0.7487  0.2188 -0.1130
 9429SOL     OW39919   1.609   0.458   7.291 -0.4015  0.1864 -0.1797
 9429SOL    HW139920   1.545   0.501   7.348  0.1119  1.9136 -0.8968
 9429SOL    HW239921   1.551   0.401   7.240 -0.5672  1.9356 -1.9807
 9430SOL     OW39922   0.770   0.402   6.182 -0.5538 -0.0858  0.5240
 9430SOL    HW139923   0.806   0.410   6.270  1.1773  1.9189 -0.3578
 9430SOL    HW239924   0.827   0.334   6.147 -0.1002  1.2837 -1.3984
 9431SOL     OW39925   1.213   0.107   5.508 -0.5337 -0.3083  0.6472
 9431SOL    HW139926   1.271   0.105   5.432 -1.0071  1.2270  0.2481
 9431SOL    HW239927   1.143   0.049   5.476  1.8722 -2.9109  0.1266
 9432SOL     OW39928   0.694   2.938   3.570  0.6431  0.0463  0.2667
 9432SOL    HW139929   0.767   2.930   3.631  0.3066  0.2164  0.6857
 9432SOL    HW239930   0.725   2.997   3.501  0.1487  0.6746  0.5900
 9433SOL     OW39931   2.591   3.378  15.425  0.0282 -0.1422  0.0784
 9433SOL    HW139932   2.681   3.348  15.408 -0.5611 -1.1622 -1.3028
 9433SOL    HW239933   2.544   3.295  15.430  1.1920 -1.0828 -4.0358
 9434SOL     OW39934   2.449   2.155  10.193  0.6354  0.1190 -0.2625
 9434SOL    HW139935   2.515   2.090  10.170 -1.3132 -1.1160 -2.3253
 9434SOL    HW239936   2.377   2.093  10.184  1.4130 -0.9942  1.2940
 9435SOL     OW39937   3.658   0.485  15.484 -0.2550 -0.8971 -0.2465
 9435SOL    HW139938   3.589   0.444  15.537 -1.9319  0.2189 -1.5557
 9435SOL    HW239939   3.604   0.545  15.432  1.4172  1.3310  0.6180
 9436SOL     OW39940   0.412   4.324   8.436 -0.4928 -0.3098 -0.9804
 9436SOL    HW139941   0.411   4.409   8.480 -0.4534 -1.2156  0.7982
 9436SOL    HW239942   0.351   4.279   8.494  0.7828  0.2654  0.8336
 9437SOL     OW39943   4.414   0.328   6.380 -0.2486 -0.2733 -0.4270
 9437SOL    HW139944   4.482   0.265   6.404 -0.2830  0.4139  1.5102
 9437SOL    HW239945   4.336   0.278   6.407  0.4568 -1.2096 -0.1106
 9438SOL     OW39946   3.926   1.216  11.437 -0.2177 -0.4972  0.6014
 9438SOL    HW139947   3.842   1.257  11.419  0.1586  0.3992  0.8845
 9438SOL    HW239948   3.979   1.287  11.472 -0.8461  0.5984 -0.6959
 9439SOL     OW39949   2.880   0.218  10.079 -0.4646 -0.0492  0.7231
 9439SOL    HW139950   2.789   0.226  10.050 -0.1507  0.1521 -0.2073
 9439SOL    HW239951   2.872   0.188  10.169 -0.2452  0.0940  0.7888
 9440SOL     OW39952   1.291   3.937   5.989  0.1796 -0.6674  0.4300
 9440SOL    HW139953   1.375   3.892   5.993 -0.2955 -1.5231  0.7880
 9440SOL    HW239954   1.253   3.909   6.072  1.2377  4.5045  2.6806
 9441SOL     OW39955   3.091   1.499   5.534 -0.2240  0.3320 -0.1154
 9441SOL    HW139956   3.137   1.582   5.524  2.4646 -1.2689 -1.1267
 9441SOL    HW239957   3.155   1.428   5.522  1.6261  1.6352  2.0106
 9442SOL     OW39958   0.950   3.114   5.474 -0.1504  0.7239 -0.1683
 9442SOL    HW139959   0.937   3.120   5.569  0.4729 -1.7797  0.0757
 9442SOL    HW239960   0.893   3.041   5.449 -1.2795  1.4664  0.2651
 9443SOL     OW39961   0.413   2.488  10.224 -0.4697 -0.3876 -0.3347
 9443SOL    HW139962   0.369   2.562  10.181  0.7861  0.0454 -0.8620
 9443SOL    HW239963   0.503   2.508  10.199  0.2294 -2.1165  0.8274
 9444SOL     OW39964   2.077   2.256   9.518 -0.5205  0.6559  0.3209
 9444SOL    HW139965   2.023   2.334   9.528 -1.9559 -0.2693 -0.1807
 9444SOL    HW239966   2.153   2.299   9.480  0.3371 -2.6298 -1.7017
 9445SOL     OW39967   2.435   4.555   2.166 -0.4678 -0.2305  0.7523
 9445SOL    HW139968   2.435   4.648   2.143 -1.3287 -0.5282 -0.4360
 9445SOL    HW239969   2.347   4.540   2.131  0.5012 -0.9072 -1.3377
 9446SOL     OW39970   3.914   0.476   1.248  0.5319  0.2679 -0.3467
 9446SOL    HW139971   4.003   0.459   1.218  0.4454  2.0326 -1.6670
 9446SOL    HW239972   3.883   0.389   1.269  2.6692 -0.1383  1.0849
 9447SOL     OW39973   0.596   3.033   8.354  0.1876 -0.0706 -0.0398
 9447SOL    HW139974   0.509   3.048   8.317 -0.0477  1.5000  1.1650
 9447SOL    HW239975   0.581   2.984   8.434 -0.5649  0.8866  0.4058
 9448SOL     OW39976   4.165   1.041   3.290  0.1399 -0.2935  0.6178
 9448SOL    HW139977   4.252   1.039   3.250 -0.1766  1.1750 -0.1208
 9448SOL    HW239978   4.136   0.955   3.261  4.0562 -1.8998  1.4510
 9449SOL     OW39979   2.026   3.461   2.107 -0.0833  0.2489 -0.3910
 9449SOL    HW139980   2.030   3.501   2.020  2.8414  2.1592  0.6173
 9449SOL    HW239981   2.032   3.371   2.077  0.0246 -0.1724  0.8758
 9450SOL     OW39982   3.138   0.948   1.415  0.0610  0.4664 -0.0417
 9450SOL    HW139983   3.063   0.889   1.419 -0.0881  0.5954 -0.8251
 9450SOL    HW239984   3.141   0.973   1.322 -1.6650  1.6256  0.1999
 9451SOL     OW39985   2.629   3.006   3.137 -0.0446 -0.0032 -0.0963
 9451SOL    HW139986   2.603   3.096   3.121 -1.4867 -0.2669  0.7747
 9451SOL    HW239987   2.588   2.957   3.065 -0.0130  0.5184 -0.4703
 9452SOL     OW39988   0.783   0.825   7.384  0.3987  0.1993 -0.1836
 9452SOL    HW139989   0.793   0.892   7.317  0.5286 -1.5365 -1.9079
 9452SOL    HW239990   0.844   0.857   7.450 -1.1232 -1.9748  2.2696
 9453SOL     OW39991   2.181   4.137   3.464  0.4216 -0.1668 -0.2154
 9453SOL    HW139992   2.136   4.055   3.488  0.6180 -0.3502 -0.4769
 9453SOL    HW239993   2.220   4.115   3.380 -0.3141 -0.5245 -0.4609
 9454SOL     OW39994   0.567   2.750   0.093  0.5799  0.3156  0.3622
 9454SOL    HW139995   0.606   2.747   0.180  0.6913  0.2214  0.3085
 9454SOL    HW239996   0.641   2.770   0.036 -0.2181  3.1026  0.3151
 9455SOL     OW39997   4.711   0.112   3.761 -0.2385 -0.0615  0.1020
 9455SOL    HW139998   4.727   0.167   3.837  0.4239 -0.6730  0.4041
 9455SOL    HW239999   4.624   0.142   3.736  0.2917 -1.2341 -3.1576
 9456SOL     OW40000   3.097   0.940   9.512  0.1087 -0.3813  0.0898
 9456SOL    HW140001   3.159   0.979   9.574  2.0537 -1.3525 -1.2302
 9456SOL    HW240002   3.145   0.869   9.468  0.6362 -0.0442  0.1196
 9457SOL     OW40003   2.799   0.904   4.921  0.0173  0.6082  0.2114
 9457SOL    HW140004   2.742   0.866   4.853  1.0762  1.3006 -1.0619
 9457SOL    HW240005   2.853   0.962   4.867 -0.2265  1.9514  1.4269
 9458SOL     OW40006   4.627   3.156   7.797  0.1399  0.1437  0.0256
 9458SOL    HW140007   4.665   3.068   7.794  0.7856  0.4181  0.2848
 9458SOL    HW240008   4.567   3.145   7.870  2.1888 -0.1195  1.6753
 9459SOL     OW40009   2.433   4.329  14.993  0.0227 -0.4670 -0.4015
 9459SOL    HW140010   2.520   4.351  15.025  0.5006 -0.0249 -1.9745
 9459SOL    HW240011   2.381   4.354  15.069  0.1483  0.6067 -0.6565
 9460SOL     OW40012   2.564   3.087  16.398 -0.2778 -0.1339 -0.0129
 9460SOL    HW140013   2.497   3.117  16.336  0.7767  3.3482  0.5888
 9460SOL    HW240014   2.515   3.036  16.463 -1.6840 -1.2425 -1.9248
 9461SOL     OW40015   0.933   3.337   7.964 -0.0075  0.5791 -0.5401
 9461SOL    HW140016   0.930   3.257   8.017 -0.2949  0.8080 -0.2107
 9461SOL    HW240017   0.993   3.313   7.894 -0.2934 -1.9367  0.1080
 9462SOL     OW40018   1.626   0.995   6.868  1.2202 -0.0902  0.1959
 9462SOL    HW140019   1.691   1.015   6.934 -0.0339 -0.0138  1.4033
 9462SOL    HW240020   1.563   0.951   6.926 -0.6164  0.5153 -1.3099
 9463SOL     OW40021   0.238   0.776   5.206 -0.1408  0.4670  0.0785
 9463SOL    HW140022   0.205   0.718   5.274 -1.4712 -0.6300 -1.5111
 9463SOL    HW240023   0.333   0.780   5.220 -0.2119  2.7653 -0.1927
 9464SOL     OW40024   0.908   4.516  17.200 -0.0698 -0.3162 -0.0004
 9464SOL    HW140025   1.001   4.526  17.177  0.0311 -0.1494  0.4792
 9464SOL    HW240026   0.894   4.609  17.221  0.4421  0.2171 -1.9910
 9465SOL     OW40027   2.946   2.956   1.756  0.4515  0.0516 -0.3263
 9465SOL    HW140028   2.866   2.907   1.778  1.0832  0.2771  2.5278
 9465SOL    HW240029   2.924   3.019   1.826  0.8659  4.4820 -4.2082
 9466SOL     OW40030   0.995   4.196   8.432 -0.4222 -0.5139  0.1757
 9466SOL    HW140031   0.980   4.122   8.492  0.9029 -0.4899  0.5359
 9466SOL    HW240032   1.068   4.160   8.381 -0.5731 -1.8051  0.8736
 9467SOL     OW40033   1.058   3.366   9.291 -0.2290 -0.3714  0.1140
 9467SOL    HW140034   1.003   3.393   9.218  2.0304 -0.0831 -1.4698
 9467SOL    HW240035   1.121   3.437   9.305  1.0530 -1.4735 -0.0837
 9468SOL     OW40036   2.468   3.618   3.722 -0.2313 -0.7700 -0.2006
 9468SOL    HW140037   2.382   3.614   3.680  1.0099 -0.0006 -2.8096
 9468SOL    HW240038   2.457   3.624   3.817  0.0277 -0.0216 -0.2110
 9469SOL     OW40039   0.160   1.379   7.659  0.1439 -0.1010 -0.3966
 9469SOL    HW140040   0.201   1.437   7.723  2.3304  0.4336 -2.2528
 9469SOL    HW240041   0.087   1.348   7.712  0.0397 -1.2530 -1.2083
 9470SOL     OW40042   0.055   1.616   8.918  0.2712 -0.3433 -0.0296
 9470SOL    HW140043   0.134   1.574   8.953  0.2642 -0.8266 -0.5841
 9470SOL    HW240044   0.010   1.541   8.878 -0.4534 -0.6825  1.4322
 9471SOL     OW40045   0.660   3.581  11.091 -1.2002 -0.0924  0.1391
 9471SOL    HW140046   0.715   3.557  11.166  1.5469 -0.8569 -2.0892
 9471SOL    HW240047   0.643   3.674  11.104  1.6120  0.3961  0.3515
 9472SOL     OW40048   3.060   4.448   6.458 -0.0289 -0.6570 -0.2681
 9472SOL    HW140049   3.132   4.510   6.473  0.4740 -0.6401 -2.7473
 9472SOL    HW240050   3.084   4.402   6.378 -0.7622  1.2053 -1.5602
 9473SOL     OW40051   2.406   2.741  16.416  0.5527  0.1612 -0.1932
 9473SOL    HW140052   2.446   2.788  16.489 -0.7757 -0.2095  0.7595
 9473SOL    HW240053   2.316   2.760  16.440  0.1174 -0.8300 -1.0340
 9474SOL     OW40054   0.361   4.161   9.783  0.1747 -0.7793  0.5893
 9474SOL    HW140055   0.320   4.223   9.723 -1.7499 -3.6454 -1.0520
 9474SOL    HW240056   0.441   4.150   9.732  0.0855 -0.3575  0.3650
 9475SOL     OW40057   2.017   0.948   2.638  0.6686 -0.1647  0.4564
 9475SOL    HW140058   2.027   0.856   2.662  3.1887 -0.3232 -1.1574
 9475SOL    HW240059   2.111   0.967   2.639  0.4497  0.9536  0.0220
 9476SOL     OW40060   2.193   4.632   8.648  0.2235 -0.1259  0.1296
 9476SOL    HW140061   2.256   4.624   8.576  0.5189 -0.4164  0.4215
 9476SOL    HW240062   2.114   4.652   8.597 -0.9273  0.8504  2.2904
 9477SOL     OW40063   1.239   4.614   4.565 -0.6237  0.4874  0.1027
 9477SOL    HW140064   1.209   4.585   4.478  0.1653 -0.0596  0.0147
 9477SOL    HW240065   1.169   4.674   4.591 -0.1450  0.5056  1.3143
 9478SOL     OW40066   3.039   0.291   4.028  0.2728  0.2804 -0.3016
 9478SOL    HW140067   3.084   0.373   4.048  1.5315 -0.2611 -0.9195
 9478SOL    HW240068   3.091   0.224   4.072  0.4929  2.1262  2.2830
 9479SOL     OW40069   0.183   2.273   7.115 -0.1081  0.1347 -0.2046
 9479SOL    HW140070   0.153   2.347   7.168  0.7777 -0.3170  0.9214
 9479SOL    HW240071   0.148   2.202   7.169  0.3292 -0.0364 -0.1486
 9480SOL     OW40072   1.538   3.375   6.083 -0.0982 -0.3252 -0.1582
 9480SOL    HW140073   1.555   3.301   6.025  2.6696  0.6332 -0.5552
 9480SOL    HW240074   1.527   3.446   6.020  1.5755 -0.3941 -0.5297
 9481SOL     OW40075   0.409   4.309   7.842 -0.1187 -0.3660 -0.3706
 9481SOL    HW140076   0.477   4.348   7.898  1.1645 -1.0490 -1.4391
 9481SOL    HW240077   0.328   4.349   7.873  1.0167  0.3898  1.7015
 9482SOL     OW40078   3.990   2.339   6.095 -0.3151  0.0202 -0.1080
 9482SOL    HW140079   4.054   2.405   6.122  0.3063 -0.4238 -0.4738
 9482SOL    HW240080   4.040   2.275   6.043 -3.7156 -1.6648 -1.3172
 9483SOL     OW40081   1.328   3.298  10.914  0.0938  0.2905  0.2170
 9483SOL    HW140082   1.337   3.204  10.928 -0.6238  0.3483  1.0671
 9483SOL    HW240083   1.345   3.298  10.820  1.1561 -1.4672  0.4114
 9484SOL     OW40084   3.417   0.986   2.257  0.0974 -0.3792  0.4177
 9484SOL    HW140085   3.463   1.033   2.187 -1.8770  1.1254  0.1296
 9484SOL    HW240086   3.452   0.899   2.237  5.8486  2.1618 -0.6572
 9485SOL     OW40087   3.694   3.715   2.652 -0.3455  0.7509  0.0351
 9485SOL    HW140088   3.673   3.802   2.686 -2.3471  0.3267 -0.1483
 9485SOL    HW240089   3.628   3.702   2.584 -2.1255  1.6847  1.6057
 9486SOL     OW40090   0.625   1.571   8.545 -0.1836  0.5730 -0.3322
 9486SOL    HW140091   0.664   1.581   8.458  2.0524  2.1112  0.8429
 9486SOL    HW240092   0.675   1.625   8.606  1.3066 -1.5421  0.2928
 9487SOL     OW40093   0.268   1.612   2.458 -0.4372 -0.4097 -0.1044
 9487SOL    HW140094   0.253   1.651   2.544  0.7437 -0.5207  0.1491
 9487SOL    HW240095   0.337   1.660   2.414 -1.3006  0.6932 -0.2492
 9488SOL     OW40096   1.582   0.664   1.483 -0.3304  0.2114  0.9258
 9488SOL    HW140097   1.569   0.572   1.504 -2.9060  0.7681  1.7656
 9488SOL    HW240098   1.654   0.646   1.423 -0.0271  2.0183  0.7658
 9489SOL     OW40099   4.316   2.775   7.213 -0.6941 -0.5377 -0.0407
 9489SOL    HW140100   4.263   2.803   7.287 -0.2257 -1.2004  0.5546
 9489SOL    HW240101   4.324   2.679   7.211  0.6864 -0.4379  1.0445
 9490SOL     OW40102   3.496   0.611   5.594  0.2991  1.0844  0.1300
 9490SOL    HW140103   3.484   0.537   5.535 -0.5877  0.3287  1.2778
 9490SOL    HW240104   3.592   0.611   5.595  0.3127  0.3263 -0.7499
 9491SOL     OW40105   0.301   3.217   2.876 -0.6383  0.3632  0.3077
 9491SOL    HW140106   0.396   3.219   2.878 -0.6358  1.0779 -0.6440
 9491SOL    HW240107   0.294   3.169   2.794 -1.3709 -0.1105  0.6436
 9492SOL     OW40108   2.574   4.277  16.763 -0.0558 -1.0112  0.3098
 9492SOL    HW140109   2.632   4.206  16.789  0.2469 -0.8120  0.1791
 9492SOL    HW240110   2.571   4.325  16.845 -1.0648  1.7460 -1.3194
 9493SOL     OW40111   2.492   2.260   3.187  0.1546 -0.1266  0.3213
 9493SOL    HW140112   2.417   2.201   3.190 -0.4576  0.6600  0.2416
 9493SOL    HW240113   2.466   2.324   3.253  1.5231  0.3239  0.4352
 9494SOL     OW40114   2.885   3.316   1.808  0.4444  0.2821  0.0075
 9494SOL    HW140115   2.803   3.361   1.787  0.3337  0.8671  1.6494
 9494SOL    HW240116   2.950   3.371   1.765  0.5234  0.8384  0.8290
 9495SOL     OW40117   2.899   3.239   4.002 -0.4840  0.2823  0.2660
 9495SOL    HW140118   2.973   3.205   4.053 -0.9139 -0.0282  0.6776
 9495SOL    HW240119   2.827   3.234   4.064 -2.3644 -1.7717 -2.0996
 9496SOL     OW40120   1.638   1.970  16.027 -0.8239 -0.3193 -0.2149
 9496SOL    HW140121   1.693   2.012  16.094  1.6766 -2.3367 -0.9911
 9496SOL    HW240122   1.569   2.036  16.019 -0.5560 -0.0506 -0.2678
 9497SOL     OW40123   1.069   0.230  14.862 -0.1806 -0.1697 -0.2245
 9497SOL    HW140124   1.163   0.215  14.863  0.0365  1.3809  1.9508
 9497SOL    HW240125   1.051   0.219  14.955  1.6652 -1.3656 -0.0233
 9498SOL     OW40126   3.160   2.657   1.390  0.1664  0.0764 -0.2235
 9498SOL    HW140127   3.094   2.709   1.346  0.0112  0.3744  0.3523
 9498SOL    HW240128   3.206   2.606   1.323 -1.1390 -0.4665 -0.6998
 9499SOL     OW40129   3.232   3.097   1.881  0.2113 -0.0421 -0.2855
 9499SOL    HW140130   3.211   3.149   1.803  0.3584 -1.1695 -1.0668
 9499SOL    HW240131   3.206   3.008   1.859 -4.3125  0.9415  1.0346
 9500SOL     OW40132   4.389   1.296   4.964 -0.1379 -0.7315 -0.0084
 9500SOL    HW140133   4.389   1.381   4.920 -2.3065 -0.3752  0.6989
 9500SOL    HW240134   4.329   1.324   5.033 -2.9636 -0.3341 -2.6403
 9501SOL     OW40135   0.142   2.367   0.756 -0.1668  0.0375 -0.6613
 9501SOL    HW140136   0.226   2.413   0.763 -1.7848  2.2974  3.7981
 9501SOL    HW240137   0.139   2.307   0.830  0.2350  1.2511  0.3278
 9502SOL     OW40138   2.248   2.045   6.172  0.1373 -0.5187  0.0135
 9502SOL    HW140139   2.232   2.072   6.262 -0.7401 -1.1483  0.0454
 9502SOL    HW240140   2.336   2.078   6.156  0.7971 -2.0284  0.5780
 9503SOL     OW40141   4.274   3.130   9.080  0.7651 -0.4381  0.0313
 9503SOL    HW140142   4.286   3.210   9.131  0.9373 -0.1011 -0.5359
 9503SOL    HW240143   4.219   3.166   9.011 -0.4055 -0.6546  0.8564
 9504SOL     OW40144   0.598   0.639   7.127 -0.3022 -0.4398 -0.2289
 9504SOL    HW140145   0.523   0.674   7.175  0.4059  2.0907 -0.9464
 9504SOL    HW240146   0.578   0.545   7.124  0.1788 -0.5263 -0.9257
 9505SOL     OW40147   3.033   2.077   9.420  0.7508 -0.0960 -0.1619
 9505SOL    HW140148   3.128   2.085   9.415  0.7296 -0.6034 -1.5764
 9505SOL    HW240149   3.017   1.992   9.379  0.7030 -0.3958  0.4860
 9506SOL     OW40150   1.511   3.681   5.985 -0.1183  0.6069  0.3562
 9506SOL    HW140151   1.583   3.704   6.043 -1.3340  0.0426  2.1000
 9506SOL    HW240152   1.554   3.693   5.901  1.5474 -1.3041  0.9163
 9507SOL     OW40153   4.674   4.697   9.295  0.1202 -0.1405  0.1787
 9507SOL    HW140154   4.609   4.647   9.343 -0.5702 -0.9114 -1.5508
 9507SOL    HW240155   4.716   4.738   9.371 -1.6870  0.1259  1.0306
 9508SOL     OW40156   2.305   2.012   4.819  0.1996 -0.4956  0.1037
 9508SOL    HW140157   2.301   1.984   4.727  1.5167 -0.8734  0.1589
 9508SOL    HW240158   2.395   2.043   4.821  1.0142 -2.9132  1.0774
 9509SOL     OW40159   1.406   2.644   3.246  0.3980  1.1473  0.2567
 9509SOL    HW140160   1.406   2.691   3.329  0.7406 -0.0724  0.9490
 9509SOL    HW240161   1.475   2.696   3.206 -0.1969  0.4864 -1.6215
 9510SOL     OW40162   4.304   0.075   7.851  0.4697 -0.6329 -0.4353
 9510SOL    HW140163   4.334   0.165   7.839  0.1867 -0.3199  1.2654
 9510SOL    HW240164   4.357   0.047   7.925 -0.2940  1.0578  0.7510
 9511SOL     OW40165   3.855   1.151   4.118  0.1217 -0.2229  0.6201
 9511SOL    HW140166   3.872   1.066   4.078 -2.1790 -0.5982  0.4508
 9511SOL    HW240167   3.919   1.200   4.067  0.5188 -2.7853 -1.3254
 9512SOL     OW40168   0.572   4.669   6.892 -0.2114 -0.1553  0.4979
 9512SOL    HW140169   0.567   4.584   6.935  2.9705 -0.6905 -0.1846
 9512SOL    HW240170   0.487   4.711   6.905 -1.0444 -2.2649  1.8495
 9513SOL     OW40171   1.331   0.291   3.903  0.4094  0.5274 -0.2935
 9513SOL    HW140172   1.388   0.309   3.978  0.7709 -0.9542 -0.2186
 9513SOL    HW240173   1.251   0.328   3.940  0.2853  1.3418 -1.3853
 9514SOL     OW40174   2.930   2.173   0.654  0.1489 -0.0635 -0.1555
 9514SOL    HW140175   2.870   2.107   0.620  1.4646 -0.3290 -1.9448
 9514SOL    HW240176   2.874   2.245   0.626  0.4984  0.1056 -0.4303
 9515SOL     OW40177   2.318   0.941  13.390 -0.3865 -0.3480 -0.6843
 9515SOL    HW140178   2.353   1.028  13.408  3.7832 -2.0083 -0.6429
 9515SOL    HW240179   2.315   0.906  13.479 -0.1961 -2.1556 -1.3884
 9516SOL     OW40180   0.477   1.150   1.564  0.3495 -0.3597 -0.0621
 9516SOL    HW140181   0.386   1.142   1.592  0.3321 -0.9501 -0.2904
 9516SOL    HW240182   0.505   1.060   1.583  0.2188 -0.1419  1.1943
 9517SOL     OW40183   2.330   4.454   2.433 -0.3623 -0.0272  0.0942
 9517SOL    HW140184   2.237   4.473   2.446 -0.7856 -1.1092 -1.3392
 9517SOL    HW240185   2.347   4.498   2.350 -0.5074 -1.7069 -0.8218
 9518SOL     OW40186   0.225   0.534   3.496 -0.3816 -1.0967 -0.2282
 9518SOL    HW140187   0.280   0.459   3.474  0.5590  0.2098 -2.3102
 9518SOL    HW240188   0.256   0.580   3.418  0.7020  0.1514  0.9339
 9519SOL     OW40189   1.114   2.582   8.502  0.0747 -0.0396 -0.1895
 9519SOL    HW140190   1.144   2.576   8.593  1.5052  0.0007 -0.6591
 9519SOL    HW240191   1.033   2.633   8.511  1.9258  2.9984 -0.7913
 9520SOL     OW40192   3.982   2.676   2.783 -0.4966 -0.4775  0.3969
 9520SOL    HW140193   3.987   2.728   2.863  1.7516 -0.6294  0.3613
 9520SOL    HW240194   4.060   2.694   2.730 -0.7321  1.0384  0.5597
 9521SOL     OW40195   1.937   1.070  17.149  0.0816 -0.1218  0.2302
 9521SOL    HW140196   1.901   0.984  17.173  0.7568 -0.5167 -0.1700
 9521SOL    HW240197   2.025   1.055  17.114 -0.2463  1.6701 -1.3457
 9522SOL     OW40198   4.102   2.399  16.854 -0.8973 -0.1694  0.4344
 9522SOL    HW140199   4.099   2.314  16.899  0.7354 -0.0374  0.7612
 9522SOL    HW240200   4.035   2.379  16.787  0.7704 -1.1190 -0.9469
 9523SOL     OW40201   2.396   2.808   7.852 -0.0761 -0.1270 -0.3206
 9523SOL    HW140202   2.322   2.786   7.796  0.2538 -2.1311  0.0477
 9523SOL    HW240203   2.453   2.844   7.783  0.6768  3.8379  2.3560
 9524SOL     OW40204   1.345   0.501   2.685 -0.1168  0.7402  0.0031
 9524SOL    HW140205   1.274   0.474   2.743 -0.5918 -0.0059 -0.9248
 9524SOL    HW240206   1.376   0.414   2.660 -1.0393  0.8992 -1.7253
 9525SOL     OW40207   2.495   1.251   2.164  0.1774  0.0749  0.1201
 9525SOL    HW140208   2.523   1.291   2.246  1.2364 -1.3478  0.4416
 9525SOL    HW240209   2.445   1.179   2.202  0.1335 -0.3574 -0.7620
 9526SOL     OW40210   1.852   0.863   2.256 -0.4962 -0.1865 -0.2797
 9526SOL    HW140211   1.854   0.879   2.162  0.4383  0.9476 -0.0741
 9526SOL    HW240212   1.810   0.778   2.240  0.2223 -0.5695 -0.1149
 9527SOL     OW40213   4.395   0.692   9.472 -0.5741 -0.4062 -0.1938
 9527SOL    HW140214   4.326   0.648   9.521 -3.3968  3.6277 -0.5225
 9527SOL    HW240215   4.347   0.731   9.399 -2.4852 -0.4561  1.0171
 9528SOL     OW40216   2.061   0.581  12.505 -0.0752  0.0139  0.1758
 9528SOL    HW140217   2.024   0.631  12.433  1.2877  1.1336  0.2431
 9528SOL    HW240218   1.988   0.532  12.542  0.4776 -1.5515 -0.7997
 9529SOL     OW40219   0.923   3.979   2.892 -0.1396 -0.1255 -0.3411
 9529SOL    HW140220   0.953   4.029   2.816  0.8080  2.3704  1.6985
 9529SOL    HW240221   0.983   4.008   2.960 -0.4201  1.4475 -0.7501
 9530SOL     OW40222   2.682   1.833   6.178  0.2466  0.5960  0.3351
 9530SOL    HW140223   2.764   1.833   6.128 -0.0367  2.8814 -0.1259
 9530SOL    HW240224   2.674   1.739   6.192 -1.1098  0.8842  1.4547
 9531SOL     OW40225   1.955   2.602   7.617  0.1467 -0.2131 -0.9165
 9531SOL    HW140226   2.025   2.538   7.631  0.7879  0.6591 -0.0928
 9531SOL    HW240227   1.905   2.552   7.553  0.9420 -0.5596 -1.2683
 9532SOL     OW40228   0.489   3.147   6.892  0.8911 -0.0302 -0.4867
 9532SOL    HW140229   0.568   3.132   6.841  3.2622 -0.7259  3.3885
 9532SOL    HW240230   0.496   3.241   6.910  0.3633  0.2391 -1.7252
 9533SOL     OW40231   2.655   1.587  17.076 -0.5806  0.2148  0.4476
 9533SOL    HW140232   2.711   1.592  16.998 -2.8920  0.2950 -1.2164
 9533SOL    HW240233   2.616   1.674  17.067  1.7060  0.8833 -3.0103
 9534SOL     OW40234   0.230   2.960   1.431  0.7558 -0.0394 -0.4454
 9534SOL    HW140235   0.180   3.040   1.413 -1.1744 -1.2119 -0.3343
 9534SOL    HW240236   0.219   2.917   1.346  1.3168 -0.1659 -0.4526
 9535SOL     OW40237   2.009   2.800   9.974  0.0149  0.2070  0.5281
 9535SOL    HW140238   2.045   2.728  10.025 -1.1358 -0.1636  0.8267
 9535SOL    HW240239   1.925   2.774   9.936 -0.2263  3.0466 -0.8895
 9536SOL     OW40240   1.828   3.847   2.171 -0.1547  0.3267 -0.4462
 9536SOL    HW140241   1.861   3.853   2.082 -0.1349 -0.3972 -0.4867
 9536SOL    HW240242   1.883   3.775   2.202 -0.7058 -0.3904 -1.1131
 9537SOL     OW40243   0.022   1.475   7.253  0.2537 -0.1821 -0.0187
 9537SOL    HW140244   0.102   1.483   7.200  0.1548 -2.3101 -0.4895
 9537SOL    HW240245   0.006   1.569   7.265  0.4892  0.1030 -1.9111
 9538SOL     OW40246   2.643   2.778   5.927 -0.3241 -0.0523  0.2593
 9538SOL    HW140247   2.673   2.847   5.867  1.5710 -1.4035 -0.3345
 9538SOL    HW240248   2.551   2.773   5.901 -0.6117  0.8646  1.1086
 9539SOL     OW40249   0.421   1.266  12.099  0.0000  0.1565 -0.0895
 9539SOL    HW140250   0.355   1.296  12.036  1.2244 -1.4564 -2.1420
 9539SOL    HW240251   0.466   1.349  12.111 -1.9438  1.1668  0.2059
 9540SOL     OW40252   0.913   0.315   5.439 -0.6099 -0.3274 -0.1821
 9540SOL    HW140253   0.820   0.293   5.425 -0.6131  0.2767 -1.0632
 9540SOL    HW240254   0.953   0.231   5.414 -1.3600 -0.8911  0.5196
 9541SOL     OW40255   0.438   3.474   1.326  0.4007 -0.4029  0.5128
 9541SOL    HW140256   0.354   3.497   1.287  0.2580 -0.8192  0.5878
 9541SOL    HW240257   0.406   3.435   1.406 -1.4897 -1.3399 -0.7000
 9542SOL     OW40258   2.825   4.142  11.006 -0.4343  0.2246 -0.3758
 9542SOL    HW140259   2.758   4.101  11.061  0.8773  0.8209  1.6573
 9542SOL    HW240260   2.859   4.066  10.960 -2.2667 -1.9015  1.8364
 9543SOL     OW40261   0.607   0.656   1.601  0.3783  0.2118 -0.1701
 9543SOL    HW140262   0.605   0.741   1.558  1.9410  1.3613  2.0775
 9543SOL    HW240263   0.588   0.689   1.689 -0.4175  1.2035 -0.7122
 9544SOL     OW40264   3.042   3.151   7.204  0.3161  0.0712  0.1418
 9544SOL    HW140265   3.049   3.165   7.299  0.7220 -0.0974  0.1371
 9544SOL    HW240266   3.109   3.209   7.169  0.2068 -0.4934 -0.9867
 9545SOL     OW40267   3.941   0.423   8.903  0.6286  0.8046  0.1528
 9545SOL    HW140268   3.904   0.415   8.991  0.5619  2.0249  0.2381
 9545SOL    HW240269   3.905   0.509   8.881 -1.5834 -0.5864 -1.6736
 9546SOL     OW40270   2.367   1.127   8.740  0.0418  0.4247  0.2301
 9546SOL    HW140271   2.447   1.178   8.747 -0.1554  1.0614 -2.1394
 9546SOL    HW240272   2.364   1.117   8.644 -1.2844 -1.8949  0.5008
 9547SOL     OW40273   2.385   0.830   2.100 -0.3559  0.1559  0.1013
 9547SOL    HW140274   2.373   0.883   2.021  1.8929 -0.1417 -0.4324
 9547SOL    HW240275   2.372   0.898   2.166  1.1933  0.2384  0.3127
 9548SOL     OW40276   3.559   4.196   3.274  0.2489  0.4324  0.2959
 9548SOL    HW140277   3.548   4.187   3.369  0.4656 -1.4272  0.1390
 9548SOL    HW240278   3.562   4.291   3.262  3.7734  0.0751 -1.7489
 9549SOL     OW40279   1.183   0.235   0.002 -0.0211  0.7911  0.0950
 9549SOL    HW140280   1.174   0.170   0.072 -2.0317 -1.5579 -2.3759
 9549SOL    HW240281   1.177   0.315   0.053 -0.3482 -0.5147  2.1415
 9550SOL     OW40282   3.676   1.423   5.380 -0.1464 -0.7891  0.1374
 9550SOL    HW140283   3.726   1.407   5.459  0.8072  0.2078 -0.2561
 9550SOL    HW240284   3.657   1.517   5.390 -1.9790 -1.3694  2.0806
 9551SOL     OW40285   3.646   4.240   7.834  0.0598 -0.3850  0.3156
 9551SOL    HW140286   3.621   4.148   7.837 -4.1131  0.7765  1.3837
 9551SOL    HW240287   3.581   4.274   7.896 -0.3556  0.3296 -0.5043
 9552SOL     OW40288   1.386   2.713   2.525  0.2536  1.0027 -0.1461
 9552SOL    HW140289   1.339   2.689   2.605 -0.5620  1.1448 -0.5794
 9552SOL    HW240290   1.468   2.746   2.561  0.0116  2.0874 -0.5812
 9553SOL     OW40291   3.134   3.714  11.466  0.2134 -0.3475 -0.1787
 9553SOL    HW140292   3.172   3.734  11.380  1.9987 -1.2595  0.3971
 9553SOL    HW240293   3.128   3.805  11.495  0.6214 -0.4239  0.1565
 9554SOL     OW40294   1.430   2.880   5.627  0.1978  0.2747  0.2124
 9554SOL    HW140295   1.454   2.871   5.535 -0.6614  1.4580 -0.1315
 9554SOL    HW240296   1.369   2.954   5.619  1.2673  1.0509 -0.7596
 9555SOL     OW40297   4.326   1.222   3.734  0.2105  0.3324  0.0947
 9555SOL    HW140298   4.264   1.211   3.662  1.0140 -0.9484 -0.4120
 9555SOL    HW240299   4.351   1.315   3.739 -1.4265  0.6864  1.7394
 9556SOL     OW40300   4.284   4.667   6.283  0.0969  0.5110  0.1317
 9556SOL    HW140301   4.335   4.731   6.233  0.7181 -0.2906 -0.2671
 9556SOL    HW240302   4.328   4.663   6.368 -0.8510 -3.7271  0.4241
 9557SOL     OW40303   1.192   0.449  12.096 -0.0807 -0.5114  0.2422
 9557SOL    HW140304   1.202   0.451  12.191 -1.1694  0.9183  0.3262
 9557SOL    HW240305   1.110   0.495  12.083 -0.0591 -0.6920 -0.5155
 9558SOL     OW40306   0.698   2.322   5.454 -0.8126 -0.3125  0.1148
 9558SOL    HW140307   0.727   2.373   5.378 -0.6288 -2.1376 -1.0345
 9558SOL    HW240308   0.767   2.329   5.520 -2.8036  1.3076  1.9996
 9559SOL     OW40309   3.090   2.764   4.853  0.2147 -0.0968  0.0651
 9559SOL    HW140310   3.064   2.856   4.860  0.6063  0.1940 -2.4223
 9559SOL    HW240311   3.081   2.737   4.944  0.4049 -1.3381 -0.2799
 9560SOL     OW40312   4.612   1.680  13.749  0.3745 -0.0079  0.4021
 9560SOL    HW140313   4.535   1.662  13.695  0.7710 -2.7008  0.6961
 9560SOL    HW240314   4.615   1.775  13.747 -2.2414  0.0689 -0.1154
 9561SOL     OW40315   2.496   1.998   0.450 -0.2885 -0.2911  0.1457
 9561SOL    HW140316   2.542   1.934   0.394  0.1381 -0.2652  0.4694
 9561SOL    HW240317   2.550   2.075   0.433 -2.6088  1.1625 -0.5623
 9562SOL     OW40318   2.847   4.306  14.926 -0.1314  0.4278 -0.2670
 9562SOL    HW140319   2.785   4.302  14.999  0.3371  1.4891  0.1828
 9562SOL    HW240320   2.837   4.399  14.907 -1.0708  0.1460 -1.1269
 9563SOL     OW40321   3.615   2.208  15.989 -0.8796  0.7511 -0.3063
 9563SOL    HW140322   3.669   2.287  15.978  0.0204  0.1737 -0.0301
 9563SOL    HW240323   3.688   2.149  16.010 -1.4455  1.0466  2.4136
 9564SOL     OW40324   2.135   4.077  16.615  0.0956 -0.2106  0.2818
 9564SOL    HW140325   2.192   4.082  16.691  1.0278  2.6439 -0.5885
 9564SOL    HW240326   2.057   4.037  16.653 -1.5920  1.4245 -1.4375
 9565SOL     OW40327   3.135   3.179   5.238 -0.4926  0.0012 -0.0948
 9565SOL    HW140328   3.180   3.212   5.161 -0.8913 -0.2012 -0.4107
 9565SOL    HW240329   3.186   3.222   5.306  1.4255 -1.4979 -0.5922
 9566SOL     OW40330   1.544   4.328   6.432 -0.1532  0.6793 -0.0620
 9566SOL    HW140331   1.562   4.395   6.499  1.3438 -1.3340  1.5698
 9566SOL    HW240332   1.615   4.268   6.456 -0.2124  1.5556  2.3412
 9567SOL     OW40333   0.182   3.915   6.079 -0.3009 -0.3493  0.4631
 9567SOL    HW140334   0.217   3.906   5.990 -0.9029 -0.2422  0.2113
 9567SOL    HW240335   0.103   3.860   6.077 -0.1987 -0.4397 -1.3535
 9568SOL     OW40336   0.992   3.802  15.710 -0.0046 -0.1798  0.5507
 9568SOL    HW140337   1.065   3.858  15.736 -1.8702  0.7324  3.8315
 9568SOL    HW240338   0.913   3.840  15.749 -1.8117 -2.2209 -1.1487
 9569SOL     OW40339   4.209   3.110   6.161 -0.2274  0.2635  0.1394
 9569SOL    HW140340   4.257   3.113   6.079 -0.5467  0.2647 -0.0443
 9569SOL    HW240341   4.229   3.191   6.209  0.3167  0.9042 -1.1689
 9570SOL     OW40342   4.172   3.912   7.059 -0.6356  0.2906  0.6032
 9570SOL    HW140343   4.191   3.836   7.115  0.6759 -0.1939 -0.4691
 9570SOL    HW240344   4.210   3.982   7.112  1.7898 -0.2186 -0.4257
 9571SOL     OW40345   1.593   3.948   6.600 -0.3238 -0.1344  0.3669
 9571SOL    HW140346   1.645   4.015   6.556  0.3504  0.0623  1.4605
 9571SOL    HW240347   1.653   3.922   6.670  0.3755  1.3059  0.3025
   4.73951   4.73951  17.75576
